 Entering Gaussian System, Link 0=g16
 Input=2,2prime,3,5prime,6-Pentachlorobiphenyl1.gjf
 Output=2,2prime,3,5prime,6-Pentachlorobiphenyl1.log
 Initial command:
 /home/apps/g16/l1.exe "./Gau-160409.inp" -scrdir="./"
 Entering Link 1 = /home/apps/g16/l1.exe PID=    160410.
  
 Copyright (c) 1988-2017, Gaussian, Inc.  All Rights Reserved.
  
 This is part of the Gaussian(R) 16 program.  It is based on
 the Gaussian(R) 09 system (copyright 2009, Gaussian, Inc.),
 the Gaussian(R) 03 system (copyright 2003, Gaussian, Inc.),
 the Gaussian(R) 98 system (copyright 1998, Gaussian, Inc.),
 the Gaussian(R) 94 system (copyright 1995, Gaussian, Inc.),
 the Gaussian 92(TM) system (copyright 1992, Gaussian, Inc.),
 the Gaussian 90(TM) system (copyright 1990, Gaussian, Inc.),
 the Gaussian 88(TM) system (copyright 1988, Gaussian, Inc.),
 the Gaussian 86(TM) system (copyright 1986, Carnegie Mellon
 University), and the Gaussian 82(TM) system (copyright 1983,
 Carnegie Mellon University). Gaussian is a federally registered
 trademark of Gaussian, Inc.
  
 This software contains proprietary and confidential information,
 including trade secrets, belonging to Gaussian, Inc.
  
 This software is provided under written license and may be
 used, copied, transmitted, or stored only in accord with that
 written license.
  
 The following legend is applicable only to US Government
 contracts under FAR:
  
                    RESTRICTED RIGHTS LEGEND
  
 Use, reproduction and disclosure by the US Government is
 subject to restrictions as set forth in subparagraphs (a)
 and (c) of the Commercial Computer Software - Restricted
 Rights clause in FAR 52.227-19.
  
 Gaussian, Inc.
 340 Quinnipiac St., Bldg. 40, Wallingford CT 06492
  
  
 ---------------------------------------------------------------
 Warning -- This program may not be used in any manner that
 competes with the business of Gaussian, Inc. or will provide
 assistance to any competitor of Gaussian, Inc.  The licensee
 of this program is prohibited from giving any competitor of
 Gaussian, Inc. access to this program.  By using this program,
 the user acknowledges that Gaussian, Inc. is engaged in the
 business of creating and licensing software in the field of
 computational chemistry and represents and warrants to the
 licensee that it is not a competitor of Gaussian, Inc. and that
 it will not use this program in any manner prohibited above.
 ---------------------------------------------------------------
  

 Cite this work as:
 Gaussian 16, Revision B.01,
 M. J. Frisch, G. W. Trucks, H. B. Schlegel, G. E. Scuseria, 
 M. A. Robb, J. R. Cheeseman, G. Scalmani, V. Barone, 
 G. A. Petersson, H. Nakatsuji, X. Li, M. Caricato, A. V. Marenich, 
 J. Bloino, B. G. Janesko, R. Gomperts, B. Mennucci, H. P. Hratchian, 
 J. V. Ortiz, A. F. Izmaylov, J. L. Sonnenberg, D. Williams-Young, 
 F. Ding, F. Lipparini, F. Egidi, J. Goings, B. Peng, A. Petrone, 
 T. Henderson, D. Ranasinghe, V. G. Zakrzewski, J. Gao, N. Rega, 
 G. Zheng, W. Liang, M. Hada, M. Ehara, K. Toyota, R. Fukuda, 
 J. Hasegawa, M. Ishida, T. Nakajima, Y. Honda, O. Kitao, H. Nakai, 
 T. Vreven, K. Throssell, J. A. Montgomery, Jr., J. E. Peralta, 
 F. Ogliaro, M. J. Bearpark, J. J. Heyd, E. N. Brothers, K. N. Kudin, 
 V. N. Staroverov, T. A. Keith, R. Kobayashi, J. Normand, 
 K. Raghavachari, A. P. Rendell, J. C. Burant, S. S. Iyengar, 
 J. Tomasi, M. Cossi, J. M. Millam, M. Klene, C. Adamo, R. Cammi, 
 J. W. Ochterski, R. L. Martin, K. Morokuma, O. Farkas, 
 J. B. Foresman, and D. J. Fox, Gaussian, Inc., Wallingford CT, 2016.
 
 ******************************************
 Gaussian 16:  EM64L-G16RevB.01 20-Dec-2017
                22-Apr-2022 
 ******************************************
 %mem=48GB
 %nprocshared=16
 Will use up to   16 processors via shared memory.
 --------------------------------
 # opt b3lyp/6-311+g(d,p) scf=xqc
 --------------------------------
 1/18=20,19=15,26=3,38=1/1,3;
 2/9=110,12=2,17=6,18=5,40=1/2;
 3/5=4,6=6,7=111,11=2,25=1,30=1,71=1,74=-5/1,2,3;
 4//1;
 5/5=2,8=3,13=1,38=5/2,8;
 6/7=2,8=2,9=2,10=2,28=1/1;
 7//1,2,3,16;
 1/18=20,19=15,26=3/3(2);
 2/9=110/2;
 99//99;
 2/9=110/2;
 3/5=4,6=6,7=111,11=2,25=1,30=1,71=1,74=-5/1,2,3;
 4/5=5,16=3,69=1/1;
 5/5=2,8=3,13=1,38=5/2,8;
 7//1,2,3,16;
 1/18=20,19=15,26=3/3(-5);
 2/9=110/2;
 6/7=2,8=2,9=2,10=2,19=2,28=1/1;
 99/9=1/99;
 -------------------
 Title Card Required
 -------------------
 Symbolic Z-matrix:
 Charge =  0 Multiplicity = 1
 C                     1.12573   0.63983  -0.00392 
 C                     2.45811   0.66971  -0.43726 
 C                     3.16601   1.87916  -0.44333 
 C                     2.54152   3.05873  -0.01606 
 C                     1.20914   3.02884   0.41728 
 C                     0.50124   1.81939   0.42336 
 C                     0.09956  -1.11342   0.00489 
 C                     0.72404  -2.29298  -0.42239 
 C                     0.01615  -3.50244  -0.41631 
 C                    -1.31623  -3.53232   0.01704 
 C                    -1.94072  -2.35276   0.44431 
 C                    -1.23282  -1.14331   0.43824 
 H                     2.93492  -0.23091  -0.76349 
 H                     3.08201   3.98217  -0.0207 
 H                     0.73233   3.92947   0.74352 
 H                     0.49296  -4.40306  -0.74255 
 H                    -1.85672  -4.45577   0.02168 
 Cl                   -2.01711   0.33809   0.97485 
 Cl                   -1.17208   1.78186   0.96759 
 Cl                   -3.61404  -2.39029   0.98855 
 Cl                    2.39736  -2.25545  -0.96662 
 Cl                    4.83933   1.9167   -0.98757 
 

 GradGradGradGradGradGradGradGradGradGradGradGradGradGradGradGradGradGrad
 Berny optimization.
 Initialization pass.
                           ----------------------------
                           !    Initial Parameters    !
                           ! (Angstroms and Degrees)  !
 --------------------------                            --------------------------
 ! Name  Definition              Value          Derivative Info.                !
 --------------------------------------------------------------------------------
 ! R1    R(1,2)                  1.4014         estimate D2E/DX2                !
 ! R2    R(1,6)                  1.4014         estimate D2E/DX2                !
 ! R3    R(2,3)                  1.4014         estimate D2E/DX2                !
 ! R4    R(2,13)                 1.07           estimate D2E/DX2                !
 ! R5    R(3,4)                  1.4014         estimate D2E/DX2                !
 ! R6    R(3,22)                 1.76           estimate D2E/DX2                !
 ! R7    R(4,5)                  1.4014         estimate D2E/DX2                !
 ! R8    R(4,14)                 1.07           estimate D2E/DX2                !
 ! R9    R(5,6)                  1.4014         estimate D2E/DX2                !
 ! R10   R(5,15)                 1.07           estimate D2E/DX2                !
 ! R11   R(6,19)                 1.76           estimate D2E/DX2                !
 ! R12   R(7,8)                  1.4014         estimate D2E/DX2                !
 ! R13   R(7,12)                 1.4014         estimate D2E/DX2                !
 ! R14   R(8,9)                  1.4014         estimate D2E/DX2                !
 ! R15   R(8,21)                 1.76           estimate D2E/DX2                !
 ! R16   R(9,10)                 1.4014         estimate D2E/DX2                !
 ! R17   R(9,16)                 1.07           estimate D2E/DX2                !
 ! R18   R(10,11)                1.4014         estimate D2E/DX2                !
 ! R19   R(10,17)                1.07           estimate D2E/DX2                !
 ! R20   R(11,12)                1.4014         estimate D2E/DX2                !
 ! R21   R(11,20)                1.76           estimate D2E/DX2                !
 ! R22   R(12,18)                1.76           estimate D2E/DX2                !
 ! R23   R(18,19)                1.6729         estimate D2E/DX2                !
 ! A1    A(2,1,6)              120.0            estimate D2E/DX2                !
 ! A2    A(1,2,3)              120.0            estimate D2E/DX2                !
 ! A3    A(1,2,13)             120.0            estimate D2E/DX2                !
 ! A4    A(3,2,13)             120.0            estimate D2E/DX2                !
 ! A5    A(2,3,4)              120.0            estimate D2E/DX2                !
 ! A6    A(2,3,22)             120.0            estimate D2E/DX2                !
 ! A7    A(4,3,22)             120.0            estimate D2E/DX2                !
 ! A8    A(3,4,5)              120.0            estimate D2E/DX2                !
 ! A9    A(3,4,14)             120.0            estimate D2E/DX2                !
 ! A10   A(5,4,14)             120.0            estimate D2E/DX2                !
 ! A11   A(4,5,6)              120.0            estimate D2E/DX2                !
 ! A12   A(4,5,15)             120.0            estimate D2E/DX2                !
 ! A13   A(6,5,15)             120.0            estimate D2E/DX2                !
 ! A14   A(1,6,5)              120.0            estimate D2E/DX2                !
 ! A15   A(1,6,19)             120.0            estimate D2E/DX2                !
 ! A16   A(5,6,19)             120.0            estimate D2E/DX2                !
 ! A17   A(8,7,12)             120.0            estimate D2E/DX2                !
 ! A18   A(7,8,9)              120.0            estimate D2E/DX2                !
 ! A19   A(7,8,21)             120.0            estimate D2E/DX2                !
 ! A20   A(9,8,21)             120.0            estimate D2E/DX2                !
 ! A21   A(8,9,10)             120.0            estimate D2E/DX2                !
 ! A22   A(8,9,16)             120.0            estimate D2E/DX2                !
 ! A23   A(10,9,16)            120.0            estimate D2E/DX2                !
 ! A24   A(9,10,11)            120.0            estimate D2E/DX2                !
 ! A25   A(9,10,17)            120.0            estimate D2E/DX2                !
 ! A26   A(11,10,17)           120.0            estimate D2E/DX2                !
 ! A27   A(10,11,12)           120.0            estimate D2E/DX2                !
 ! A28   A(10,11,20)           120.0            estimate D2E/DX2                !
 ! A29   A(12,11,20)           120.0            estimate D2E/DX2                !
 ! A30   A(7,12,11)            120.0            estimate D2E/DX2                !
 ! A31   A(7,12,18)            120.0            estimate D2E/DX2                !
 ! A32   A(11,12,18)           120.0            estimate D2E/DX2                !
 ! A33   A(12,18,19)           120.0            estimate D2E/DX2                !
 ! A34   A(6,19,18)            120.0            estimate D2E/DX2                !
 ! D1    D(6,1,2,3)              0.0001         estimate D2E/DX2                !
 ! D2    D(6,1,2,13)           180.0            estimate D2E/DX2                !
 ! D3    D(2,1,6,5)             -0.0001         estimate D2E/DX2                !
 ! D4    D(2,1,6,19)           180.0            estimate D2E/DX2                !
 ! D5    D(1,2,3,4)              0.0            estimate D2E/DX2                !
 ! D6    D(1,2,3,22)           180.0            estimate D2E/DX2                !
 ! D7    D(13,2,3,4)          -179.9999         estimate D2E/DX2                !
 ! D8    D(13,2,3,22)            0.0001         estimate D2E/DX2                !
 ! D9    D(2,3,4,5)             -0.0001         estimate D2E/DX2                !
 ! D10   D(2,3,4,14)           180.0            estimate D2E/DX2                !
 ! D11   D(22,3,4,5)           179.9999         estimate D2E/DX2                !
 ! D12   D(22,3,4,14)            0.0            estimate D2E/DX2                !
 ! D13   D(3,4,5,6)              0.0001         estimate D2E/DX2                !
 ! D14   D(3,4,5,15)          -179.9999         estimate D2E/DX2                !
 ! D15   D(14,4,5,6)          -180.0            estimate D2E/DX2                !
 ! D16   D(14,4,5,15)            0.0            estimate D2E/DX2                !
 ! D17   D(4,5,6,1)              0.0            estimate D2E/DX2                !
 ! D18   D(4,5,6,19)           179.9999         estimate D2E/DX2                !
 ! D19   D(15,5,6,1)           180.0            estimate D2E/DX2                !
 ! D20   D(15,5,6,19)           -0.0001         estimate D2E/DX2                !
 ! D21   D(1,6,19,18)            0.0004         estimate D2E/DX2                !
 ! D22   D(5,6,19,18)         -179.9996         estimate D2E/DX2                !
 ! D23   D(12,7,8,9)             0.0001         estimate D2E/DX2                !
 ! D24   D(12,7,8,21)         -179.9998         estimate D2E/DX2                !
 ! D25   D(8,7,12,11)           -0.0001         estimate D2E/DX2                !
 ! D26   D(8,7,12,18)          179.9999         estimate D2E/DX2                !
 ! D27   D(7,8,9,10)             0.0            estimate D2E/DX2                !
 ! D28   D(7,8,9,16)           180.0            estimate D2E/DX2                !
 ! D29   D(21,8,9,10)          179.9998         estimate D2E/DX2                !
 ! D30   D(21,8,9,16)           -0.0002         estimate D2E/DX2                !
 ! D31   D(8,9,10,11)            0.0            estimate D2E/DX2                !
 ! D32   D(8,9,10,17)         -179.9999         estimate D2E/DX2                !
 ! D33   D(16,9,10,11)         180.0            estimate D2E/DX2                !
 ! D34   D(16,9,10,17)           0.0001         estimate D2E/DX2                !
 ! D35   D(9,10,11,12)           0.0            estimate D2E/DX2                !
 ! D36   D(9,10,11,20)        -179.9998         estimate D2E/DX2                !
 ! D37   D(17,10,11,12)        179.9999         estimate D2E/DX2                !
 ! D38   D(17,10,11,20)          0.0001         estimate D2E/DX2                !
 ! D39   D(10,11,12,7)           0.0            estimate D2E/DX2                !
 ! D40   D(10,11,12,18)       -179.9999         estimate D2E/DX2                !
 ! D41   D(20,11,12,7)         179.9999         estimate D2E/DX2                !
 ! D42   D(20,11,12,18)         -0.0001         estimate D2E/DX2                !
 ! D43   D(7,12,18,19)           0.0004         estimate D2E/DX2                !
 ! D44   D(11,12,18,19)       -179.9997         estimate D2E/DX2                !
 ! D45   D(12,18,19,6)          -0.0006         estimate D2E/DX2                !
 --------------------------------------------------------------------------------
 Trust Radius=3.00D-01 FncErr=1.00D-07 GrdErr=1.00D-06 EigMax=2.50D+02 EigMin=1.00D-04
 Number of steps in this run=    112 maximum allowed number of steps=    132.
 GradGradGradGradGradGradGradGradGradGradGradGradGradGradGradGradGradGrad

                          Input orientation:                          
 ---------------------------------------------------------------------
 Center     Atomic      Atomic             Coordinates (Angstroms)
 Number     Number       Type             X           Y           Z
 ---------------------------------------------------------------------
      1          6           0        1.125733    0.639827   -0.003916
      2          6           0        2.458114    0.669713   -0.437263
      3          6           0        3.166008    1.879164   -0.443335
      4          6           0        2.541520    3.058729   -0.016060
      5          6           0        1.209138    3.028844    0.417285
      6          6           0        0.501245    1.819393    0.423357
      7          6           0        0.099555   -1.113419    0.004888
      8          6           0        0.724043   -2.292985   -0.422387
      9          6           0        0.016150   -3.502436   -0.416313
     10          6           0       -1.316231   -3.532322    0.017037
     11          6           0       -1.940718   -2.352757    0.444312
     12          6           0       -1.232825   -1.143306    0.438238
     13          1           0        2.934925   -0.230911   -0.763495
     14          1           0        3.082013    3.982172   -0.020696
     15          1           0        0.732328    3.929468    0.743516
     16          1           0        0.492959   -4.403060   -0.742547
     17          1           0       -1.856722   -4.455766    0.021677
     18         17           0       -2.017109    0.338094    0.974850
     19         17           0       -1.172075    1.781860    0.967591
     20         17           0       -3.614035   -2.390292    0.988555
     21         17           0        2.397363   -2.255451   -0.966621
     22         17           0        4.839328    1.916697   -0.987569
 ---------------------------------------------------------------------
                    Distance matrix (angstroms):
                    1          2          3          4          5
     1  C    0.000000
     2  C    1.401400   0.000000
     3  C    2.427296   1.401400   0.000000
     4  C    2.802800   2.427296   1.401400   0.000000
     5  C    2.427296   2.802800   2.427296   1.401400   0.000000
     6  C    1.401400   2.427296   2.802800   2.427296   1.401400
     7  C    2.031500   2.989625   4.308084   4.834300   4.308084
     8  C    2.989625   3.432900   4.834300   5.666495   5.409457
     9  C    4.308084   4.834300   6.235700   7.041774   6.691466
    10  C    4.834300   5.666495   7.041774   7.637100   7.041774
    11  C    4.308084   5.409457   6.691466   7.041774   6.235700
    12  C    2.989625   4.204351   5.409457   5.666495   4.834300
    13  H    2.146700   1.070000   2.146700   3.396345   3.872800
    14  H    3.872800   3.396345   2.146700   1.070000   2.146700
    15  H    3.396345   3.872800   3.396345   2.146700   1.070000
    16  H    5.135824   5.448675   6.833817   7.771916   7.555879
    17  H    5.904300   6.715576   8.097863   8.707100   8.097863
    18  Cl   3.305523   4.704429   5.590246   5.400450   4.237887
    19  Cl   2.743718   4.048303   4.562800   4.048303   2.743718
    20  Cl   5.712445   6.947487   8.139259   8.282026   7.277114
    21  Cl   3.305523   2.973298   4.237887   5.400450   5.590246
    22  Cl   4.048303   2.743718   1.760000   2.743718   4.048303
                    6          7          8          9         10
     6  C    0.000000
     7  C    2.989625   0.000000
     8  C    4.204351   1.401400   0.000000
     9  C    5.409457   2.427296   1.401400   0.000000
    10  C    5.666495   2.802800   2.427296   1.401400   0.000000
    11  C    4.834300   2.427296   2.802800   2.427296   1.401400
    12  C    3.432900   1.401400   2.427296   2.802800   2.427296
    13  H    3.396345   3.067336   3.042450   4.398029   5.438829
    14  H    3.396345   5.904300   6.715576   8.097863   8.707100
    15  H    2.146700   5.135824   6.330744   7.555879   7.771916
    16  H    6.330744   3.396345   2.146700   1.070000   2.146700
    17  H    6.715576   3.872800   3.396345   2.146700   1.070000
    18  Cl   2.973298   2.743718   4.048303   4.562800   4.048303
    19  Cl   1.760000   3.305523   4.704429   5.590246   5.400450
    20  Cl   5.914087   4.048303   4.562800   4.048303   2.743718
    21  Cl   4.704429   2.743718   1.760000   2.743718   4.048303
    22  Cl   4.562800   5.712445   5.914087   7.277114   8.282026
                   11         12         13         14         15
    11  C    0.000000
    12  C    1.401400   0.000000
    13  H    5.452790   4.432467   0.000000
    14  H    8.097863   6.715576   4.280590   0.000000
    15  H    6.833817   5.448675   4.942800   2.471400   0.000000
    16  H    3.396345   3.872800   4.834300   8.805474   8.467391
    17  H    2.146700   3.396345   6.436285   9.777100   8.805474
    18  Cl   2.743718   1.760000   5.279038   6.345980   4.528895
    19  Cl   4.237887   2.973298   4.890332   4.890332   2.879094
    20  Cl   1.760000   2.743718   7.114877   9.298599   7.674001
    21  Cl   4.562800   4.048303   2.104518   6.345980   6.629490
    22  Cl   8.139259   6.947487   2.879094   2.879094   4.890332
                   16         17         18         19         20
    16  H    0.000000
    17  H    2.471400   0.000000
    18  Cl   5.632800   4.890332   0.000000
    19  Cl   6.629490   6.345980   1.672900   0.000000
    20  Cl   4.890332   2.879094   3.161400   4.834300   0.000000
    21  Cl   2.879094   4.890332   5.475705   5.725552   6.322800
    22  Cl   7.674001   9.298599   7.304369   6.322800   9.690953
                   21         22
    21  Cl   0.000000
    22  Cl   4.834300   0.000000
 Stoichiometry    C12H5Cl5
 Framework group  C1[X(C12H5Cl5)]
 Deg. of freedom    60
 Full point group                 C1      NOp   1
 Largest Abelian subgroup         C1      NOp   1
 Largest concise Abelian subgroup C1      NOp   1
                         Standard orientation:                         
 ---------------------------------------------------------------------
 Center     Atomic      Atomic             Coordinates (Angstroms)
 Number     Number       Type             X           Y           Z
 ---------------------------------------------------------------------
      1          6           0        1.097886   -0.267394    0.000002
      2          6           0        2.282777    0.480909    0.000000
      3          6           0        3.523271   -0.171085   -0.000002
      4          6           0        3.578875   -1.571381   -0.000002
      5          6           0        2.393984   -2.319684    0.000002
      6          6           0        1.153490   -1.667690    0.000003
      7          6           0       -0.700361    0.677751    0.000003
      8          6           0       -0.755965    2.078048    0.000004
      9          6           0       -1.996459    2.730042    0.000003
     10          6           0       -3.181350    1.981739    0.000002
     11          6           0       -3.125746    0.581443    0.000000
     12          6           0       -1.885252   -0.070551    0.000001
     13          1           0        2.240322    1.550066   -0.000001
     14          1           0        4.526020   -2.069193   -0.000004
     15          1           0        2.436439   -3.388841    0.000003
     16          1           0       -2.038914    3.799199    0.000004
     17          1           0       -4.128494    2.479551   -0.000000
     18         17           0       -1.815420   -1.829165   -0.000003
     19         17           0       -0.334598   -2.607473    0.000006
     20         17           0       -4.613834   -0.358341   -0.000006
     21         17           0        0.732124    3.017831    0.000002
     22         17           0        5.011359    0.768698   -0.000005
 ---------------------------------------------------------------------
 Rotational constants (GHZ):           0.4741964           0.1928165           0.1370781
 Standard basis: 6-311+G(d,p) (5D, 7F)
 There are   461 symmetry adapted cartesian basis functions of A   symmetry.
 There are   444 symmetry adapted basis functions of A   symmetry.
   444 basis functions,   737 primitive gaussians,   461 cartesian basis functions
    81 alpha electrons       81 beta electrons
       nuclear repulsion energy      1770.1254599860 Hartrees.
 NAtoms=   22 NActive=   22 NUniq=   22 SFac= 1.00D+00 NAtFMM=   60 NAOKFM=F Big=F
 Integral buffers will be    131072 words long.
 Raffenetti 2 integral format.
 Two-electron integral symmetry is turned on.
 One-electron integrals computed using PRISM.
 NBasis=   444 RedAO= T EigKep=  1.90D-06  NBF=   444
 NBsUse=   438 1.00D-06 EigRej=  9.32D-07 NBFU=   438
 ExpMin= 4.38D-02 ExpMax= 1.06D+05 ExpMxC= 3.62D+03 IAcc=3 IRadAn=         5 AccDes= 0.00D+00
 Harris functional with IExCor=  402 and IRadAn=       5 diagonalized for initial guess.
 HarFok:  IExCor=  402 AccDes= 0.00D+00 IRadAn=         5 IDoV= 1 UseB2=F ITyADJ=14
 ICtDFT=  3500011 ScaDFX=  1.000000  1.000000  1.000000  1.000000
 FoFCou: FMM=F IPFlag=           0 FMFlag=      100000 FMFlg1=           0
         NFxFlg=           0 DoJE=T BraDBF=F KetDBF=T FulRan=T
         wScrn=  0.000000 ICntrl=       500 IOpCl=  0 I1Cent=   200000004 NGrid=           0
         NMat0=    1 NMatS0=      1 NMatT0=    0 NMatD0=    1 NMtDS0=    0 NMtDT0=    0
 Petite list used in FoFCou.
 Requested convergence on RMS density matrix=1.00D-08 within  32 cycles.
 Requested convergence on MAX density matrix=1.00D-06.
 Requested convergence on             energy=1.00D-06.
 No special actions if energy rises.
 EnCoef did     3 forward-backward iterations
 EnCoef did     2 forward-backward iterations
 EnCoef did   100 forward-backward iterations
 EnCoef did     1 forward-backward iterations
 EnCoef did     4 forward-backward iterations
 Restarting incremental Fock formation.
 SCF Done:  E(RB3LYP) =  -2760.95120079     A.U. after   32 cycles
            NFock= 32  Conv=0.16D-08     -V/T= 2.0020
 QCSCF skips out because SCF is already converged.

 **********************************************************************

            Population analysis using the SCF Density.

 **********************************************************************

 Orbital symmetries:
       Occupied  (A) (A) (A) (A) (A) (A) (A) (A) (A) (A) (A) (A)
                 (A) (A) (A) (A) (A) (A) (A) (A) (A) (A) (A) (A)
                 (A) (A) (A) (A) (A) (A) (A) (A) (A) (A) (A) (A)
                 (A) (A) (A) (A) (A) (A) (A) (A) (A) (A) (A) (A)
                 (A) (A) (A) (A) (A) (A) (A) (A) (A) (A) (A) (A)
                 (A) (A) (A) (A) (A) (A) (A) (A) (A) (A) (A) (A)
                 (A) (A) (A) (A) (A) (A) (A) (A) (A)
       Virtual   (A) (A) (A) (A) (A) (A) (A) (A) (A) (A) (A) (A)
                 (A) (A) (A) (A) (A) (A) (A) (A) (A) (A) (A) (A)
                 (A) (A) (A) (A) (A) (A) (A) (A) (A) (A) (A) (A)
                 (A) (A) (A) (A) (A) (A) (A) (A) (A) (A) (A) (A)
                 (A) (A) (A) (A) (A) (A) (A) (A) (A) (A) (A) (A)
                 (A) (A) (A) (A) (A) (A) (A) (A) (A) (A) (A) (A)
                 (A) (A) (A) (A) (A) (A) (A) (A) (A) (A) (A) (A)
                 (A) (A) (A) (A) (A) (A) (A) (A) (A) (A) (A) (A)
                 (A) (A) (A) (A) (A) (A) (A) (A) (A) (A) (A) (A)
                 (A) (A) (A) (A) (A) (A) (A) (A) (A) (A) (A) (A)
                 (A) (A) (A) (A) (A) (A) (A) (A) (A) (A) (A) (A)
                 (A) (A) (A) (A) (A) (A) (A) (A) (A) (A) (A) (A)
                 (A) (A) (A) (A) (A) (A) (A) (A) (A) (A) (A) (A)
                 (A) (A) (A) (A) (A) (A) (A) (A) (A) (A) (A) (A)
                 (A) (A) (A) (A) (A) (A) (A) (A) (A) (A) (A) (A)
                 (A) (A) (A) (A) (A) (A) (A) (A) (A) (A) (A) (A)
                 (A) (A) (A) (A) (A) (A) (A) (A) (A) (A) (A) (A)
                 (A) (A) (A) (A) (A) (A) (A) (A) (A) (A) (A) (A)
                 (A) (A) (A) (A) (A) (A) (A) (A) (A) (A) (A) (A)
                 (A) (A) (A) (A) (A) (A) (A) (A) (A) (A) (A) (A)
                 (A) (A) (A) (A) (A) (A) (A) (A) (A) (A) (A) (A)
                 (A) (A) (A) (A) (A) (A) (A) (A) (A) (A) (A) (A)
                 (A) (A) (A) (A) (A) (A) (A) (A) (A) (A) (A) (A)
                 (A) (A) (A) (A) (A) (A) (A) (A) (A) (A) (A) (A)
                 (A) (A) (A) (A) (A) (A) (A) (A) (A) (A) (A) (A)
                 (A) (A) (A) (A) (A) (A) (A) (A) (A) (A) (A) (A)
                 (A) (A) (A) (A) (A) (A) (A) (A) (A) (A) (A) (A)
                 (A) (A) (A) (A) (A) (A) (A) (A) (A) (A) (A) (A)
                 (A) (A) (A) (A) (A) (A) (A) (A) (A) (A) (A) (A)
                 (A) (A) (A) (A) (A) (A) (A) (A) (A)
 The electronic state is 1-A.
 Alpha  occ. eigenvalues -- -101.64553-101.62578-101.57063-101.56137-101.55758
 Alpha  occ. eigenvalues --  -10.28070 -10.26444 -10.25721 -10.24996 -10.23476
 Alpha  occ. eigenvalues --  -10.23470 -10.22862 -10.21695 -10.20859 -10.20494
 Alpha  occ. eigenvalues --  -10.20169 -10.20040  -9.56723  -9.55016  -9.48492
 Alpha  occ. eigenvalues --   -9.47701  -9.47274  -7.33053  -7.32381  -7.31866
 Alpha  occ. eigenvalues --   -7.31851  -7.30344  -7.29848  -7.24964  -7.24134
 Alpha  occ. eigenvalues --   -7.23976  -7.23933  -7.23692  -7.23182  -7.23149
 Alpha  occ. eigenvalues --   -7.22759  -7.22748  -1.11799  -0.92127  -0.91425
 Alpha  occ. eigenvalues --   -0.88944  -0.87892  -0.84378  -0.82808  -0.78743
 Alpha  occ. eigenvalues --   -0.77909  -0.74134  -0.72765  -0.66760  -0.65275
 Alpha  occ. eigenvalues --   -0.61307  -0.60555  -0.58342  -0.54255  -0.52179
 Alpha  occ. eigenvalues --   -0.52174  -0.50789  -0.49821  -0.49149  -0.47917
 Alpha  occ. eigenvalues --   -0.45936  -0.44572  -0.43814  -0.42536  -0.41938
 Alpha  occ. eigenvalues --   -0.41753  -0.40830  -0.39398  -0.37997  -0.36893
 Alpha  occ. eigenvalues --   -0.34946  -0.33635  -0.33264  -0.32314  -0.32245
 Alpha  occ. eigenvalues --   -0.31367  -0.29581  -0.27928  -0.25685  -0.24838
 Alpha  occ. eigenvalues --   -0.11982
 Alpha virt. eigenvalues --   -0.08188  -0.06161  -0.05395  -0.04748  -0.03503
 Alpha virt. eigenvalues --   -0.02216  -0.01052   0.00075   0.00450   0.00778
 Alpha virt. eigenvalues --    0.01448   0.02403   0.03169   0.03654   0.03922
 Alpha virt. eigenvalues --    0.04121   0.04533   0.05354   0.05644   0.05952
 Alpha virt. eigenvalues --    0.06738   0.07286   0.07436   0.07701   0.07826
 Alpha virt. eigenvalues --    0.08085   0.08877   0.09648   0.10011   0.10922
 Alpha virt. eigenvalues --    0.11022   0.11113   0.11158   0.11484   0.11535
 Alpha virt. eigenvalues --    0.12964   0.13211   0.13543   0.14041   0.14068
 Alpha virt. eigenvalues --    0.14682   0.14851   0.15139   0.15247   0.15731
 Alpha virt. eigenvalues --    0.16003   0.16577   0.16617   0.17062   0.17575
 Alpha virt. eigenvalues --    0.18113   0.18849   0.19306   0.19815   0.19929
 Alpha virt. eigenvalues --    0.20182   0.20436   0.21197   0.21487   0.21931
 Alpha virt. eigenvalues --    0.22456   0.22721   0.23125   0.23558   0.23918
 Alpha virt. eigenvalues --    0.24240   0.24459   0.25005   0.25406   0.26207
 Alpha virt. eigenvalues --    0.26559   0.26650   0.27097   0.27660   0.28597
 Alpha virt. eigenvalues --    0.28835   0.29045   0.29817   0.30016   0.31599
 Alpha virt. eigenvalues --    0.32229   0.33690   0.34288   0.34595   0.35567
 Alpha virt. eigenvalues --    0.35882   0.38087   0.38863   0.40703   0.41169
 Alpha virt. eigenvalues --    0.42627   0.43175   0.43196   0.44118   0.44281
 Alpha virt. eigenvalues --    0.44473   0.44526   0.45787   0.46466   0.48071
 Alpha virt. eigenvalues --    0.48102   0.48453   0.49239   0.49930   0.50495
 Alpha virt. eigenvalues --    0.51607   0.52479   0.52754   0.53714   0.53893
 Alpha virt. eigenvalues --    0.54641   0.55788   0.56479   0.57395   0.57640
 Alpha virt. eigenvalues --    0.58531   0.58794   0.59390   0.60505   0.60506
 Alpha virt. eigenvalues --    0.61358   0.62293   0.62396   0.63518   0.64329
 Alpha virt. eigenvalues --    0.64569   0.64997   0.65799   0.66556   0.68092
 Alpha virt. eigenvalues --    0.69259   0.70200   0.70560   0.71044   0.74097
 Alpha virt. eigenvalues --    0.75917   0.76601   0.78261   0.80147   0.80486
 Alpha virt. eigenvalues --    0.81008   0.82375   0.82419   0.83590   0.83959
 Alpha virt. eigenvalues --    0.84591   0.84675   0.85061   0.85116   0.85690
 Alpha virt. eigenvalues --    0.86090   0.86442   0.86656   0.87402   0.88584
 Alpha virt. eigenvalues --    0.88977   0.89647   0.90331   0.90706   0.91860
 Alpha virt. eigenvalues --    0.92857   0.93658   0.94490   0.95184   0.96123
 Alpha virt. eigenvalues --    0.96289   0.96601   0.96989   0.97832   0.98116
 Alpha virt. eigenvalues --    0.99654   1.00614   1.01335   1.01461   1.03748
 Alpha virt. eigenvalues --    1.03782   1.05465   1.05702   1.07872   1.08469
 Alpha virt. eigenvalues --    1.09917   1.11605   1.14007   1.16043   1.19221
 Alpha virt. eigenvalues --    1.21364   1.22928   1.23176   1.23889   1.24855
 Alpha virt. eigenvalues --    1.26573   1.26782   1.27658   1.28272   1.29037
 Alpha virt. eigenvalues --    1.30402   1.30804   1.32222   1.33225   1.35277
 Alpha virt. eigenvalues --    1.44159   1.46953   1.48132   1.49733   1.50333
 Alpha virt. eigenvalues --    1.51246   1.52266   1.54551   1.56818   1.57224
 Alpha virt. eigenvalues --    1.59658   1.60741   1.64351   1.66363   1.66447
 Alpha virt. eigenvalues --    1.68121   1.68678   1.69692   1.72072   1.74734
 Alpha virt. eigenvalues --    1.76297   1.78145   1.83751   1.83986   1.85012
 Alpha virt. eigenvalues --    1.86757   1.86922   1.87796   1.88469   1.89012
 Alpha virt. eigenvalues --    1.90094   1.90332   1.93174   1.96031   1.96344
 Alpha virt. eigenvalues --    1.96901   2.00848   2.01698   2.02573   2.04138
 Alpha virt. eigenvalues --    2.06856   2.12222   2.12860   2.14581   2.18320
 Alpha virt. eigenvalues --    2.19540   2.20890   2.24238   2.25418   2.27098
 Alpha virt. eigenvalues --    2.27852   2.28066   2.28830   2.30491   2.31474
 Alpha virt. eigenvalues --    2.31699   2.32808   2.38379   2.39563   2.41070
 Alpha virt. eigenvalues --    2.42710   2.43487   2.45328   2.48936   2.53489
 Alpha virt. eigenvalues --    2.54367   2.56228   2.57187   2.59717   2.60094
 Alpha virt. eigenvalues --    2.60741   2.62843   2.62892   2.64948   2.66380
 Alpha virt. eigenvalues --    2.68974   2.69906   2.71312   2.72555   2.73766
 Alpha virt. eigenvalues --    2.74809   2.75929   2.76077   2.76737   2.78172
 Alpha virt. eigenvalues --    2.78538   2.79072   2.83616   2.84816   2.86040
 Alpha virt. eigenvalues --    2.87398   2.89465   3.02239   3.04749   3.07701
 Alpha virt. eigenvalues --    3.08284   3.10096   3.10776   3.17627   3.20571
 Alpha virt. eigenvalues --    3.24930   3.28617   3.30783   3.35092   3.37452
 Alpha virt. eigenvalues --    3.40816   3.42266   3.52560   3.61658   3.64454
 Alpha virt. eigenvalues --    3.71139   3.79831   3.85464   3.88489   4.02958
 Alpha virt. eigenvalues --    4.07565   4.09065   4.15889   4.80086   4.81756
 Alpha virt. eigenvalues --    9.68927   9.76719   9.79772   9.84721   9.97247
 Alpha virt. eigenvalues --   23.36849  23.43640  23.81750  23.82987  23.89831
 Alpha virt. eigenvalues --   23.90906  23.96022  23.98057  24.00549  24.03583
 Alpha virt. eigenvalues --   24.10039  24.10638  25.74659  25.81240  25.82040
 Alpha virt. eigenvalues --   25.84807  25.96693  26.10499  26.13949  26.23218
 Alpha virt. eigenvalues --   26.34828  26.53963  26.60260  26.70454  26.84189
 Alpha virt. eigenvalues --   26.93690  26.99491 215.69890 215.75928 215.79925
 Alpha virt. eigenvalues --  215.85270 216.02842
          Condensed to atoms (all electrons):
               1          2          3          4          5          6
     1  C   20.850828   3.172903  -5.532570   3.588282  -2.276116  -5.732686
     2  C    3.172903  13.369639  -0.868646  -5.053149  -0.050397  -3.235723
     3  C   -5.532570  -0.868646  22.046579  -9.116111  -2.397707   5.727703
     4  C    3.588282  -5.053149  -9.116111  25.188374   0.177315  -7.131652
     5  C   -2.276116  -0.050397  -2.397707   0.177315  11.213297  -1.344262
     6  C   -5.732686  -3.235723   5.727703  -7.131652  -1.344262  20.040741
     7  C    5.587547  -0.128066  -2.677239   0.519414  -0.272558  -2.856510
     8  C   -1.497165   0.596976  -1.304131  -0.125886   0.658549  -0.836596
     9  C   -3.368148  -0.117120   0.186655   0.368342   0.044499   0.158215
    10  C   -0.300866   0.236568   0.015666   0.042398   0.122876   0.104627
    11  C   -3.092650  -0.201341  -0.456508  -0.067046   0.607617   0.152475
    12  C   -1.452033  -0.452634   0.029967  -1.021344  -1.361636  -2.070727
    13  H   -0.006288   0.238201  -0.100920   0.111697  -0.014462   0.008879
    14  H    0.025927   0.052991   0.073377   0.289426  -0.083563  -0.017221
    15  H   -0.038936  -0.025765   0.034044  -0.181584   0.420703   0.071722
    16  H    0.002344  -0.000866  -0.001164   0.000176   0.000199   0.000084
    17  H   -0.007638  -0.000416  -0.000108   0.000087   0.000100   0.001803
    18  Cl  -0.227520  -0.004846  -2.289032   3.417209   1.305238   3.461171
    19  Cl  -2.880465  -0.338348   2.474015  -4.177741  -0.607095  -0.418568
    20  Cl   0.074520  -0.008786   0.015411  -0.017452  -0.049156  -0.130787
    21  Cl   0.413450  -0.296476  -0.504481  -0.037516   0.038134  -0.083034
    22  Cl  -0.668685   0.192741  -0.526843  -0.151336   0.206870   0.384504
               7          8          9         10         11         12
     1  C    5.587547  -1.497165  -3.368148  -0.300866  -3.092650  -1.452033
     2  C   -0.128066   0.596976  -0.117120   0.236568  -0.201341  -0.452634
     3  C   -2.677239  -1.304131   0.186655   0.015666  -0.456508   0.029967
     4  C    0.519414  -0.125886   0.368342   0.042398  -0.067046  -1.021344
     5  C   -0.272558   0.658549   0.044499   0.122876   0.607617  -1.361636
     6  C   -2.856510  -0.836596   0.158215   0.104627   0.152475  -2.070727
     7  C   20.345669   0.255210  -5.777453  -0.660003  -2.628761   4.105815
     8  C    0.255210  17.208827  -3.499605  -2.956861   4.396515  -3.677089
     9  C   -5.777453  -3.499605  13.948350   1.862764  -2.617364   2.442385
    10  C   -0.660003  -2.956861   1.862764  13.273344  -3.146808  -2.867281
    11  C   -2.628761   4.396515  -2.617364  -3.146808  18.346138  -8.326550
    12  C    4.105815  -3.677089   2.442385  -2.867281  -8.326550  42.782033
    13  H    0.088483  -0.041689   0.031742   0.002366  -0.000550   0.015520
    14  H    0.004194   0.000135  -0.000102  -0.000007   0.000170   0.001043
    15  H    0.002161  -0.000186  -0.000145  -0.000066  -0.000378   0.027474
    16  H    0.018488  -0.079095   0.433375   0.007045  -0.117301   0.084366
    17  H   -0.059245  -0.036335  -0.042931   0.415046  -0.057411   0.105147
    18  Cl -12.735949  -3.804344   3.634400   1.944306   4.728134 -38.904633
    19  Cl   2.888487   1.019702  -1.015923  -0.143059  -1.322236  15.979794
    20  Cl   0.465712   0.378781  -0.264721  -1.201578  -0.767884   2.353343
    21  Cl   0.146507  -0.306912  -0.209439  -0.199864   0.210201  -0.080811
    22  Cl  -0.195762  -0.006343  -0.013443   0.001141  -0.006805  -0.034340
              13         14         15         16         17         18
     1  C   -0.006288   0.025927  -0.038936   0.002344  -0.007638  -0.227520
     2  C    0.238201   0.052991  -0.025765  -0.000866  -0.000416  -0.004846
     3  C   -0.100920   0.073377   0.034044  -0.001164  -0.000108  -2.289032
     4  C    0.111697   0.289426  -0.181584   0.000176   0.000087   3.417209
     5  C   -0.014462  -0.083563   0.420703   0.000199   0.000100   1.305238
     6  C    0.008879  -0.017221   0.071722   0.000084   0.001803   3.461171
     7  C    0.088483   0.004194   0.002161   0.018488  -0.059245 -12.735949
     8  C   -0.041689   0.000135  -0.000186  -0.079095  -0.036335  -3.804344
     9  C    0.031742  -0.000102  -0.000145   0.433375  -0.042931   3.634400
    10  C    0.002366  -0.000007  -0.000066   0.007045   0.415046   1.944306
    11  C   -0.000550   0.000170  -0.000378  -0.117301  -0.057411   4.728134
    12  C    0.015520   0.001043   0.027474   0.084366   0.105147 -38.904633
    13  H    0.547098  -0.000479   0.000048   0.000053  -0.000001   0.007776
    14  H   -0.000479   0.502338  -0.006881  -0.000000  -0.000000  -0.001676
    15  H    0.000048  -0.006881   0.510085  -0.000000  -0.000000  -0.062390
    16  H    0.000053  -0.000000  -0.000000   0.518219  -0.004831   0.017387
    17  H   -0.000001  -0.000000  -0.000000  -0.004831   0.527395   0.050004
    18  Cl   0.007776  -0.001676  -0.062390   0.017387   0.050004  93.602367
    19  Cl  -0.004641   0.006406   0.080435  -0.002049  -0.004169 -35.681231
    20  Cl   0.000030   0.000001   0.000069  -0.004639  -0.029153  -2.651544
    21  Cl  -0.022943   0.000056   0.000047  -0.018006   0.001322  -0.134748
    22  Cl  -0.024728  -0.003880   0.001131  -0.000007  -0.000000  -0.013069
              19         20         21         22
     1  C   -2.880465   0.074520   0.413450  -0.668685
     2  C   -0.338348  -0.008786  -0.296476   0.192741
     3  C    2.474015   0.015411  -0.504481  -0.526843
     4  C   -4.177741  -0.017452  -0.037516  -0.151336
     5  C   -0.607095  -0.049156   0.038134   0.206870
     6  C   -0.418568  -0.130787  -0.083034   0.384504
     7  C    2.888487   0.465712   0.146507  -0.195762
     8  C    1.019702   0.378781  -0.306912  -0.006343
     9  C   -1.015923  -0.264721  -0.209439  -0.013443
    10  C   -0.143059  -1.201578  -0.199864   0.001141
    11  C   -1.322236  -0.767884   0.210201  -0.006805
    12  C   15.979794   2.353343  -0.080811  -0.034340
    13  H   -0.004641   0.000030  -0.022943  -0.024728
    14  H    0.006406   0.000001   0.000056  -0.003880
    15  H    0.080435   0.000069   0.000047   0.001131
    16  H   -0.002049  -0.004639  -0.018006  -0.000007
    17  H   -0.004169  -0.029153   0.001322  -0.000000
    18  Cl -35.681231  -2.651544  -0.134748  -0.013069
    19  Cl  39.616382   0.322051   0.047190   0.010199
    20  Cl   0.322051  18.166417   0.002510  -0.000001
    21  Cl   0.047190   0.002510  17.518378  -0.024598
    22  Cl   0.010199  -0.000001  -0.024598  17.455422
 Mulliken charges:
               1
     1  C   -0.634037
     2  C   -1.077440
     3  C    1.172044
     4  C   -0.621901
     5  C   -0.338445
     6  C   -0.254160
     7  C   -0.436141
     8  C   -0.342459
     9  C   -0.184333
    10  C   -0.551756
    11  C    0.368343
    12  C   -1.677809
    13  H    0.164806
    14  H    0.157745
    15  H    0.168411
    16  H    0.146222
    17  H    0.141335
    18  Cl   1.342989
    19  Cl   1.150864
    20  Cl   0.346856
    21  Cl   0.541036
    22  Cl   0.417832
 Sum of Mulliken charges =  -0.00000
 Mulliken charges with hydrogens summed into heavy atoms:
               1
     1  C   -0.634037
     2  C   -0.912635
     3  C    1.172044
     4  C   -0.464156
     5  C   -0.170034
     6  C   -0.254160
     7  C   -0.436141
     8  C   -0.342459
     9  C   -0.038110
    10  C   -0.410421
    11  C    0.368343
    12  C   -1.677809
    18  Cl   1.342989
    19  Cl   1.150864
    20  Cl   0.346856
    21  Cl   0.541036
    22  Cl   0.417832
 Electronic spatial extent (au):  <R**2>=           6919.2818
 Charge=             -0.0000 electrons
 Dipole moment (field-independent basis, Debye):
    X=              0.7396    Y=             -1.9160    Z=              0.0000  Tot=              2.0538
 Quadrupole moment (field-independent basis, Debye-Ang):
   XX=           -137.2153   YY=           -124.8433   ZZ=           -136.0365
   XY=             -8.3638   XZ=             -0.0000   YZ=              0.0000
 Traceless Quadrupole moment (field-independent basis, Debye-Ang):
   XX=             -4.5169   YY=              7.8551   ZZ=             -3.3381
   XY=             -8.3638   XZ=             -0.0000   YZ=              0.0000
 Octapole moment (field-independent basis, Debye-Ang**2):
  XXX=             24.1287  YYY=             -7.8250  ZZZ=             -0.0001  XYY=             -8.3292
  XXY=            -10.0551  XXZ=              0.0000  XZZ=             -3.5444  YZZ=             -6.1536
  YYZ=             -0.0001  XYZ=              0.0000
 Hexadecapole moment (field-independent basis, Debye-Ang**3):
 XXXX=          -6541.2372 YYYY=          -2669.6524 ZZZZ=           -161.1158 XXXY=            -64.5924
 XXXZ=             -0.0001 YYYX=             -8.3769 YYYZ=              0.0003 ZZZX=              0.0000
 ZZZY=             -0.0001 XXYY=          -1371.9688 XXZZ=          -1135.0334 YYZZ=           -497.8796
 XXYZ=             -0.0001 YYXZ=             -0.0001 ZZXY=             38.0895
 N-N= 1.770125459986D+03 E-N=-1.007610241681D+04  KE= 2.755349747489D+03
 Calling FoFJK, ICntrl=      2127 FMM=F ISym2X=0 I1Cent= 0 IOpClX= 0 NMat=1 NMatS=1 NMatT=0.
 ***** Axes restored to original set *****
 -------------------------------------------------------------------
 Center     Atomic                   Forces (Hartrees/Bohr)
 Number     Number              X              Y              Z
 -------------------------------------------------------------------
      1        6          -0.016478652   -0.042732620   -0.002596329
      2        6          -0.002311814    0.019100371    0.004348892
      3        6          -0.013711299    0.001945334    0.004882679
      4        6          -0.004424639   -0.015523437   -0.001457981
      5        6          -0.005777952   -0.004202103    0.001114513
      6        6           0.024664791   -0.037601344   -0.015187437
      7        6          -0.012207550    0.023956413    0.008520999
      8        6          -0.017832284    0.016956347    0.009059590
      9        6          -0.008454399    0.012191353    0.005074955
     10        6           0.003456114    0.009315453    0.000610875
     11        6           0.041643950    0.007315070   -0.012346225
     12        6           0.034272665   -0.159590223   -0.041263450
     13        1           0.001901430    0.005027311    0.000317689
     14        1           0.002819583    0.008286692    0.000627387
     15        1          -0.002139290    0.007295494    0.002075019
     16        1           0.004617112   -0.007915504   -0.003007754
     17        1          -0.004058574   -0.011121689   -0.000751613
     18       17          -0.188995677   -0.313746648    0.003344244
     19       17           0.176671226    0.511488073    0.037853100
     20       17          -0.011409601   -0.004376996    0.002936935
     21       17           0.001985716   -0.026304058   -0.005594435
     22       17          -0.004230854    0.000236711    0.001438349
 -------------------------------------------------------------------
 Cartesian Forces:  Max     0.511488073 RMS     0.084129374

 GradGradGradGradGradGradGradGradGradGradGradGradGradGradGradGradGradGrad
 Berny optimization.
 FormGI is forming the generalized inverse of G from B-inverse, IUseBI=4.
 Internal  Forces:  Max     0.470381726 RMS     0.054701145
 Search for a local minimum.
 Step number   1 out of a maximum of  112
 All quantities printed in internal units (Hartrees-Bohrs-Radians)
 Mixed Optimization -- RFO/linear search
 Second derivative matrix not updated -- first step.
 ITU=  0
     Eigenvalues ---    0.00238   0.00238   0.01655   0.01655   0.02070
     Eigenvalues ---    0.02070   0.02070   0.02070   0.02070   0.02070
     Eigenvalues ---    0.02070   0.02070   0.02070   0.02070   0.02070
     Eigenvalues ---    0.02070   0.02070   0.02070   0.04301   0.16000
     Eigenvalues ---    0.16000   0.16000   0.16000   0.16000   0.22319
     Eigenvalues ---    0.22472   0.23430   0.24476   0.24560   0.25000
     Eigenvalues ---    0.25000   0.25000   0.25000   0.25000   0.25000
     Eigenvalues ---    0.25000   0.25000   0.29539   0.29539   0.29539
     Eigenvalues ---    0.29539   0.29539   0.37230   0.37230   0.37230
     Eigenvalues ---    0.37230   0.37230   0.41511   0.41658   0.42020
     Eigenvalues ---    0.42024   0.45389   0.45389   0.45389   0.45389
     Eigenvalues ---    0.45389   0.45389   0.45389   0.45389   1.32680
 RFO step:  Lambda=-2.88544138D-01 EMin= 2.37799122D-03
 Linear search not attempted -- first point.
 Maximum step size (   0.300) exceeded in Quadratic search.
    -- Step size scaled by   0.500
 Iteration  1 RMS(Cart)=  0.09919512 RMS(Int)=  0.00244488
 Iteration  2 RMS(Cart)=  0.00628861 RMS(Int)=  0.00002325
 Iteration  3 RMS(Cart)=  0.00002302 RMS(Int)=  0.00002173
 Iteration  4 RMS(Cart)=  0.00000000 RMS(Int)=  0.00002173
 Variable       Old X    -DE/DX   Delta X   Delta X   Delta X     New X
                                 (Linear)    (Quad)   (Total)
    R1        2.64826  -0.00247   0.00000  -0.00147  -0.00143   2.64683
    R2        2.64826   0.01116   0.00000   0.00781   0.00785   2.65611
    R3        2.64826  -0.00481   0.00000  -0.00333  -0.00333   2.64493
    R4        2.02201  -0.00348   0.00000  -0.00264  -0.00264   2.01937
    R5        2.64826  -0.01542   0.00000  -0.01068  -0.01072   2.63754
    R6        3.32592  -0.00446   0.00000  -0.00382  -0.00382   3.32209
    R7        2.64826  -0.01924   0.00000  -0.01316  -0.01320   2.63506
    R8        2.02201   0.00857   0.00000   0.00649   0.00649   2.02850
    R9        2.64826  -0.01079   0.00000  -0.00718  -0.00718   2.64108
   R10        2.02201   0.00773   0.00000   0.00585   0.00585   2.02786
   R11        3.32592  -0.01859   0.00000  -0.01593  -0.01593   3.30999
   R12        2.64826   0.01466   0.00000   0.01027   0.01028   2.65854
   R13        2.64826  -0.00784   0.00000  -0.00499  -0.00497   2.64329
   R14        2.64826  -0.00731   0.00000  -0.00483  -0.00485   2.64342
   R15        3.32592   0.00306   0.00000   0.00262   0.00262   3.32854
   R16        2.64826  -0.02642   0.00000  -0.01810  -0.01812   2.63014
   R17        2.02201   0.00964   0.00000   0.00730   0.00730   2.02931
   R18        2.64826  -0.01956   0.00000  -0.01357  -0.01358   2.63468
   R19        2.02201   0.01165   0.00000   0.00882   0.00882   2.03083
   R20        2.64826  -0.01042   0.00000  -0.00712  -0.00711   2.64116
   R21        3.32592   0.01185   0.00000   0.01016   0.01016   3.33607
   R22        3.32592   0.14295   0.00000   0.12252   0.12252   3.44843
   R23        3.16132   0.47038   0.00000   0.14573   0.14573   3.30705
    A1        2.09440  -0.03936   0.00000  -0.03560  -0.03549   2.05891
    A2        2.09440   0.01122   0.00000   0.01117   0.01121   2.10561
    A3        2.09440  -0.00146   0.00000  -0.00095  -0.00097   2.09342
    A4        2.09440  -0.00976   0.00000  -0.01022  -0.01024   2.08416
    A5        2.09440   0.01181   0.00000   0.01042   0.01038   2.10477
    A6        2.09440  -0.00534   0.00000  -0.00469  -0.00467   2.08973
    A7        2.09440  -0.00646   0.00000  -0.00573  -0.00571   2.08869
    A8        2.09440  -0.00715   0.00000  -0.00779  -0.00787   2.08653
    A9        2.09440   0.00547   0.00000   0.00601   0.00605   2.10044
   A10        2.09440   0.00168   0.00000   0.00178   0.00182   2.09622
   A11        2.09440  -0.00658   0.00000  -0.00666  -0.00671   2.08768
   A12        2.09440   0.00172   0.00000   0.00158   0.00161   2.09600
   A13        2.09440   0.00486   0.00000   0.00508   0.00511   2.09950
   A14        2.09440   0.03007   0.00000   0.02845   0.02848   2.12288
   A15        2.09440  -0.00343   0.00000  -0.00344  -0.00345   2.09094
   A16        2.09440  -0.02665   0.00000  -0.02501  -0.02503   2.06937
   A17        2.09440  -0.02893   0.00000  -0.02545  -0.02541   2.06899
   A18        2.09440   0.01335   0.00000   0.01310   0.01309   2.10748
   A19        2.09440   0.03788   0.00000   0.03485   0.03486   2.12925
   A20        2.09440  -0.05123   0.00000  -0.04795  -0.04795   2.04645
   A21        2.09440   0.00494   0.00000   0.00458   0.00453   2.09893
   A22        2.09440  -0.00286   0.00000  -0.00272  -0.00270   2.09169
   A23        2.09440  -0.00208   0.00000  -0.00186  -0.00183   2.09256
   A24        2.09440  -0.01242   0.00000  -0.01324  -0.01327   2.08112
   A25        2.09440   0.00392   0.00000   0.00407   0.00408   2.09848
   A26        2.09440   0.00850   0.00000   0.00917   0.00919   2.10358
   A27        2.09440   0.01649   0.00000   0.01464   0.01464   2.10904
   A28        2.09440  -0.01521   0.00000  -0.01380  -0.01380   2.08060
   A29        2.09440  -0.00128   0.00000  -0.00084  -0.00085   2.09355
   A30        2.09440   0.00657   0.00000   0.00638   0.00641   2.10081
   A31        2.09440   0.00610   0.00000   0.00553   0.00551   2.09991
   A32        2.09440  -0.01267   0.00000  -0.01191  -0.01192   2.08247
   A33        2.09440   0.14415   0.00000   0.13395   0.13395   2.22835
   A34        2.09440  -0.17200   0.00000  -0.15984  -0.15984   1.93456
    D1        0.00000  -0.00000   0.00000   0.00000  -0.00000   0.00000
    D2        3.14159   0.00000   0.00000   0.00000   0.00000   3.14159
    D3       -0.00000  -0.00000   0.00000  -0.00000  -0.00000  -0.00000
    D4        3.14159   0.00000   0.00000   0.00000   0.00000   3.14159
    D5        0.00000  -0.00000   0.00000   0.00000   0.00000   0.00000
    D6        3.14159  -0.00000   0.00000   0.00000   0.00000   3.14159
    D7       -3.14159  -0.00000   0.00000  -0.00000  -0.00000  -3.14159
    D8        0.00000  -0.00000   0.00000  -0.00000  -0.00000   0.00000
    D9       -0.00000   0.00000   0.00000   0.00000   0.00000  -0.00000
   D10        3.14159  -0.00000   0.00000  -0.00000  -0.00000   3.14159
   D11        3.14159   0.00000   0.00000   0.00000   0.00000   3.14159
   D12        0.00000  -0.00000   0.00000  -0.00000  -0.00000   0.00000
   D13        0.00000  -0.00000   0.00000  -0.00000  -0.00000   0.00000
   D14       -3.14159  -0.00000   0.00000  -0.00000  -0.00000  -3.14159
   D15       -3.14159  -0.00000   0.00000  -0.00000  -0.00000  -3.14159
   D16        0.00000  -0.00000   0.00000  -0.00000  -0.00000   0.00000
   D17       -0.00000   0.00000   0.00000   0.00000   0.00000  -0.00000
   D18        3.14159   0.00000   0.00000   0.00000   0.00000   3.14159
   D19        3.14159   0.00000   0.00000   0.00000   0.00000   3.14159
   D20       -0.00000  -0.00000   0.00000  -0.00000  -0.00000  -0.00000
   D21        0.00001  -0.00000   0.00000  -0.00000  -0.00000   0.00001
   D22       -3.14159  -0.00000   0.00000  -0.00000  -0.00000  -3.14159
   D23        0.00000   0.00000   0.00000   0.00000   0.00000   0.00000
   D24       -3.14159  -0.00000   0.00000  -0.00000  -0.00000  -3.14159
   D25       -0.00000  -0.00000   0.00000  -0.00000  -0.00000  -0.00000
   D26        3.14159   0.00000   0.00000   0.00000   0.00000   3.14159
   D27       -0.00000  -0.00000   0.00000  -0.00000  -0.00000  -0.00000
   D28        3.14159  -0.00000   0.00000  -0.00000  -0.00000   3.14159
   D29        3.14159   0.00000   0.00000   0.00000   0.00000   3.14159
   D30       -0.00000   0.00000   0.00000   0.00000   0.00000  -0.00000
   D31       -0.00000   0.00000   0.00000   0.00000   0.00000  -0.00000
   D32       -3.14159  -0.00000   0.00000  -0.00000  -0.00000  -3.14159
   D33        3.14159   0.00000   0.00000   0.00000   0.00000   3.14159
   D34        0.00000  -0.00000   0.00000  -0.00000  -0.00000   0.00000
   D35        0.00000  -0.00000   0.00000  -0.00000  -0.00000   0.00000
   D36       -3.14159  -0.00000   0.00000  -0.00000  -0.00000  -3.14159
   D37        3.14159   0.00000   0.00000   0.00000   0.00000   3.14159
   D38        0.00000  -0.00000   0.00000  -0.00000  -0.00000   0.00000
   D39        0.00000   0.00000   0.00000   0.00000   0.00000   0.00000
   D40       -3.14159  -0.00000   0.00000  -0.00000  -0.00000  -3.14159
   D41        3.14159   0.00000   0.00000   0.00000   0.00000   3.14159
   D42       -0.00000  -0.00000   0.00000  -0.00000  -0.00000  -0.00000
   D43        0.00001  -0.00000   0.00000  -0.00000  -0.00000   0.00001
   D44       -3.14159   0.00000   0.00000   0.00000   0.00000  -3.14159
   D45       -0.00001  -0.00000   0.00000  -0.00000  -0.00000  -0.00001
         Item               Value     Threshold  Converged?
 Maximum Force            0.470382     0.000450     NO 
 RMS     Force            0.054701     0.000300     NO 
 Maximum Displacement     0.512269     0.001800     NO 
 RMS     Displacement     0.101674     0.001200     NO 
 Predicted change in Energy=-1.212535D-01
 GradGradGradGradGradGradGradGradGradGradGradGradGradGradGradGradGradGrad

                          Input orientation:                          
 ---------------------------------------------------------------------
 Center     Atomic      Atomic             Coordinates (Angstroms)
 Number     Number       Type             X           Y           Z
 ---------------------------------------------------------------------
      1          6           0        1.038115    0.704202    0.037041
      2          6           0        2.368776    0.710834   -0.400105
      3          6           0        3.107164    1.899685   -0.420093
      4          6           0        2.530749    3.100996   -0.004573
      5          6           0        1.207094    3.113222    0.433804
      6          6           0        0.474442    1.923188    0.451680
      7          6           0        0.197374   -1.189110   -0.041557
      8          6           0        0.759646   -2.410245   -0.456142
      9          6           0        0.007604   -3.589432   -0.429837
     10          6           0       -1.313049   -3.569383    0.009030
     11          6           0       -1.875502   -2.362036    0.421086
     12          6           0       -1.130593   -1.179681    0.397725
     13          1           0        2.828880   -0.198199   -0.722411
     14          1           0        3.100718    4.010452   -0.021547
     15          1           0        0.755225    4.031942    0.755216
     16          1           0        0.451376   -4.513552   -0.749600
     17          1           0       -1.890432   -4.475548    0.029070
     18         17           0       -1.908274    0.377314    0.946358
     19         17           0       -1.185933    1.970123    1.007511
     20         17           0       -3.550685   -2.337518    0.977599
     21         17           0        2.422323   -2.526532   -1.025762
     22         17           0        4.775688    1.880533   -0.973391
 ---------------------------------------------------------------------
                    Distance matrix (angstroms):
                    1          2          3          4          5
     1  C    0.000000
     2  C    1.400643   0.000000
     3  C    2.432923   1.399636   0.000000
     4  C    2.823882   2.428076   1.395728   0.000000
     5  C    2.447316   2.795779   2.410825   1.394413   0.000000
     6  C    1.405553   2.404962   2.773402   2.413254   1.397598
     7  C    2.073078   2.907461   4.260378   4.883750   4.444723
     8  C    3.165526   3.511919   4.907916   5.806418   5.612567
     9  C    4.440182   4.905946   6.303790   7.163026   6.863689
    10  C    4.877733   5.660697   7.045079   7.698631   7.154633
    11  C    4.247171   5.303846   6.610356   7.031426   6.283391
    12  C    2.895238   4.056620   5.301877   5.647253   4.888261
    13  H    2.144279   1.068605   2.137745   3.389522   3.864263
    14  H    3.897314   3.400959   2.148073   1.073436   2.144337
    15  H    3.416088   3.868859   3.385186   2.143928   1.073096
    16  H    5.309239   5.576090   6.949201   7.928442   7.754949
    17  H    5.950316   6.724851   8.113034   8.772229   8.206578
    18  Cl   3.100794   4.496372   5.416587   5.294114   4.177730
    19  Cl   2.736925   4.025313   4.524786   4.014587   2.713372
    20  Cl   5.585140   6.799304   8.014635   8.217416   7.255532
    21  Cl   3.671951   3.297705   4.519651   5.720459   5.950962
    22  Cl   4.046503   2.736800   1.757976   2.732744   4.029217
                    6          7          8          9         10
     6  C    0.000000
     7  C    3.163297   0.000000
     8  C    4.436679   1.406841   0.000000
     9  C    5.602141   2.438918   1.398836   0.000000
    10  C    5.793047   2.819510   2.419928   1.391809   0.000000
    11  C    4.887363   2.426234   2.777744   2.403468   1.394213
    12  C    3.493829   1.398770   2.411718   2.790565   2.427973
    13  H    3.379666   2.893145   3.040687   4.421047   5.390312
    14  H    3.387911   5.955271   6.847981   8.215370   8.771327
    15  H    2.148910   5.310878   6.555088   7.749105   7.912944
    16  H    6.547917   3.408483   2.145937   1.073862   2.140134
    17  H    6.834841   3.894176   3.394676   2.144374   1.074667
    18  Cl   2.883014   2.804178   4.105520   4.615146   4.099913
    19  Cl   1.751570   3.604835   5.011505   5.865079   5.630209
    20  Cl   5.884883   4.050366   4.543111   4.026113   2.731781
    21  Cl   5.077114   2.776284   1.761386   2.704764   4.013893
    22  Cl   4.531375   5.590347   5.899738   7.276716   8.230398
                   11         12         13         14         15
    11  C    0.000000
    12  C    1.397640   0.000000
    13  H    5.302922   4.230300   0.000000
    14  H    8.097363   6.709491   4.275260   0.000000
    15  H    6.922089   5.553838   4.937359   2.470863   0.000000
    16  H    3.378445   3.864412   4.927021   8.955876   8.682296
    17  H    2.149613   3.402353   6.413451   9.845118   8.938914
    18  Cl   2.789448   1.824833   5.055356   6.263110   4.526264
    19  Cl   4.425721   3.208764   4.879853   4.857703   2.843034
    20  Cl   1.765374   2.744756   6.940141   9.248577   7.691575
    21  Cl   4.537811   4.057529   2.382950   6.648371   6.997477
    22  Cl   8.011385   6.791835   2.859052   2.871948   4.876553
                   16         17         18         19         20
    16  H    0.000000
    17  H    2.468165   0.000000
    18  Cl   5.689006   4.938826   0.000000
    19  Cl   6.914207   6.557465   1.750017   0.000000
    20  Cl   4.871841   2.868330   3.173137   4.914135   0.000000
    21  Cl   2.812320   4.848834   5.574554   6.113397   6.302856
    22  Cl   7.722310   9.265088   7.114806   6.282748   9.535555
                   21         22
    21  Cl   0.000000
    22  Cl   4.996328   0.000000
 Stoichiometry    C12H5Cl5
 Framework group  C1[X(C12H5Cl5)]
 Deg. of freedom    60
 Full point group                 C1      NOp   1
 Largest Abelian subgroup         C1      NOp   1
 Largest concise Abelian subgroup C1      NOp   1
                         Standard orientation:                         
 ---------------------------------------------------------------------
 Center     Atomic      Atomic             Coordinates (Angstroms)
 Number     Number       Type             X           Y           Z
 ---------------------------------------------------------------------
      1          6           0        1.058341   -0.344690    0.000001
      2          6           0        2.199780    0.467046   -0.000002
      3          6           0        3.479016   -0.100877   -0.000003
      4          6           0        3.640778   -1.487200   -0.000002
      5          6           0        2.515607   -2.310837    0.000003
      6          6           0        1.240630   -1.738372    0.000004
      7          6           0       -0.692305    0.765666    0.000005
      8          6           0       -0.876963    2.160335    0.000006
      9          6           0       -2.162609    2.711566    0.000003
     10          6           0       -3.280952    1.883049   -0.000000
     11          6           0       -3.103963    0.500115   -0.000001
     12          6           0       -1.822690   -0.058219    0.000001
     13          1           0        2.097837    1.530778   -0.000005
     14          1           0        4.623749   -1.918514   -0.000004
     15          1           0        2.629870   -3.377832    0.000006
     16          1           0       -2.286738    3.778229    0.000004
     17          1           0       -4.268470    2.306979   -0.000004
     18         17           0       -1.639201   -1.873804   -0.000002
     19         17           0       -0.153550   -2.798683    0.000009
     20         17           0       -4.523023   -0.550033   -0.000010
     21         17           0        0.481394    3.281652    0.000006
     22         17           0        4.895305    0.940567   -0.000008
 ---------------------------------------------------------------------
 Rotational constants (GHZ):           0.4288236           0.1989484           0.1358993
 Standard basis: 6-311+G(d,p) (5D, 7F)
 There are   461 symmetry adapted cartesian basis functions of A   symmetry.
 There are   444 symmetry adapted basis functions of A   symmetry.
   444 basis functions,   737 primitive gaussians,   461 cartesian basis functions
    81 alpha electrons       81 beta electrons
       nuclear repulsion energy      1753.6623131035 Hartrees.
 NAtoms=   22 NActive=   22 NUniq=   22 SFac= 1.00D+00 NAtFMM=   60 NAOKFM=F Big=F
 Integral buffers will be    131072 words long.
 Raffenetti 2 integral format.
 Two-electron integral symmetry is turned on.
 One-electron integrals computed using PRISM.
 NBasis=   444 RedAO= T EigKep=  1.10D-06  NBF=   444
 NBsUse=   439 1.00D-06 EigRej=  8.15D-07 NBFU=   439
 Initial guess from the checkpoint file:  "./Gau-160410.chk"
 B after Tr=    -0.000000    0.000000   -0.000000
         Rot=    0.999762    0.000000    0.000000   -0.021826 Ang=  -2.50 deg.
 ExpMin= 4.38D-02 ExpMax= 1.06D+05 ExpMxC= 3.62D+03 IAcc=3 IRadAn=         5 AccDes= 0.00D+00
 Harris functional with IExCor=  402 and IRadAn=       5 diagonalized for initial guess.
 HarFok:  IExCor=  402 AccDes= 0.00D+00 IRadAn=         5 IDoV= 1 UseB2=F ITyADJ=14
 ICtDFT=  3500011 ScaDFX=  1.000000  1.000000  1.000000  1.000000
 FoFCou: FMM=F IPFlag=           0 FMFlag=      100000 FMFlg1=           0
         NFxFlg=           0 DoJE=T BraDBF=F KetDBF=T FulRan=T
         wScrn=  0.000000 ICntrl=       500 IOpCl=  0 I1Cent=   200000004 NGrid=           0
         NMat0=    1 NMatS0=      1 NMatT0=    0 NMatD0=    1 NMtDS0=    0 NMtDT0=    0
 Petite list used in FoFCou.
 Requested convergence on RMS density matrix=1.00D-08 within  32 cycles.
 Requested convergence on MAX density matrix=1.00D-06.
 Requested convergence on             energy=1.00D-06.
 No special actions if energy rises.
 SCF Done:  E(RB3LYP) =  -2761.07221377     A.U. after   19 cycles
            NFock= 19  Conv=0.56D-08     -V/T= 2.0022
 QCSCF skips out because SCF is already converged.
 Calling FoFJK, ICntrl=      2127 FMM=F ISym2X=0 I1Cent= 0 IOpClX= 0 NMat=1 NMatS=1 NMatT=0.
 ***** Axes restored to original set *****
 -------------------------------------------------------------------
 Center     Atomic                   Forces (Hartrees/Bohr)
 Number     Number              X              Y              Z
 -------------------------------------------------------------------
      1        6          -0.001887008   -0.050279898   -0.008821492
      2        6          -0.003958705    0.012544252    0.003660241
      3        6          -0.007928927   -0.000200080    0.002574786
      4        6          -0.002429676   -0.009560074   -0.000995257
      5        6          -0.003114985   -0.005272523    0.000036114
      6        6           0.005383837   -0.033781668   -0.008117972
      7        6          -0.025761899    0.036309752    0.015307069
      8        6          -0.003316930    0.020490760    0.004941262
      9        6          -0.005328763    0.008691484    0.003387847
     10        6           0.000530173    0.003675967    0.000515728
     11        6           0.022102705    0.001873474   -0.006930138
     12        6           0.004387506   -0.110394363   -0.022178197
     13        1           0.002728252   -0.004304964   -0.001707408
     14        1           0.002480284    0.005503143    0.000216399
     15        1          -0.002240081    0.004842763    0.001647583
     16        1           0.003871579   -0.004647261   -0.002148315
     17        1          -0.002694652   -0.006496236   -0.000332291
     18       17          -0.079534910   -0.285709917   -0.027453496
     19       17           0.100331566    0.424482052    0.046663905
     20       17          -0.003774125   -0.003241059    0.000634677
     21       17           0.003047671   -0.004545988   -0.001857957
     22       17          -0.002892913    0.000020384    0.000956912
 -------------------------------------------------------------------
 Cartesian Forces:  Max     0.424482052 RMS     0.067607415

 GradGradGradGradGradGradGradGradGradGradGradGradGradGradGradGradGradGrad
 Berny optimization.
 Using GEDIIS/GDIIS optimizer.
 FormGI is forming the generalized inverse of G from B-inverse, IUseBI=4.
 Internal  Forces:  Max     0.350045917 RMS     0.049835519
 Search for a local minimum.
 Step number   2 out of a maximum of  112
 All quantities printed in internal units (Hartrees-Bohrs-Radians)
 Mixed Optimization -- RFO/linear search
 Update second derivatives using D2CorX and points    1    2
 DE= -1.21D-01 DEPred=-1.21D-01 R= 9.98D-01
 TightC=F SS=  1.41D+00  RLast= 3.00D-01 DXNew= 5.0454D-01 9.0000D-01
 Trust test= 9.98D-01 RLast= 3.00D-01 DXMaxT set to 5.05D-01
 ITU=  1  0
 Use linear search instead of GDIIS.
     Eigenvalues ---    0.00238   0.00238   0.01657   0.01668   0.02070
     Eigenvalues ---    0.02070   0.02070   0.02070   0.02070   0.02070
     Eigenvalues ---    0.02070   0.02070   0.02070   0.02070   0.02070
     Eigenvalues ---    0.02070   0.02070   0.02070   0.04301   0.04691
     Eigenvalues ---    0.16000   0.16000   0.16000   0.16001   0.16006
     Eigenvalues ---    0.22322   0.22486   0.23435   0.24484   0.24578
     Eigenvalues ---    0.25000   0.25000   0.25000   0.25000   0.25000
     Eigenvalues ---    0.25000   0.28185   0.29539   0.29539   0.29539
     Eigenvalues ---    0.29539   0.37166   0.37223   0.37230   0.37230
     Eigenvalues ---    0.37230   0.41298   0.41485   0.41578   0.41971
     Eigenvalues ---    0.45047   0.45226   0.45389   0.45389   0.45389
     Eigenvalues ---    0.45389   0.45389   0.45389   0.67681   2.92454
 RFO step:  Lambda=-4.61102041D-01 EMin= 2.37799122D-03
 Quartic linear search produced a step of  1.65639.
 Maximum step size (   0.505) exceeded in Quadratic search.
    -- Step size scaled by   0.669
 Iteration  1 RMS(Cart)=  0.13606823 RMS(Int)=  0.05379525
 Iteration  2 RMS(Cart)=  0.26390097 RMS(Int)=  0.02848290
 Iteration  3 RMS(Cart)=  0.31555972 RMS(Int)=  0.01048757
 Iteration  4 RMS(Cart)=  0.11437286 RMS(Int)=  0.00099620
 Iteration  5 RMS(Cart)=  0.00178045 RMS(Int)=  0.00017960
 Iteration  6 RMS(Cart)=  0.00000034 RMS(Int)=  0.00017960
 Variable       Old X    -DE/DX   Delta X   Delta X   Delta X     New X
                                 (Linear)    (Quad)   (Total)
    R1        2.64683  -0.00630  -0.00237  -0.00592  -0.00793   2.63890
    R2        2.65611   0.03444   0.01300   0.03283   0.04608   2.70219
    R3        2.64493  -0.00168  -0.00552  -0.00298  -0.00842   2.63651
    R4        2.01937   0.00535  -0.00437   0.00405  -0.00032   2.01905
    R5        2.63754  -0.00252  -0.01775  -0.00701  -0.02503   2.61252
    R6        3.32209  -0.00305  -0.00633  -0.00412  -0.01046   3.31164
    R7        2.63506  -0.00648  -0.02187  -0.01138  -0.03362   2.60144
    R8        2.02850   0.00598   0.01075   0.00788   0.01864   2.04714
    R9        2.64108  -0.01082  -0.01190  -0.01227  -0.02425   2.61683
   R10        2.02786   0.00558   0.00969   0.00729   0.01698   2.04484
   R11        3.30999  -0.00763  -0.02639  -0.01199  -0.03837   3.27161
   R12        2.65854  -0.01558   0.01703  -0.00920   0.00784   2.66638
   R13        2.64329  -0.03405  -0.00823  -0.03178  -0.03986   2.60343
   R14        2.64342   0.00244  -0.00803   0.00011  -0.00806   2.63536
   R15        3.32854   0.00378   0.00434   0.00456   0.00890   3.33744
   R16        2.63014   0.00137  -0.03002  -0.00614  -0.03631   2.59383
   R17        2.02931   0.00624   0.01209   0.00842   0.02050   2.04981
   R18        2.63468  -0.00221  -0.02250  -0.00735  -0.02985   2.60483
   R19        2.03083   0.00692   0.01461   0.00959   0.02420   2.05503
   R20        2.64116  -0.01022  -0.01177  -0.01198  -0.02361   2.61755
   R21        3.33607   0.00374   0.01682   0.00648   0.02330   3.35937
   R22        3.44843   0.04938   0.20294   0.08260   0.28554   3.73397
   R23        3.30705   0.35005   0.24139   0.27761   0.51900   3.82605
    A1        2.05891  -0.02098  -0.05878  -0.02938  -0.08722   1.97169
    A2        2.10561   0.00245   0.01857   0.00440   0.02338   2.12898
    A3        2.09342  -0.00072  -0.00161  -0.00141  -0.00323   2.09020
    A4        2.08416  -0.00173  -0.01696  -0.00298  -0.02015   2.06401
    A5        2.10477   0.01037   0.01719   0.01304   0.02999   2.13476
    A6        2.08973  -0.00520  -0.00773  -0.00644  -0.01405   2.07567
    A7        2.08869  -0.00516  -0.00946  -0.00660  -0.01594   2.07275
    A8        2.08653  -0.00031  -0.01304  -0.00177  -0.01551   2.07102
    A9        2.10044   0.00104   0.01002   0.00207   0.01244   2.11288
   A10        2.09622  -0.00074   0.00302  -0.00030   0.00307   2.09928
   A11        2.08768  -0.00874  -0.01112  -0.01090  -0.02254   2.06514
   A12        2.09600   0.00424   0.00266   0.00523   0.00815   2.10415
   A13        2.09950   0.00450   0.00846   0.00567   0.01439   2.11389
   A14        2.12288   0.01721   0.04718   0.02461   0.07191   2.19478
   A15        2.09094  -0.02717  -0.00572  -0.03048  -0.03626   2.05468
   A16        2.06937   0.00996  -0.04146   0.00587  -0.03564   2.03372
   A17        2.06899  -0.00422  -0.04208  -0.01186  -0.05372   2.01527
   A18        2.10748  -0.00381   0.02168  -0.00200   0.01953   2.12701
   A19        2.12925   0.00919   0.05774   0.01699   0.07480   2.20405
   A20        2.04645  -0.00538  -0.07942  -0.01498  -0.09433   1.95212
   A21        2.09893   0.00406   0.00751   0.00654   0.01375   2.11268
   A22        2.09169  -0.00356  -0.00447  -0.00520  -0.00952   2.08217
   A23        2.09256  -0.00050  -0.00304  -0.00134  -0.00423   2.08833
   A24        2.08112  -0.00667  -0.02199  -0.00780  -0.02995   2.05117
   A25        2.09848   0.00201   0.00677   0.00216   0.00901   2.10749
   A26        2.10358   0.00466   0.01522   0.00564   0.02094   2.12453
   A27        2.10904  -0.01203   0.02426  -0.00979   0.01458   2.12362
   A28        2.08060   0.00044  -0.02285  -0.00245  -0.02537   2.05523
   A29        2.09355   0.01160  -0.00140   0.01224   0.01078   2.10433
   A30        2.10081   0.02267   0.01062   0.02491   0.03581   2.13662
   A31        2.09991  -0.11041   0.00913  -0.11895  -0.10996   1.98995
   A32        2.08247   0.08774  -0.01975   0.09403   0.07415   2.15662
   A33        2.22835  -0.08472   0.22188  -0.06651   0.15537   2.38371
   A34        1.93456  -0.30854  -0.26475  -0.36790  -0.63265   1.30191
    D1        0.00000  -0.00000  -0.00000  -0.00000  -0.00000   0.00000
    D2        3.14159  -0.00000   0.00000  -0.00000   0.00000   3.14159
    D3       -0.00000   0.00000  -0.00000   0.00000  -0.00000  -0.00000
    D4        3.14159  -0.00000   0.00000  -0.00000   0.00000   3.14159
    D5        0.00000  -0.00000   0.00000  -0.00000  -0.00000   0.00000
    D6        3.14159   0.00000   0.00000   0.00000   0.00000   3.14159
    D7       -3.14159  -0.00000  -0.00000  -0.00000  -0.00000  -3.14159
    D8        0.00000  -0.00000  -0.00000  -0.00000  -0.00000   0.00000
    D9       -0.00000   0.00000   0.00000   0.00000   0.00000  -0.00000
   D10        3.14159   0.00000  -0.00000   0.00000  -0.00000   3.14159
   D11        3.14159   0.00000   0.00000   0.00000   0.00000   3.14159
   D12        0.00000  -0.00000  -0.00000  -0.00000  -0.00000   0.00000
   D13        0.00000  -0.00000  -0.00000  -0.00000  -0.00000   0.00000
   D14       -3.14159  -0.00000  -0.00000  -0.00000  -0.00000  -3.14159
   D15       -3.14159  -0.00000  -0.00000  -0.00000  -0.00000  -3.14159
   D16        0.00000  -0.00000  -0.00000  -0.00000  -0.00000   0.00000
   D17       -0.00000   0.00000   0.00000  -0.00000   0.00000  -0.00000
   D18        3.14159   0.00000   0.00000   0.00000   0.00000   3.14159
   D19        3.14159  -0.00000   0.00000  -0.00000   0.00000   3.14159
   D20       -0.00000   0.00000  -0.00000   0.00000   0.00000  -0.00000
   D21        0.00001   0.00000  -0.00000   0.00000  -0.00000   0.00001
   D22       -3.14159   0.00000  -0.00000   0.00000  -0.00000  -3.14159
   D23        0.00000  -0.00000   0.00000  -0.00000   0.00000   0.00000
   D24       -3.14159  -0.00000  -0.00000  -0.00000  -0.00000  -3.14159
   D25       -0.00000   0.00000  -0.00000   0.00000   0.00000  -0.00000
   D26        3.14159   0.00000   0.00000   0.00000   0.00000   3.14159
   D27       -0.00000  -0.00000  -0.00000  -0.00000  -0.00000  -0.00000
   D28        3.14159  -0.00000  -0.00000  -0.00000  -0.00000   3.14159
   D29        3.14159   0.00000   0.00000   0.00000   0.00000   3.14159
   D30       -0.00000   0.00000   0.00000   0.00000   0.00000  -0.00000
   D31       -0.00000   0.00000   0.00000   0.00000   0.00000   0.00000
   D32       -3.14159  -0.00000  -0.00000  -0.00000  -0.00000  -3.14159
   D33        3.14159   0.00000   0.00000   0.00000   0.00000  -3.14159
   D34        0.00000  -0.00000  -0.00000  -0.00000  -0.00000   0.00000
   D35        0.00000   0.00000  -0.00000   0.00000  -0.00000  -0.00000
   D36       -3.14159  -0.00000  -0.00000  -0.00000  -0.00000  -3.14159
   D37        3.14159   0.00000   0.00000   0.00000   0.00000   3.14159
   D38        0.00000  -0.00000  -0.00000  -0.00000  -0.00000   0.00000
   D39        0.00000  -0.00000   0.00000  -0.00000   0.00000   0.00000
   D40       -3.14159  -0.00000  -0.00000   0.00000  -0.00000  -3.14159
   D41        3.14159   0.00000   0.00000  -0.00000   0.00000   3.14159
   D42       -0.00000  -0.00000  -0.00000   0.00000  -0.00000  -0.00000
   D43        0.00001   0.00000  -0.00000   0.00000   0.00000   0.00001
   D44       -3.14159   0.00000   0.00000   0.00000   0.00000  -3.14159
   D45       -0.00001   0.00000  -0.00000   0.00000   0.00000  -0.00001
         Item               Value     Threshold  Converged?
 Maximum Force            0.350046     0.000450     NO 
 RMS     Force            0.049836     0.000300     NO 
 Maximum Displacement     2.973825     0.001800     NO 
 RMS     Displacement     0.798494     0.001200     NO 
 Predicted change in Energy=-3.773723D-01
 GradGradGradGradGradGradGradGradGradGradGradGradGradGradGradGradGradGrad

                          Input orientation:                          
 ---------------------------------------------------------------------
 Center     Atomic      Atomic             Coordinates (Angstroms)
 Number     Number       Type             X           Y           Z
 ---------------------------------------------------------------------
      1          6           0        0.091977    0.626760    0.334205
      2          6           0        1.309386    0.150026   -0.156408
      3          6           0        2.404369    0.990489   -0.359307
      4          6           0        2.356083    2.345417   -0.088932
      5          6           0        1.184583    2.880290    0.397473
      6          6           0        0.106989    2.032940    0.593349
      7          6           0        0.481563   -0.597239   -0.024028
      8          6           0        1.191391   -1.731821   -0.470971
      9          6           0        0.605462   -2.996549   -0.515456
     10          6           0       -0.695727   -3.188141   -0.122748
     11          6           0       -1.397695   -2.085793    0.315552
     12          6           0       -0.820799   -0.827349    0.361833
     13          1           0        1.418422   -0.887475   -0.387180
     14          1           0        3.218830    2.979390   -0.254100
     15          1           0        1.112728    3.936892    0.619582
     16          1           0        1.189863   -3.840278   -0.866451
     17          1           0       -1.147802   -4.176514   -0.159429
     18         17           0       -1.774124    0.789409    0.979555
     19         17           0       -1.342450    2.754465    1.206377
     20         17           0       -3.083482   -2.326892    0.825677
     21         17           0        2.866741   -1.763625   -1.028901
     22         17           0        3.894396    0.306852   -0.978591
 ---------------------------------------------------------------------
                    Distance matrix (angstroms):
                    1          2          3          4          5
     1  C    0.000000
     2  C    1.396447   0.000000
     3  C    2.441397   1.395182   0.000000
     4  C    2.873848   2.433078   1.382485   0.000000
     5  C    2.505232   2.788674   2.373172   1.376623   0.000000
     6  C    1.429938   2.356536   2.696705   2.370986   1.384767
[...]
                 (A) (A) (A) (A) (A) (A) (A) (A) (A) (A) (A) (A)
                 (A) (A) (A) (A) (A) (A) (A) (A) (A) (A) (A) (A)
                 (A) (A) (A) (A) (A) (A) (A) (A) (A)
       Virtual   (A) (A) (A) (A) (A) (A) (A) (A) (A) (A) (A) (A)
                 (A) (A) (A) (A) (A) (A) (A) (A) (A) (A) (A) (A)
                 (A) (A) (A) (A) (A) (A) (A) (A) (A) (A) (A) (A)
                 (A) (A) (A) (A) (A) (A) (A) (A) (A) (A) (A) (A)
                 (A) (A) (A) (A) (A) (A) (A) (A) (A) (A) (A) (A)
                 (A) (A) (A) (A) (A) (A) (A) (A) (A) (A) (A) (A)
                 (A) (A) (A) (A) (A) (A) (A) (A) (A) (A) (A) (A)
                 (A) (A) (A) (A) (A) (A) (A) (A) (A) (A) (A) (A)
                 (A) (A) (A) (A) (A) (A) (A) (A) (A) (A) (A) (A)
                 (A) (A) (A) (A) (A) (A) (A) (A) (A) (A) (A) (A)
                 (A) (A) (A) (A) (A) (A) (A) (A) (A) (A) (A) (A)
                 (A) (A) (A) (A) (A) (A) (A) (A) (A) (A) (A) (A)
                 (A) (A) (A) (A) (A) (A) (A) (A) (A) (A) (A) (A)
                 (A) (A) (A) (A) (A) (A) (A) (A) (A) (A) (A) (A)
                 (A) (A) (A) (A) (A) (A) (A) (A) (A) (A) (A) (A)
                 (A) (A) (A) (A) (A) (A) (A) (A) (A) (A) (A) (A)
                 (A) (A) (A) (A) (A) (A) (A) (A) (A) (A) (A) (A)
                 (A) (A) (A) (A) (A) (A) (A) (A) (A) (A) (A) (A)
                 (A) (A) (A) (A) (A) (A) (A) (A) (A) (A) (A) (A)
                 (A) (A) (A) (A) (A) (A) (A) (A) (A) (A) (A) (A)
                 (A) (A) (A) (A) (A) (A) (A) (A) (A) (A) (A) (A)
                 (A) (A) (A) (A) (A) (A) (A) (A) (A) (A) (A) (A)
                 (A) (A) (A) (A) (A) (A) (A) (A) (A) (A) (A) (A)
                 (A) (A) (A) (A) (A) (A) (A) (A) (A) (A) (A) (A)
                 (A) (A) (A) (A) (A) (A) (A) (A) (A) (A) (A) (A)
                 (A) (A) (A) (A) (A) (A) (A) (A) (A) (A) (A) (A)
                 (A) (A) (A) (A) (A) (A) (A) (A) (A) (A) (A) (A)
                 (A) (A) (A) (A) (A) (A) (A) (A) (A) (A) (A) (A)
                 (A) (A) (A) (A) (A) (A) (A) (A) (A) (A) (A) (A)
                 (A) (A) (A) (A) (A) (A) (A) (A) (A) (A) (A)
 The electronic state is 1-A.
 Alpha  occ. eigenvalues -- -101.57372-101.57327-101.57171-101.56719-101.56675
 Alpha  occ. eigenvalues --  -10.27397 -10.26815 -10.26735 -10.25972 -10.25762
 Alpha  occ. eigenvalues --  -10.23588 -10.22768 -10.21804 -10.21485 -10.21168
 Alpha  occ. eigenvalues --  -10.21089 -10.21033  -9.48847  -9.48785  -9.48640
 Alpha  occ. eigenvalues --   -9.48190  -9.48129  -7.25333  -7.25271  -7.25112
 Alpha  occ. eigenvalues --   -7.24655  -7.24596  -7.24331  -7.24264  -7.24256
 Alpha  occ. eigenvalues --   -7.24207  -7.24121  -7.24071  -7.23669  -7.23630
 Alpha  occ. eigenvalues --   -7.23609  -7.23576  -0.94883  -0.92423  -0.90320
 Alpha  occ. eigenvalues --   -0.89136  -0.87891  -0.84267  -0.83984  -0.81036
 Alpha  occ. eigenvalues --   -0.76694  -0.74498  -0.73775  -0.67239  -0.64000
 Alpha  occ. eigenvalues --   -0.62656  -0.60784  -0.54655  -0.53172  -0.52866
 Alpha  occ. eigenvalues --   -0.51617  -0.49611  -0.47862  -0.46376  -0.46169
 Alpha  occ. eigenvalues --   -0.45490  -0.44375  -0.43046  -0.42378  -0.40978
 Alpha  occ. eigenvalues --   -0.39952  -0.39600  -0.39219  -0.37957  -0.36467
 Alpha  occ. eigenvalues --   -0.34752  -0.33604  -0.33349  -0.33217  -0.32991
 Alpha  occ. eigenvalues --   -0.32842  -0.32457  -0.28771  -0.28309  -0.26351
 Alpha  occ. eigenvalues --   -0.25940
 Alpha virt. eigenvalues --   -0.05578  -0.05409  -0.04889  -0.04175  -0.03046
 Alpha virt. eigenvalues --   -0.00743  -0.00263   0.00305   0.00717   0.01085
 Alpha virt. eigenvalues --    0.01991   0.02419   0.02705   0.03264   0.04362
 Alpha virt. eigenvalues --    0.04838   0.05015   0.05554   0.05860   0.06286
 Alpha virt. eigenvalues --    0.06427   0.06588   0.07464   0.08173   0.08632
 Alpha virt. eigenvalues --    0.08931   0.09625   0.09964   0.10371   0.10610
 Alpha virt. eigenvalues --    0.10860   0.11073   0.11819   0.12250   0.12331
 Alpha virt. eigenvalues --    0.12554   0.12986   0.13081   0.13641   0.14013
 Alpha virt. eigenvalues --    0.14385   0.14964   0.15392   0.15691   0.15794
 Alpha virt. eigenvalues --    0.16414   0.16740   0.17075   0.17382   0.17777
 Alpha virt. eigenvalues --    0.17901   0.18190   0.18536   0.19733   0.19990
 Alpha virt. eigenvalues --    0.20245   0.20486   0.20912   0.21258   0.21460
 Alpha virt. eigenvalues --    0.21711   0.22069   0.22635   0.22839   0.23054
 Alpha virt. eigenvalues --    0.23355   0.23635   0.24466   0.24979   0.25378
 Alpha virt. eigenvalues --    0.25836   0.25979   0.26540   0.26660   0.27268
 Alpha virt. eigenvalues --    0.27958   0.28135   0.28415   0.29401   0.29571
 Alpha virt. eigenvalues --    0.29738   0.30146   0.30868   0.31057   0.32418
 Alpha virt. eigenvalues --    0.32624   0.33131   0.34368   0.35095   0.40896
 Alpha virt. eigenvalues --    0.41662   0.42430   0.43434   0.44235   0.44669
 Alpha virt. eigenvalues --    0.45306   0.45405   0.46355   0.46633   0.47010
 Alpha virt. eigenvalues --    0.48262   0.49347   0.49677   0.50575   0.50922
 Alpha virt. eigenvalues --    0.51021   0.51989   0.52038   0.52936   0.54164
 Alpha virt. eigenvalues --    0.54549   0.56821   0.57148   0.57564   0.57943
 Alpha virt. eigenvalues --    0.58690   0.58950   0.59207   0.60085   0.60600
 Alpha virt. eigenvalues --    0.60862   0.62726   0.63552   0.63692   0.64105
 Alpha virt. eigenvalues --    0.64821   0.65535   0.66184   0.66860   0.68187
 Alpha virt. eigenvalues --    0.68536   0.68860   0.69449   0.69774   0.69920
 Alpha virt. eigenvalues --    0.71935   0.72499   0.75226   0.78618   0.79369
 Alpha virt. eigenvalues --    0.81234   0.81928   0.82477   0.83034   0.83542
 Alpha virt. eigenvalues --    0.84115   0.84345   0.84542   0.84964   0.85210
 Alpha virt. eigenvalues --    0.85742   0.85887   0.86216   0.86327   0.86710
 Alpha virt. eigenvalues --    0.87273   0.88819   0.89105   0.89716   0.90180
 Alpha virt. eigenvalues --    0.90610   0.91847   0.92973   0.94129   0.94495
 Alpha virt. eigenvalues --    0.95383   0.95610   0.96016   0.96339   0.96936
 Alpha virt. eigenvalues --    0.97365   0.98644   0.98835   0.99475   1.00959
 Alpha virt. eigenvalues --    1.01781   1.02533   1.03516   1.04151   1.04731
 Alpha virt. eigenvalues --    1.05657   1.06287   1.10990   1.13237   1.15589
 Alpha virt. eigenvalues --    1.18266   1.20443   1.21342   1.22598   1.23605
 Alpha virt. eigenvalues --    1.24884   1.25547   1.26600   1.27646   1.29056
 Alpha virt. eigenvalues --    1.30188   1.30906   1.32048   1.34404   1.34939
 Alpha virt. eigenvalues --    1.36743   1.40648   1.42333   1.46779   1.48121
 Alpha virt. eigenvalues --    1.48556   1.49347   1.49837   1.56027   1.56477
 Alpha virt. eigenvalues --    1.57291   1.57658   1.60761   1.62321   1.62537
 Alpha virt. eigenvalues --    1.64772   1.66679   1.67871   1.69499   1.70390
 Alpha virt. eigenvalues --    1.71101   1.72322   1.78382   1.80594   1.81463
 Alpha virt. eigenvalues --    1.81873   1.83184   1.85084   1.85442   1.87342
 Alpha virt. eigenvalues --    1.92259   1.92616   1.93640   1.93765   1.95343
 Alpha virt. eigenvalues --    1.96153   1.96564   1.97913   2.00136   2.03290
 Alpha virt. eigenvalues --    2.04421   2.06847   2.08456   2.12924   2.13835
 Alpha virt. eigenvalues --    2.15384   2.18154   2.24349   2.25359   2.25831
 Alpha virt. eigenvalues --    2.26357   2.27234   2.27858   2.30941   2.32079
 Alpha virt. eigenvalues --    2.32309   2.34804   2.35590   2.37730   2.37826
 Alpha virt. eigenvalues --    2.40600   2.43459   2.44747   2.45648   2.47105
 Alpha virt. eigenvalues --    2.50929   2.52906   2.53259   2.54357   2.56089
 Alpha virt. eigenvalues --    2.58060   2.59595   2.62149   2.63435   2.67835
 Alpha virt. eigenvalues --    2.68319   2.68471   2.69939   2.70230   2.70786
 Alpha virt. eigenvalues --    2.73851   2.74767   2.75240   2.75555   2.76857
 Alpha virt. eigenvalues --    2.78048   2.80830   2.82665   2.83950   2.84832
 Alpha virt. eigenvalues --    2.86275   2.89710   2.97097   2.98652   3.07955
 Alpha virt. eigenvalues --    3.08285   3.09921   3.10180   3.12620   3.13885
 Alpha virt. eigenvalues --    3.19671   3.22982   3.26046   3.28787   3.34811
 Alpha virt. eigenvalues --    3.37396   3.40690   3.42972   3.54541   3.57813
 Alpha virt. eigenvalues --    3.63751   3.67347   3.78002   3.84629   3.87213
 Alpha virt. eigenvalues --    3.99007   4.04389   4.04935   4.12409   4.34359
 Alpha virt. eigenvalues --    4.80754   4.81987   9.77733   9.78007   9.80611
 Alpha virt. eigenvalues --    9.83642   9.85308  23.38248  23.54814  23.82309
 Alpha virt. eigenvalues --   23.85279  23.88655  23.92834  23.97917  23.98312
 Alpha virt. eigenvalues --   24.02923  24.08834  24.12290  24.14579  25.79616
 Alpha virt. eigenvalues --   25.82620  25.83997  25.93855  25.97520  26.10845
 Alpha virt. eigenvalues --   26.14047  26.24674  26.28210  26.33284  26.56167
 Alpha virt. eigenvalues --   26.61848  26.67468  26.72814  26.98268 215.77034
 Alpha virt. eigenvalues --  215.77291 215.80394 215.84063 215.86399
          Condensed to atoms (all electrons):
               1          2          3          4          5          6
     1  C   26.061297  -0.417969  -6.713773  -1.609235  -1.675182  -3.420127
     2  C   -0.417969  31.685009  -8.133994 -11.464845   2.312452   2.906146
     3  C   -6.713773  -8.133994  23.804356  -0.308534  -2.274556  -4.282711
     4  C   -1.609235 -11.464845  -0.308534  19.022291   1.902485  -1.768616
     5  C   -1.675182   2.312452  -2.274556   1.902485  15.511192  -5.492734
     6  C   -3.420127   2.906146  -4.282711  -1.768616  -5.492734  37.623797
     7  C    7.021695  -6.788711   3.527968   0.220818  -3.506391  -5.591757
     8  C   -1.979363  -1.760301   0.307287   0.208490  -0.041479  -6.030539
     9  C   -3.922179  -0.273593  -0.410270   0.057722   0.513846  -1.520950
    10  C   -0.926609   0.014598  -0.232753   0.045072   0.217260   0.517265
    11  C   -4.002928  -1.017698   0.721287  -0.040638  -0.276594  -2.701215
    12  C   -1.073951  -1.345523  -0.059817   0.312382  -0.279560  -4.723352
    13  H   -0.014829   0.112546   0.041783   0.098512  -0.033333  -0.148241
    14  H    0.038498   0.045326   0.029037   0.316828  -0.050376  -0.033150
    15  H    0.093046  -0.040134  -0.025259  -0.034620   0.335564   0.016439
    16  H    0.010272  -0.000776  -0.000417   0.000082  -0.000122   0.000665
    17  H    0.007754  -0.000917  -0.000203  -0.000019   0.000081   0.001450
    18  Cl  -0.144042  -0.036739   0.315356  -0.104117  -0.173744   0.104608
    19  Cl  -0.600178  -0.173644   0.104236  -0.010169  -0.571789   0.916235
    20  Cl  -0.175054  -0.005683   0.024954  -0.000235  -0.004775  -0.100308
    21  Cl   0.302685  -0.123980   0.444326  -0.081791  -0.298109   0.030613
    22  Cl  -0.369892   1.167638  -1.592794  -0.163808   0.151568   0.290967
               7          8          9         10         11         12
     1  C    7.021695  -1.979363  -3.922179  -0.926609  -4.002928  -1.073951
     2  C   -6.788711  -1.760301  -0.273593   0.014598  -1.017698  -1.345523
     3  C    3.527968   0.307287  -0.410270  -0.232753   0.721287  -0.059817
     4  C    0.220818   0.208490   0.057722   0.045072  -0.040638   0.312382
     5  C   -3.506391  -0.041479   0.513846   0.217260  -0.276594  -0.279560
     6  C   -5.591757  -6.030539  -1.520950   0.517265  -2.701215  -4.723352
     7  C   22.009749  -3.838620  -4.373159  -0.995842  -4.487182   3.049326
     8  C   -3.838620  24.765287  -4.084955  -0.392076   3.965563  -4.575922
     9  C   -4.373159  -4.084955  15.631469   3.084934  -0.942766   2.976160
    10  C   -0.995842  -0.392076   3.084934  15.129996  -2.604948  -7.445558
    11  C   -4.487182   3.965563  -0.942766  -2.604948  19.067926  -2.530914
    12  C    3.049326  -4.575922   2.976160  -7.445558  -2.530914  24.520427
    13  H    0.125224   0.072834   0.020634   0.003999   0.013321   0.083163
    14  H    0.005649   0.001498   0.000072  -0.000006   0.000178   0.001134
    15  H    0.015120  -0.000194  -0.000330   0.000098  -0.000532   0.001456
    16  H    0.051134   0.047713   0.314420  -0.025480  -0.029396  -0.013047
    17  H    0.029495   0.003132  -0.083783   0.343941   0.004776   0.044002
    18  Cl  -0.063724  -0.392645   0.381255   0.621293  -0.063714  -1.632130
    19  Cl   0.191180  -0.165869  -0.361785  -0.182447  -0.005249  -0.262620
    20  Cl  -0.633513   0.088923   0.132339  -0.419517  -0.388575   0.884856
    21  Cl   0.112024  -0.075366  -0.769440  -0.154037   0.215511  -0.545213
    22  Cl  -0.204249  -0.042519  -0.001251   0.000965  -0.000326  -0.061397
              13         14         15         16         17         18
     1  C   -0.014829   0.038498   0.093046   0.010272   0.007754  -0.144042
     2  C    0.112546   0.045326  -0.040134  -0.000776  -0.000917  -0.036739
     3  C    0.041783   0.029037  -0.025259  -0.000417  -0.000203   0.315356
     4  C    0.098512   0.316828  -0.034620   0.000082  -0.000019  -0.104117
     5  C   -0.033333  -0.050376   0.335564  -0.000122   0.000081  -0.173744
     6  C   -0.148241  -0.033150   0.016439   0.000665   0.001450   0.104608
     7  C    0.125224   0.005649   0.015120   0.051134   0.029495  -0.063724
     8  C    0.072834   0.001498  -0.000194   0.047713   0.003132  -0.392645
     9  C    0.020634   0.000072  -0.000330   0.314420  -0.083783   0.381255
    10  C    0.003999  -0.000006   0.000098  -0.025480   0.343941   0.621293
    11  C    0.013321   0.000178  -0.000532  -0.029396   0.004776  -0.063714
    12  C    0.083163   0.001134   0.001456  -0.013047   0.044002  -1.632130
    13  H    0.517628  -0.000290   0.000047   0.000005  -0.000003  -0.008831
    14  H   -0.000290   0.505716  -0.007662  -0.000000  -0.000000  -0.000284
    15  H    0.000047  -0.007662   0.507436   0.000000  -0.000000  -0.000803
    16  H    0.000005  -0.000000   0.000000   0.504220  -0.007511   0.000548
    17  H   -0.000003  -0.000000  -0.000000  -0.007511   0.501453  -0.001461
    18  Cl  -0.008831  -0.000284  -0.000803   0.000548  -0.001461  17.812606
    19  Cl  -0.002958   0.000111  -0.013373  -0.000695  -0.000213   0.109642
    20  Cl   0.000555   0.000001  -0.000003  -0.000262  -0.001543  -0.204121
    21  Cl  -0.007709  -0.000208  -0.000696  -0.007869   0.000337  -0.063782
    22  Cl  -0.019033  -0.007729   0.000714  -0.000009   0.000000  -0.002467
              19         20         21         22
     1  C   -0.600178  -0.175054   0.302685  -0.369892
     2  C   -0.173644  -0.005683  -0.123980   1.167638
     3  C    0.104236   0.024954   0.444326  -1.592794
     4  C   -0.010169  -0.000235  -0.081791  -0.163808
     5  C   -0.571789  -0.004775  -0.298109   0.151568
     6  C    0.916235  -0.100308   0.030613   0.290967
     7  C    0.191180  -0.633513   0.112024  -0.204249
     8  C   -0.165869   0.088923  -0.075366  -0.042519
     9  C   -0.361785   0.132339  -0.769440  -0.001251
    10  C   -0.182447  -0.419517  -0.154037   0.000965
    11  C   -0.005249  -0.388575   0.215511  -0.000326
    12  C   -0.262620   0.884856  -0.545213  -0.061397
    13  H   -0.002958   0.000555  -0.007709  -0.019033
    14  H    0.000111   0.000001  -0.000208  -0.007729
    15  H   -0.013373  -0.000003  -0.000696   0.000714
    16  H   -0.000695  -0.000262  -0.007869  -0.000009
    17  H   -0.000213  -0.001543   0.000337   0.000000
    18  Cl   0.109642  -0.204121  -0.063782  -0.002467
    19  Cl  17.554888  -0.003962   0.100982  -0.012743
    20  Cl  -0.003962  17.334026  -0.008788   0.000132
    21  Cl   0.100982  -0.008788  17.504134  -0.001104
    22  Cl  -0.012743   0.000132  -0.001104  17.444834
 Mulliken charges:
               1
     1  C   -0.489937
     2  C   -0.659209
     3  C    0.714490
     4  C   -0.598055
     5  C   -0.265703
     6  C   -0.594484
     7  C    0.123767
     8  C   -0.080878
     9  C   -0.368391
    10  C   -0.600150
    11  C    1.104114
    12  C   -1.323900
    13  H    0.144977
    14  H    0.155658
    15  H    0.153688
    16  H    0.156524
    17  H    0.159233
    18  Cl   0.547296
    19  Cl   0.390419
    20  Cl   0.480554
    21  Cl   0.427483
    22  Cl   0.422504
 Sum of Mulliken charges =  -0.00000
 Mulliken charges with hydrogens summed into heavy atoms:
               1
     1  C   -0.489937
     2  C   -0.514233
     3  C    0.714490
     4  C   -0.442397
     5  C   -0.112015
     6  C   -0.594484
     7  C    0.123767
     8  C   -0.080878
     9  C   -0.211867
    10  C   -0.440917
    11  C    1.104114
    12  C   -1.323900
    18  Cl   0.547296
    19  Cl   0.390419
    20  Cl   0.480554
    21  Cl   0.427483
    22  Cl   0.422504
 Electronic spatial extent (au):  <R**2>=           6255.2091
 Charge=              0.0000 electrons
 Dipole moment (field-independent basis, Debye):
    X=             -0.2691    Y=              1.0901    Z=              0.2680  Tot=              1.1543
 Quadrupole moment (field-independent basis, Debye-Ang):
   XX=           -124.7260   YY=           -134.5666   ZZ=           -131.3889
   XY=             -5.3724   XZ=             -9.3402   YZ=              2.2893
 Traceless Quadrupole moment (field-independent basis, Debye-Ang):
   XX=              5.5011   YY=             -4.3394   ZZ=             -1.1617
   XY=             -5.3724   XZ=             -9.3402   YZ=              2.2893
 Octapole moment (field-independent basis, Debye-Ang**2):
  XXX=             -7.2255  YYY=             -4.3478  ZZZ=             -5.4623  XYY=            -13.6505
  XXY=             21.2388  XXZ=            -16.5509  XZZ=              4.1921  YZZ=             -1.5473
  YYZ=              2.3670  XYZ=             -5.9087
 Hexadecapole moment (field-independent basis, Debye-Ang**3):
 XXXX=          -4905.5628 YYYY=          -1824.9415 ZZZZ=          -1379.2135 XXXY=            -32.4815
 XXXZ=           -122.1157 YYYX=             22.4145 YYYZ=             22.4374 ZZZX=             19.7945
 ZZZY=            -17.2827 XXYY=          -1134.1999 XXZZ=          -1036.3554 YYZZ=           -537.9417
 XXYZ=             33.2694 YYXZ=              1.2190 ZZXY=             -8.4852
 N-N= 1.766952263903D+03 E-N=-1.007091157485D+04  KE= 2.754120833781D+03
 1\1\GINC-CN044\FOpt\RB3LYP\6-311+G(d,p)\C12H5Cl5\20CY91R06\23-Apr-2022
 \0\\# opt b3lyp/6-311+g(d,p) scf=xqc\\Title Card Required\\0,1\C,0.964
 4065805,0.4308748323,-0.0038605761\C,1.6882991169,0.7359719007,-1.1605
 104721\C,2.3744957591,1.9391954615,-1.2593622712\C,2.3583514545,2.8615
 988978,-0.2183527938\C,1.6417102321,2.5668387507,0.9360529706\C,0.9526
 404792,1.3620259541,1.0390989622\C,0.2393793124,-0.8706459126,0.085141
 2397\C,0.8646464994,-2.0170275676,0.5886545303\C,0.2047212503,-3.23891
 2164,0.6635479085\C,-1.1088992784,-3.3338016682,0.2288760298\C,-1.7620
 255571,-2.2147964922,-0.2791946492\C,-1.091834297,-0.98923596,-0.35169
 85563\H,1.7111939984,0.0290419794,-1.9797439559\H,2.896788456,3.796277
 3736,-0.3060809535\H,1.6166366844,3.2710737851,1.7574857603\H,0.716206
 1699,-4.1060012603,1.0595456929\H,-1.636107741,-4.2774490284,0.2811113
 453\Cl,-1.9041578095,0.4184936087,-0.9837227204\Cl,0.0595770747,1.0274
 759689,2.5112292414\Cl,-3.4146464774,-2.3841512995,-0.8157133106\Cl,2.
 5233458848,-1.9343498385,1.1508307695\Cl,3.2759779379,2.2987576985,-2.
 7222307714\\Version=EM64L-G16RevB.01\State=1-A\HF=-2761.518294\RMSD=2.
 928e-09\RMSF=2.267e-05\Dipole=0.2075444,-0.3327641,0.2290046\Quadrupol
 e=-5.5704298,9.6898457,-4.1194159,2.875689,0.7136783,1.1354173\PG=C01 
 [X(C12H5Cl5)]\\@


 FROM THE ASHES OF OUR DESPAIR GROW THE FLOWERS OF TOMORROW.
 Job cpu time:       1 days 12 hours  6 minutes 34.5 seconds.
 Elapsed time:       1 days 12 hours  6 minutes 35.3 seconds.
 File lengths (MBytes):  RWF=    133 Int=      0 D2E=      0 Chk=     20 Scr=      1
 Normal termination of Gaussian 16 at Sat Apr 23 15:12:20 2022.
