 Entering Gaussian System, Link 0=g16
 Input=2,2prime,3,3prime-Tetrachlorobiphenyl1.gjf
 Output=2,2prime,3,3prime-Tetrachlorobiphenyl1.log
 Initial command:
 /home/apps/g16/l1.exe "./Gau-253671.inp" -scrdir="./"
 Entering Link 1 = /home/apps/g16/l1.exe PID=    253672.
  
 Copyright (c) 1988-2017, Gaussian, Inc.  All Rights Reserved.
  
 This is part of the Gaussian(R) 16 program.  It is based on
 the Gaussian(R) 09 system (copyright 2009, Gaussian, Inc.),
 the Gaussian(R) 03 system (copyright 2003, Gaussian, Inc.),
 the Gaussian(R) 98 system (copyright 1998, Gaussian, Inc.),
 the Gaussian(R) 94 system (copyright 1995, Gaussian, Inc.),
 the Gaussian 92(TM) system (copyright 1992, Gaussian, Inc.),
 the Gaussian 90(TM) system (copyright 1990, Gaussian, Inc.),
 the Gaussian 88(TM) system (copyright 1988, Gaussian, Inc.),
 the Gaussian 86(TM) system (copyright 1986, Carnegie Mellon
 University), and the Gaussian 82(TM) system (copyright 1983,
 Carnegie Mellon University). Gaussian is a federally registered
 trademark of Gaussian, Inc.
  
 This software contains proprietary and confidential information,
 including trade secrets, belonging to Gaussian, Inc.
  
 This software is provided under written license and may be
 used, copied, transmitted, or stored only in accord with that
 written license.
  
 The following legend is applicable only to US Government
 contracts under FAR:
  
                    RESTRICTED RIGHTS LEGEND
  
 Use, reproduction and disclosure by the US Government is
 subject to restrictions as set forth in subparagraphs (a)
 and (c) of the Commercial Computer Software - Restricted
 Rights clause in FAR 52.227-19.
  
 Gaussian, Inc.
 340 Quinnipiac St., Bldg. 40, Wallingford CT 06492
  
  
 ---------------------------------------------------------------
 Warning -- This program may not be used in any manner that
 competes with the business of Gaussian, Inc. or will provide
 assistance to any competitor of Gaussian, Inc.  The licensee
 of this program is prohibited from giving any competitor of
 Gaussian, Inc. access to this program.  By using this program,
 the user acknowledges that Gaussian, Inc. is engaged in the
 business of creating and licensing software in the field of
 computational chemistry and represents and warrants to the
 licensee that it is not a competitor of Gaussian, Inc. and that
 it will not use this program in any manner prohibited above.
 ---------------------------------------------------------------
  

 Cite this work as:
 Gaussian 16, Revision B.01,
 M. J. Frisch, G. W. Trucks, H. B. Schlegel, G. E. Scuseria, 
 M. A. Robb, J. R. Cheeseman, G. Scalmani, V. Barone, 
 G. A. Petersson, H. Nakatsuji, X. Li, M. Caricato, A. V. Marenich, 
 J. Bloino, B. G. Janesko, R. Gomperts, B. Mennucci, H. P. Hratchian, 
 J. V. Ortiz, A. F. Izmaylov, J. L. Sonnenberg, D. Williams-Young, 
 F. Ding, F. Lipparini, F. Egidi, J. Goings, B. Peng, A. Petrone, 
 T. Henderson, D. Ranasinghe, V. G. Zakrzewski, J. Gao, N. Rega, 
 G. Zheng, W. Liang, M. Hada, M. Ehara, K. Toyota, R. Fukuda, 
 J. Hasegawa, M. Ishida, T. Nakajima, Y. Honda, O. Kitao, H. Nakai, 
 T. Vreven, K. Throssell, J. A. Montgomery, Jr., J. E. Peralta, 
 F. Ogliaro, M. J. Bearpark, J. J. Heyd, E. N. Brothers, K. N. Kudin, 
 V. N. Staroverov, T. A. Keith, R. Kobayashi, J. Normand, 
 K. Raghavachari, A. P. Rendell, J. C. Burant, S. S. Iyengar, 
 J. Tomasi, M. Cossi, J. M. Millam, M. Klene, C. Adamo, R. Cammi, 
 J. W. Ochterski, R. L. Martin, K. Morokuma, O. Farkas, 
 J. B. Foresman, and D. J. Fox, Gaussian, Inc., Wallingford CT, 2016.
 
 ******************************************
 Gaussian 16:  EM64L-G16RevB.01 20-Dec-2017
                13-Apr-2022 
 ******************************************
 %mem=48GB
 %nprocshared=16
 Will use up to   16 processors via shared memory.
 --------------------------------
 # opt b3lyp/6-311+g(d,p) scf=xqc
 --------------------------------
 1/18=20,19=15,26=3,38=1/1,3;
 2/9=110,12=2,17=6,18=5,40=1/2;
 3/5=4,6=6,7=111,11=2,25=1,30=1,71=1,74=-5/1,2,3;
 4//1;
 5/5=2,8=3,13=1,38=5/2,8;
 6/7=2,8=2,9=2,10=2,28=1/1;
 7//1,2,3,16;
 1/18=20,19=15,26=3/3(2);
 2/9=110/2;
 99//99;
 2/9=110/2;
 3/5=4,6=6,7=111,11=2,25=1,30=1,71=1,74=-5/1,2,3;
 4/5=5,16=3,69=1/1;
 5/5=2,8=3,13=1,38=5/2,8;
 7//1,2,3,16;
 1/18=20,19=15,26=3/3(-5);
 2/9=110/2;
 6/7=2,8=2,9=2,10=2,19=2,28=1/1;
 99/9=1/99;
 -------------------
 Title Card Required
 -------------------
 Symbolic Z-matrix:
 Charge =  0 Multiplicity = 1
 C                    -1.7305    1.40569   0.82941 
 C                    -0.39812   1.43557   0.39606 
 C                     0.30977   2.64502   0.38999 
 C                    -0.31471   3.82459   0.81726 
 C                    -1.64709   3.7947    1.25061 
 C                    -2.35499   2.58525   1.25668 
 C                    -2.80835  -0.43585   0.83866 
 C                    -2.18387  -1.61541   0.41138 
 C                    -2.89176  -2.82487   0.41746 
 C                    -4.22414  -2.85475   0.85081 
 C                    -4.84863  -1.67519   1.27808 
 C                    -4.14073  -0.46574   1.27201 
 H                     0.07869   0.53495   0.06983 
 H                     1.32708   2.66784   0.05912 
 H                     0.22578   4.74803   0.81263 
 H                    -1.16656  -1.5926    0.08051 
 H                    -2.41495  -3.72549   0.09122 
 H                    -4.76463  -3.7782    0.85544 
 Cl                   -4.92502   1.01566   1.80862 
 Cl                   -4.02831   2.54772   1.80092 
 Cl                   -6.52194  -1.71272   1.82232 
 Cl                   -2.43138   5.2761    1.78721 
 

 GradGradGradGradGradGradGradGradGradGradGradGradGradGradGradGradGradGrad
 Berny optimization.
 Initialization pass.
                           ----------------------------
                           !    Initial Parameters    !
                           ! (Angstroms and Degrees)  !
 --------------------------                            --------------------------
 ! Name  Definition              Value          Derivative Info.                !
 --------------------------------------------------------------------------------
 ! R1    R(1,2)                  1.4014         estimate D2E/DX2                !
 ! R2    R(1,6)                  1.4014         estimate D2E/DX2                !
 ! R3    R(2,3)                  1.4014         estimate D2E/DX2                !
 ! R4    R(2,13)                 1.07           estimate D2E/DX2                !
 ! R5    R(3,4)                  1.4014         estimate D2E/DX2                !
 ! R6    R(3,14)                 1.07           estimate D2E/DX2                !
 ! R7    R(4,5)                  1.4014         estimate D2E/DX2                !
 ! R8    R(4,15)                 1.07           estimate D2E/DX2                !
 ! R9    R(5,6)                  1.4014         estimate D2E/DX2                !
 ! R10   R(5,22)                 1.76           estimate D2E/DX2                !
 ! R11   R(6,20)                 1.76           estimate D2E/DX2                !
 ! R12   R(7,8)                  1.4014         estimate D2E/DX2                !
 ! R13   R(7,12)                 1.4014         estimate D2E/DX2                !
 ! R14   R(8,9)                  1.4014         estimate D2E/DX2                !
 ! R15   R(8,16)                 1.07           estimate D2E/DX2                !
 ! R16   R(9,10)                 1.4014         estimate D2E/DX2                !
 ! R17   R(9,17)                 1.07           estimate D2E/DX2                !
 ! R18   R(10,11)                1.4014         estimate D2E/DX2                !
 ! R19   R(10,18)                1.07           estimate D2E/DX2                !
 ! R20   R(11,12)                1.4014         estimate D2E/DX2                !
 ! R21   R(11,21)                1.76           estimate D2E/DX2                !
 ! R22   R(12,19)                1.76           estimate D2E/DX2                !
 ! R23   R(19,20)                1.7752         estimate D2E/DX2                !
 ! A1    A(2,1,6)              120.0            estimate D2E/DX2                !
 ! A2    A(1,2,3)              120.0            estimate D2E/DX2                !
 ! A3    A(1,2,13)             120.0            estimate D2E/DX2                !
 ! A4    A(3,2,13)             120.0            estimate D2E/DX2                !
 ! A5    A(2,3,4)              120.0            estimate D2E/DX2                !
 ! A6    A(2,3,14)             120.0            estimate D2E/DX2                !
 ! A7    A(4,3,14)             120.0            estimate D2E/DX2                !
 ! A8    A(3,4,5)              120.0            estimate D2E/DX2                !
 ! A9    A(3,4,15)             120.0            estimate D2E/DX2                !
 ! A10   A(5,4,15)             120.0            estimate D2E/DX2                !
 ! A11   A(4,5,6)              120.0            estimate D2E/DX2                !
 ! A12   A(4,5,22)             120.0            estimate D2E/DX2                !
 ! A13   A(6,5,22)             120.0            estimate D2E/DX2                !
 ! A14   A(1,6,5)              120.0            estimate D2E/DX2                !
 ! A15   A(1,6,20)             120.0            estimate D2E/DX2                !
 ! A16   A(5,6,20)             120.0            estimate D2E/DX2                !
 ! A17   A(8,7,12)             120.0            estimate D2E/DX2                !
 ! A18   A(7,8,9)              120.0            estimate D2E/DX2                !
 ! A19   A(7,8,16)             120.0            estimate D2E/DX2                !
 ! A20   A(9,8,16)             120.0            estimate D2E/DX2                !
 ! A21   A(8,9,10)             120.0            estimate D2E/DX2                !
 ! A22   A(8,9,17)             120.0            estimate D2E/DX2                !
 ! A23   A(10,9,17)            120.0            estimate D2E/DX2                !
 ! A24   A(9,10,11)            120.0            estimate D2E/DX2                !
 ! A25   A(9,10,18)            120.0            estimate D2E/DX2                !
 ! A26   A(11,10,18)           120.0            estimate D2E/DX2                !
 ! A27   A(10,11,12)           120.0            estimate D2E/DX2                !
 ! A28   A(10,11,21)           120.0            estimate D2E/DX2                !
 ! A29   A(12,11,21)           120.0            estimate D2E/DX2                !
 ! A30   A(7,12,11)            120.0            estimate D2E/DX2                !
 ! A31   A(7,12,19)            120.0            estimate D2E/DX2                !
 ! A32   A(11,12,19)           120.0            estimate D2E/DX2                !
 ! A33   A(12,19,20)           120.0            estimate D2E/DX2                !
 ! A34   A(6,20,19)            120.0            estimate D2E/DX2                !
 ! D1    D(6,1,2,3)              0.0001         estimate D2E/DX2                !
 ! D2    D(6,1,2,13)           180.0            estimate D2E/DX2                !
 ! D3    D(2,1,6,5)             -0.0001         estimate D2E/DX2                !
 ! D4    D(2,1,6,20)           180.0            estimate D2E/DX2                !
 ! D5    D(1,2,3,4)              0.0            estimate D2E/DX2                !
 ! D6    D(1,2,3,14)           180.0            estimate D2E/DX2                !
 ! D7    D(13,2,3,4)          -179.9999         estimate D2E/DX2                !
 ! D8    D(13,2,3,14)            0.0001         estimate D2E/DX2                !
 ! D9    D(2,3,4,5)             -0.0001         estimate D2E/DX2                !
 ! D10   D(2,3,4,15)           180.0            estimate D2E/DX2                !
 ! D11   D(14,3,4,5)           179.9999         estimate D2E/DX2                !
 ! D12   D(14,3,4,15)            0.0            estimate D2E/DX2                !
 ! D13   D(3,4,5,6)              0.0001         estimate D2E/DX2                !
 ! D14   D(3,4,5,22)          -179.9999         estimate D2E/DX2                !
 ! D15   D(15,4,5,6)          -180.0            estimate D2E/DX2                !
 ! D16   D(15,4,5,22)            0.0            estimate D2E/DX2                !
 ! D17   D(4,5,6,1)              0.0            estimate D2E/DX2                !
 ! D18   D(4,5,6,20)           179.9999         estimate D2E/DX2                !
 ! D19   D(22,5,6,1)           180.0            estimate D2E/DX2                !
 ! D20   D(22,5,6,20)           -0.0001         estimate D2E/DX2                !
 ! D21   D(1,6,20,19)            0.0004         estimate D2E/DX2                !
 ! D22   D(5,6,20,19)         -179.9996         estimate D2E/DX2                !
 ! D23   D(12,7,8,9)             0.0001         estimate D2E/DX2                !
 ! D24   D(12,7,8,16)         -179.9998         estimate D2E/DX2                !
 ! D25   D(8,7,12,11)           -0.0001         estimate D2E/DX2                !
 ! D26   D(8,7,12,19)          179.9999         estimate D2E/DX2                !
 ! D27   D(7,8,9,10)             0.0            estimate D2E/DX2                !
 ! D28   D(7,8,9,17)           180.0            estimate D2E/DX2                !
 ! D29   D(16,8,9,10)          179.9998         estimate D2E/DX2                !
 ! D30   D(16,8,9,17)           -0.0002         estimate D2E/DX2                !
 ! D31   D(8,9,10,11)            0.0            estimate D2E/DX2                !
 ! D32   D(8,9,10,18)         -179.9999         estimate D2E/DX2                !
 ! D33   D(17,9,10,11)         180.0            estimate D2E/DX2                !
 ! D34   D(17,9,10,18)           0.0001         estimate D2E/DX2                !
 ! D35   D(9,10,11,12)           0.0            estimate D2E/DX2                !
 ! D36   D(9,10,11,21)        -179.9998         estimate D2E/DX2                !
 ! D37   D(18,10,11,12)        179.9999         estimate D2E/DX2                !
 ! D38   D(18,10,11,21)          0.0001         estimate D2E/DX2                !
 ! D39   D(10,11,12,7)           0.0            estimate D2E/DX2                !
 ! D40   D(10,11,12,19)       -179.9999         estimate D2E/DX2                !
 ! D41   D(21,11,12,7)         179.9999         estimate D2E/DX2                !
 ! D42   D(21,11,12,19)         -0.0001         estimate D2E/DX2                !
 ! D43   D(7,12,19,20)           0.0004         estimate D2E/DX2                !
 ! D44   D(11,12,19,20)       -179.9997         estimate D2E/DX2                !
 ! D45   D(12,19,20,6)          -0.0006         estimate D2E/DX2                !
 --------------------------------------------------------------------------------
 Trust Radius=3.00D-01 FncErr=1.00D-07 GrdErr=1.00D-06 EigMax=2.50D+02 EigMin=1.00D-04
 Number of steps in this run=    112 maximum allowed number of steps=    132.
 GradGradGradGradGradGradGradGradGradGradGradGradGradGradGradGradGradGrad

                          Input orientation:                          
 ---------------------------------------------------------------------
 Center     Atomic      Atomic             Coordinates (Angstroms)
 Number     Number       Type             X           Y           Z
 ---------------------------------------------------------------------
      1          6           0       -1.730500    1.405686    0.829409
      2          6           0       -0.398119    1.435572    0.396062
      3          6           0        0.309775    2.645023    0.389990
      4          6           0       -0.314713    3.824588    0.817265
      5          6           0       -1.647094    3.794702    1.250610
      6          6           0       -2.354988    2.585251    1.256682
      7          6           0       -2.808353   -0.435849    0.838656
      8          6           0       -2.183865   -1.615414    0.411381
      9          6           0       -2.891758   -2.824865    0.417456
     10          6           0       -4.224138   -2.854752    0.850805
     11          6           0       -4.848626   -1.675187    1.278081
     12          6           0       -4.140733   -0.465735    1.272006
     13          1           0        0.078692    0.534947    0.069831
     14          1           0        1.327077    2.667841    0.059121
     15          1           0        0.225780    4.748030    0.812629
     16          1           0       -1.166563   -1.592595    0.080512
     17          1           0       -2.414948   -3.725489    0.091222
     18          1           0       -4.764630   -3.778195    0.855445
     19         17           0       -4.925017    1.015664    1.808618
     20         17           0       -4.028308    2.547718    1.800916
     21         17           0       -6.521943   -1.712722    1.822323
     22         17           0       -2.431381    5.276103    1.787215
 ---------------------------------------------------------------------
                    Distance matrix (angstroms):
                    1          2          3          4          5
     1  C    0.000000
     2  C    1.401400   0.000000
     3  C    2.427296   1.401400   0.000000
     4  C    2.802800   2.427296   1.401400   0.000000
     5  C    2.427296   2.802800   2.427296   1.401400   0.000000
     6  C    1.401400   2.427296   2.802800   2.427296   1.401400
     7  C    2.133800   3.083396   4.406335   4.936600   4.406335
     8  C    3.083396   3.535200   4.936600   5.766463   5.501071
     9  C    4.406335   4.936600   6.338000   7.142565   6.786900
    10  C    4.936600   5.766463   7.142565   7.739400   7.142565
    11  C    4.406335   5.501071   6.786900   7.142565   6.338000
    12  C    3.083396   4.288287   5.501071   5.766463   4.936600
    13  H    2.146700   1.070000   2.146700   3.396345   3.872800
    14  H    3.396345   2.146700   1.070000   2.146700   3.396345
    15  H    3.872800   3.396345   2.146700   1.070000   2.146700
    16  H    3.141427   3.140044   4.498084   5.533022   5.533807
    17  H    5.228991   5.549512   6.935186   7.870311   7.647684
    18  H    6.006600   6.816217   8.199022   8.809400   8.199022
    19  Cl   3.363913   4.760719   5.663070   5.488874   4.333498
    20  Cl   2.743718   4.048303   4.562800   4.048303   2.743718
    21  Cl   5.802437   7.031870   8.228845   8.378642   7.377176
    22  Cl   4.048303   4.562800   4.048303   2.743718   1.760000
                    6          7          8          9         10
     6  C    0.000000
     7  C    3.083396   0.000000
     8  C    4.288287   1.401400   0.000000
     9  C    5.501071   2.427296   1.401400   0.000000
    10  C    5.766463   2.802800   2.427296   1.401400   0.000000
    11  C    4.936600   2.427296   2.802800   2.427296   1.401400
    12  C    3.535200   1.401400   2.427296   2.802800   2.427296
    13  H    3.396345   3.141427   3.140044   4.498084   5.533022
    14  H    3.872800   5.228991   5.549512   6.935186   7.870311
    15  H    3.396345   6.006600   6.816217   8.199022   8.809400
    16  H    4.500015   2.146700   1.070000   2.146700   3.396345
    17  H    6.417736   3.396345   2.146700   1.070000   2.146700
    18  H    6.816217   3.872800   3.396345   2.146700   1.070000
    19  Cl   3.061582   2.743718   4.048303   4.562800   4.048303
    20  Cl   1.760000   3.363913   4.760719   5.663070   5.488874
    21  Cl   6.012989   4.048303   4.562800   4.048303   2.743718
    22  Cl   2.743718   5.802437   7.031870   8.228845   8.378642
                   11         12         13         14         15
    11  C    0.000000
    12  C    1.401400   0.000000
    13  H    5.533807   4.500015   0.000000
    14  H    7.647684   6.417736   2.471400   0.000000
    15  H    8.199022   6.816217   4.280590   2.471400   0.000000
    16  H    3.872800   3.396345   2.465200   4.936600   6.532852
    17  H    3.396345   3.872800   4.936600   7.408000   8.904741
    18  H    2.146700   3.396345   6.532852   8.904741   9.879400
    19  Cl   2.743718   1.760000   5.318983   6.699188   6.438421
    20  Cl   4.333498   3.061582   4.890332   5.632800   4.890332
    21  Cl   1.760000   2.743718   7.189689   9.159986   9.396412
    22  Cl   7.377176   6.012989   5.632800   4.890332   2.879094
                   16         17         18         19         20
    16  H    0.000000
    17  H    2.471400   0.000000
    18  H    4.280590   2.471400   0.000000
    19  Cl   4.890332   5.632800   4.890332   0.000000
    20  Cl   5.318983   6.699188   6.438421   1.775200   0.000000
    21  Cl   5.632800   4.890332   2.879094   3.161400   4.936600
    22  Cl   7.189689   9.159986   9.396412   4.936600   3.161400
                   21         22
    21  Cl   0.000000
    22  Cl   8.098000   0.000000
 Stoichiometry    C12H6Cl4
 Framework group  C1[X(C12H6Cl4)]
 Deg. of freedom    60
 Full point group                 C1      NOp   1
 Largest Abelian subgroup         C1      NOp   1
 Largest concise Abelian subgroup C1      NOp   1
                         Standard orientation:                         
 ---------------------------------------------------------------------
 Center     Atomic      Atomic             Coordinates (Angstroms)
 Number     Number       Type             X           Y           Z
 ---------------------------------------------------------------------
      1          6           0       -1.066900    1.216526   -0.000000
      2          6           0       -1.767600    2.430174    0.000002
      3          6           0       -3.169000    2.430174    0.000005
      4          6           0       -3.869700    1.216526    0.000005
      5          6           0       -3.169000    0.002878    0.000001
      6          6           0       -1.767600    0.002878   -0.000001
      7          6           0        1.066900    1.216526   -0.000003
      8          6           0        1.767600    2.430174   -0.000003
      9          6           0        3.169000    2.430174   -0.000004
     10          6           0        3.869700    1.216526   -0.000003
     11          6           0        3.169000    0.002878   -0.000001
     12          6           0        1.767600    0.002878   -0.000001
     13          1           0       -1.232600    3.356821    0.000004
     14          1           0       -3.704000    3.356821    0.000007
     15          1           0       -4.939700    1.216526    0.000008
     16          1           0        1.232600    3.356821   -0.000002
     17          1           0        3.704000    3.356821   -0.000005
     18          1           0        4.939700    1.216526   -0.000001
     19         17           0        0.887600   -1.521327    0.000003
     20         17           0       -0.887600   -1.521327   -0.000005
     21         17           0        4.049000   -1.521327    0.000005
     22         17           0       -4.049000   -1.521327   -0.000002
 ---------------------------------------------------------------------
 Rotational constants (GHZ):           0.6970357           0.2197005           0.1670482
 Standard basis: 6-311+G(d,p) (5D, 7F)
 There are   436 symmetry adapted cartesian basis functions of A   symmetry.
 There are   420 symmetry adapted basis functions of A   symmetry.
   420 basis functions,   692 primitive gaussians,   436 cartesian basis functions
    73 alpha electrons       73 beta electrons
       nuclear repulsion energy      1500.4550616381 Hartrees.
 NAtoms=   22 NActive=   22 NUniq=   22 SFac= 1.00D+00 NAtFMM=   60 NAOKFM=F Big=F
 Integral buffers will be    131072 words long.
 Raffenetti 2 integral format.
 Two-electron integral symmetry is turned on.
 One-electron integrals computed using PRISM.
 NBasis=   420 RedAO= T EigKep=  1.25D-06  NBF=   420
 NBsUse=   415 1.00D-06 EigRej=  9.72D-07 NBFU=   415
 ExpMin= 4.38D-02 ExpMax= 1.06D+05 ExpMxC= 3.62D+03 IAcc=3 IRadAn=         5 AccDes= 0.00D+00
 Harris functional with IExCor=  402 and IRadAn=       5 diagonalized for initial guess.
 HarFok:  IExCor=  402 AccDes= 0.00D+00 IRadAn=         5 IDoV= 1 UseB2=F ITyADJ=14
 ICtDFT=  3500011 ScaDFX=  1.000000  1.000000  1.000000  1.000000
 FoFCou: FMM=F IPFlag=           0 FMFlag=      100000 FMFlg1=           0
         NFxFlg=           0 DoJE=T BraDBF=F KetDBF=T FulRan=T
         wScrn=  0.000000 ICntrl=       500 IOpCl=  0 I1Cent=   200000004 NGrid=           0
         NMat0=    1 NMatS0=      1 NMatT0=    0 NMatD0=    1 NMtDS0=    0 NMtDT0=    0
 Petite list used in FoFCou.
 Requested convergence on RMS density matrix=1.00D-08 within  32 cycles.
 Requested convergence on MAX density matrix=1.00D-06.
 Requested convergence on             energy=1.00D-06.
 No special actions if energy rises.
 EnCoef did     2 forward-backward iterations
 SCF Done:  E(RB3LYP) =  -2301.43136226     A.U. after   19 cycles
            NFock= 19  Conv=0.35D-08     -V/T= 2.0021
 QCSCF skips out because SCF is already converged.

 **********************************************************************

            Population analysis using the SCF Density.

 **********************************************************************

 Orbital symmetries:
       Occupied  (A) (A) (A) (A) (A) (A) (A) (A) (A) (A) (A) (A)
                 (A) (A) (A) (A) (A) (A) (A) (A) (A) (A) (A) (A)
                 (A) (A) (A) (A) (A) (A) (A) (A) (A) (A) (A) (A)
                 (A) (A) (A) (A) (A) (A) (A) (A) (A) (A) (A) (A)
                 (A) (A) (A) (A) (A) (A) (A) (A) (A) (A) (A) (A)
                 (A) (A) (A) (A) (A) (A) (A) (A) (A) (A) (A) (A)
                 (A)
       Virtual   (A) (A) (A) (A) (A) (A) (A) (A) (A) (A) (A) (A)
                 (A) (A) (A) (A) (A) (A) (A) (A) (A) (A) (A) (A)
                 (A) (A) (A) (A) (A) (A) (A) (A) (A) (A) (A) (A)
                 (A) (A) (A) (A) (A) (A) (A) (A) (A) (A) (A) (A)
                 (A) (A) (A) (A) (A) (A) (A) (A) (A) (A) (A) (A)
                 (A) (A) (A) (A) (A) (A) (A) (A) (A) (A) (A) (A)
                 (A) (A) (A) (A) (A) (A) (A) (A) (A) (A) (A) (A)
                 (A) (A) (A) (A) (A) (A) (A) (A) (A) (A) (A) (A)
                 (A) (A) (A) (A) (A) (A) (A) (A) (A) (A) (A) (A)
                 (A) (A) (A) (A) (A) (A) (A) (A) (A) (A) (A) (A)
                 (A) (A) (A) (A) (A) (A) (A) (A) (A) (A) (A) (A)
                 (A) (A) (A) (A) (A) (A) (A) (A) (A) (A) (A) (A)
                 (A) (A) (A) (A) (A) (A) (A) (A) (A) (A) (A) (A)
                 (A) (A) (A) (A) (A) (A) (A) (A) (A) (A) (A) (A)
                 (A) (A) (A) (A) (A) (A) (A) (A) (A) (A) (A) (A)
                 (A) (A) (A) (A) (A) (A) (A) (A) (A) (A) (A) (A)
                 (A) (A) (A) (A) (A) (A) (A) (A) (A) (A) (A) (A)
                 (A) (A) (A) (A) (A) (A) (A) (A) (A) (A) (A) (A)
                 (A) (A) (A) (A) (A) (A) (A) (A) (A) (A) (A) (A)
                 (A) (A) (A) (A) (A) (A) (A) (A) (A) (A) (A) (A)
                 (A) (A) (A) (A) (A) (A) (A) (A) (A) (A) (A) (A)
                 (A) (A) (A) (A) (A) (A) (A) (A) (A) (A) (A) (A)
                 (A) (A) (A) (A) (A) (A) (A) (A) (A) (A) (A) (A)
                 (A) (A) (A) (A) (A) (A) (A) (A) (A) (A) (A) (A)
                 (A) (A) (A) (A) (A) (A) (A) (A) (A) (A) (A) (A)
                 (A) (A) (A) (A) (A) (A) (A) (A) (A) (A) (A) (A)
                 (A) (A) (A) (A) (A) (A) (A) (A) (A) (A) (A) (A)
                 (A) (A) (A) (A) (A) (A) (A) (A) (A) (A) (A) (A)
                 (A) (A) (A) (A) (A) (A)
 The electronic state is 1-A.
 Alpha  occ. eigenvalues -- -101.58251-101.58251-101.56066-101.56066 -10.26367
 Alpha  occ. eigenvalues --  -10.26367 -10.25805 -10.25805 -10.23216 -10.23213
 Alpha  occ. eigenvalues --  -10.20463 -10.20463 -10.20404 -10.20403 -10.20327
 Alpha  occ. eigenvalues --  -10.20327  -9.50760  -9.50747  -9.47536  -9.47536
 Alpha  occ. eigenvalues --   -7.27351  -7.27299  -7.26146  -7.26124  -7.25846
 Alpha  occ. eigenvalues --   -7.25843  -7.24008  -7.24008  -7.23021  -7.23021
 Alpha  occ. eigenvalues --   -7.22964  -7.22964  -1.03794  -0.91767  -0.90727
 Alpha  occ. eigenvalues --   -0.85351  -0.85197  -0.84116  -0.78360  -0.75695
 Alpha  occ. eigenvalues --   -0.75055  -0.73734  -0.65616  -0.62973  -0.61311
 Alpha  occ. eigenvalues --   -0.60943  -0.57725  -0.51995  -0.51924  -0.50468
 Alpha  occ. eigenvalues --   -0.49132  -0.47277  -0.46612  -0.46311  -0.45733
 Alpha  occ. eigenvalues --   -0.43759  -0.43141  -0.42099  -0.40892  -0.40689
 Alpha  occ. eigenvalues --   -0.39967  -0.38021  -0.35109  -0.34551  -0.33398
 Alpha  occ. eigenvalues --   -0.33340  -0.32597  -0.31386  -0.28941  -0.26889
 Alpha  occ. eigenvalues --   -0.26181  -0.24936  -0.13191
 Alpha virt. eigenvalues --   -0.06029  -0.05346  -0.05339  -0.04770  -0.03409
 Alpha virt. eigenvalues --   -0.02223  -0.00481   0.00422   0.00738   0.01516
 Alpha virt. eigenvalues --    0.01864   0.02342   0.03283   0.04319   0.04517
 Alpha virt. eigenvalues --    0.04865   0.04871   0.05900   0.06724   0.06970
 Alpha virt. eigenvalues --    0.07135   0.07749   0.07911   0.08436   0.08768
 Alpha virt. eigenvalues --    0.09317   0.09880   0.10193   0.11021   0.11026
 Alpha virt. eigenvalues --    0.11220   0.11460   0.11749   0.12753   0.13103
 Alpha virt. eigenvalues --    0.13219   0.13289   0.14069   0.14509   0.15370
 Alpha virt. eigenvalues --    0.16063   0.16114   0.16441   0.16691   0.17309
 Alpha virt. eigenvalues --    0.17351   0.17707   0.17718   0.18225   0.18456
 Alpha virt. eigenvalues --    0.19516   0.19690   0.20419   0.20562   0.20975
 Alpha virt. eigenvalues --    0.21248   0.21630   0.21708   0.22126   0.23161
 Alpha virt. eigenvalues --    0.23318   0.23472   0.23741   0.24884   0.25243
 Alpha virt. eigenvalues --    0.25389   0.25786   0.26616   0.27279   0.27951
 Alpha virt. eigenvalues --    0.28002   0.28782   0.29054   0.29428   0.29882
 Alpha virt. eigenvalues --    0.30829   0.31739   0.33065   0.33524   0.34353
 Alpha virt. eigenvalues --    0.34923   0.35147   0.35277   0.37688   0.40206
 Alpha virt. eigenvalues --    0.42460   0.42585   0.44031   0.44501   0.44561
 Alpha virt. eigenvalues --    0.44586   0.44621   0.46282   0.47141   0.48476
 Alpha virt. eigenvalues --    0.50175   0.50565   0.50906   0.51122   0.51132
 Alpha virt. eigenvalues --    0.51191   0.53326   0.53455   0.53555   0.54561
 Alpha virt. eigenvalues --    0.54791   0.56579   0.57336   0.58297   0.58627
 Alpha virt. eigenvalues --    0.59177   0.59228   0.59368   0.59874   0.60755
 Alpha virt. eigenvalues --    0.61817   0.62258   0.62568   0.64016   0.64411
 Alpha virt. eigenvalues --    0.64586   0.66798   0.67646   0.67715   0.69435
 Alpha virt. eigenvalues --    0.69731   0.70048   0.71317   0.72399   0.75419
 Alpha virt. eigenvalues --    0.77438   0.78401   0.78866   0.79281   0.80783
 Alpha virt. eigenvalues --    0.81048   0.81448   0.81857   0.82914   0.83584
 Alpha virt. eigenvalues --    0.84681   0.85615   0.85782   0.85827   0.86174
 Alpha virt. eigenvalues --    0.87433   0.89041   0.89381   0.89392   0.90232
 Alpha virt. eigenvalues --    0.90249   0.91922   0.93122   0.93225   0.94513
 Alpha virt. eigenvalues --    0.96029   0.96465   0.96819   0.97281   0.97720
 Alpha virt. eigenvalues --    0.97756   0.98634   0.99067   0.99380   0.99977
 Alpha virt. eigenvalues --    1.01287   1.02462   1.03896   1.05361   1.07652
 Alpha virt. eigenvalues --    1.08452   1.08954   1.09167   1.12786   1.14318
 Alpha virt. eigenvalues --    1.16082   1.19438   1.23639   1.23967   1.24266
 Alpha virt. eigenvalues --    1.26001   1.26555   1.26568   1.28193   1.28448
 Alpha virt. eigenvalues --    1.28656   1.30720   1.32146   1.37336   1.42551
 Alpha virt. eigenvalues --    1.45976   1.49361   1.49680   1.50317   1.50774
 Alpha virt. eigenvalues --    1.51032   1.55197   1.55265   1.55300   1.58861
 Alpha virt. eigenvalues --    1.59030   1.60401   1.61415   1.64896   1.66210
 Alpha virt. eigenvalues --    1.67218   1.68866   1.71523   1.71884   1.72495
 Alpha virt. eigenvalues --    1.76250   1.79697   1.81395   1.84591   1.84686
 Alpha virt. eigenvalues --    1.85260   1.87175   1.88409   1.88478   1.88543
 Alpha virt. eigenvalues --    1.88812   1.90253   1.90284   1.92049   1.93970
 Alpha virt. eigenvalues --    1.95859   1.97388   1.97694   1.98328   2.03391
 Alpha virt. eigenvalues --    2.04593   2.07598   2.13306   2.18558   2.19734
 Alpha virt. eigenvalues --    2.20338   2.20346   2.21744   2.25726   2.28320
 Alpha virt. eigenvalues --    2.28592   2.29147   2.29332   2.30731   2.31791
 Alpha virt. eigenvalues --    2.34121   2.36353   2.39811   2.39829   2.41099
 Alpha virt. eigenvalues --    2.43799   2.43989   2.44779   2.53756   2.54225
 Alpha virt. eigenvalues --    2.54277   2.55402   2.59808   2.61104   2.61175
 Alpha virt. eigenvalues --    2.62881   2.62971   2.66090   2.67208   2.68245
 Alpha virt. eigenvalues --    2.69576   2.72010   2.74072   2.74715   2.75066
 Alpha virt. eigenvalues --    2.75403   2.75974   2.76900   2.77504   2.77673
 Alpha virt. eigenvalues --    2.79105   2.80425   2.81548   2.85287   2.86401
 Alpha virt. eigenvalues --    2.87317   2.88959   3.04364   3.04828   3.07370
 Alpha virt. eigenvalues --    3.10985   3.16279   3.16512   3.19470   3.19573
 Alpha virt. eigenvalues --    3.27554   3.29332   3.32562   3.36037   3.36787
 Alpha virt. eigenvalues --    3.40062   3.49919   3.52675   3.65145   3.70380
 Alpha virt. eigenvalues --    3.71244   3.74844   3.95993   4.00668   4.04120
 Alpha virt. eigenvalues --    4.07603   4.08321   4.15558   4.80315   4.81317
 Alpha virt. eigenvalues --    9.73817   9.79246   9.82213   9.95250  23.39983
 Alpha virt. eigenvalues --   23.43273  23.85200  23.87441  23.87988  23.89903
 Alpha virt. eigenvalues --   23.97053  23.98915  24.02113  24.02797  24.12005
 Alpha virt. eigenvalues --   24.12801  25.75983  25.80843  25.84915  26.01736
 Alpha virt. eigenvalues --   26.10904  26.18785  26.26367  26.43266  26.67948
 Alpha virt. eigenvalues --   26.83308  26.96863  27.16045 215.73834 215.78893
 Alpha virt. eigenvalues --  215.83969 216.00617
          Condensed to atoms (all electrons):
               1          2          3          4          5          6
     1  C   20.531024  -1.785399  -1.006579  -1.116232   2.373103  -6.573626
     2  C   -1.785399  10.877517  -1.408655   1.558145  -1.068038  -1.424579
     3  C   -1.006579  -1.408655   9.253295  -0.838155   0.082240   0.174549
     4  C   -1.116232   1.558145  -0.838155  12.641978  -5.705305   0.040582
     5  C    2.373103  -1.068038   0.082240  -5.705305  15.529701  -6.373433
     6  C   -6.573626  -1.424579   0.174549   0.040582  -6.373433  30.190419
     7  C    5.901673  -0.307414  -0.874778   0.031827   0.030245  -4.856431
     8  C   -0.307414   0.825390  -0.181895   0.168309   0.082129  -1.035981
     9  C   -0.874778  -0.181895  -0.006097  -0.038586   0.000571  -0.329918
    10  C    0.031827   0.168309  -0.038586   0.073068   0.020750   0.179076
    11  C    0.030245   0.082129   0.000571   0.020750   0.105014  -0.595216
    12  C   -4.856430  -1.035981  -0.329918   0.179076  -0.595215   0.233477
    13  H    0.057059   0.285775   0.015233  -0.041251   0.014253  -0.015298
    14  H   -0.008725  -0.033560   0.419093  -0.019604  -0.047470   0.031965
    15  H    0.004525  -0.053364  -0.010828   0.290597   0.080760   0.027789
    16  H    0.013701   0.008337   0.009594  -0.002296   0.004812  -0.033152
    17  H   -0.005179   0.003595  -0.000423   0.000107   0.000088  -0.000215
    18  H   -0.002758   0.000434   0.000078  -0.000015  -0.000040   0.000368
    19  Cl   1.353471   0.648533  -0.907236   0.910277  -2.044532  12.003530
    20  Cl  -7.238350  -1.078319   2.000780  -1.353367   3.875136 -15.233818
    21  Cl   0.002164  -0.029166   0.003451  -0.002566  -0.003547  -0.107600
    22  Cl  -0.001931   0.210243  -0.086927  -0.411519  -0.538964   0.646727
               7          8          9         10         11         12
     1  C    5.901673  -0.307414  -0.874778   0.031827   0.030245  -4.856430
     2  C   -0.307414   0.825390  -0.181895   0.168309   0.082129  -1.035981
     3  C   -0.874778  -0.181895  -0.006097  -0.038586   0.000571  -0.329918
     4  C    0.031827   0.168309  -0.038586   0.073068   0.020750   0.179076
     5  C    0.030245   0.082129   0.000571   0.020750   0.105014  -0.595215
     6  C   -4.856431  -1.035981  -0.329918   0.179076  -0.595216   0.233477
     7  C   20.531024  -1.785399  -1.006579  -1.116232   2.373103  -6.573626
     8  C   -1.785399  10.877517  -1.408655   1.558145  -1.068038  -1.424579
     9  C   -1.006579  -1.408655   9.253294  -0.838155   0.082240   0.174549
    10  C   -1.116232   1.558145  -0.838155  12.641978  -5.705305   0.040582
    11  C    2.373103  -1.068038   0.082240  -5.705305  15.529701  -6.373433
    12  C   -6.573626  -1.424579   0.174549   0.040582  -6.373433  30.190420
    13  H    0.013701   0.008337   0.009594  -0.002296   0.004812  -0.033152
    14  H   -0.005179   0.003595  -0.000423   0.000107   0.000088  -0.000215
    15  H   -0.002758   0.000434   0.000078  -0.000015  -0.000040   0.000368
    16  H    0.057059   0.285775   0.015233  -0.041251   0.014253  -0.015298
    17  H   -0.008725  -0.033560   0.419093  -0.019604  -0.047470   0.031965
    18  H    0.004525  -0.053364  -0.010828   0.290597   0.080760   0.027789
    19  Cl  -7.238349  -1.078319   2.000780  -1.353367   3.875136 -15.233820
    20  Cl   1.353471   0.648533  -0.907236   0.910277  -2.044532  12.003531
    21  Cl  -0.001931   0.210243  -0.086927  -0.411519  -0.538964   0.646727
    22  Cl   0.002164  -0.029166   0.003451  -0.002566  -0.003547  -0.107600
              13         14         15         16         17         18
     1  C    0.057059  -0.008725   0.004525   0.013701  -0.005179  -0.002758
     2  C    0.285775  -0.033560  -0.053364   0.008337   0.003595   0.000434
     3  C    0.015233   0.419093  -0.010828   0.009594  -0.000423   0.000078
     4  C   -0.041251  -0.019604   0.290597  -0.002296   0.000107  -0.000015
     5  C    0.014253  -0.047470   0.080760   0.004812   0.000088  -0.000040
     6  C   -0.015298   0.031965   0.027789  -0.033152  -0.000215   0.000368
     7  C    0.013701  -0.005179  -0.002758   0.057059  -0.008725   0.004525
     8  C    0.008337   0.003595   0.000434   0.285775  -0.033560  -0.053364
     9  C    0.009594  -0.000423   0.000078   0.015233   0.419093  -0.010828
    10  C   -0.002296   0.000107  -0.000015  -0.041251  -0.019604   0.290597
    11  C    0.004812   0.000088  -0.000040   0.014253  -0.047470   0.080760
    12  C   -0.033152  -0.000215   0.000368  -0.015298   0.031965   0.027789
    13  H    0.547137  -0.006219  -0.000198   0.001921  -0.000001  -0.000001
    14  H   -0.006219   0.529861  -0.005971  -0.000001   0.000000  -0.000000
    15  H   -0.000198  -0.005971   0.511766  -0.000001  -0.000000  -0.000000
    16  H    0.001921  -0.000001  -0.000001   0.547137  -0.006219  -0.000198
    17  H   -0.000001   0.000000  -0.000000  -0.006219   0.529861  -0.005971
    18  H   -0.000001  -0.000000  -0.000000  -0.000198  -0.005971   0.511766
    19  Cl  -0.013959  -0.001783  -0.002967   0.023139   0.009291   0.019140
    20  Cl   0.023139   0.009291   0.019140  -0.013959  -0.001783  -0.002967
    21  Cl   0.000061  -0.000000   0.000001  -0.000020  -0.001627  -0.008848
    22  Cl  -0.000020  -0.001627  -0.008848   0.000061  -0.000000   0.000001
              19         20         21         22
     1  C    1.353471  -7.238350   0.002164  -0.001931
     2  C    0.648533  -1.078319  -0.029166   0.210243
     3  C   -0.907236   2.000780   0.003451  -0.086927
     4  C    0.910277  -1.353367  -0.002566  -0.411519
     5  C   -2.044532   3.875136  -0.003547  -0.538964
     6  C   12.003530 -15.233818  -0.107600   0.646727
     7  C   -7.238349   1.353471  -0.001931   0.002164
     8  C   -1.078319   0.648533   0.210243  -0.029166
     9  C    2.000780  -0.907236  -0.086927   0.003451
    10  C   -1.353367   0.910277  -0.411519  -0.002566
    11  C    3.875136  -2.044532  -0.538964  -0.003547
    12  C  -15.233820  12.003531   0.646727  -0.107600
    13  H   -0.013959   0.023139   0.000061  -0.000020
    14  H   -0.001783   0.009291  -0.000000  -0.001627
    15  H   -0.002967   0.019140   0.000001  -0.008848
    16  H    0.023139  -0.013959  -0.000020   0.000061
    17  H    0.009291  -0.001783  -0.001627  -0.000000
    18  H    0.019140  -0.002967  -0.008848   0.000001
    19  Cl  61.229864 -37.756763  -0.666615  -0.088602
    20  Cl -37.756763  61.229863  -0.088602  -0.666615
    21  Cl  -0.666615  -0.088602  17.608694  -0.002094
    22  Cl  -0.088602  -0.666615  -0.002094  17.608694
 Mulliken charges:
               1
     1  C   -0.521390
     2  C   -0.262036
     3  C   -0.268805
     4  C   -0.385817
     5  C    0.177743
     6  C   -0.949216
     7  C   -0.521390
     8  C   -0.262036
     9  C   -0.268805
    10  C   -0.385817
    11  C    0.177743
    12  C   -0.949216
    13  H    0.131375
    14  H    0.136778
    15  H    0.149533
    16  H    0.131375
    17  H    0.136778
    18  H    0.149533
    19  Cl   1.313151
    20  Cl   1.313151
    21  Cl   0.478686
    22  Cl   0.478686
 Sum of Mulliken charges =  -0.00000
 Mulliken charges with hydrogens summed into heavy atoms:
               1
     1  C   -0.521390
     2  C   -0.130662
     3  C   -0.132027
     4  C   -0.236284
     5  C    0.177743
     6  C   -0.949216
     7  C   -0.521390
     8  C   -0.130662
     9  C   -0.132027
    10  C   -0.236284
    11  C    0.177743
    12  C   -0.949216
    19  Cl   1.313151
    20  Cl   1.313151
    21  Cl   0.478686
    22  Cl   0.478686
 Electronic spatial extent (au):  <R**2>=           5815.7329
 Charge=             -0.0000 electrons
 Dipole moment (field-independent basis, Debye):
    X=             -0.0000    Y=              3.4827    Z=              0.0000  Tot=              3.4827
 Quadrupole moment (field-independent basis, Debye-Ang):
   XX=           -117.3858   YY=           -108.9544   ZZ=           -124.5985
   XY=              0.0000   XZ=             -0.0000   YZ=              0.0000
 Traceless Quadrupole moment (field-independent basis, Debye-Ang):
   XX=             -0.4062   YY=              8.0251   ZZ=             -7.6189
   XY=              0.0000   XZ=             -0.0000   YZ=              0.0000
 Octapole moment (field-independent basis, Debye-Ang**2):
  XXX=              0.0000  YYY=              2.8936  ZZZ=              0.0000  XYY=              0.0000
  XXY=             48.6991  XXZ=              0.0001  XZZ=             -0.0000  YZZ=            -20.4909
  YYZ=              0.0001  XYZ=             -0.0000
 Hexadecapole moment (field-independent basis, Debye-Ang**3):
 XXXX=          -5609.4066 YYYY=          -1780.2160 ZZZZ=           -147.7527 XXXY=             -0.0000
 XXXZ=             -0.0003 YYYX=              0.0000 YYYZ=              0.0002 ZZZX=              0.0003
 ZZZY=              0.0000 XXYY=          -1193.9725 XXZZ=          -1049.6148 YYZZ=           -378.9014
 XXYZ=              0.0002 YYXZ=             -0.0002 ZZXY=             -0.0000
 N-N= 1.500455061638D+03 E-N=-8.445481341018D+03  KE= 2.296565840275D+03
 Calling FoFJK, ICntrl=      2127 FMM=F ISym2X=0 I1Cent= 0 IOpClX= 0 NMat=1 NMatS=1 NMatT=0.
 ***** Axes restored to original set *****
 -------------------------------------------------------------------
 Center     Atomic                   Forces (Hartrees/Bohr)
 Number     Number              X              Y              Z
 -------------------------------------------------------------------
      1        6          -0.020340835   -0.018358316    0.003253638
      2        6          -0.016865808    0.005703625    0.006627776
      3        6          -0.019296155    0.002718916    0.006867956
      4        6          -0.003794338   -0.011001797   -0.000816379
      5        6           0.003260197   -0.009214257   -0.002804434
      6        6           0.040163829    0.010521375   -0.011256213
      7        6           0.006060116    0.026748373    0.003026978
      8        6          -0.013202764    0.011961956    0.006596440
      9        6          -0.011789536    0.015544231    0.006803448
     10        6           0.007730835    0.008689076   -0.000915075
     11        6           0.009617963    0.001648204   -0.002859103
     12        6           0.010444702   -0.040254372   -0.011001256
     13        1           0.004312950   -0.008289495   -0.002977824
     14        1           0.009200326    0.000677757   -0.002903768
     15        1           0.004004121    0.008443581    0.000266590
     16        1           0.009326446    0.000276217   -0.003020895
     17        1           0.003901577   -0.008375252   -0.002858336
     18        1          -0.005399968   -0.007623512    0.000347272
     19       17          -0.234710604   -0.372579657    0.007355935
     20       17           0.209945609    0.387129333    0.003535563
     21       17           0.000268902   -0.008071833   -0.001604634
     22       17           0.007162438    0.003705848   -0.001663678
 -------------------------------------------------------------------
 Cartesian Forces:  Max     0.387129333 RMS     0.077448500

 GradGradGradGradGradGradGradGradGradGradGradGradGradGradGradGradGradGrad
 Berny optimization.
 FormGI is forming the generalized inverse of G from B-inverse, IUseBI=4.
 Internal  Forces:  Max     0.431080951 RMS     0.054741698
 Search for a local minimum.
 Step number   1 out of a maximum of  112
 All quantities printed in internal units (Hartrees-Bohrs-Radians)
 Mixed Optimization -- RFO/linear search
 Second derivative matrix not updated -- first step.
 ITU=  0
     Eigenvalues ---    0.00238   0.00238   0.01655   0.01655   0.02070
     Eigenvalues ---    0.02070   0.02070   0.02070   0.02070   0.02070
     Eigenvalues ---    0.02070   0.02070   0.02070   0.02070   0.02070
     Eigenvalues ---    0.02070   0.02070   0.02070   0.02948   0.16000
     Eigenvalues ---    0.16000   0.16000   0.16000   0.16000   0.16000
     Eigenvalues ---    0.22076   0.22076   0.23331   0.23331   0.24905
     Eigenvalues ---    0.24905   0.25000   0.25000   0.25000   0.25000
     Eigenvalues ---    0.25000   0.25000   0.29539   0.29539   0.29539
     Eigenvalues ---    0.29539   0.37230   0.37230   0.37230   0.37230
     Eigenvalues ---    0.37230   0.37230   0.41539   0.41539   0.41990
     Eigenvalues ---    0.41990   0.45389   0.45389   0.45389   0.45389
     Eigenvalues ---    0.45389   0.45389   0.45389   0.45389   0.81410
 RFO step:  Lambda=-3.56046885D-01 EMin= 2.37799113D-03
 Linear search not attempted -- first point.
 Maximum step size (   0.300) exceeded in Quadratic search.
    -- Step size scaled by   0.442
 Iteration  1 RMS(Cart)=  0.30344690 RMS(Int)=  0.01568642
 Iteration  2 RMS(Cart)=  0.26239958 RMS(Int)=  0.00551091
 Iteration  3 RMS(Cart)=  0.00905668 RMS(Int)=  0.00000250
 Iteration  4 RMS(Cart)=  0.00000440 RMS(Int)=  0.00000245
 Iteration  5 RMS(Cart)=  0.00000000 RMS(Int)=  0.00000245
 Variable       Old X    -DE/DX   Delta X   Delta X   Delta X     New X
                                 (Linear)    (Quad)   (Total)
    R1        2.64826  -0.01775   0.00000  -0.00975  -0.00975   2.63851
    R2        2.64826  -0.00411   0.00000  -0.00229  -0.00228   2.64598
    R3        2.64826   0.00035   0.00000   0.00017   0.00016   2.64842
    R4        2.02201   0.00981   0.00000   0.00595   0.00595   2.02796
    R5        2.64826  -0.00359   0.00000  -0.00192  -0.00192   2.64634
    R6        2.02201   0.00966   0.00000   0.00586   0.00586   2.02787
    R7        2.64826  -0.00581   0.00000  -0.00310  -0.00310   2.64516
    R8        2.02201   0.00931   0.00000   0.00565   0.00565   2.02766
    R9        2.64826  -0.00411   0.00000  -0.00222  -0.00221   2.64605
   R10        3.32592  -0.00058   0.00000  -0.00039  -0.00039   3.32552
   R11        3.32592   0.00877   0.00000   0.00595   0.00595   3.33187
   R12        2.64826  -0.01775   0.00000  -0.00975  -0.00975   2.63851
   R13        2.64826  -0.00411   0.00000  -0.00229  -0.00228   2.64598
   R14        2.64826   0.00035   0.00000   0.00017   0.00016   2.64842
   R15        2.02201   0.00981   0.00000   0.00595   0.00595   2.02796
   R16        2.64826  -0.00359   0.00000  -0.00192  -0.00192   2.64634
   R17        2.02201   0.00966   0.00000   0.00586   0.00586   2.02787
   R18        2.64826  -0.00581   0.00000  -0.00310  -0.00310   2.64516
   R19        2.02201   0.00931   0.00000   0.00565   0.00565   2.02766
   R20        2.64826  -0.00411   0.00000  -0.00222  -0.00221   2.64605
   R21        3.32592  -0.00058   0.00000  -0.00039  -0.00039   3.32552
   R22        3.32592   0.00877   0.00000   0.00595   0.00595   3.33187
   R23        3.35464   0.43108   0.00000   0.16286   0.16286   3.51750
    A1        2.09440  -0.00647   0.00000  -0.00494  -0.00494   2.08945
    A2        2.09440  -0.00306   0.00000  -0.00248  -0.00249   2.09191
    A3        2.09440   0.00146   0.00000   0.00118   0.00119   2.09558
    A4        2.09440   0.00160   0.00000   0.00130   0.00130   2.09570
    A5        2.09440   0.00701   0.00000   0.00540   0.00539   2.09978
    A6        2.09440  -0.00302   0.00000  -0.00228  -0.00228   2.09212
    A7        2.09440  -0.00399   0.00000  -0.00311  -0.00311   2.09129
    A8        2.09440  -0.00091   0.00000  -0.00055  -0.00055   2.09384
    A9        2.09440   0.00133   0.00000   0.00103   0.00103   2.09542
   A10        2.09440  -0.00042   0.00000  -0.00047  -0.00047   2.09392
   A11        2.09440  -0.01296   0.00000  -0.00934  -0.00933   2.08506
   A12        2.09440  -0.00718   0.00000  -0.00529  -0.00530   2.08910
   A13        2.09440   0.02014   0.00000   0.01463   0.01463   2.10902
   A14        2.09440   0.01638   0.00000   0.01192   0.01193   2.10632
   A15        2.09440  -0.08854   0.00000  -0.06457  -0.06458   2.02982
   A16        2.09440   0.07217   0.00000   0.05265   0.05265   2.14704
   A17        2.09440  -0.00647   0.00000  -0.00494  -0.00494   2.08945
   A18        2.09440  -0.00306   0.00000  -0.00248  -0.00249   2.09191
   A19        2.09440   0.00146   0.00000   0.00118   0.00119   2.09558
   A20        2.09440   0.00160   0.00000   0.00130   0.00130   2.09570
   A21        2.09440   0.00701   0.00000   0.00540   0.00539   2.09978
   A22        2.09440  -0.00302   0.00000  -0.00228  -0.00228   2.09212
   A23        2.09440  -0.00399   0.00000  -0.00311  -0.00311   2.09129
   A24        2.09440  -0.00091   0.00000  -0.00055  -0.00055   2.09384
   A25        2.09440   0.00133   0.00000   0.00103   0.00103   2.09542
   A26        2.09440  -0.00042   0.00000  -0.00047  -0.00047   2.09392
   A27        2.09440  -0.01296   0.00000  -0.00934  -0.00933   2.08506
   A28        2.09440  -0.00718   0.00000  -0.00529  -0.00530   2.08910
   A29        2.09440   0.02014   0.00000   0.01463   0.01463   2.10902
   A30        2.09440   0.01638   0.00000   0.01192   0.01193   2.10632
   A31        2.09440  -0.08854   0.00000  -0.06457  -0.06458   2.02982
   A32        2.09440   0.07217   0.00000   0.05265   0.05265   2.14704
   A33        2.09440  -0.21235   0.00000  -0.15489  -0.15489   1.93951
   A34        2.09440  -0.21235   0.00000  -0.15489  -0.15489   1.93951
    D1        0.00000  -0.00000   0.00000  -0.00000  -0.00000   0.00000
    D2        3.14159   0.00000   0.00000   0.00000   0.00000   3.14159
    D3       -0.00000  -0.00000   0.00000  -0.00000  -0.00000  -0.00000
    D4        3.14159   0.00000   0.00000   0.00000   0.00000   3.14159
    D5        0.00000  -0.00000   0.00000  -0.00000  -0.00000   0.00000
    D6        3.14159   0.00000   0.00000   0.00000   0.00000   3.14159
    D7       -3.14159  -0.00000   0.00000  -0.00000  -0.00000  -3.14159
    D8        0.00000  -0.00000   0.00000  -0.00000  -0.00000   0.00000
    D9       -0.00000   0.00000   0.00000   0.00000   0.00000  -0.00000
   D10        3.14159  -0.00000   0.00000  -0.00000  -0.00000   3.14159
   D11        3.14159   0.00000   0.00000   0.00000   0.00000   3.14159
   D12        0.00000  -0.00000   0.00000  -0.00000  -0.00000   0.00000
   D13        0.00000  -0.00000   0.00000  -0.00000  -0.00000   0.00000
   D14       -3.14159  -0.00000   0.00000  -0.00000  -0.00000  -3.14159
   D15       -3.14159  -0.00000   0.00000  -0.00000  -0.00000  -3.14159
   D16        0.00000  -0.00000   0.00000  -0.00000  -0.00000   0.00000
   D17       -0.00000   0.00000   0.00000   0.00000   0.00000  -0.00000
   D18        3.14159  -0.00000   0.00000  -0.00000  -0.00000   3.14159
   D19        3.14159   0.00000   0.00000   0.00000   0.00000   3.14159
   D20       -0.00000  -0.00000   0.00000  -0.00000  -0.00000  -0.00000
   D21        0.00001  -0.00000   0.00000  -0.00000  -0.00000   0.00001
   D22       -3.14159  -0.00000   0.00000  -0.00000  -0.00000  -3.14159
   D23        0.00000   0.00000   0.00000   0.00000   0.00000   0.00000
   D24       -3.14159  -0.00000   0.00000  -0.00000  -0.00000  -3.14159
   D25       -0.00000  -0.00000   0.00000  -0.00000  -0.00000  -0.00000
   D26        3.14159   0.00000   0.00000   0.00000   0.00000   3.14159
   D27       -0.00000  -0.00000   0.00000  -0.00000  -0.00000  -0.00000
   D28        3.14159  -0.00000   0.00000  -0.00000  -0.00000   3.14159
   D29        3.14159   0.00000   0.00000   0.00000   0.00000   3.14159
   D30       -0.00000   0.00000   0.00000   0.00000   0.00000  -0.00000
   D31       -0.00000  -0.00000   0.00000  -0.00000  -0.00000  -0.00000
   D32       -3.14159  -0.00000   0.00000  -0.00000  -0.00000  -3.14159
   D33        3.14159   0.00000   0.00000   0.00000   0.00000   3.14159
   D34        0.00000  -0.00000   0.00000  -0.00000  -0.00000   0.00000
   D35        0.00000  -0.00000   0.00000  -0.00000  -0.00000   0.00000
   D36       -3.14159  -0.00000   0.00000  -0.00000  -0.00000  -3.14159
   D37        3.14159   0.00000   0.00000   0.00000   0.00000   3.14159
   D38        0.00000  -0.00000   0.00000  -0.00000  -0.00000   0.00000
   D39        0.00000   0.00000   0.00000   0.00000   0.00000   0.00000
   D40       -3.14159  -0.00000   0.00000  -0.00000  -0.00000  -3.14159
   D41        3.14159   0.00000   0.00000   0.00000   0.00000   3.14159
   D42       -0.00000  -0.00000   0.00000  -0.00000  -0.00000  -0.00000
   D43        0.00001  -0.00000   0.00000  -0.00000  -0.00000   0.00001
   D44       -3.14159  -0.00000   0.00000  -0.00000  -0.00000  -3.14159
   D45       -0.00001   0.00000   0.00000   0.00000   0.00000  -0.00001
         Item               Value     Threshold  Converged?
 Maximum Force            0.431081     0.000450     NO 
 RMS     Force            0.054742     0.000300     NO 
 Maximum Displacement     1.811758     0.001800     NO 
 RMS     Displacement     0.565747     0.001200     NO 
 Predicted change in Energy=-1.386277D-01
 GradGradGradGradGradGradGradGradGradGradGradGradGradGradGradGradGradGrad

                          Input orientation:                          
 ---------------------------------------------------------------------
 Center     Atomic      Atomic             Coordinates (Angstroms)
 Number     Number       Type             X           Y           Z
 ---------------------------------------------------------------------
      1          6           0       -2.239104    1.184853    0.955498
      2          6           0       -0.952271    0.921400    0.482067
      3          6           0       -0.022410    1.964140    0.371555
      4          6           0       -0.377836    3.269338    0.733780
      5          6           0       -1.667134    3.536629    1.208742
      6          6           0       -2.591860    2.490776    1.316977
      7          6           0       -2.864313    0.116671    0.960860
      8          6           0       -2.006546   -0.879849    0.491107
      9          6           0       -2.460849   -2.201984    0.392472
     10          6           0       -3.771297   -2.528465    0.762894
     11          6           0       -4.633609   -1.531664    1.234198
     12          6           0       -4.174088   -0.212499    1.330556
     13          1           0       -0.675881   -0.077409    0.203426
     14          1           0        0.966660    1.761877    0.007716
     15          1           0        0.337260    4.064643    0.647554
     16          1           0       -1.001572   -0.633854    0.206213
     17          1           0       -1.801763   -2.968029    0.031461
     18          1           0       -4.114924   -3.542012    0.685753
     19         17           0       -5.179002    1.114907    1.910935
     20         17           0       -4.238762    2.721337    1.902856
     21         17           0       -6.278931   -1.949917    1.697716
     22         17           0       -2.106121    5.179434    1.661898
 ---------------------------------------------------------------------
                    Distance matrix (angstroms):
                    1          2          3          4          5
     1  C    0.000000
     2  C    1.396239   0.000000
     3  C    2.421159   1.401486   0.000000
     4  C    2.803311   2.430257   1.400384   0.000000
     5  C    2.433543   2.806868   2.424607   1.399758   0.000000
     6  C    1.400192   2.418319   2.788053   2.418301   1.400230
     7  C    1.237711   2.129022   3.440471   4.021622   3.631914
     8  C    2.129022   2.087121   3.469779   4.464005   4.487257
     9  C    3.440471   3.469779   4.827320   5.864368   5.850467
    10  C    4.021622   4.464005   5.864368   6.717957   6.435189
    11  C    3.631914   4.487257   5.850467   6.435189   5.872667
    12  C    2.416076   3.519341   4.784754   5.185640   4.511720
    13  H    2.145363   1.073150   2.150166   3.401591   3.880014
    14  H    3.392369   2.147954   1.073102   2.146457   3.395449
    15  H    3.876296   3.401508   2.148872   1.072990   2.147399
    16  H    2.323921   1.580298   2.781308   3.987767   4.340618
    17  H    4.276861   4.006537   5.254337   6.436270   6.611708
    18  H    5.092614   5.474112   6.867686   7.769339   7.508152
    19  Cl   3.092046   4.465911   5.448057   5.392445   4.323312
    20  Cl   2.693864   4.007423   4.549269   4.071092   2.785636
    21  Cl   5.166999   6.172161   7.498173   7.936795   7.184007
    22  Cl   4.058738   4.566642   4.042888   2.738035   1.759792
                    6          7          8          9         10
     6  C    0.000000
     7  C    2.416076   0.000000
     8  C    3.519341   1.396239   0.000000
     9  C    4.784754   2.421159   1.401486   0.000000
    10  C    5.185640   2.803311   2.430257   1.400384   0.000000
    11  C    4.511720   2.433543   2.806868   2.424607   1.399758
    12  C    3.132303   1.400192   2.418319   2.788053   2.418301
    13  H    3.392129   2.323921   1.580298   2.781308   3.987767
    14  H    3.861156   4.276861   4.006537   5.254337   6.436270
    15  H    3.391892   5.092614   5.474112   6.867686   7.769339
    16  H    3.677788   2.145363   1.073150   2.150166   3.401591
    17  H    5.663511   3.392369   2.147954   1.073102   2.146457
    18  H    6.254014   3.876296   3.401508   2.148872   1.072990
    19  Cl   2.989833   2.693864   4.007423   4.549269   4.071092
    20  Cl   1.763150   3.092046   4.465911   5.448057   5.392445
    21  Cl   5.784393   4.058738   4.566642   4.042888   2.738035
    22  Cl   2.753869   5.166999   6.172161   7.498173   7.936795
                   11         12         13         14         15
    11  C    0.000000
    12  C    1.400230   0.000000
    13  H    4.340618   3.677788   0.000000
    14  H    6.611708   5.663511   2.473704   0.000000
    15  H    7.508152   6.254014   4.287225   2.471492   0.000000
    16  H    3.880014   3.392129   0.644759   3.106906   4.905419
    17  H    3.395449   3.861156   3.106906   5.480578   7.376548
    18  H    2.147399   3.391892   4.905419   7.376548   8.813887
    19  Cl   2.785636   1.763150   4.961381   6.466063   6.381709
    20  Cl   4.323312   2.989833   4.838921   5.622147   4.931554
    21  Cl   1.759792   2.753869   6.093715   8.314572   9.002875
    22  Cl   7.184007   5.784393   5.639780   4.884465   2.870846
                   16         17         18         19         20
    16  H    0.000000
    17  H    2.473704   0.000000
    18  H    4.287225   2.471492   0.000000
    19  Cl   4.838921   5.622147   4.931554   0.000000
    20  Cl   4.961381   6.466063   6.381709   1.861379   0.000000
    21  Cl   5.639780   4.884465   2.870846   3.263197   5.101469
    22  Cl   6.093715   8.314572   9.002875   5.101469   3.263197
                   21         22
    21  Cl   0.000000
    22  Cl   8.260827   0.000000
 Stoichiometry    C12H6Cl4
 Framework group  C1[X(C12H6Cl4)]
 Deg. of freedom    60
 Full point group                 C1      NOp   1
 Largest Abelian subgroup         C1      NOp   1
 Largest concise Abelian subgroup C1      NOp   1
                         Standard orientation:                         
 ---------------------------------------------------------------------
 Center     Atomic      Atomic             Coordinates (Angstroms)
 Number     Number       Type             X           Y           Z
 ---------------------------------------------------------------------
      1          6           0       -0.618856    0.874707    0.000000
      2          6           0       -1.043560    2.204785    0.000003
      3          6           0       -2.413660    2.499726    0.000006
      4          6           0       -3.358979    1.466552    0.000006
      5          6           0       -2.936334    0.132126    0.000001
      6          6           0       -1.566151   -0.156393   -0.000001
      7          6           0        0.618856    0.874707   -0.000003
      8          6           0        1.043560    2.204785   -0.000005
      9          6           0        2.413660    2.499726   -0.000006
     10          6           0        3.358979    1.466552   -0.000004
     11          6           0        2.936334    0.132126   -0.000002
     12          6           0        1.566151   -0.156393   -0.000001
     13          1           0       -0.322380    2.999486    0.000005
     14          1           0       -2.740289    3.521911    0.000009
     15          1           0       -4.406944    1.696936    0.000009
     16          1           0        0.322380    2.999486   -0.000004
     17          1           0        2.740289    3.521911   -0.000007
     18          1           0        4.406944    1.696936   -0.000003
     19         17           0        0.930690   -1.801047    0.000004
     20         17           0       -0.930690   -1.801047   -0.000006
     21         17           0        4.130414   -1.160561    0.000005
     22         17           0       -4.130414   -1.160561   -0.000002
 ---------------------------------------------------------------------
 Rotational constants (GHZ):           0.7158894           0.2501927           0.1853986
 Standard basis: 6-311+G(d,p) (5D, 7F)
 There are   436 symmetry adapted cartesian basis functions of A   symmetry.
 There are   420 symmetry adapted basis functions of A   symmetry.
   420 basis functions,   692 primitive gaussians,   436 cartesian basis functions
    73 alpha electrons       73 beta electrons
       nuclear repulsion energy      1555.5090446660 Hartrees.
 NAtoms=   22 NActive=   22 NUniq=   22 SFac= 1.00D+00 NAtFMM=   60 NAOKFM=F Big=F
 Integral buffers will be    131072 words long.
 Raffenetti 2 integral format.
 Two-electron integral symmetry is turned on.
 One-electron integrals computed using PRISM.
 NBasis=   420 RedAO= T EigKep=  1.49D-06  NBF=   420
 NBsUse=   414 1.00D-06 EigRej=  8.71D-07 NBFU=   414
 Initial guess from the checkpoint file:  "./Gau-253672.chk"
 B after Tr=    -0.000000   -0.000000    0.000000
         Rot=    1.000000    0.000000   -0.000000    0.000000 Ang=   0.00 deg.
 ExpMin= 4.38D-02 ExpMax= 1.06D+05 ExpMxC= 3.62D+03 IAcc=3 IRadAn=         5 AccDes= 0.00D+00
 Harris functional with IExCor=  402 and IRadAn=       5 diagonalized for initial guess.
 HarFok:  IExCor=  402 AccDes= 0.00D+00 IRadAn=         5 IDoV= 1 UseB2=F ITyADJ=14
 ICtDFT=  3500011 ScaDFX=  1.000000  1.000000  1.000000  1.000000
 FoFCou: FMM=F IPFlag=           0 FMFlag=      100000 FMFlg1=           0
         NFxFlg=           0 DoJE=T BraDBF=F KetDBF=T FulRan=T
         wScrn=  0.000000 ICntrl=       500 IOpCl=  0 I1Cent=   200000004 NGrid=           0
         NMat0=    1 NMatS0=      1 NMatT0=    0 NMatD0=    1 NMtDS0=    0 NMtDT0=    0
 Petite list used in FoFCou.
 Requested convergence on RMS density matrix=1.00D-08 within  32 cycles.
 Requested convergence on MAX density matrix=1.00D-06.
 Requested convergence on             energy=1.00D-06.
 No special actions if energy rises.
 Restarting incremental Fock formation.
 SCF Done:  E(RB3LYP) =  -2301.26599902     A.U. after   28 cycles
            NFock= 28  Conv=0.25D-08     -V/T= 2.0013
 QCSCF skips out because SCF is already converged.
 Calling FoFJK, ICntrl=      2127 FMM=F ISym2X=0 I1Cent= 0 IOpClX= 0 NMat=1 NMatS=1 NMatT=0.
 ***** Axes restored to original set *****
 -------------------------------------------------------------------
 Center     Atomic                   Forces (Hartrees/Bohr)
 Number     Number              X              Y              Z
 -------------------------------------------------------------------
      1        6           0.137898715    0.220509651   -0.004017694
      2        6           0.108489016    0.181401444   -0.001672279
      3        6          -0.022409951    0.001244542    0.007616550
      4        6          -0.002756200   -0.001093142    0.000702616
      5        6           0.004707886    0.001123752   -0.001341930
      6        6           0.003836692    0.019117505    0.002327167
      7        6          -0.124751434   -0.228233817   -0.001764409
      8        6          -0.105045063   -0.183424793    0.000157842
      9        6          -0.012025337    0.018986522    0.007527951
     10        6          -0.000393459    0.002943601    0.000682423
     11        6           0.001320896   -0.004665718   -0.001309256
     12        6          -0.014779861   -0.012688285    0.002485554
     13        1           0.149168217    0.256589045   -0.000950850
     14        1           0.007654192   -0.000194655   -0.002558222
     15        1           0.003524443    0.006902880    0.000135933
     16        1          -0.150678946   -0.255701478    0.001615076
     17        1           0.003906618   -0.006597433   -0.002526118
     18        1          -0.004292491   -0.006451647    0.000201825
     19       17          -0.226008053   -0.388831085    0.001433263
     20       17           0.228352573    0.387453661   -0.002464419
     21       17           0.009105981   -0.000837838   -0.003157152
     22       17           0.005175566   -0.007552711   -0.003123872
 -------------------------------------------------------------------
 Cartesian Forces:  Max     0.388831085 RMS     0.110631507

 GradGradGradGradGradGradGradGradGradGradGradGradGradGradGradGradGradGrad
 Berny optimization.
 Using GEDIIS/GDIIS optimizer.
 FormGI is forming the generalized inverse of G from B-inverse, IUseBI=4.
 Internal  Forces:  Max     5.653456425 RMS     0.874056559
 Search for a local minimum.
 Step number   2 out of a maximum of  112
 All quantities printed in internal units (Hartrees-Bohrs-Radians)
 Mixed Optimization -- RFO/linear search
 Update second derivatives using D2CorX and points    2    1
 DE=  1.65D-01 DEPred=-1.39D-01 R=-1.19D+00
 Trust test=-1.19D+00 RLast= 3.00D-01 DXMaxT set to 1.50D-01
 ITU= -1  0
 Use linear search instead of GDIIS.
     Eigenvalues ---    0.00238   0.00238   0.01668   0.01668   0.02070
     Eigenvalues ---    0.02070   0.02070   0.02070   0.02070   0.02070
     Eigenvalues ---    0.02070   0.02070   0.02070   0.02070   0.02070
     Eigenvalues ---    0.02070   0.02070   0.02070   0.02948   0.15892
     Eigenvalues ---    0.16000   0.16000   0.16000   0.16000   0.16000
     Eigenvalues ---    0.22047   0.22075   0.22110   0.23329   0.23918
     Eigenvalues ---    0.24907   0.24925   0.25000   0.25000   0.25000
     Eigenvalues ---    0.25000   0.28729   0.29539   0.29539   0.29539
     Eigenvalues ---    0.32403   0.37217   0.37230   0.37230   0.37230
     Eigenvalues ---    0.37230   0.37561   0.41512   0.41519   0.41963
     Eigenvalues ---    0.42000   0.45302   0.45389   0.45389   0.45389
     Eigenvalues ---    0.45389   0.45389   0.45389   0.45735  39.67392
 RFO step:  Lambda=-2.64760773D+00 EMin= 2.37799113D-03
 Quartic linear search produced a step of -0.41897.
 Maximum step size (   0.150) exceeded in Quadratic search.
    -- Step size scaled by   0.161
 Iteration  1 RMS(Cart)=  0.23469064 RMS(Int)=  0.00343484
 Iteration  2 RMS(Cart)=  0.01911347 RMS(Int)=  0.00002664
 Iteration  3 RMS(Cart)=  0.00008020 RMS(Int)=  0.00000125
 Iteration  4 RMS(Cart)=  0.00000000 RMS(Int)=  0.00000125
 Variable       Old X    -DE/DX   Delta X   Delta X   Delta X     New X
                                 (Linear)    (Quad)   (Total)
    R1        2.63851   0.34260   0.00409  -0.00072   0.00337   2.64188
    R2        2.64598  -0.17669   0.00096  -0.00508  -0.00413   2.64185
    R3        2.64842  -0.15009  -0.00007  -0.00279  -0.00285   2.64557
    R4        2.02796  -0.20015  -0.00249   0.00052  -0.00198   2.02598
    R5        2.64634  -0.34219   0.00080  -0.00807  -0.00727   2.63907
    R6        2.02787   0.00796  -0.00246   0.00457   0.00211   2.02998
    R7        2.64516  -0.20374   0.00130  -0.00628  -0.00498   2.64018
    R8        2.02766   0.00745  -0.00237   0.00440   0.00203   2.02969
    R9        2.64605   0.14894   0.00093   0.00122   0.00215   2.64820
   R10        3.32552  -0.00915   0.00016  -0.00048  -0.00032   3.32521
   R11        3.33187   0.28152  -0.00249   0.01019   0.00770   3.33957
   R12        2.63851   0.34260   0.00409  -0.00072   0.00337   2.64188
   R13        2.64598  -0.17669   0.00096  -0.00508  -0.00413   2.64185
   R14        2.64842  -0.15009  -0.00007  -0.00279  -0.00285   2.64557
   R15        2.02796  -0.20015  -0.00249   0.00052  -0.00198   2.02598
   R16        2.64634  -0.34219   0.00080  -0.00807  -0.00727   2.63907
   R17        2.02787   0.00796  -0.00246   0.00457   0.00211   2.02998
   R18        2.64516  -0.20374   0.00130  -0.00628  -0.00498   2.64018
   R19        2.02766   0.00745  -0.00237   0.00440   0.00203   2.02969
   R20        2.64605   0.14894   0.00093   0.00122   0.00215   2.64820
   R21        3.32552  -0.00915   0.00016  -0.00048  -0.00032   3.32521
   R22        3.33187   0.28152  -0.00249   0.01019   0.00770   3.33957
   R23        3.51750   1.23461  -0.06823   0.14401   0.07578   3.59328
    A1        2.08945  -0.29214   0.00207  -0.00966  -0.00758   2.08187
    A2        2.09191   0.31114   0.00104   0.00461   0.00565   2.09756
    A3        2.09558   0.06665  -0.00050   0.00238   0.00188   2.09747
    A4        2.09570  -0.37779  -0.00055  -0.00699  -0.00754   2.08816
    A5        2.09978  -0.07239  -0.00226   0.00247   0.00021   2.10000
    A6        2.09212   0.03756   0.00096  -0.00090   0.00006   2.09218
    A7        2.09129   0.03482   0.00130  -0.00158  -0.00027   2.09101
    A8        2.09384  -0.13545   0.00023  -0.00331  -0.00308   2.09076
    A9        2.09542   0.06988  -0.00043   0.00226   0.00184   2.09726
   A10        2.09392   0.06557   0.00020   0.00105   0.00125   2.09517
   A11        2.08506   0.36295   0.00391   0.00046   0.00437   2.08943
   A12        2.08910  -0.18672   0.00222  -0.00783  -0.00561   2.08349
   A13        2.10902  -0.17623  -0.00613   0.00737   0.00124   2.11027
   A14        2.10632  -0.17411  -0.00500   0.00543   0.00043   2.10675
   A15        2.02982   1.69326   0.02706  -0.01366   0.01340   2.04322
   A16        2.14704  -1.51914  -0.02206   0.00823  -0.01383   2.13321
   A17        2.08945  -0.29214   0.00207  -0.00966  -0.00758   2.08187
   A18        2.09191   0.31114   0.00104   0.00461   0.00565   2.09756
   A19        2.09558   0.06665  -0.00050   0.00238   0.00188   2.09747
   A20        2.09570  -0.37779  -0.00055  -0.00699  -0.00754   2.08816
   A21        2.09978  -0.07239  -0.00226   0.00247   0.00021   2.10000
   A22        2.09212   0.03756   0.00096  -0.00090   0.00006   2.09218
   A23        2.09129   0.03482   0.00130  -0.00158  -0.00027   2.09101
   A24        2.09384  -0.13545   0.00023  -0.00331  -0.00308   2.09076
   A25        2.09542   0.06988  -0.00043   0.00226   0.00184   2.09726
   A26        2.09392   0.06557   0.00020   0.00105   0.00125   2.09517
   A27        2.08506   0.36295   0.00391   0.00046   0.00437   2.08943
   A28        2.08910  -0.18672   0.00222  -0.00783  -0.00561   2.08349
   A29        2.10902  -0.17623  -0.00613   0.00737   0.00124   2.11027
   A30        2.10632  -0.17411  -0.00500   0.00543   0.00043   2.10675
   A31        2.02982   1.69326   0.02706  -0.01366   0.01340   2.04322
   A32        2.14704  -1.51914  -0.02206   0.00823  -0.01383   2.13321
   A33        1.93951   5.65346   0.06489   0.00014   0.06504   2.00454
   A34        1.93951   5.65346   0.06489   0.00014   0.06504   2.00454
    D1        0.00000  -0.00000   0.00000  -0.00000  -0.00000   0.00000
    D2        3.14159  -0.00000  -0.00000  -0.00000  -0.00000   3.14159
    D3       -0.00000   0.00000   0.00000  -0.00000   0.00000  -0.00000
    D4        3.14159   0.00001  -0.00000   0.00000   0.00000   3.14159
    D5        0.00000   0.00000   0.00000   0.00000   0.00000   0.00000
    D6        3.14159  -0.00000  -0.00000   0.00000   0.00000   3.14159
    D7       -3.14159   0.00000   0.00000   0.00000   0.00000  -3.14159
    D8        0.00000   0.00000   0.00000  -0.00000   0.00000   0.00000
    D9       -0.00000   0.00000  -0.00000   0.00000   0.00000  -0.00000
   D10        3.14159  -0.00000   0.00000  -0.00000  -0.00000   3.14159
   D11        3.14159   0.00000  -0.00000   0.00000   0.00000   3.14159
   D12        0.00000   0.00000   0.00000  -0.00000  -0.00000   0.00000
   D13        0.00000  -0.00000   0.00000  -0.00000  -0.00000   0.00000
   D14       -3.14159  -0.00000   0.00000  -0.00000  -0.00000  -3.14159
   D15       -3.14159   0.00000   0.00000  -0.00000  -0.00000  -3.14159
   D16        0.00000  -0.00000   0.00000  -0.00000  -0.00000   0.00000
   D17       -0.00000   0.00000  -0.00000   0.00000   0.00000  -0.00000
   D18        3.14159  -0.00000   0.00000  -0.00000  -0.00000   3.14159
   D19        3.14159   0.00000  -0.00000   0.00000   0.00000   3.14159
   D20       -0.00000  -0.00000   0.00000  -0.00000  -0.00000  -0.00000
   D21        0.00001  -0.00001   0.00000  -0.00000  -0.00000   0.00001
   D22       -3.14159  -0.00001   0.00000  -0.00000  -0.00000  -3.14159
   D23        0.00000  -0.00000  -0.00000  -0.00000  -0.00000   0.00000
   D24       -3.14159  -0.00000   0.00000  -0.00000  -0.00000  -3.14159
   D25       -0.00000   0.00000   0.00000  -0.00000   0.00000  -0.00000
   D26        3.14159   0.00001  -0.00000   0.00000   0.00000   3.14159
   D27       -0.00000   0.00000   0.00000   0.00000   0.00000  -0.00000
   D28        3.14159  -0.00000   0.00000  -0.00000  -0.00000   3.14159
   D29        3.14159   0.00000  -0.00000   0.00000   0.00000   3.14159
   D30       -0.00000   0.00000  -0.00000   0.00000   0.00000  -0.00000
   D31       -0.00000   0.00000   0.00000   0.00000   0.00000  -0.00000
   D32       -3.14159  -0.00000   0.00000  -0.00000  -0.00000  -3.14159
   D33        3.14159   0.00000  -0.00000   0.00000   0.00000   3.14159
   D34        0.00000  -0.00000   0.00000  -0.00000  -0.00000   0.00000
   D35        0.00000  -0.00000   0.00000  -0.00000  -0.00000   0.00000
   D36       -3.14159  -0.00000   0.00000  -0.00000  -0.00000  -3.14159
   D37        3.14159   0.00000  -0.00000   0.00000   0.00000   3.14159
   D38        0.00000  -0.00000   0.00000  -0.00000  -0.00000   0.00000
   D39        0.00000   0.00000  -0.00000   0.00000   0.00000   0.00000
   D40       -3.14159  -0.00001   0.00000  -0.00000  -0.00000  -3.14159
   D41        3.14159   0.00000  -0.00000   0.00000   0.00000   3.14159
   D42       -0.00000  -0.00001   0.00000  -0.00000  -0.00000  -0.00000
   D43        0.00001  -0.00001   0.00000  -0.00000  -0.00000   0.00001
   D44       -3.14159  -0.00001   0.00000  -0.00000  -0.00000  -3.14159
   D45       -0.00001  -0.00007  -0.00000  -0.00000  -0.00000  -0.00001
         Item               Value     Threshold  Converged?
 Maximum Force            5.653456     0.000450     NO 
 RMS     Force            0.874057     0.000300     NO 
 Maximum Displacement     0.783694     0.001800     NO 
 RMS     Displacement     0.252805     0.001200     NO 
 Predicted change in Energy=-5.691374D-01
 GradGradGradGradGradGradGradGradGradGradGradGradGradGradGradGradGradGrad

                          Input orientation:                          
 ---------------------------------------------------------------------
 Center     Atomic      Atomic             Coordinates (Angstroms)
 Number     Number       Type             X           Y           Z
 ---------------------------------------------------------------------
      1          6           0       -2.027795    1.306997    0.908822
      2          6           0       -0.715742    1.160229    0.448997
      3          6           0        0.133489    2.270936    0.377814
      4          6           0       -0.322344    3.532925    0.765002
      5          6           0       -1.632418    3.686613    1.225473
      6          6           0       -2.479411    2.572359    1.295252
      7          6           0       -2.867540   -0.127723    0.916023
      8          6           0       -2.099101   -1.203265    0.460857
      9          6           0       -2.651974   -2.488085    0.401706
     10          6           0       -3.973806   -2.705678    0.796329
     11          6           0       -4.747306   -1.635247    1.252203
     12          6           0       -4.190251   -0.350651    1.309935
     13          1           0       -0.354489    0.196439    0.148975
     14          1           0        1.140736    2.152505    0.023731
     15          1           0        0.331344    4.383342    0.709357
     16          1           0       -1.083198   -1.048567    0.155215
     17          1           0       -2.057037   -3.310953    0.051156
     18          1           0       -4.395420   -3.692441    0.749913
     19         17           0       -5.107870    1.049861    1.875284
     20         17           0       -4.147373    2.690901    1.867031
     21         17           0       -6.411529   -1.921840    1.746676
     22         17           0       -2.195319    5.281664    1.710482
 ---------------------------------------------------------------------
                    Distance matrix (angstroms):
                    1          2          3          4          5
     1  C    0.000000
     2  C    1.398022   0.000000
     3  C    2.425345   1.399975   0.000000
     4  C    2.807847   2.425759   1.396536   0.000000
     5  C    2.432934   2.797468   2.416836   1.397121   0.000000
     6  C    1.398008   2.412632   2.785641   2.420081   1.401367
     7  C    1.662421   2.550916   3.879357   4.461073   4.021249
     8  C    2.550916   2.738599   4.130548   5.067628   4.971251
     9  C    3.879357   4.130548   5.514314   6.466198   6.312288
    10  C    4.461073   5.067628   6.466198   7.228715   6.821118
    11  C    4.021249   4.971251   6.312288   6.821118   6.166477
    12  C    2.754070   3.885381   5.141624   5.508159   4.780078
    13  H    2.147245   1.072104   2.143368   3.393030   3.869530
    14  H    3.396743   2.147551   1.074220   2.143745   3.389404
    15  H    3.881910   3.398917   2.147400   1.074064   2.146664
    16  H    2.647427   2.258343   3.542454   4.684102   4.885594
    17  H    4.697010   4.684956   6.005214   7.096294   7.108112
    18  H    5.534011   6.097457   7.497422   8.294341   7.893718
[...]

 **********************************************************************

            Population analysis using the SCF Density.

 **********************************************************************

 Orbital symmetries:
       Occupied  (A) (A) (A) (A) (A) (A) (A) (A) (A) (A) (A) (A)
                 (A) (A) (A) (A) (A) (A) (A) (A) (A) (A) (A) (A)
                 (A) (A) (A) (A) (A) (A) (A) (A) (A) (A) (A) (A)
                 (A) (A) (A) (A) (A) (A) (A) (A) (A) (A) (A) (A)
                 (A) (A) (A) (A) (A) (A) (A) (A) (A) (A) (A) (A)
                 (A) (A) (A) (A) (A) (A) (A) (A) (A) (A) (A) (A)
                 (A)
       Virtual   (A) (A) (A) (A) (A) (A) (A) (A) (A) (A) (A) (A)
                 (A) (A) (A) (A) (A) (A) (A) (A) (A) (A) (A) (A)
                 (A) (A) (A) (A) (A) (A) (A) (A) (A) (A) (A) (A)
                 (A) (A) (A) (A) (A) (A) (A) (A) (A) (A) (A) (A)
                 (A) (A) (A) (A) (A) (A) (A) (A) (A) (A) (A) (A)
                 (A) (A) (A) (A) (A) (A) (A) (A) (A) (A) (A) (A)
                 (A) (A) (A) (A) (A) (A) (A) (A) (A) (A) (A) (A)
                 (A) (A) (A) (A) (A) (A) (A) (A) (A) (A) (A) (A)
                 (A) (A) (A) (A) (A) (A) (A) (A) (A) (A) (A) (A)
                 (A) (A) (A) (A) (A) (A) (A) (A) (A) (A) (A) (A)
                 (A) (A) (A) (A) (A) (A) (A) (A) (A) (A) (A) (A)
                 (A) (A) (A) (A) (A) (A) (A) (A) (A) (A) (A) (A)
                 (A) (A) (A) (A) (A) (A) (A) (A) (A) (A) (A) (A)
                 (A) (A) (A) (A) (A) (A) (A) (A) (A) (A) (A) (A)
                 (A) (A) (A) (A) (A) (A) (A) (A) (A) (A) (A) (A)
                 (A) (A) (A) (A) (A) (A) (A) (A) (A) (A) (A) (A)
                 (A) (A) (A) (A) (A) (A) (A) (A) (A) (A) (A) (A)
                 (A) (A) (A) (A) (A) (A) (A) (A) (A) (A) (A) (A)
                 (A) (A) (A) (A) (A) (A) (A) (A) (A) (A) (A) (A)
                 (A) (A) (A) (A) (A) (A) (A) (A) (A) (A) (A) (A)
                 (A) (A) (A) (A) (A) (A) (A) (A) (A) (A) (A) (A)
                 (A) (A) (A) (A) (A) (A) (A) (A) (A) (A) (A) (A)
                 (A) (A) (A) (A) (A) (A) (A) (A) (A) (A) (A) (A)
                 (A) (A) (A) (A) (A) (A) (A) (A) (A) (A) (A) (A)
                 (A) (A) (A) (A) (A) (A) (A) (A) (A) (A) (A) (A)
                 (A) (A) (A) (A) (A) (A) (A) (A) (A) (A) (A) (A)
                 (A) (A) (A) (A) (A) (A) (A) (A) (A) (A) (A) (A)
                 (A) (A) (A) (A) (A) (A) (A) (A) (A) (A) (A) (A)
                 (A) (A) (A) (A) (A) (A) (A) (A)
 The electronic state is 1-A.
 Alpha  occ. eigenvalues -- -101.56639-101.56639-101.56586-101.56586 -10.26260
 Alpha  occ. eigenvalues --  -10.26260 -10.26077 -10.26077 -10.22215 -10.22186
 Alpha  occ. eigenvalues --  -10.20664 -10.20664 -10.20328 -10.20327 -10.20268
 Alpha  occ. eigenvalues --  -10.20267  -9.48100  -9.48100  -9.48063  -9.48062
 Alpha  occ. eigenvalues --   -7.24580  -7.24580  -7.24542  -7.24542  -7.23582
 Alpha  occ. eigenvalues --   -7.23582  -7.23548  -7.23548  -7.23524  -7.23524
 Alpha  occ. eigenvalues --   -7.23478  -7.23478  -0.93751  -0.92529  -0.87760
 Alpha  occ. eigenvalues --   -0.86729  -0.86027  -0.85174  -0.79621  -0.74931
 Alpha  occ. eigenvalues --   -0.74927  -0.74898  -0.66304  -0.62463  -0.62232
 Alpha  occ. eigenvalues --   -0.61103  -0.54600  -0.52689  -0.51265  -0.50882
 Alpha  occ. eigenvalues --   -0.48955  -0.47094  -0.45488  -0.45398  -0.45307
 Alpha  occ. eigenvalues --   -0.43058  -0.43057  -0.41150  -0.39527  -0.39420
 Alpha  occ. eigenvalues --   -0.38368  -0.36108  -0.35592  -0.35148  -0.34719
 Alpha  occ. eigenvalues --   -0.34018  -0.33689  -0.31768  -0.31708  -0.27572
 Alpha  occ. eigenvalues --   -0.27278  -0.26344  -0.26307
 Alpha virt. eigenvalues --   -0.04865  -0.04750  -0.04192  -0.03441  -0.02262
 Alpha virt. eigenvalues --   -0.01289  -0.00469   0.00768   0.02054   0.02170
 Alpha virt. eigenvalues --    0.02709   0.02709   0.03011   0.04117   0.04873
 Alpha virt. eigenvalues --    0.05065   0.05503   0.06336   0.06668   0.06756
 Alpha virt. eigenvalues --    0.06992   0.08152   0.08435   0.08994   0.09195
 Alpha virt. eigenvalues --    0.09472   0.09884   0.10184   0.10821   0.10960
 Alpha virt. eigenvalues --    0.11938   0.12058   0.12705   0.13056   0.13238
 Alpha virt. eigenvalues --    0.13608   0.13690   0.14241   0.14579   0.15193
 Alpha virt. eigenvalues --    0.15665   0.15791   0.16545   0.16618   0.17400
 Alpha virt. eigenvalues --    0.17663   0.18131   0.18486   0.18646   0.19009
 Alpha virt. eigenvalues --    0.19162   0.19638   0.19803   0.20115   0.20446
 Alpha virt. eigenvalues --    0.20478   0.21161   0.21846   0.21931   0.22268
 Alpha virt. eigenvalues --    0.22627   0.22771   0.23838   0.24234   0.25039
 Alpha virt. eigenvalues --    0.25091   0.25662   0.25775   0.26031   0.26176
 Alpha virt. eigenvalues --    0.27672   0.27757   0.27883   0.28345   0.28665
 Alpha virt. eigenvalues --    0.29330   0.30244   0.30530   0.30905   0.31048
 Alpha virt. eigenvalues --    0.31445   0.32449   0.32993   0.33864   0.34273
 Alpha virt. eigenvalues --    0.34480   0.42572   0.42826   0.43695   0.44379
 Alpha virt. eigenvalues --    0.44799   0.45723   0.46123   0.47255   0.47489
 Alpha virt. eigenvalues --    0.47801   0.48848   0.49305   0.50597   0.51266
 Alpha virt. eigenvalues --    0.51284   0.51912   0.53114   0.53474   0.54127
 Alpha virt. eigenvalues --    0.54473   0.56760   0.57002   0.57442   0.57941
 Alpha virt. eigenvalues --    0.58308   0.59503   0.59534   0.61259   0.61384
 Alpha virt. eigenvalues --    0.62916   0.63610   0.64188   0.64865   0.65081
 Alpha virt. eigenvalues --    0.65205   0.66387   0.66625   0.68467   0.68883
 Alpha virt. eigenvalues --    0.69005   0.69957   0.70080   0.70720   0.71834
 Alpha virt. eigenvalues --    0.73184   0.73407   0.76040   0.79241   0.79412
 Alpha virt. eigenvalues --    0.80661   0.80897   0.82422   0.82626   0.83072
 Alpha virt. eigenvalues --    0.83773   0.84363   0.84625   0.85043   0.85132
 Alpha virt. eigenvalues --    0.85690   0.86263   0.87110   0.87396   0.88503
 Alpha virt. eigenvalues --    0.89380   0.89575   0.90484   0.91873   0.92560
 Alpha virt. eigenvalues --    0.93031   0.94345   0.94898   0.95460   0.96211
 Alpha virt. eigenvalues --    0.97015   0.97550   0.97670   0.98379   0.99227
 Alpha virt. eigenvalues --    0.99887   1.00637   1.01330   1.03307   1.04509
 Alpha virt. eigenvalues --    1.05260   1.05627   1.06800   1.12353   1.12643
 Alpha virt. eigenvalues --    1.13888   1.16705   1.17846   1.22759   1.24495
 Alpha virt. eigenvalues --    1.24787   1.26367   1.26724   1.26888   1.28585
 Alpha virt. eigenvalues --    1.29804   1.32849   1.33207   1.35929   1.36372
 Alpha virt. eigenvalues --    1.38793   1.39558   1.42867   1.48719   1.49051
 Alpha virt. eigenvalues --    1.49338   1.50792   1.54686   1.55463   1.56768
 Alpha virt. eigenvalues --    1.56835   1.58199   1.59519   1.62282   1.64398
 Alpha virt. eigenvalues --    1.64973   1.65357   1.68574   1.69180   1.72084
 Alpha virt. eigenvalues --    1.72365   1.75304   1.77829   1.78031   1.81614
 Alpha virt. eigenvalues --    1.82328   1.83916   1.85163   1.86863   1.88251
 Alpha virt. eigenvalues --    1.88861   1.90354   1.91695   1.92450   1.92681
 Alpha virt. eigenvalues --    1.94464   1.94748   1.98039   1.99786   2.01484
 Alpha virt. eigenvalues --    2.03064   2.03452   2.05828   2.07920   2.17323
 Alpha virt. eigenvalues --    2.17927   2.18843   2.20075   2.25127   2.26104
 Alpha virt. eigenvalues --    2.26935   2.27523   2.30291   2.30356   2.31332
 Alpha virt. eigenvalues --    2.32921   2.36153   2.36509   2.38982   2.39797
 Alpha virt. eigenvalues --    2.41967   2.44653   2.45123   2.46805   2.50087
 Alpha virt. eigenvalues --    2.50747   2.52491   2.52941   2.55933   2.56171
 Alpha virt. eigenvalues --    2.59509   2.62115   2.67589   2.68774   2.68982
 Alpha virt. eigenvalues --    2.69161   2.69765   2.71797   2.73590   2.74670
 Alpha virt. eigenvalues --    2.74715   2.76109   2.77340   2.77764   2.78491
 Alpha virt. eigenvalues --    2.79761   2.80798   2.84629   2.84780   2.85066
 Alpha virt. eigenvalues --    2.88619   2.91248   2.98301   2.99069   3.09517
 Alpha virt. eigenvalues --    3.09603   3.13259   3.14206   3.17002   3.19212
 Alpha virt. eigenvalues --    3.21154   3.21625   3.27030   3.35291   3.36068
 Alpha virt. eigenvalues --    3.38810   3.39032   3.51200   3.53013   3.60100
 Alpha virt. eigenvalues --    3.70410   3.72901   3.75317   3.91894   3.97414
 Alpha virt. eigenvalues --    4.04215   4.04991   4.09641   4.10164   4.34343
 Alpha virt. eigenvalues --    4.81702   4.82227   9.78006   9.78042   9.82291
 Alpha virt. eigenvalues --    9.84461  23.40726  23.55151  23.87603  23.88270
 Alpha virt. eigenvalues --   23.90333  23.91169  23.96173  24.01334  24.03354
 Alpha virt. eigenvalues --   24.09023  24.14614  24.16557  25.80475  25.81481
 Alpha virt. eigenvalues --   25.89793  25.97626  26.15622  26.16421  26.22761
 Alpha virt. eigenvalues --   26.34981  26.56108  26.58057  26.78220  26.91174
 Alpha virt. eigenvalues --  215.77263 215.77402 215.82610 215.84734
          Condensed to atoms (all electrons):
               1          2          3          4          5          6
     1  C   29.147830  -4.221219  -2.630447  -2.428004  -3.557556   3.476731
     2  C   -4.221219  23.253470  -0.404363   1.947950  -5.466364  -5.962783
     3  C   -2.630447  -0.404363   9.230545   0.641918  -1.340892  -1.556537
     4  C   -2.428004   1.947950   0.641918  18.743527  -2.113374  -7.213931
     5  C   -3.557556  -5.466364  -1.340892  -2.113374  23.931022  -4.024478
     6  C    3.476731  -5.962783  -1.556537  -7.213931  -4.024478  35.767125
     7  C   -2.143086  -1.294742   1.440129  -3.466883  -1.232450  -7.483628
     8  C   -1.297272   4.536454   0.674802  -0.728584  -3.506129  -4.744880
     9  C    1.440970   0.673914   0.078019  -0.025707  -0.408141   0.031241
    10  C   -3.466844  -0.728736  -0.025780  -0.022553   0.334644   0.419855
    11  C   -1.229500  -3.503565  -0.408235   0.334529   2.079597   3.174447
    12  C   -7.481408  -4.746962   0.030913   0.419657   3.177327  -2.557394
    13  H   -0.010296   0.287462  -0.055389  -0.022441   0.002808  -0.045881
    14  H    0.010223   0.006375   0.366026   0.003010  -0.019505  -0.018867
    15  H    0.045055  -0.052183  -0.035418   0.285845   0.055590   0.037585
    16  H    0.109428  -0.008145  -0.010371   0.007445   0.003853   0.097763
    17  H    0.001180  -0.002165  -0.000394   0.000026   0.000140   0.002824
    18  H    0.015309  -0.000113  -0.000179   0.000053   0.000026   0.001298
    19  Cl  -1.141682   1.029383   0.347112  -0.515635  -0.542981  -1.890726
    20  Cl   1.385475   0.985636   0.069199   0.836585  -0.852655  -1.498410
    21  Cl  -0.089733  -0.013234   0.004519  -0.000733   0.003457  -0.038898
    22  Cl  -0.434194   0.083571   0.052094  -0.271637  -0.803789   0.973928
               7          8          9         10         11         12
     1  C   -2.143086  -1.297272   1.440970  -3.466844  -1.229500  -7.481408
     2  C   -1.294742   4.536454   0.673914  -0.728736  -3.503565  -4.746962
     3  C    1.440129   0.674802   0.078019  -0.025780  -0.408235   0.030913
     4  C   -3.466883  -0.728584  -0.025707  -0.022553   0.334529   0.419657
     5  C   -1.232450  -3.506129  -0.408141   0.334644   2.079597   3.177327
     6  C   -7.483628  -4.744880   0.031241   0.419855   3.174447  -2.557394
     7  C   29.148819  -4.223207  -2.630248  -2.427442  -3.556734   3.480575
     8  C   -4.223207  23.252731  -0.401789   1.946549  -5.462324  -5.964540
     9  C   -2.630248  -0.401789   9.228332   0.642992  -1.340880  -1.558466
    10  C   -2.427442   1.946549   0.642992  18.743196  -2.114825  -7.212483
    11  C   -3.556734  -5.462324  -1.340880  -2.114825  23.921134  -4.023041
    12  C    3.480575  -5.964540  -1.558466  -7.212483  -4.023041  35.766012
    13  H    0.109441  -0.008111  -0.010359   0.007446   0.003830   0.097784
    14  H    0.001180  -0.002164  -0.000394   0.000026   0.000140   0.002821
    15  H    0.015307  -0.000109  -0.000179   0.000053   0.000026   0.001297
    16  H   -0.010264   0.287399  -0.055354  -0.022441   0.002816  -0.045836
    17  H    0.010247   0.006330   0.366062   0.002980  -0.019501  -0.018856
    18  H    0.045041  -0.052165  -0.035388   0.285865   0.055578   0.037544
    19  Cl   1.385362   0.986159   0.069133   0.836763  -0.850871  -1.501067
    20  Cl  -1.142451   1.029964   0.347108  -0.515497  -0.542530  -1.891796
    21  Cl  -0.433840   0.083659   0.051912  -0.271852  -0.804493   0.974671
    22  Cl  -0.089777  -0.013315   0.004496  -0.000728   0.003489  -0.038830
              13         14         15         16         17         18
     1  C   -0.010296   0.010223   0.045055   0.109428   0.001180   0.015309
     2  C    0.287462   0.006375  -0.052183  -0.008145  -0.002165  -0.000113
     3  C   -0.055389   0.366026  -0.035418  -0.010371  -0.000394  -0.000179
     4  C   -0.022441   0.003010   0.285845   0.007445   0.000026   0.000053
     5  C    0.002808  -0.019505   0.055590   0.003853   0.000140   0.000026
     6  C   -0.045881  -0.018867   0.037585   0.097763   0.002824   0.001298
     7  C    0.109441   0.001180   0.015307  -0.010264   0.010247   0.045041
     8  C   -0.008111  -0.002164  -0.000109   0.287399   0.006330  -0.052165
     9  C   -0.010359  -0.000394  -0.000179  -0.055354   0.366062  -0.035388
    10  C    0.007446   0.000026   0.000053  -0.022441   0.002980   0.285865
    11  C    0.003830   0.000140   0.000026   0.002816  -0.019501   0.055578
    12  C    0.097784   0.002821   0.001297  -0.045836  -0.018856   0.037544
    13  H    0.529938  -0.006876  -0.000239  -0.000143   0.000006  -0.000003
    14  H   -0.006876   0.526628  -0.007552   0.000006   0.000000   0.000000
    15  H   -0.000239  -0.007552   0.509064  -0.000003   0.000000  -0.000000
    16  H   -0.000143   0.000006  -0.000003   0.529930  -0.006877  -0.000239
    17  H    0.000006   0.000000   0.000000  -0.006877   0.526627  -0.007552
    18  H   -0.000003   0.000000  -0.000000  -0.000239  -0.007552   0.509065
    19  Cl  -0.006193  -0.000792   0.000076  -0.003954   0.000949  -0.001686
    20  Cl  -0.003955   0.000949  -0.001687  -0.006182  -0.000792   0.000077
    21  Cl   0.000349  -0.000000  -0.000000   0.000142  -0.000309  -0.005371
    22  Cl   0.000142  -0.000309  -0.005367   0.000349  -0.000000  -0.000000
              19         20         21         22
     1  C   -1.141682   1.385475  -0.089733  -0.434194
     2  C    1.029383   0.985636  -0.013234   0.083571
     3  C    0.347112   0.069199   0.004519   0.052094
     4  C   -0.515635   0.836585  -0.000733  -0.271637
     5  C   -0.542981  -0.852655   0.003457  -0.803789
     6  C   -1.890726  -1.498410  -0.038898   0.973928
     7  C    1.385362  -1.142451  -0.433840  -0.089777
     8  C    0.986159   1.029964   0.083659  -0.013315
     9  C    0.069133   0.347108   0.051912   0.004496
    10  C    0.836763  -0.515497  -0.271852  -0.000728
    11  C   -0.850871  -0.542530  -0.804493   0.003489
    12  C   -1.501067  -1.891796   0.974671  -0.038830
    13  H   -0.006193  -0.003955   0.000349   0.000142
    14  H   -0.000792   0.000949  -0.000000  -0.000309
    15  H    0.000076  -0.001687  -0.000000  -0.005367
    16  H   -0.003954  -0.006182   0.000142   0.000349
    17  H    0.000949  -0.000792  -0.000309  -0.000000
    18  H   -0.001686   0.000077  -0.005371  -0.000000
    19  Cl  18.353084   0.086756  -0.208468   0.004495
    20  Cl   0.086756  18.353368   0.004487  -0.208419
    21  Cl  -0.208468   0.004487  17.285423  -0.000164
    22  Cl   0.004495  -0.208419  -0.000164  17.285431
 Mulliken charges:
               1
     1  C    0.499040
     2  C   -0.399640
     3  C   -0.467271
     4  C   -0.411063
     5  C    0.279849
     6  C   -0.946385
     7  C    0.498649
     8  C   -0.399457
     9  C   -0.467274
    10  C   -0.411190
    11  C    0.280912
    12  C   -0.947922
    13  H    0.130681
    14  H    0.139073
    15  H    0.152839
    16  H    0.130678
    17  H    0.139075
    18  H    0.152840
    19  Cl   0.564782
    20  Cl   0.564771
    21  Cl   0.458476
    22  Cl   0.458535
 Sum of Mulliken charges =  -0.00000
 Mulliken charges with hydrogens summed into heavy atoms:
               1
     1  C    0.499040
     2  C   -0.268959
     3  C   -0.328197
     4  C   -0.258224
     5  C    0.279849
     6  C   -0.946385
     7  C    0.498649
     8  C   -0.268780
     9  C   -0.328199
    10  C   -0.258349
    11  C    0.280912
    12  C   -0.947922
    19  Cl   0.564782
    20  Cl   0.564771
    21  Cl   0.458476
    22  Cl   0.458535
 Electronic spatial extent (au):  <R**2>=           5465.0861
 Charge=             -0.0000 electrons
 Dipole moment (field-independent basis, Debye):
    X=              0.0005    Y=              3.5216    Z=             -0.0020  Tot=              3.5216
 Quadrupole moment (field-independent basis, Debye-Ang):
   XX=           -117.7234   YY=           -115.6764   ZZ=           -116.6034
   XY=              0.0069   XZ=              9.7809   YZ=             -0.0006
 Traceless Quadrupole moment (field-independent basis, Debye-Ang):
   XX=             -1.0557   YY=              0.9913   ZZ=              0.0644
   XY=              0.0069   XZ=              9.7809   YZ=             -0.0006
 Octapole moment (field-independent basis, Debye-Ang**2):
  XXX=              0.0119  YYY=            -16.5425  ZZZ=             -0.0105  XYY=              0.0198
  XXY=             15.0701  XXZ=             -0.0080  XZZ=             -0.0230  YZZ=              5.9478
  YYZ=              0.0155  XYZ=             17.2452
 Hexadecapole moment (field-independent basis, Debye-Ang**3):
 XXXX=          -5133.0660 YYYY=          -1090.5222 ZZZZ=           -985.0240 XXXY=              0.0806
 XXXZ=             92.0679 YYYX=              0.0295 YYYZ=              0.0971 ZZZX=            -11.3720
 ZZZY=             -0.0919 XXYY=          -1037.7334 XXZZ=           -995.4543 YYZZ=           -293.4685
 XXYZ=              0.0216 YYXZ=             13.9756 ZZXY=             -0.0241
 N-N= 1.491173754751D+03 E-N=-8.427167594297D+03  KE= 2.295551530547D+03
 1\1\GINC-CN048\FOpt\RB3LYP\6-311+G(d,p)\C12H6Cl4\20CY91R06\13-Apr-2022
 \0\\# opt b3lyp/6-311+g(d,p) scf=xqc\\Title Card Required\\0,1\C,-1.98
 04817027,1.1784837314,0.8030098781\C,-1.2076060926,1.4359695721,-0.331
 789163\C,-0.5126263284,2.6332079413,-0.4670506344\C,-0.5784684894,3.59
 27768792,0.5357164774\C,-1.340880058,3.3517398966,1.6756657206\C,-2.04
 23232251,2.1483355051,1.8150980708\C,-2.6916120135,-0.1301893695,0.924
 0650511\C,-2.0022985498,-1.2421470589,1.4137539742\C,-2.625504825,-2.4
 813535601,1.5169717301\C,-3.9512981707,-2.6277115336,1.1277477972\C,-4
 .6529366475,-1.5311200608,0.6337314501\C,-4.029418769,-0.2821486857,0.
 5291190698\H,-1.1634613052,0.6871854135,-1.1135226394\H,0.0804451687,2
 .8219413996,-1.3537953003\H,-0.0445668414,4.530098751,0.4473292617\H,-
 0.9703442854,-1.1221952833,1.7210227762\H,-2.0806680308,-3.3350509961,
 1.9017104731\H,-4.4523268158,-3.5842664162,1.2012892847\Cl,-4.90418248
 08,1.0939496814,-0.0955715536\Cl,-2.9943485386,1.8396828616,3.24594189
 1\Cl,-6.3170085325,-1.7577299022,0.1478994596\Cl,-1.3924381163,4.58086
 40637,2.917890195\\Version=EM64L-G16RevB.01\State=1-A\HF=-2301.8957762
 \RMSD=5.908e-09\RMSF=1.322e-05\Dipole=1.1178965,-0.6532559,-0.4931107\
 Quadrupole=-1.2576601,4.0162479,-2.7585878,-0.1672908,-4.2996536,-4.72
 06923\PG=C01 [X(C12H6Cl4)]\\@


 YOU WILL NEVER "FIND" TIME FOR ANYTHING.
 IF YOU WANT TIME, YOU MUST MAKE IT.

                        -- CHARLES BIXTON
 Job cpu time:       0 days 17 hours 55 minutes 13.6 seconds.
 Elapsed time:       0 days  1 hours  9 minutes 11.4 seconds.
 File lengths (MBytes):  RWF=    110 Int=      0 D2E=      0 Chk=     19 Scr=      1
 Normal termination of Gaussian 16 at Wed Apr 13 18:33:03 2022.
