 Entering Gaussian System, Link 0=g16
 Input=2,2prime,3,6-Tetrachlorobipheny1.gjf
 Output=2,2prime,3,6-Tetrachlorobipheny1.log
 Initial command:
 /home/apps/g16/l1.exe "./Gau-181753.inp" -scrdir="./"
 Entering Link 1 = /home/apps/g16/l1.exe PID=    181754.
  
 Copyright (c) 1988-2017, Gaussian, Inc.  All Rights Reserved.
  
 This is part of the Gaussian(R) 16 program.  It is based on
 the Gaussian(R) 09 system (copyright 2009, Gaussian, Inc.),
 the Gaussian(R) 03 system (copyright 2003, Gaussian, Inc.),
 the Gaussian(R) 98 system (copyright 1998, Gaussian, Inc.),
 the Gaussian(R) 94 system (copyright 1995, Gaussian, Inc.),
 the Gaussian 92(TM) system (copyright 1992, Gaussian, Inc.),
 the Gaussian 90(TM) system (copyright 1990, Gaussian, Inc.),
 the Gaussian 88(TM) system (copyright 1988, Gaussian, Inc.),
 the Gaussian 86(TM) system (copyright 1986, Carnegie Mellon
 University), and the Gaussian 82(TM) system (copyright 1983,
 Carnegie Mellon University). Gaussian is a federally registered
 trademark of Gaussian, Inc.
  
 This software contains proprietary and confidential information,
 including trade secrets, belonging to Gaussian, Inc.
  
 This software is provided under written license and may be
 used, copied, transmitted, or stored only in accord with that
 written license.
  
 The following legend is applicable only to US Government
 contracts under FAR:
  
                    RESTRICTED RIGHTS LEGEND
  
 Use, reproduction and disclosure by the US Government is
 subject to restrictions as set forth in subparagraphs (a)
 and (c) of the Commercial Computer Software - Restricted
 Rights clause in FAR 52.227-19.
  
 Gaussian, Inc.
 340 Quinnipiac St., Bldg. 40, Wallingford CT 06492
  
  
 ---------------------------------------------------------------
 Warning -- This program may not be used in any manner that
 competes with the business of Gaussian, Inc. or will provide
 assistance to any competitor of Gaussian, Inc.  The licensee
 of this program is prohibited from giving any competitor of
 Gaussian, Inc. access to this program.  By using this program,
 the user acknowledges that Gaussian, Inc. is engaged in the
 business of creating and licensing software in the field of
 computational chemistry and represents and warrants to the
 licensee that it is not a competitor of Gaussian, Inc. and that
 it will not use this program in any manner prohibited above.
 ---------------------------------------------------------------
  

 Cite this work as:
 Gaussian 16, Revision B.01,
 M. J. Frisch, G. W. Trucks, H. B. Schlegel, G. E. Scuseria, 
 M. A. Robb, J. R. Cheeseman, G. Scalmani, V. Barone, 
 G. A. Petersson, H. Nakatsuji, X. Li, M. Caricato, A. V. Marenich, 
 J. Bloino, B. G. Janesko, R. Gomperts, B. Mennucci, H. P. Hratchian, 
 J. V. Ortiz, A. F. Izmaylov, J. L. Sonnenberg, D. Williams-Young, 
 F. Ding, F. Lipparini, F. Egidi, J. Goings, B. Peng, A. Petrone, 
 T. Henderson, D. Ranasinghe, V. G. Zakrzewski, J. Gao, N. Rega, 
 G. Zheng, W. Liang, M. Hada, M. Ehara, K. Toyota, R. Fukuda, 
 J. Hasegawa, M. Ishida, T. Nakajima, Y. Honda, O. Kitao, H. Nakai, 
 T. Vreven, K. Throssell, J. A. Montgomery, Jr., J. E. Peralta, 
 F. Ogliaro, M. J. Bearpark, J. J. Heyd, E. N. Brothers, K. N. Kudin, 
 V. N. Staroverov, T. A. Keith, R. Kobayashi, J. Normand, 
 K. Raghavachari, A. P. Rendell, J. C. Burant, S. S. Iyengar, 
 J. Tomasi, M. Cossi, J. M. Millam, M. Klene, C. Adamo, R. Cammi, 
 J. W. Ochterski, R. L. Martin, K. Morokuma, O. Farkas, 
 J. B. Foresman, and D. J. Fox, Gaussian, Inc., Wallingford CT, 2016.
 
 ******************************************
 Gaussian 16:  EM64L-G16RevB.01 20-Dec-2017
                 8-Apr-2022 
 ******************************************
 %mem=16GB
 %nprocshared=8
 Will use up to    8 processors via shared memory.
 --------------------------------
 # opt b3lyp/6-311+g(d,p) scf=xqc
 --------------------------------
 1/18=20,19=15,26=3,38=1/1,3;
 2/9=110,12=2,17=6,18=5,40=1/2;
 3/5=4,6=6,7=111,11=2,25=1,30=1,71=1,74=-5/1,2,3;
 4//1;
 5/5=2,8=3,13=1,38=5/2,8;
 6/7=2,8=2,9=2,10=2,28=1/1;
 7//1,2,3,16;
 1/18=20,19=15,26=3/3(2);
 2/9=110/2;
 99//99;
 2/9=110/2;
 3/5=4,6=6,7=111,11=2,25=1,30=1,71=1,74=-5/1,2,3;
 4/5=5,16=3,69=1/1;
 5/5=2,8=3,13=1,38=5/2,8;
 7//1,2,3,16;
 1/18=20,19=15,26=3/3(-5);
 2/9=110/2;
 6/7=2,8=2,9=2,10=2,19=2,28=1/1;
 99/9=1/99;
 -------------------
 Title Card Required
 -------------------
 Symbolic Z-matrix:
 Charge =  0 Multiplicity = 1
 C                    -0.07099  -0.01591  -0.00392 
 C                     1.26139   0.01398  -0.43726 
 C                     1.96929   1.22343  -0.44333 
 C                     1.3448    2.40299  -0.01606 
 C                     0.01242   2.37311   0.41728 
 C                    -0.69548   1.16366   0.42336 
 C                    -1.09717  -1.76916   0.00489 
 C                    -0.47268  -2.94872  -0.42239 
 C                    -1.18057  -4.15817  -0.41631 
 C                    -2.51295  -4.18806   0.01704 
 C                    -3.13744  -3.0085    0.44431 
 C                    -2.42955  -1.79904   0.43824 
 H                     1.7382   -0.88665  -0.76349 
 H                     2.98659   1.24624  -0.7742 
 H                     1.88529   3.32643  -0.0207 
 H                    -0.46439   3.27373   0.74352 
 H                    -0.70376  -5.0588   -0.74255 
 H                    -3.05344  -5.1115    0.02168 
 Cl                   -3.21383  -0.31764   0.97485 
 Cl                   -2.3688    1.12612   0.96759 
 Cl                   -4.81076  -3.04603   0.98855 
 Cl                    1.20064  -2.91119  -0.96662 
 

 GradGradGradGradGradGradGradGradGradGradGradGradGradGradGradGradGradGrad
 Berny optimization.
 Initialization pass.
                           ----------------------------
                           !    Initial Parameters    !
                           ! (Angstroms and Degrees)  !
 --------------------------                            --------------------------
 ! Name  Definition              Value          Derivative Info.                !
 --------------------------------------------------------------------------------
 ! R1    R(1,2)                  1.4014         estimate D2E/DX2                !
 ! R2    R(1,6)                  1.4014         estimate D2E/DX2                !
 ! R3    R(2,3)                  1.4014         estimate D2E/DX2                !
 ! R4    R(2,13)                 1.07           estimate D2E/DX2                !
 ! R5    R(3,4)                  1.4014         estimate D2E/DX2                !
 ! R6    R(3,14)                 1.07           estimate D2E/DX2                !
 ! R7    R(4,5)                  1.4014         estimate D2E/DX2                !
 ! R8    R(4,15)                 1.07           estimate D2E/DX2                !
 ! R9    R(5,6)                  1.4014         estimate D2E/DX2                !
 ! R10   R(5,16)                 1.07           estimate D2E/DX2                !
 ! R11   R(6,20)                 1.76           estimate D2E/DX2                !
 ! R12   R(7,8)                  1.4014         estimate D2E/DX2                !
 ! R13   R(7,12)                 1.4014         estimate D2E/DX2                !
 ! R14   R(8,9)                  1.4014         estimate D2E/DX2                !
 ! R15   R(8,22)                 1.76           estimate D2E/DX2                !
 ! R16   R(9,10)                 1.4014         estimate D2E/DX2                !
 ! R17   R(9,17)                 1.07           estimate D2E/DX2                !
 ! R18   R(10,11)                1.4014         estimate D2E/DX2                !
 ! R19   R(10,18)                1.07           estimate D2E/DX2                !
 ! R20   R(11,12)                1.4014         estimate D2E/DX2                !
 ! R21   R(11,21)                1.76           estimate D2E/DX2                !
 ! R22   R(12,19)                1.76           estimate D2E/DX2                !
 ! R23   R(19,20)                1.6729         estimate D2E/DX2                !
 ! A1    A(2,1,6)              120.0            estimate D2E/DX2                !
 ! A2    A(1,2,3)              120.0            estimate D2E/DX2                !
 ! A3    A(1,2,13)             120.0            estimate D2E/DX2                !
 ! A4    A(3,2,13)             120.0            estimate D2E/DX2                !
 ! A5    A(2,3,4)              120.0            estimate D2E/DX2                !
 ! A6    A(2,3,14)             120.0            estimate D2E/DX2                !
 ! A7    A(4,3,14)             120.0            estimate D2E/DX2                !
 ! A8    A(3,4,5)              120.0            estimate D2E/DX2                !
 ! A9    A(3,4,15)             120.0            estimate D2E/DX2                !
 ! A10   A(5,4,15)             120.0            estimate D2E/DX2                !
 ! A11   A(4,5,6)              120.0            estimate D2E/DX2                !
 ! A12   A(4,5,16)             120.0            estimate D2E/DX2                !
 ! A13   A(6,5,16)             120.0            estimate D2E/DX2                !
 ! A14   A(1,6,5)              120.0            estimate D2E/DX2                !
 ! A15   A(1,6,20)             120.0            estimate D2E/DX2                !
 ! A16   A(5,6,20)             120.0            estimate D2E/DX2                !
 ! A17   A(8,7,12)             120.0            estimate D2E/DX2                !
 ! A18   A(7,8,9)              120.0            estimate D2E/DX2                !
 ! A19   A(7,8,22)             120.0            estimate D2E/DX2                !
 ! A20   A(9,8,22)             120.0            estimate D2E/DX2                !
 ! A21   A(8,9,10)             120.0            estimate D2E/DX2                !
 ! A22   A(8,9,17)             120.0            estimate D2E/DX2                !
 ! A23   A(10,9,17)            120.0            estimate D2E/DX2                !
 ! A24   A(9,10,11)            120.0            estimate D2E/DX2                !
 ! A25   A(9,10,18)            120.0            estimate D2E/DX2                !
 ! A26   A(11,10,18)           120.0            estimate D2E/DX2                !
 ! A27   A(10,11,12)           120.0            estimate D2E/DX2                !
 ! A28   A(10,11,21)           120.0            estimate D2E/DX2                !
 ! A29   A(12,11,21)           120.0            estimate D2E/DX2                !
 ! A30   A(7,12,11)            120.0            estimate D2E/DX2                !
 ! A31   A(7,12,19)            120.0            estimate D2E/DX2                !
 ! A32   A(11,12,19)           120.0            estimate D2E/DX2                !
 ! A33   A(12,19,20)           120.0            estimate D2E/DX2                !
 ! A34   A(6,20,19)            120.0            estimate D2E/DX2                !
 ! D1    D(6,1,2,3)              0.0001         estimate D2E/DX2                !
 ! D2    D(6,1,2,13)           180.0            estimate D2E/DX2                !
 ! D3    D(2,1,6,5)             -0.0001         estimate D2E/DX2                !
 ! D4    D(2,1,6,20)           180.0            estimate D2E/DX2                !
 ! D5    D(1,2,3,4)              0.0            estimate D2E/DX2                !
 ! D6    D(1,2,3,14)           180.0            estimate D2E/DX2                !
 ! D7    D(13,2,3,4)          -179.9999         estimate D2E/DX2                !
 ! D8    D(13,2,3,14)            0.0001         estimate D2E/DX2                !
 ! D9    D(2,3,4,5)             -0.0001         estimate D2E/DX2                !
 ! D10   D(2,3,4,15)           180.0            estimate D2E/DX2                !
 ! D11   D(14,3,4,5)           179.9999         estimate D2E/DX2                !
 ! D12   D(14,3,4,15)            0.0            estimate D2E/DX2                !
 ! D13   D(3,4,5,6)              0.0001         estimate D2E/DX2                !
 ! D14   D(3,4,5,16)          -179.9999         estimate D2E/DX2                !
 ! D15   D(15,4,5,6)          -180.0            estimate D2E/DX2                !
 ! D16   D(15,4,5,16)            0.0            estimate D2E/DX2                !
 ! D17   D(4,5,6,1)              0.0            estimate D2E/DX2                !
 ! D18   D(4,5,6,20)           179.9999         estimate D2E/DX2                !
 ! D19   D(16,5,6,1)           180.0            estimate D2E/DX2                !
 ! D20   D(16,5,6,20)           -0.0001         estimate D2E/DX2                !
 ! D21   D(1,6,20,19)            0.0004         estimate D2E/DX2                !
 ! D22   D(5,6,20,19)         -179.9996         estimate D2E/DX2                !
 ! D23   D(12,7,8,9)             0.0001         estimate D2E/DX2                !
 ! D24   D(12,7,8,22)         -179.9998         estimate D2E/DX2                !
 ! D25   D(8,7,12,11)           -0.0001         estimate D2E/DX2                !
 ! D26   D(8,7,12,19)          179.9999         estimate D2E/DX2                !
 ! D27   D(7,8,9,10)             0.0            estimate D2E/DX2                !
 ! D28   D(7,8,9,17)           180.0            estimate D2E/DX2                !
 ! D29   D(22,8,9,10)          179.9998         estimate D2E/DX2                !
 ! D30   D(22,8,9,17)           -0.0002         estimate D2E/DX2                !
 ! D31   D(8,9,10,11)            0.0            estimate D2E/DX2                !
 ! D32   D(8,9,10,18)         -179.9999         estimate D2E/DX2                !
 ! D33   D(17,9,10,11)         180.0            estimate D2E/DX2                !
 ! D34   D(17,9,10,18)           0.0001         estimate D2E/DX2                !
 ! D35   D(9,10,11,12)           0.0            estimate D2E/DX2                !
 ! D36   D(9,10,11,21)        -179.9998         estimate D2E/DX2                !
 ! D37   D(18,10,11,12)        179.9999         estimate D2E/DX2                !
 ! D38   D(18,10,11,21)          0.0001         estimate D2E/DX2                !
 ! D39   D(10,11,12,7)           0.0            estimate D2E/DX2                !
 ! D40   D(10,11,12,19)       -179.9999         estimate D2E/DX2                !
 ! D41   D(21,11,12,7)         179.9999         estimate D2E/DX2                !
 ! D42   D(21,11,12,19)         -0.0001         estimate D2E/DX2                !
 ! D43   D(7,12,19,20)           0.0004         estimate D2E/DX2                !
 ! D44   D(11,12,19,20)       -179.9997         estimate D2E/DX2                !
 ! D45   D(12,19,20,6)          -0.0006         estimate D2E/DX2                !
 --------------------------------------------------------------------------------
 Trust Radius=3.00D-01 FncErr=1.00D-07 GrdErr=1.00D-06 EigMax=2.50D+02 EigMin=1.00D-04
 Number of steps in this run=    112 maximum allowed number of steps=    132.
 GradGradGradGradGradGradGradGradGradGradGradGradGradGradGradGradGradGrad

                          Input orientation:                          
 ---------------------------------------------------------------------
 Center     Atomic      Atomic             Coordinates (Angstroms)
 Number     Number       Type             X           Y           Z
 ---------------------------------------------------------------------
      1          6           0       -0.070989   -0.015910   -0.003916
      2          6           0        1.261393    0.013975   -0.437263
      3          6           0        1.969286    1.223426   -0.443335
      4          6           0        1.344799    2.402992   -0.016060
      5          6           0        0.012417    2.373106    0.417285
      6          6           0       -0.695477    1.163655    0.423357
      7          6           0       -1.097166   -1.769157    0.004888
      8          6           0       -0.472679   -2.948722   -0.422387
      9          6           0       -1.180572   -4.158174   -0.416313
     10          6           0       -2.512952   -4.188060    0.017037
     11          6           0       -3.137439   -3.008495    0.444312
     12          6           0       -2.429546   -1.799044    0.438238
     13          1           0        1.738203   -0.886649   -0.763495
     14          1           0        2.986589    1.246245   -0.774204
     15          1           0        1.885291    3.326434   -0.020696
     16          1           0       -0.464394    3.273731    0.743516
     17          1           0       -0.703762   -5.058798   -0.742547
     18          1           0       -3.053443   -5.111503    0.021676
     19         17           0       -3.213831   -0.317644    0.974850
     20         17           0       -2.368797    1.126122    0.967591
     21         17           0       -4.810756   -3.046030    0.988555
     22         17           0        1.200641   -2.911189   -0.966621
 ---------------------------------------------------------------------
                    Distance matrix (angstroms):
                    1          2          3          4          5
     1  C    0.000000
     2  C    1.401400   0.000000
     3  C    2.427296   1.401400   0.000000
     4  C    2.802800   2.427296   1.401400   0.000000
     5  C    2.427296   2.802800   2.427296   1.401400   0.000000
     6  C    1.401400   2.427296   2.802800   2.427296   1.401400
     7  C    2.031500   2.989625   4.308084   4.834300   4.308084
     8  C    2.989625   3.432900   4.834300   5.666495   5.409457
     9  C    4.308084   4.834300   6.235700   7.041774   6.691466
    10  C    4.834300   5.666495   7.041774   7.637100   7.041774
    11  C    4.308084   5.409457   6.691466   7.041774   6.235700
    12  C    2.989625   4.204351   5.409457   5.666495   4.834300
    13  H    2.146700   1.070000   2.146700   3.396345   3.872800
    14  H    3.396345   2.146700   1.070000   2.146700   3.396345
    15  H    3.872800   3.396345   2.146700   1.070000   2.146700
    16  H    3.396345   3.872800   3.396345   2.146700   1.070000
    17  H    5.135824   5.448675   6.833817   7.771916   7.555879
    18  H    5.904300   6.715576   8.097863   8.707100   8.097863
    19  Cl   3.305523   4.704429   5.590246   5.400450   4.237887
    20  Cl   2.743718   4.048303   4.562800   4.048303   2.743718
    21  Cl   5.712445   6.947487   8.139259   8.282026   7.277114
    22  Cl   3.305523   2.973298   4.237887   5.400450   5.590246
                    6          7          8          9         10
     6  C    0.000000
     7  C    2.989625   0.000000
     8  C    4.204351   1.401400   0.000000
     9  C    5.409457   2.427296   1.401400   0.000000
    10  C    5.666495   2.802800   2.427296   1.401400   0.000000
    11  C    4.834300   2.427296   2.802800   2.427296   1.401400
    12  C    3.432900   1.401400   2.427296   2.802800   2.427296
    13  H    3.396345   3.067336   3.042450   4.398029   5.438829
    14  H    3.872800   5.135824   5.448675   6.833817   7.771916
    15  H    3.396345   5.904300   6.715576   8.097863   8.707100
    16  H    2.146700   5.135824   6.330744   7.555879   7.771916
    17  H    6.330744   3.396345   2.146700   1.070000   2.146700
    18  H    6.715576   3.872800   3.396345   2.146700   1.070000
    19  Cl   2.973298   2.743718   4.048303   4.562800   4.048303
    20  Cl   1.760000   3.305523   4.704429   5.590246   5.400450
    21  Cl   5.914087   4.048303   4.562800   4.048303   2.743718
    22  Cl   4.704429   2.743718   1.760000   2.743718   4.048303
                   11         12         13         14         15
    11  C    0.000000
    12  C    1.401400   0.000000
    13  H    5.452790   4.432467   0.000000
    14  H    7.555879   6.330744   2.471400   0.000000
    15  H    8.097863   6.715576   4.280590   2.471400   0.000000
    16  H    6.833817   5.448675   4.942800   4.280590   2.471400
    17  H    3.396345   3.872800   4.834300   7.305700   8.805474
    18  H    2.146700   3.396345   6.436285   8.805474   9.777100
    19  Cl   2.743718   1.760000   5.279038   6.629490   6.345980
    20  Cl   4.237887   2.973298   4.890332   5.632800   4.890332
    21  Cl   1.760000   2.743718   7.114877   9.073563   9.298599
    22  Cl   4.562800   4.048303   2.104518   4.528895   6.345980
                   16         17         18         19         20
    16  H    0.000000
    17  H    8.467391   0.000000
    18  H    8.805474   2.471400   0.000000
    19  Cl   4.528895   5.632800   4.890332   0.000000
    20  Cl   2.879094   6.629490   6.345980   1.672900   0.000000
    21  Cl   7.674001   4.890332   2.879094   3.161400   4.834300
    22  Cl   6.629490   2.879094   4.890332   5.475705   5.725552
                   21         22
    21  Cl   0.000000
    22  Cl   6.322800   0.000000
 Stoichiometry    C12H6Cl4
 Framework group  C1[X(C12H6Cl4)]
 Deg. of freedom    60
 Full point group                 C1      NOp   1
 Largest Abelian subgroup         C1      NOp   1
 Largest concise Abelian subgroup C1      NOp   1
                         Standard orientation:                         
 ---------------------------------------------------------------------
 Center     Atomic      Atomic             Coordinates (Angstroms)
 Number     Number       Type             X           Y           Z
 ---------------------------------------------------------------------
      1          6           0       -1.653461    0.157268   -0.000001
      2          6           0       -2.662382    1.129894    0.000002
      3          6           0       -4.009161    0.742456    0.000004
      4          6           0       -4.347019   -0.617608    0.000005
      5          6           0       -3.338098   -1.590234    0.000000
      6          6           0       -1.991319   -1.202796   -0.000002
      7          6           0        0.298859    0.718907   -0.000003
      8          6           0        0.636717    2.078971   -0.000003
      9          6           0        1.983496    2.466410   -0.000003
     10          6           0        2.992417    1.493784   -0.000002
     11          6           0        2.654559    0.133720   -0.000001
     12          6           0        1.307780   -0.253718   -0.000001
     13          1           0       -2.404420    2.168333    0.000004
     14          1           0       -4.779494    1.485077    0.000006
     15          1           0       -5.375314   -0.913426    0.000007
     16          1           0       -3.596060   -2.628673   -0.000002
     17          1           0        2.241458    3.504849   -0.000004
     18          1           0        4.020713    1.789602   -0.000001
     19         17           0        0.883468   -1.961805    0.000002
     20         17           0       -0.724228   -2.424303   -0.000006
     21         17           0        3.921650   -1.087788    0.000005
     22         17           0       -0.630373    3.300479    0.000000
 ---------------------------------------------------------------------
 Rotational constants (GHZ):           0.4929894           0.3018308           0.1872114
 Standard basis: 6-311+G(d,p) (5D, 7F)
 There are   436 symmetry adapted cartesian basis functions of A   symmetry.
 There are   420 symmetry adapted basis functions of A   symmetry.
   420 basis functions,   692 primitive gaussians,   436 cartesian basis functions
    73 alpha electrons       73 beta electrons
       nuclear repulsion energy      1530.1639459613 Hartrees.
 NAtoms=   22 NActive=   22 NUniq=   22 SFac= 1.00D+00 NAtFMM=   60 NAOKFM=F Big=F
 Integral buffers will be    131072 words long.
 Raffenetti 2 integral format.
 Two-electron integral symmetry is turned on.
 One-electron integrals computed using PRISM.
 NBasis=   420 RedAO= T EigKep=  1.25D-06  NBF=   420
 NBsUse=   415 1.00D-06 EigRej=  7.44D-07 NBFU=   415
 ExpMin= 4.38D-02 ExpMax= 1.06D+05 ExpMxC= 3.62D+03 IAcc=3 IRadAn=         5 AccDes= 0.00D+00
 Harris functional with IExCor=  402 and IRadAn=       5 diagonalized for initial guess.
 HarFok:  IExCor=  402 AccDes= 0.00D+00 IRadAn=         5 IDoV= 1 UseB2=F ITyADJ=14
 ICtDFT=  3500011 ScaDFX=  1.000000  1.000000  1.000000  1.000000
 FoFCou: FMM=F IPFlag=           0 FMFlag=      100000 FMFlg1=           0
         NFxFlg=           0 DoJE=T BraDBF=F KetDBF=T FulRan=T
         wScrn=  0.000000 ICntrl=       500 IOpCl=  0 I1Cent=   200000004 NGrid=           0
         NMat0=    1 NMatS0=      1 NMatT0=    0 NMatD0=    1 NMtDS0=    0 NMtDT0=    0
 Petite list used in FoFCou.
 Requested convergence on RMS density matrix=1.00D-08 within  32 cycles.
 Requested convergence on MAX density matrix=1.00D-06.
 Requested convergence on             energy=1.00D-06.
 No special actions if energy rises.
 EnCoef did     3 forward-backward iterations
 EnCoef did     3 forward-backward iterations
 EnCoef did     4 forward-backward iterations
 Restarting incremental Fock formation.
 SCF Done:  E(RB3LYP) =  -2301.32979720     A.U. after   27 cycles
            NFock= 27  Conv=0.48D-08     -V/T= 2.0020
 QCSCF skips out because SCF is already converged.

 **********************************************************************

            Population analysis using the SCF Density.

 **********************************************************************

 Orbital symmetries:
       Occupied  (A) (A) (A) (A) (A) (A) (A) (A) (A) (A) (A) (A)
                 (A) (A) (A) (A) (A) (A) (A) (A) (A) (A) (A) (A)
                 (A) (A) (A) (A) (A) (A) (A) (A) (A) (A) (A) (A)
                 (A) (A) (A) (A) (A) (A) (A) (A) (A) (A) (A) (A)
                 (A) (A) (A) (A) (A) (A) (A) (A) (A) (A) (A) (A)
                 (A) (A) (A) (A) (A) (A) (A) (A) (A) (A) (A) (A)
                 (A)
       Virtual   (A) (A) (A) (A) (A) (A) (A) (A) (A) (A) (A) (A)
                 (A) (A) (A) (A) (A) (A) (A) (A) (A) (A) (A) (A)
                 (A) (A) (A) (A) (A) (A) (A) (A) (A) (A) (A) (A)
                 (A) (A) (A) (A) (A) (A) (A) (A) (A) (A) (A) (A)
                 (A) (A) (A) (A) (A) (A) (A) (A) (A) (A) (A) (A)
                 (A) (A) (A) (A) (A) (A) (A) (A) (A) (A) (A) (A)
                 (A) (A) (A) (A) (A) (A) (A) (A) (A) (A) (A) (A)
                 (A) (A) (A) (A) (A) (A) (A) (A) (A) (A) (A) (A)
                 (A) (A) (A) (A) (A) (A) (A) (A) (A) (A) (A) (A)
                 (A) (A) (A) (A) (A) (A) (A) (A) (A) (A) (A) (A)
                 (A) (A) (A) (A) (A) (A) (A) (A) (A) (A) (A) (A)
                 (A) (A) (A) (A) (A) (A) (A) (A) (A) (A) (A) (A)
                 (A) (A) (A) (A) (A) (A) (A) (A) (A) (A) (A) (A)
                 (A) (A) (A) (A) (A) (A) (A) (A) (A) (A) (A) (A)
                 (A) (A) (A) (A) (A) (A) (A) (A) (A) (A) (A) (A)
                 (A) (A) (A) (A) (A) (A) (A) (A) (A) (A) (A) (A)
                 (A) (A) (A) (A) (A) (A) (A) (A) (A) (A) (A) (A)
                 (A) (A) (A) (A) (A) (A) (A) (A) (A) (A) (A) (A)
                 (A) (A) (A) (A) (A) (A) (A) (A) (A) (A) (A) (A)
                 (A) (A) (A) (A) (A) (A) (A) (A) (A) (A) (A) (A)
                 (A) (A) (A) (A) (A) (A) (A) (A) (A) (A) (A) (A)
                 (A) (A) (A) (A) (A) (A) (A) (A) (A) (A) (A) (A)
                 (A) (A) (A) (A) (A) (A) (A) (A) (A) (A) (A) (A)
                 (A) (A) (A) (A) (A) (A) (A) (A) (A) (A) (A) (A)
                 (A) (A) (A) (A) (A) (A) (A) (A) (A) (A) (A) (A)
                 (A) (A) (A) (A) (A) (A) (A) (A) (A) (A) (A) (A)
                 (A) (A) (A) (A) (A) (A) (A) (A) (A) (A) (A) (A)
                 (A) (A) (A) (A) (A) (A) (A) (A) (A) (A) (A) (A)
                 (A) (A) (A) (A) (A) (A)
 The electronic state is 1-A.
 Alpha  occ. eigenvalues -- -101.63947-101.62066-101.55754-101.55328 -10.27321
 Alpha  occ. eigenvalues --  -10.25250 -10.24431 -10.22955 -10.22618 -10.21744
 Alpha  occ. eigenvalues --  -10.20475 -10.20076 -10.20006 -10.19718 -10.19573
 Alpha  occ. eigenvalues --  -10.19307  -9.56096  -9.54473  -9.47324  -9.46847
 Alpha  occ. eigenvalues --   -7.32412  -7.31765  -7.31310  -7.31247  -7.29806
 Alpha  occ. eigenvalues --   -7.29305  -7.23754  -7.23261  -7.22807  -7.22771
 Alpha  occ. eigenvalues --   -7.22333  -7.22322  -1.11174  -0.91075  -0.90089
 Alpha  occ. eigenvalues --   -0.87934  -0.84809  -0.82532  -0.78493  -0.77355
 Alpha  occ. eigenvalues --   -0.74040  -0.72448  -0.66731  -0.63868  -0.60701
 Alpha  occ. eigenvalues --   -0.60437  -0.57669  -0.53461  -0.52080  -0.51563
 Alpha  occ. eigenvalues --   -0.50598  -0.48728  -0.47927  -0.47019  -0.45339
 Alpha  occ. eigenvalues --   -0.43705  -0.43048  -0.41528  -0.40849  -0.40585
 Alpha  occ. eigenvalues --   -0.39584  -0.38537  -0.37085  -0.34049  -0.33852
 Alpha  occ. eigenvalues --   -0.32071  -0.31901  -0.30822  -0.29024  -0.27919
 Alpha  occ. eigenvalues --   -0.25288  -0.24396  -0.11343
 Alpha virt. eigenvalues --   -0.07526  -0.05406  -0.04478  -0.03868  -0.02981
 Alpha virt. eigenvalues --   -0.01570  -0.00643   0.00439   0.00863   0.01588
 Alpha virt. eigenvalues --    0.02128   0.03386   0.03604   0.04139   0.04179
 Alpha virt. eigenvalues --    0.04648   0.05455   0.06084   0.06292   0.06842
 Alpha virt. eigenvalues --    0.07459   0.07649   0.08052   0.08341   0.08597
 Alpha virt. eigenvalues --    0.09476   0.09909   0.10647   0.10964   0.11053
 Alpha virt. eigenvalues --    0.11590   0.11833   0.11859   0.12367   0.14012
 Alpha virt. eigenvalues --    0.14110   0.14583   0.14731   0.14997   0.15507
 Alpha virt. eigenvalues --    0.15962   0.16021   0.16352   0.16512   0.16587
 Alpha virt. eigenvalues --    0.16680   0.17374   0.18523   0.18676   0.19077
 Alpha virt. eigenvalues --    0.19549   0.20062   0.20114   0.20656   0.20826
 Alpha virt. eigenvalues --    0.21505   0.22011   0.22304   0.22821   0.23336
 Alpha virt. eigenvalues --    0.23368   0.24119   0.24528   0.24691   0.25167
 Alpha virt. eigenvalues --    0.25752   0.26227   0.26474   0.27225   0.27675
 Alpha virt. eigenvalues --    0.27879   0.28721   0.29220   0.29390   0.29785
 Alpha virt. eigenvalues --    0.30261   0.31824   0.32868   0.33742   0.33954
 Alpha virt. eigenvalues --    0.34494   0.35279   0.38377   0.38696   0.40196
 Alpha virt. eigenvalues --    0.41186   0.41677   0.42766   0.43763   0.44379
 Alpha virt. eigenvalues --    0.44902   0.45408   0.45410   0.47282   0.48013
 Alpha virt. eigenvalues --    0.48936   0.49785   0.50480   0.51225   0.51528
 Alpha virt. eigenvalues --    0.52249   0.52861   0.53318   0.53810   0.54049
 Alpha virt. eigenvalues --    0.55372   0.56150   0.57341   0.57889   0.58055
 Alpha virt. eigenvalues --    0.58699   0.59564   0.59712   0.60927   0.61535
 Alpha virt. eigenvalues --    0.61887   0.62640   0.62916   0.64703   0.64946
 Alpha virt. eigenvalues --    0.65150   0.65921   0.66502   0.67157   0.69725
 Alpha virt. eigenvalues --    0.70495   0.70797   0.71281   0.72040   0.74986
 Alpha virt. eigenvalues --    0.76849   0.77216   0.79304   0.80266   0.80815
 Alpha virt. eigenvalues --    0.81548   0.81880   0.82804   0.83507   0.84026
 Alpha virt. eigenvalues --    0.84207   0.85374   0.86200   0.86449   0.86898
 Alpha virt. eigenvalues --    0.87584   0.88578   0.89036   0.90459   0.90690
 Alpha virt. eigenvalues --    0.91151   0.91688   0.93360   0.93895   0.94770
 Alpha virt. eigenvalues --    0.96269   0.96527   0.97030   0.97715   0.97948
 Alpha virt. eigenvalues --    0.98573   0.98644   1.00161   1.01273   1.01565
 Alpha virt. eigenvalues --    1.04030   1.04195   1.06091   1.06541   1.07306
 Alpha virt. eigenvalues --    1.10088   1.10098   1.11155   1.12847   1.15471
 Alpha virt. eigenvalues --    1.17607   1.21112   1.22538   1.23863   1.25438
 Alpha virt. eigenvalues --    1.25845   1.26605   1.28152   1.29097   1.29631
 Alpha virt. eigenvalues --    1.31321   1.32367   1.32520   1.35514   1.42226
 Alpha virt. eigenvalues --    1.46926   1.48246   1.49917   1.51301   1.51588
 Alpha virt. eigenvalues --    1.52591   1.53507   1.54741   1.56296   1.57637
 Alpha virt. eigenvalues --    1.60054   1.63262   1.64858   1.66811   1.66844
 Alpha virt. eigenvalues --    1.67835   1.69382   1.71939   1.73393   1.75089
 Alpha virt. eigenvalues --    1.76853   1.76990   1.83105   1.84137   1.85424
 Alpha virt. eigenvalues --    1.85912   1.87341   1.88223   1.88742   1.88970
 Alpha virt. eigenvalues --    1.89338   1.90819   1.92816   1.93740   1.94833
 Alpha virt. eigenvalues --    1.95939   1.97314   2.01405   2.02256   2.03346
 Alpha virt. eigenvalues --    2.03967   2.06749   2.12436   2.14622   2.17544
 Alpha virt. eigenvalues --    2.20381   2.23647   2.23913   2.26681   2.27925
 Alpha virt. eigenvalues --    2.28683   2.29138   2.30129   2.31224   2.32247
 Alpha virt. eigenvalues --    2.32367   2.36015   2.38212   2.40527   2.41072
 Alpha virt. eigenvalues --    2.44105   2.45872   2.46029   2.53687   2.55385
 Alpha virt. eigenvalues --    2.56279   2.58347   2.60198   2.60780   2.61768
 Alpha virt. eigenvalues --    2.63454   2.63591   2.66024   2.67801   2.68170
 Alpha virt. eigenvalues --    2.71517   2.71558   2.71963   2.74527   2.75246
 Alpha virt. eigenvalues --    2.75421   2.76747   2.78196   2.78659   2.79149
 Alpha virt. eigenvalues --    2.81899   2.83458   2.85238   2.85725   2.87036
 Alpha virt. eigenvalues --    2.88010   2.89868   3.04280   3.05553   3.08239
 Alpha virt. eigenvalues --    3.10407   3.11989   3.16796   3.19482   3.25491
 Alpha virt. eigenvalues --    3.28966   3.31595   3.35075   3.36344   3.40326
 Alpha virt. eigenvalues --    3.42138   3.51185   3.53825   3.63346   3.68255
 Alpha virt. eigenvalues --    3.73987   3.85875   3.88560   4.03641   4.03815
 Alpha virt. eigenvalues --    4.08104   4.11478   4.17360   4.81122   4.82278
 Alpha virt. eigenvalues --    9.69650   9.80245   9.84394   9.97911  23.37513
 Alpha virt. eigenvalues --   23.48562  23.83527  23.88195  23.90535  23.91975
 Alpha virt. eigenvalues --   23.98567  24.00015  24.01570  24.04668  24.11027
 Alpha virt. eigenvalues --   24.13998  25.75286  25.82488  25.84833  25.97224
 Alpha virt. eigenvalues --   26.13716  26.23205  26.34111  26.55223  26.70123
 Alpha virt. eigenvalues --   26.84272  26.93271  26.99200 215.70629 215.80473
 Alpha virt. eigenvalues --  215.84809 216.03464
          Condensed to atoms (all electrons):
               1          2          3          4          5          6
     1  C   19.170427  -2.126953  -4.648351   2.033651  -2.743601   0.190711
     2  C   -2.126953  13.452592  -1.130067   1.328671  -2.187829  -5.683978
     3  C   -4.648351  -1.130067  11.956112  -1.716695  -1.110534   2.708696
     4  C    2.033651   1.328671  -1.716695  11.005013   0.474957  -5.618622
     5  C   -2.743601  -2.187829  -1.110534   0.474957  16.810336  -1.515778
     6  C    0.190711  -5.683978   2.708696  -5.618622  -1.515778  19.180948
     7  C    1.418528   2.849362  -0.331929   0.187511  -3.615531  -4.208985
     8  C   -3.741338   4.158441   0.692861  -0.017639  -0.491874  -3.237908
     9  C   -0.528529  -2.080389  -0.589962   0.082762   0.686418   1.941201
    10  C    0.567688   0.281791   0.035763   0.012759  -0.064255  -0.283957
    11  C   -1.932979   1.263330   0.250527  -0.071246  -0.792959  -1.442103
    12  C   -0.430324  -2.652838  -0.065533  -1.016466  -0.755182   0.513493
    13  H    0.020355   0.335487  -0.105405   0.002250   0.006346   0.031747
    14  H   -0.039396  -0.112636   0.505069  -0.009559  -0.045477   0.038105
    15  H    0.009776   0.010343  -0.023636   0.416772  -0.075924   0.007105
    16  H    0.001740  -0.019115   0.010775  -0.169417   0.380940   0.072617
    17  H    0.006205  -0.001740  -0.001163   0.000166   0.000123   0.000233
    18  H   -0.002065  -0.003689  -0.000327   0.000049   0.000364   0.005009
    19  Cl   1.048958  -1.580626  -2.240695   2.492742   4.177351   6.705569
    20  Cl  -2.590342   0.435863   2.234884  -3.047097  -2.704442  -2.624326
    21  Cl  -0.042552   0.011760   0.014295  -0.013890  -0.043071  -0.148831
    22  Cl   0.114137  -0.044967  -0.234164  -0.029923  -0.028850  -0.174980
               7          8          9         10         11         12
     1  C    1.418528  -3.741338  -0.528529   0.567688  -1.932979  -0.430324
     2  C    2.849362   4.158441  -2.080389   0.281791   1.263330  -2.652838
     3  C   -0.331929   0.692861  -0.589962   0.035763   0.250527  -0.065533
     4  C    0.187511  -0.017639   0.082762   0.012759  -0.071246  -1.016466
     5  C   -3.615531  -0.491874   0.686418  -0.064255  -0.792959  -0.755182
     6  C   -4.208985  -3.237908   1.941201  -0.283957  -1.442103   0.513493
     7  C   18.272054   4.148937  -5.925676   1.238532   0.692872   0.744587
     8  C    4.148937  29.378379 -11.471274  -3.636445   5.392364  -9.869878
     9  C   -5.925676 -11.471274  17.363179   2.106207  -4.094511   5.627374
    10  C    1.238532  -3.636445   2.106207  13.098792  -3.740867  -2.704152
    11  C    0.692872   5.392364  -4.094511  -3.740867  17.097431  -6.620504
    12  C    0.744587  -9.869878   5.627374  -2.704152  -6.620504  43.071512
    13  H    0.016643  -0.027259   0.040241   0.005820  -0.004065   0.016140
    14  H    0.012618  -0.001903  -0.002660  -0.000026   0.000703  -0.000797
    15  H    0.002692  -0.000031   0.000009  -0.000016   0.000029   0.000582
    16  H    0.012551   0.000760  -0.000393   0.000066   0.001338   0.027306
    17  H    0.033762  -0.103477   0.440031  -0.000219  -0.114287   0.087702
    18  H   -0.039033  -0.131216  -0.006812   0.355324  -0.035064   0.175779
    19  Cl -14.428191  -7.258909   4.767658   0.061608  -0.128491 -34.932871
    20  Cl   4.529929   2.013657  -1.358582   0.217144   0.168932  14.995356
    21  Cl   0.232269   0.718438  -0.318175  -0.804032  -0.497558   1.702356
    22  Cl   0.407804  -0.339759  -0.407715  -0.231382   0.189818  -0.127788
              13         14         15         16         17         18
     1  C    0.020355  -0.039396   0.009776   0.001740   0.006205  -0.002065
     2  C    0.335487  -0.112636   0.010343  -0.019115  -0.001740  -0.003689
     3  C   -0.105405   0.505069  -0.023636   0.010775  -0.001163  -0.000327
     4  C    0.002250  -0.009559   0.416772  -0.169417   0.000166   0.000049
     5  C    0.006346  -0.045477  -0.075924   0.380940   0.000123   0.000364
     6  C    0.031747   0.038105   0.007105   0.072617   0.000233   0.005009
     7  C    0.016643   0.012618   0.002692   0.012551   0.033762  -0.039033
     8  C   -0.027259  -0.001903  -0.000031   0.000760  -0.103477  -0.131216
     9  C    0.040241  -0.002660   0.000009  -0.000393   0.440031  -0.006812
    10  C    0.005820  -0.000026  -0.000016   0.000066  -0.000219   0.355324
    11  C   -0.004065   0.000703   0.000029   0.001338  -0.114287  -0.035064
    12  C    0.016140  -0.000797   0.000582   0.027306   0.087702   0.175779
    13  H    0.573218  -0.010053  -0.000430   0.000057   0.000052  -0.000000
    14  H   -0.010053   0.534505  -0.006357  -0.000096  -0.000000  -0.000000
    15  H   -0.000430  -0.006357   0.523370  -0.007102  -0.000000  -0.000000
    16  H    0.000057  -0.000096  -0.007102   0.513981  -0.000000  -0.000000
    17  H    0.000052  -0.000000  -0.000000  -0.000000   0.519971  -0.005067
    18  H   -0.000000  -0.000000  -0.000000  -0.000000  -0.005067   0.531488
    19  Cl   0.008157  -0.002908  -0.000764  -0.062526   0.016816   0.053999
    20  Cl  -0.005326   0.007202   0.003415   0.072622  -0.001928  -0.004648
    21  Cl  -0.000013   0.000001   0.000001   0.000061  -0.004520  -0.034783
    22  Cl  -0.051779   0.000285   0.000191   0.000004  -0.018139   0.001670
              19         20         21         22
     1  C    1.048958  -2.590342  -0.042552   0.114137
     2  C   -1.580626   0.435863   0.011760  -0.044967
     3  C   -2.240695   2.234884   0.014295  -0.234164
     4  C    2.492742  -3.047097  -0.013890  -0.029923
     5  C    4.177351  -2.704442  -0.043071  -0.028850
     6  C    6.705569  -2.624326  -0.148831  -0.174980
     7  C  -14.428191   4.529929   0.232269   0.407804
     8  C   -7.258909   2.013657   0.718438  -0.339759
     9  C    4.767658  -1.358582  -0.318175  -0.407715
    10  C    0.061608   0.217144  -0.804032  -0.231382
    11  C   -0.128491   0.168932  -0.497558   0.189818
    12  C  -34.932871  14.995356   1.702356  -0.127788
    13  H    0.008157  -0.005326  -0.000013  -0.051779
    14  H   -0.002908   0.007202   0.000001   0.000285
    15  H   -0.000764   0.003415   0.000001   0.000191
    16  H   -0.062526   0.072622   0.000061   0.000004
    17  H    0.016816  -0.001928  -0.004520  -0.018139
    18  H    0.053999  -0.004648  -0.034783   0.001670
    19  Cl  96.429188 -36.697091  -2.609445  -0.123386
    20  Cl -36.697091  39.822145   0.328407   0.044799
    21  Cl  -2.609445   0.328407  18.167707   0.001386
    22  Cl  -0.123386   0.044799   0.001386  17.531042
 Mulliken charges:
               1
     1  C    0.244252
     2  C   -0.502813
     3  C   -0.210520
     4  C   -0.326751
     5  C   -0.361526
     6  C   -0.455967
     7  C   -0.251308
     8  C   -0.174927
     9  C   -0.270402
    10  C   -0.516143
    11  C    0.417289
    12  C   -1.785854
    13  H    0.147818
    14  H    0.133378
    15  H    0.139976
    16  H    0.163830
    17  H    0.145480
    18  H    0.139022
    19  Cl   1.303856
    20  Cl   1.159426
    21  Cl   0.340188
    22  Cl   0.521696
 Sum of Mulliken charges =  -0.00000
 Mulliken charges with hydrogens summed into heavy atoms:
               1
     1  C    0.244252
     2  C   -0.354995
     3  C   -0.077142
     4  C   -0.186775
     5  C   -0.197696
     6  C   -0.455967
     7  C   -0.251308
     8  C   -0.174927
     9  C   -0.124922
    10  C   -0.377121
    11  C    0.417289
    12  C   -1.785854
    19  Cl   1.303856
    20  Cl   1.159426
    21  Cl   0.340188
    22  Cl   0.521696
 Electronic spatial extent (au):  <R**2>=           5231.9870
 Charge=             -0.0000 electrons
 Dipole moment (field-independent basis, Debye):
    X=             -2.8133    Y=             -0.5799    Z=              0.0000  Tot=              2.8724
 Quadrupole moment (field-independent basis, Debye-Ang):
   XX=           -110.7029   YY=           -117.2452   ZZ=           -124.5073
   XY=              4.4192   XZ=             -0.0000   YZ=             -0.0000
 Traceless Quadrupole moment (field-independent basis, Debye-Ang):
   XX=              6.7822   YY=              0.2399   ZZ=             -7.0221
   XY=              4.4192   XZ=             -0.0000   YZ=             -0.0000
 Octapole moment (field-independent basis, Debye-Ang**2):
  XXX=            -74.0401  YYY=            -14.6166  ZZZ=              0.0000  XYY=              9.1256
  XXY=             16.8361  XXZ=              0.0001  XZZ=             10.5569  YZZ=             -9.3869
  YYZ=              0.0001  XYZ=              0.0000
 Hexadecapole moment (field-independent basis, Debye-Ang**3):
 XXXX=          -4097.6395 YYYY=          -2562.2713 ZZZZ=           -148.8052 XXXY=             45.4216
 XXXZ=             -0.0007 YYYX=            -32.1515 YYYZ=             -0.0001 ZZZX=              0.0002
 ZZZY=              0.0001 XXYY=          -1073.1313 XXZZ=           -823.5992 YYZZ=           -465.3636
 XXYZ=              0.0001 YYXZ=             -0.0002 ZZXY=            -19.6796
 N-N= 1.530163945961D+03 E-N=-8.504075324903D+03  KE= 2.296828348181D+03
 Calling FoFJK, ICntrl=      2127 FMM=F ISym2X=0 I1Cent= 0 IOpClX= 0 NMat=1 NMatS=1 NMatT=0.
 ***** Axes restored to original set *****
 -------------------------------------------------------------------
 Center     Atomic                   Forces (Hartrees/Bohr)
 Number     Number              X              Y              Z
 -------------------------------------------------------------------
      1        6          -0.018765324   -0.048044604   -0.002840637
      2        6          -0.004432720    0.021303368    0.005461380
      3        6          -0.018181665    0.003683048    0.006681831
      4        6          -0.006826979   -0.021185307   -0.001729890
      5        6          -0.007748167   -0.000229367    0.002509713
      6        6           0.026613235   -0.039750086   -0.016232896
      7        6          -0.009926126    0.027508213    0.008436459
      8        6          -0.018222794    0.016792540    0.009157470
      9        6          -0.008206051    0.012177802    0.004990590
     10        6           0.002928171    0.009322170    0.000786067
     11        6           0.043486462    0.006948127   -0.013022182
     12        6           0.032619867   -0.163088230   -0.041375854
     13        1           0.001212539    0.005528814    0.000638827
     14        1           0.009270591   -0.000112831   -0.003075402
     15        1           0.002298595    0.009168790    0.000964702
     16        1          -0.003425193    0.006948402    0.002433477
     17        1           0.004605635   -0.007933878   -0.003007423
     18        1          -0.004041826   -0.011357984   -0.000801509
     19       17          -0.184320337   -0.307226387    0.003028415
     20       17           0.170956112    0.510979045    0.039640433
     21       17          -0.012058126   -0.004246870    0.003175040
     22       17           0.002164101   -0.027184775   -0.005818611
 -------------------------------------------------------------------
 Cartesian Forces:  Max     0.510979045 RMS     0.083653631

 GradGradGradGradGradGradGradGradGradGradGradGradGradGradGradGradGradGrad
 Berny optimization.
 FormGI is forming the generalized inverse of G from B-inverse, IUseBI=4.
 Internal  Forces:  Max     0.462998523 RMS     0.054537494
 Search for a local minimum.
 Step number   1 out of a maximum of  112
 All quantities printed in internal units (Hartrees-Bohrs-Radians)
 Mixed Optimization -- RFO/linear search
 Second derivative matrix not updated -- first step.
 ITU=  0
     Eigenvalues ---    0.00238   0.00238   0.01655   0.01655   0.02070
     Eigenvalues ---    0.02070   0.02070   0.02070   0.02070   0.02070
     Eigenvalues ---    0.02070   0.02070   0.02070   0.02070   0.02070
     Eigenvalues ---    0.02070   0.02070   0.02070   0.04301   0.16000
     Eigenvalues ---    0.16000   0.16000   0.16000   0.16000   0.16000
     Eigenvalues ---    0.22000   0.22408   0.22472   0.24406   0.24476
     Eigenvalues ---    0.25000   0.25000   0.25000   0.25000   0.25000
     Eigenvalues ---    0.25000   0.25000   0.29539   0.29539   0.29539
     Eigenvalues ---    0.29539   0.37230   0.37230   0.37230   0.37230
     Eigenvalues ---    0.37230   0.37230   0.41408   0.41658   0.41941
     Eigenvalues ---    0.42024   0.45389   0.45389   0.45389   0.45389
     Eigenvalues ---    0.45389   0.45389   0.45389   0.45389   1.32680
 RFO step:  Lambda=-2.92221544D-01 EMin= 2.37799127D-03
 Linear search not attempted -- first point.
 Maximum step size (   0.300) exceeded in Quadratic search.
    -- Step size scaled by   0.493
 Iteration  1 RMS(Cart)=  0.09227888 RMS(Int)=  0.00237478
 Iteration  2 RMS(Cart)=  0.00687019 RMS(Int)=  0.00002537
 Iteration  3 RMS(Cart)=  0.00001939 RMS(Int)=  0.00002426
 Iteration  4 RMS(Cart)=  0.00000000 RMS(Int)=  0.00002426
 Variable       Old X    -DE/DX   Delta X   Delta X   Delta X     New X
                                 (Linear)    (Quad)   (Total)
    R1        2.64826  -0.00074   0.00000  -0.00028  -0.00024   2.64802
    R2        2.64826   0.01300   0.00000   0.00892   0.00896   2.65722
    R3        2.64826  -0.00230   0.00000  -0.00163  -0.00163   2.64663
    R4        2.02201  -0.00431   0.00000  -0.00320  -0.00320   2.01881
    R5        2.64826  -0.01401   0.00000  -0.00959  -0.00963   2.63863
    R6        2.02201   0.00976   0.00000   0.00725   0.00725   2.02926
    R7        2.64826  -0.01748   0.00000  -0.01177  -0.01181   2.63645
    R8        2.02201   0.00907   0.00000   0.00674   0.00674   2.02874
    R9        2.64826  -0.01166   0.00000  -0.00760  -0.00760   2.64067
   R10        2.02201   0.00812   0.00000   0.00603   0.00603   2.02803
   R11        3.32592  -0.01874   0.00000  -0.01573  -0.01573   3.31018
   R12        2.64826   0.01615   0.00000   0.01109   0.01111   2.65937
   R13        2.64826  -0.00536   0.00000  -0.00323  -0.00320   2.64506
   R14        2.64826  -0.00704   0.00000  -0.00456  -0.00458   2.64368
   R15        3.32592   0.00328   0.00000   0.00275   0.00275   3.32867
   R16        2.64826  -0.02657   0.00000  -0.01789  -0.01791   2.63035
   R17        2.02201   0.00965   0.00000   0.00716   0.00716   2.02917
   R18        2.64826  -0.02013   0.00000  -0.01373  -0.01374   2.63452
   R19        2.02201   0.01184   0.00000   0.00879   0.00879   2.03080
   R20        2.64826  -0.01072   0.00000  -0.00719  -0.00717   2.64109
   R21        3.32592   0.01254   0.00000   0.01053   0.01053   3.33645
   R22        3.32592   0.14502   0.00000   0.12179   0.12179   3.44771
   R23        3.16132   0.46300   0.00000   0.14112   0.14112   3.30244
    A1        2.09440  -0.04170   0.00000  -0.03702  -0.03690   2.05750
    A2        2.09440   0.01462   0.00000   0.01409   0.01413   2.10852
    A3        2.09440  -0.00354   0.00000  -0.00294  -0.00295   2.09144
    A4        2.09440  -0.01108   0.00000  -0.01116  -0.01118   2.08322
    A5        2.09440   0.00715   0.00000   0.00611   0.00606   2.10046
    A6        2.09440  -0.00390   0.00000  -0.00342  -0.00339   2.09100
    A7        2.09440  -0.00325   0.00000  -0.00270  -0.00267   2.09172
    A8        2.09440  -0.00369   0.00000  -0.00446  -0.00456   2.08984
    A9        2.09440   0.00471   0.00000   0.00536   0.00540   2.09980
   A10        2.09440  -0.00102   0.00000  -0.00089  -0.00085   2.09355
   A11        2.09440  -0.00816   0.00000  -0.00812  -0.00817   2.08622
   A12        2.09440   0.00385   0.00000   0.00381   0.00384   2.09823
   A13        2.09440   0.00431   0.00000   0.00431   0.00434   2.09873
   A14        2.09440   0.03177   0.00000   0.02940   0.02944   2.12383
   A15        2.09440  -0.00367   0.00000  -0.00358  -0.00360   2.09080
   A16        2.09440  -0.02810   0.00000  -0.02582  -0.02584   2.06856
   A17        2.09440  -0.03110   0.00000  -0.02677  -0.02672   2.06768
   A18        2.09440   0.01400   0.00000   0.01345   0.01344   2.10783
   A19        2.09440   0.03905   0.00000   0.03519   0.03519   2.12958
   A20        2.09440  -0.05305   0.00000  -0.04863  -0.04863   2.04577
   A21        2.09440   0.00552   0.00000   0.00498   0.00493   2.09933
   A22        2.09440  -0.00313   0.00000  -0.00289  -0.00287   2.09153
   A23        2.09440  -0.00239   0.00000  -0.00209  -0.00206   2.09233
   A24        2.09440  -0.01281   0.00000  -0.01344  -0.01348   2.08092
   A25        2.09440   0.00397   0.00000   0.00406   0.00408   2.09848
   A26        2.09440   0.00884   0.00000   0.00937   0.00939   2.10379
   A27        2.09440   0.01695   0.00000   0.01470   0.01471   2.10910
   A28        2.09440  -0.01520   0.00000  -0.01347  -0.01347   2.08092
   A29        2.09440  -0.00175   0.00000  -0.00123  -0.00123   2.09316
   A30        2.09440   0.00745   0.00000   0.00708   0.00712   2.10152
   A31        2.09440   0.00393   0.00000   0.00342   0.00340   2.09780
   A32        2.09440  -0.01138   0.00000  -0.01051  -0.01053   2.08387
   A33        2.09440   0.13905   0.00000   0.12655   0.12655   2.22094
   A34        2.09440  -0.18605   0.00000  -0.16932  -0.16932   1.92507
    D1        0.00000  -0.00000   0.00000  -0.00000  -0.00000   0.00000
    D2        3.14159   0.00000   0.00000   0.00000   0.00000   3.14159
    D3       -0.00000  -0.00000   0.00000  -0.00000  -0.00000  -0.00000
    D4        3.14159   0.00000   0.00000   0.00000   0.00000   3.14159
    D5        0.00000  -0.00000   0.00000  -0.00000  -0.00000   0.00000
    D6        3.14159  -0.00000   0.00000   0.00000   0.00000   3.14159
    D7       -3.14159  -0.00000   0.00000  -0.00000  -0.00000  -3.14159
    D8        0.00000  -0.00000   0.00000  -0.00000  -0.00000   0.00000
    D9       -0.00000   0.00000   0.00000   0.00000   0.00000  -0.00000
   D10        3.14159  -0.00000   0.00000  -0.00000  -0.00000   3.14159
   D11        3.14159   0.00000   0.00000   0.00000   0.00000   3.14159
   D12        0.00000  -0.00000   0.00000  -0.00000  -0.00000   0.00000
   D13        0.00000  -0.00000   0.00000  -0.00000  -0.00000   0.00000
   D14       -3.14159  -0.00000   0.00000  -0.00000  -0.00000  -3.14159
   D15       -3.14159  -0.00000   0.00000  -0.00000  -0.00000  -3.14159
   D16        0.00000   0.00000   0.00000   0.00000   0.00000   0.00000
   D17       -0.00000   0.00000   0.00000   0.00000   0.00000  -0.00000
   D18        3.14159   0.00000   0.00000   0.00000   0.00000   3.14159
   D19        3.14159   0.00000   0.00000   0.00000   0.00000   3.14159
   D20       -0.00000   0.00000   0.00000   0.00000   0.00000  -0.00000
   D21        0.00001  -0.00000   0.00000  -0.00000  -0.00000   0.00001
   D22       -3.14159  -0.00000   0.00000  -0.00000  -0.00000  -3.14159
   D23        0.00000   0.00000   0.00000   0.00000   0.00000   0.00000
   D24       -3.14159  -0.00000   0.00000  -0.00000  -0.00000  -3.14159
   D25       -0.00000  -0.00000   0.00000  -0.00000  -0.00000  -0.00000
   D26        3.14159   0.00000   0.00000   0.00000   0.00000   3.14159
   D27       -0.00000  -0.00000   0.00000  -0.00000  -0.00000  -0.00000
   D28        3.14159  -0.00000   0.00000  -0.00000  -0.00000   3.14159
   D29        3.14159   0.00000   0.00000   0.00000   0.00000   3.14159
   D30       -0.00000   0.00000   0.00000   0.00000   0.00000  -0.00000
   D31       -0.00000   0.00000   0.00000   0.00000   0.00000  -0.00000
   D32       -3.14159  -0.00000   0.00000  -0.00000  -0.00000  -3.14159
   D33        3.14159   0.00000   0.00000   0.00000   0.00000   3.14159
   D34        0.00000  -0.00000   0.00000  -0.00000  -0.00000   0.00000
   D35        0.00000  -0.00000   0.00000  -0.00000  -0.00000   0.00000
   D36       -3.14159  -0.00000   0.00000  -0.00000  -0.00000  -3.14159
   D37        3.14159   0.00000   0.00000   0.00000   0.00000   3.14159
   D38        0.00000  -0.00000   0.00000  -0.00000  -0.00000   0.00000
   D39        0.00000   0.00000   0.00000   0.00000   0.00000   0.00000
   D40       -3.14159  -0.00000   0.00000  -0.00000  -0.00000  -3.14159
   D41        3.14159   0.00000   0.00000   0.00000   0.00000   3.14159
   D42       -0.00000  -0.00000   0.00000  -0.00000  -0.00000  -0.00000
   D43        0.00001  -0.00000   0.00000  -0.00000  -0.00000   0.00001
   D44       -3.14159   0.00000   0.00000   0.00000   0.00000  -3.14159
   D45       -0.00001  -0.00000   0.00000  -0.00000  -0.00000  -0.00001
         Item               Value     Threshold  Converged?
 Maximum Force            0.462999     0.000450     NO 
 RMS     Force            0.054537     0.000300     NO 
 Maximum Displacement     0.423893     0.001800     NO 
 RMS     Displacement     0.096071     0.001200     NO 
 Predicted change in Energy=-1.217717D-01
 GradGradGradGradGradGradGradGradGradGradGradGradGradGradGradGradGradGrad

                          Input orientation:                          
 ---------------------------------------------------------------------
 Center     Atomic      Atomic             Coordinates (Angstroms)
 Number     Number       Type             X           Y           Z
 ---------------------------------------------------------------------
      1          6           0       -0.183272    0.031934    0.042063
      2          6           0        1.147325    0.026594   -0.397311
      3          6           0        1.898999    1.208043   -0.423066
      4          6           0        1.331083    2.414679   -0.009346
      5          6           0        0.007738    2.441471    0.431665
      6          6           0       -0.734907    1.257981    0.454062
      7          6           0       -0.998071   -1.815598   -0.036484
      8          6           0       -0.426248   -3.032020   -0.453331
      9          6           0       -1.169465   -4.217038   -0.431028
     10          6           0       -2.490990   -4.208609    0.005943
     11          6           0       -3.063331   -3.006779    0.420220
     12          6           0       -2.327651   -1.818626    0.400990
     13          1           0        1.597611   -0.887778   -0.717385
     14          1           0        2.917414    1.185431   -0.762833
     15          1           0        1.907827    3.319945   -0.029339
     16          1           0       -0.436489    3.364604    0.751388
     17          1           0       -0.718144   -5.136829   -0.752465
     18          1           0       -3.061189   -5.119361    0.022755
     19         17           0       -3.115920   -0.268217    0.951874
     20         17           0       -2.393891    1.322067    1.012656
     21         17           0       -4.739607   -2.996079    0.974499
     22         17           0        1.237995   -3.135503   -1.021061
 ---------------------------------------------------------------------
                    Distance matrix (angstroms):
                    1          2          3          4          5
     1  C    0.000000
     2  C    1.401274   0.000000
     3  C    2.436274   1.400535   0.000000
     4  C    2.823719   2.426363   1.396303   0.000000
     5  C    2.448294   2.795978   2.414285   1.395152   0.000000
     6  C    1.406142   2.404984   2.776563   2.412677   1.397380
     7  C    2.020752   2.850717   4.205337   4.829175   4.399255
     8  C    3.113241   3.440115   4.835889   5.740372   5.561534
     9  C    4.387500   4.834984   6.232739   7.100016   6.816582
    10  C    4.827947   5.597936   6.985425   7.646987   7.116772
    11  C    4.203750   5.253506   6.565102   6.991967   6.254200
    12  C    2.855129   4.014671   5.263494   5.610311   4.858334
    13  H    2.143403   1.068307   2.137739   3.388006   3.864183
    14  H    3.404801   2.147027   1.073836   2.143652   3.386839
    15  H    3.897282   3.399990   2.148308   1.073564   2.143496
    16  H    3.416716   3.869146   3.388893   2.146016   1.073190
    17  H    5.256755   5.501549   6.871342   7.859824   7.704524
    18  H    5.900730   6.660998   8.052221   8.720943   8.170171
    19  Cl   3.085169   4.481347   5.405479   5.281828   4.167765
    20  Cl   2.737394   4.025726   4.528045   4.014189   2.712644
    21  Cl   5.549638   6.758283   7.981160   8.191308   7.238709
    22  Cl   3.630825   3.224305   4.434064   5.642407   5.892927
                    6          7          8          9         10
     6  C    0.000000
     7  C    3.123584   0.000000
     8  C    4.395764   1.407277   0.000000
     9  C    5.563098   2.439663   1.398977   0.000000
    10  C    5.759188   2.820835   2.420424   1.391920   0.000000
    11  C    4.859103   2.427507   2.778117   2.403347   1.394129
    12  C    3.464847   1.399706   2.411955   2.790345   2.427912
    13  H    3.378936   2.839373   2.960321   4.338511   5.316745
    14  H    3.850396   4.986460   5.390989   6.782282   7.677078
    15  H    3.386652   5.900686   6.780497   8.150902   8.719516
    16  H    2.148329   5.269782   6.509090   7.708220   7.882272
    17  H    6.507656   3.409042   2.145904   1.073791   2.140037
    18  H    6.802066   3.895487   3.395079   2.144463   1.074653
    19  Cl   2.871641   2.802949   4.104576   4.614573   4.100245
    20  Cl   1.751674   3.590814   4.997881   5.853642   5.622391
    21  Cl   5.865621   4.051508   4.543683   4.026432   2.732143
    22  Cl   5.036967   2.776965   1.761456   2.704389   4.013928
                   11         12         13         14         15
    11  C    0.000000
    12  C    1.397605   0.000000
    13  H    5.244872   4.186278   0.000000
    14  H    7.398888   6.155450   2.458077   0.000000
    15  H    8.058656   6.673033   4.274878   2.472536   0.000000
    16  H    6.899600   5.528576   4.937369   4.276719   2.471304
    17  H    3.378195   3.864122   4.839254   7.293035   8.884574
    18  H    2.149648   3.402350   6.337074   8.724176   9.793657
    19  Cl   2.790186   1.824447   5.038616   6.438512   6.251057
    20  Cl   4.420185   3.200387   4.879400   5.601874   4.856134
    21  Cl   1.765571   2.744601   6.889683   8.895691   9.224328
    22  Cl   4.538200   4.058353   2.296478   4.643017   6.565440
                   16         17         18         19         20
    16  H    0.000000
    17  H    8.638013   0.000000
    18  H    8.910534   2.468021   0.000000
    19  Cl   4.518510   5.688363   4.939621   0.000000
    20  Cl   2.841063   6.902254   6.551121   1.747577   0.000000
    21  Cl   7.682766   4.872102   2.869012   3.174603   4.914288
    22  Cl   6.942396   2.811392   4.848528   5.574080   6.098896
                   21         22
    21  Cl   0.000000
    22  Cl   6.303445   0.000000
 Stoichiometry    C12H6Cl4
 Framework group  C1[X(C12H6Cl4)]
 Deg. of freedom    60
 Full point group                 C1      NOp   1
 Largest Abelian subgroup         C1      NOp   1
 Largest concise Abelian subgroup C1      NOp   1
                         Standard orientation:                         
 ---------------------------------------------------------------------
 Center     Atomic      Atomic             Coordinates (Angstroms)
 Number     Number       Type             X           Y           Z
 ---------------------------------------------------------------------
      1          6           0       -1.570763    0.196739    0.000001
      2          6           0       -2.442323    1.293986    0.000005
      3          6           0       -3.830389    1.107517    0.000007
      4          6           0       -4.369148   -0.180661    0.000006
      5          6           0       -3.518582   -1.286548    0.000000
      6          6           0       -2.134914   -1.091270   -0.000002
      7          6           0        0.362544    0.784758   -0.000004
      8          6           0        0.906131    2.082810   -0.000004
      9          6           0        2.291332    2.278656   -0.000003
     10          6           0        3.154586    1.186762   -0.000001
     11          6           0        2.622374   -0.101782   -0.000000
     12          6           0        1.239764   -0.305958   -0.000001
     13          1           0       -2.047172    2.286526    0.000008
     14          1           0       -4.483458    1.959941    0.000011
     15          1           0       -5.433248   -0.322893    0.000009
     16          1           0       -3.924345   -2.280073   -0.000003
     17          1           0        2.689899    3.275738   -0.000003
     18          1           0        4.218529    1.338106    0.000002
     19         17           0        0.586043   -2.009266    0.000001
     20         17           0       -1.091684   -2.498407   -0.000008
     21         17           0        3.717356   -1.486793    0.000007
     22         17           0       -0.110767    3.521089   -0.000003
 ---------------------------------------------------------------------
 Rotational constants (GHZ):           0.4567701           0.3087827           0.1842364
 Standard basis: 6-311+G(d,p) (5D, 7F)
 There are   436 symmetry adapted cartesian basis functions of A   symmetry.
 There are   420 symmetry adapted basis functions of A   symmetry.
   420 basis functions,   692 primitive gaussians,   436 cartesian basis functions
    73 alpha electrons       73 beta electrons
       nuclear repulsion energy      1516.8488832408 Hartrees.
 NAtoms=   22 NActive=   22 NUniq=   22 SFac= 1.00D+00 NAtFMM=   60 NAOKFM=F Big=F
 Integral buffers will be    131072 words long.
 Raffenetti 2 integral format.
 Two-electron integral symmetry is turned on.
 One-electron integrals computed using PRISM.
 NBasis=   420 RedAO= T EigKep=  1.31D-06  NBF=   420
 NBsUse=   415 1.00D-06 EigRej=  8.92D-07 NBFU=   415
 Initial guess from the checkpoint file:  "./Gau-181754.chk"
 B after Tr=     0.000000    0.000000   -0.000000
         Rot=    0.998415    0.000000   -0.000000    0.056282 Ang=   6.45 deg.
 ExpMin= 4.38D-02 ExpMax= 1.06D+05 ExpMxC= 3.62D+03 IAcc=3 IRadAn=         5 AccDes= 0.00D+00
 Harris functional with IExCor=  402 and IRadAn=       5 diagonalized for initial guess.
 HarFok:  IExCor=  402 AccDes= 0.00D+00 IRadAn=         5 IDoV= 1 UseB2=F ITyADJ=14
 ICtDFT=  3500011 ScaDFX=  1.000000  1.000000  1.000000  1.000000
 FoFCou: FMM=F IPFlag=           0 FMFlag=      100000 FMFlg1=           0
         NFxFlg=           0 DoJE=T BraDBF=F KetDBF=T FulRan=T
         wScrn=  0.000000 ICntrl=       500 IOpCl=  0 I1Cent=   200000004 NGrid=           0
         NMat0=    1 NMatS0=      1 NMatT0=    0 NMatD0=    1 NMtDS0=    0 NMtDT0=    0
 Petite list used in FoFCou.
 Requested convergence on RMS density matrix=1.00D-08 within  32 cycles.
 Requested convergence on MAX density matrix=1.00D-06.
 Requested convergence on             energy=1.00D-06.
 No special actions if energy rises.
 SCF Done:  E(RB3LYP) =  -2301.45342763     A.U. after   19 cycles
            NFock= 19  Conv=0.32D-08     -V/T= 2.0022
 QCSCF skips out because SCF is already converged.
 Calling FoFJK, ICntrl=      2127 FMM=F ISym2X=0 I1Cent= 0 IOpClX= 0 NMat=1 NMatS=1 NMatT=0.
 ***** Axes restored to original set *****
 -------------------------------------------------------------------
 Center     Atomic                   Forces (Hartrees/Bohr)
 Number     Number              X              Y              Z
 -------------------------------------------------------------------
      1        6          -0.001396958   -0.058277936   -0.010485031
      2        6          -0.004549384    0.017931904    0.004866698
      3        6          -0.010937166    0.000931678    0.003778410
      4        6          -0.004755466   -0.014106026   -0.001082800
      5        6          -0.003731892   -0.002388327    0.000781029
      6        6           0.006446500   -0.035868107   -0.008859923
      7        6          -0.022320603    0.044554081    0.015721654
      8        6          -0.004541126    0.019758699    0.005207077
      9        6          -0.004848652    0.008831546    0.003255982
     10        6          -0.000066346    0.003617984    0.000701358
     11        6           0.023680533    0.001329448   -0.007552134
     12        6          -0.000483334   -0.114240509   -0.021295757
     13        1           0.001987392   -0.002829031   -0.001186136
     14        1           0.006578369   -0.000732351   -0.002304795
     15        1           0.002202290    0.006397537    0.000475964
     16        1          -0.003378479    0.004450232    0.001948910
     17        1           0.003894814   -0.004633269   -0.002153338
     18        1          -0.002584458   -0.006788032   -0.000423399
     19       17          -0.079352437   -0.286629959   -0.027686450
     20       17           0.098824361    0.429860623    0.048170625
     21       17          -0.003922569   -0.003237800    0.000684197
     22       17           0.003254610   -0.007932386   -0.002562140
 -------------------------------------------------------------------
 Cartesian Forces:  Max     0.429860623 RMS     0.068480036

 GradGradGradGradGradGradGradGradGradGradGradGradGradGradGradGradGradGrad
 Berny optimization.
 Using GEDIIS/GDIIS optimizer.
 FormGI is forming the generalized inverse of G from B-inverse, IUseBI=4.
 Internal  Forces:  Max     0.351605126 RMS     0.049423726
 Search for a local minimum.
 Step number   2 out of a maximum of  112
 All quantities printed in internal units (Hartrees-Bohrs-Radians)
 Mixed Optimization -- RFO/linear search
 Update second derivatives using D2CorX and points    1    2
 DE= -1.24D-01 DEPred=-1.22D-01 R= 1.02D+00
 TightC=F SS=  1.41D+00  RLast= 3.00D-01 DXNew= 5.0454D-01 9.0000D-01
 Trust test= 1.02D+00 RLast= 3.00D-01 DXMaxT set to 5.05D-01
 ITU=  1  0
 Use linear search instead of GDIIS.
     Eigenvalues ---    0.00238   0.00238   0.01657   0.01668   0.02070
     Eigenvalues ---    0.02070   0.02070   0.02070   0.02070   0.02070
     Eigenvalues ---    0.02070   0.02070   0.02070   0.02070   0.02070
     Eigenvalues ---    0.02070   0.02070   0.02070   0.04301   0.04521
     Eigenvalues ---    0.16000   0.16000   0.16000   0.16000   0.16001
     Eigenvalues ---    0.16005   0.22000   0.22408   0.22487   0.24429
     Eigenvalues ---    0.24492   0.25000   0.25000   0.25000   0.25000
     Eigenvalues ---    0.25000   0.28181   0.29538   0.29539   0.29539
     Eigenvalues ---    0.37151   0.37224   0.37230   0.37230   0.37230
     Eigenvalues ---    0.37230   0.41236   0.41459   0.41572   0.41908
     Eigenvalues ---    0.45107   0.45213   0.45389   0.45389   0.45389
     Eigenvalues ---    0.45389   0.45389   0.45389   0.69570   2.81119
 RFO step:  Lambda=-3.85333431D-01 EMin= 2.37799127D-03
 Quartic linear search produced a step of  1.41340.
 Maximum step size (   0.505) exceeded in Quadratic search.
    -- Step size scaled by   0.678
 Iteration  1 RMS(Cart)=  0.17661192 RMS(Int)=  0.04927352
 Iteration  2 RMS(Cart)=  0.27065579 RMS(Int)=  0.02422039
 Iteration  3 RMS(Cart)=  0.31784512 RMS(Int)=  0.00878079
 Iteration  4 RMS(Cart)=  0.04575149 RMS(Int)=  0.00023594
 Iteration  5 RMS(Cart)=  0.00040969 RMS(Int)=  0.00017310
 Iteration  6 RMS(Cart)=  0.00000003 RMS(Int)=  0.00017310
 Variable       Old X    -DE/DX   Delta X   Delta X   Delta X     New X
                                 (Linear)    (Quad)   (Total)
    R1        2.64802  -0.00370  -0.00034  -0.00316  -0.00316   2.64486
    R2        2.65722   0.03932   0.01267   0.03766   0.05058   2.70780
    R3        2.64663  -0.00125  -0.00231  -0.00191  -0.00414   2.64249
    R4        2.01881   0.00361  -0.00452   0.00230  -0.00222   2.01658
    R5        2.63863  -0.00360  -0.01361  -0.00765  -0.02153   2.61710
    R6        2.02926   0.00698   0.01025   0.00906   0.01931   2.04856
    R7        2.63645  -0.00665  -0.01669  -0.01114  -0.02817   2.60828
    R8        2.02874   0.00657   0.00952   0.00849   0.01801   2.04676
    R9        2.64067  -0.01086  -0.01074  -0.01260  -0.02341   2.61726
   R10        2.02803   0.00581   0.00852   0.00753   0.01605   2.04409
   R11        3.31018  -0.00399  -0.02224  -0.00752  -0.02975   3.28043
   R12        2.65937  -0.01019   0.01570  -0.00411   0.01161   2.67098
   R13        2.64506  -0.02908  -0.00452  -0.02687  -0.03124   2.61382
   R14        2.64368   0.00233  -0.00647   0.00006  -0.00654   2.63714
   R15        3.32867   0.00437   0.00389   0.00516   0.00905   3.33772
   R16        2.63035  -0.00026  -0.02532  -0.00769  -0.03316   2.59719
   R17        2.02917   0.00625   0.01013   0.00834   0.01847   2.04764
   R18        2.63452  -0.00411  -0.01942  -0.00923  -0.02868   2.60585
   R19        2.03080   0.00712   0.01243   0.00972   0.02215   2.05295
   R20        2.64109  -0.01016  -0.01014  -0.01207  -0.02208   2.61901
   R21        3.33645   0.00392   0.01488   0.00634   0.02122   3.35767
   R22        3.44771   0.04903   0.17214   0.07721   0.24935   3.69705
   R23        3.30244   0.35161   0.19946   0.28642   0.48588   3.78832
    A1        2.05750  -0.02563  -0.05215  -0.03264  -0.08388   1.97361
    A2        2.10852   0.00782   0.01997   0.00990   0.03025   2.13878
    A3        2.09144  -0.00336  -0.00417  -0.00468  -0.00905   2.08240
    A4        2.08322  -0.00446  -0.01580  -0.00522  -0.02121   2.06201
    A5        2.10046   0.00658   0.00857   0.00764   0.01597   2.11643
    A6        2.09100  -0.00389  -0.00479  -0.00457  -0.00924   2.08176
    A7        2.09172  -0.00269  -0.00378  -0.00307  -0.00673   2.08500
    A8        2.08984   0.00168  -0.00644   0.00134  -0.00577   2.08406
    A9        2.09980   0.00087   0.00764   0.00123   0.00920   2.10900
   A10        2.09355  -0.00256  -0.00120  -0.00257  -0.00343   2.09012
   A11        2.08622  -0.00753  -0.01155  -0.00929  -0.02134   2.06488
   A12        2.09823   0.00492   0.00542   0.00618   0.01185   2.11008
   A13        2.09873   0.00261   0.00613   0.00311   0.00949   2.10822
   A14        2.12383   0.01707   0.04161   0.02304   0.06478   2.18861
   A15        2.09080  -0.01715  -0.00509  -0.01984  -0.02499   2.06580
   A16        2.06856   0.00007  -0.03652  -0.00320  -0.03978   2.02877
   A17        2.06768  -0.01030  -0.03777  -0.01728  -0.05478   2.01289
   A18        2.10783  -0.00182   0.01899  -0.00088   0.01800   2.12584
   A19        2.12958   0.01391   0.04974   0.02005   0.06984   2.19943
   A20        2.04577  -0.01209  -0.06873  -0.01917  -0.08785   1.95792
   A21        2.09933   0.00553   0.00697   0.00807   0.01475   2.11408
   A22        2.09153  -0.00427  -0.00405  -0.00596  -0.00987   2.08166
   A23        2.09233  -0.00126  -0.00292  -0.00211  -0.00488   2.08745
   A24        2.08092  -0.00763  -0.01905  -0.00785  -0.02710   2.05382
   A25        2.09848   0.00228   0.00577   0.00221   0.00808   2.10656
   A26        2.10379   0.00535   0.01328   0.00564   0.01901   2.12280
   A27        2.10910  -0.01066   0.02079  -0.00966   0.01121   2.12031
   A28        2.08092  -0.00020  -0.01904  -0.00210  -0.02119   2.05973
   A29        2.09316   0.01086  -0.00174   0.01176   0.00998   2.10314
   A30        2.10152   0.02488   0.01006   0.02759   0.03791   2.13943
   A31        2.09780  -0.11095   0.00481  -0.12342  -0.11874   1.97906
   A32        2.08387   0.08607  -0.01488   0.09583   0.08083   2.16470
   A33        2.22094  -0.07857   0.17886  -0.07290   0.10596   2.32690
   A34        1.92507  -0.30200  -0.23932  -0.35899  -0.59831   1.32677
    D1        0.00000  -0.00000  -0.00000  -0.00000  -0.00000   0.00000
    D2        3.14159  -0.00000   0.00000  -0.00000   0.00000   3.14159
    D3       -0.00000   0.00000  -0.00000   0.00000   0.00000  -0.00000
    D4        3.14159   0.00000   0.00000   0.00000   0.00000   3.14159
    D5        0.00000  -0.00000  -0.00000  -0.00000  -0.00000   0.00000
    D6        3.14159   0.00000   0.00000   0.00000   0.00000   3.14159
    D7       -3.14159  -0.00000  -0.00000  -0.00000  -0.00000  -3.14159
    D8        0.00000  -0.00000  -0.00000  -0.00000  -0.00000   0.00000
    D9       -0.00000   0.00000   0.00000   0.00000   0.00000  -0.00000
   D10        3.14159   0.00000  -0.00000   0.00000   0.00000   3.14159
   D11        3.14159   0.00000   0.00000   0.00000   0.00000   3.14159
   D12        0.00000  -0.00000  -0.00000  -0.00000  -0.00000   0.00000
   D13        0.00000  -0.00000  -0.00000  -0.00000  -0.00000   0.00000
   D14       -3.14159  -0.00000  -0.00000  -0.00000  -0.00000  -3.14159
   D15       -3.14159  -0.00000  -0.00000   0.00000  -0.00000  -3.14159
   D16        0.00000  -0.00000   0.00000  -0.00000  -0.00000   0.00000
   D17       -0.00000   0.00000   0.00000  -0.00000   0.00000  -0.00000
   D18        3.14159   0.00000   0.00000   0.00000   0.00000   3.14159
   D19        3.14159   0.00000   0.00000  -0.00000   0.00000   3.14159
   D20       -0.00000   0.00000   0.00000   0.00000   0.00000  -0.00000
   D21        0.00001   0.00000  -0.00000   0.00000   0.00000   0.00001
   D22       -3.14159   0.00000  -0.00000   0.00000   0.00000  -3.14159
   D23        0.00000  -0.00000   0.00000  -0.00000  -0.00000   0.00000
   D24       -3.14159  -0.00000  -0.00000  -0.00000  -0.00000  -3.14159
   D25       -0.00000   0.00000  -0.00000   0.00000   0.00000  -0.00000
   D26        3.14159   0.00000   0.00000  -0.00000   0.00000   3.14159
   D27       -0.00000  -0.00000  -0.00000  -0.00000  -0.00000  -0.00000
   D28        3.14159  -0.00000  -0.00000  -0.00000  -0.00000   3.14159
   D29        3.14159   0.00000   0.00000   0.00000   0.00000   3.14159
   D30       -0.00000   0.00000   0.00000   0.00000   0.00000  -0.00000
   D31       -0.00000   0.00000   0.00000   0.00000   0.00000   0.00000
   D32       -3.14159  -0.00000  -0.00000  -0.00000  -0.00000  -3.14159
   D33        3.14159   0.00000   0.00000   0.00000   0.00000  -3.14159
   D34        0.00000  -0.00000  -0.00000  -0.00000  -0.00000   0.00000
   D35        0.00000  -0.00000  -0.00000   0.00000  -0.00000  -0.00000
   D36       -3.14159  -0.00000  -0.00000  -0.00000  -0.00000  -3.14159
   D37        3.14159   0.00000   0.00000   0.00000   0.00000   3.14159
   D38        0.00000  -0.00000  -0.00000   0.00000  -0.00000   0.00000
   D39        0.00000  -0.00000   0.00000  -0.00000  -0.00000   0.00000
   D40       -3.14159  -0.00000  -0.00000   0.00000  -0.00000  -3.14159
   D41        3.14159   0.00000   0.00000  -0.00000   0.00000   3.14159
   D42       -0.00000  -0.00000  -0.00000   0.00000  -0.00000  -0.00000
   D43        0.00001   0.00000  -0.00000   0.00000   0.00000   0.00001
   D44       -3.14159   0.00000   0.00000   0.00000   0.00000  -3.14159
   D45       -0.00001   0.00000  -0.00000   0.00000   0.00000  -0.00001
         Item               Value     Threshold  Converged?
 Maximum Force            0.351605     0.000450     NO 
 RMS     Force            0.049424     0.000300     NO 
 Maximum Displacement     2.639968     0.001800     NO 
 RMS     Displacement     0.794009     0.001200     NO 
 Predicted change in Energy=-3.625531D-01
 GradGradGradGradGradGradGradGradGradGradGradGradGradGradGradGradGradGrad

                          Input orientation:                          
 ---------------------------------------------------------------------
 Center     Atomic      Atomic             Coordinates (Angstroms)
 Number     Number       Type             X           Y           Z
 ---------------------------------------------------------------------
      1          6           0       -1.110562   -0.094589    0.323799
      2          6           0        0.106119   -0.580762   -0.168347
      3          6           0        1.215673    0.243777   -0.379037
      4          6           0        1.164588    1.600816   -0.107343
      5          6           0       -0.003473    2.150778    0.380763
      6          6           0       -1.089313    1.314795    0.581491
      7          6           0       -0.759635   -1.183983    0.003585
      8          6           0       -0.020514   -2.300274   -0.449574
      9          6           0       -0.578550   -3.578128   -0.505714
     10          6           0       -1.878256   -3.803399   -0.119822
     11          6           0       -2.610876   -2.722939    0.324465
     12          6           0       -2.062697   -1.451373    0.382673
     13          1           0        0.200599   -1.619358   -0.394530
     14          1           0        2.132638   -0.189075   -0.762426
     15          1           0        2.028201    2.233107   -0.273112
     16          1           0       -0.070109    3.207663    0.601207
     17          1           0        0.025561   -4.404943   -0.860027
     18          1           0       -2.305614   -4.801096   -0.166399
     19         17           0       -3.032576    0.131759    0.999534
     20         17           0       -2.530182    2.062447    1.196603
     21         17           0       -4.292210   -3.003970    0.825621
     22         17           0        1.658007   -2.280943   -0.998944
 ---------------------------------------------------------------------
                    Distance matrix (angstroms):
                    1          2          3          4          5
     1  C    0.000000
     2  C    1.399601   0.000000
     3  C    2.453536   1.398344   0.000000
     4  C    2.869946   2.425564   1.384912   0.000000
     5  C    2.504109   2.788340   2.387523   1.380244   0.000000
     6  C    1.432907   2.363144   2.717105   2.374105   1.384994
     7  C    1.188472   1.069096   2.467132   3.386745   3.440156
     8  C    2.579022   1.746953   2.829368   4.091465   4.527870
     9  C    3.620244   3.093023   4.224007   5.478931   5.825540
    10  C    3.813322   3.784902   5.100904   6.201983   6.262397
    11  C    3.026411   3.494832   4.892729   5.756339   5.527643
    12  C    1.658580   2.401114   3.768480   4.468930   4.149204
    13  H    2.135430   1.067130   2.121764   3.373613   3.854432
    14  H    3.421572   2.147819   1.084054   2.137747   3.368199
    15  H    3.953012   3.409286   2.151478   1.083097   2.135891
[...]

            Population analysis using the SCF Density.

 **********************************************************************

 Orbital symmetries:
       Occupied  (A) (A) (A) (A) (A) (A) (A) (A) (A) (A) (A) (A)
                 (A) (A) (A) (A) (A) (A) (A) (A) (A) (A) (A) (A)
                 (A) (A) (A) (A) (A) (A) (A) (A) (A) (A) (A) (A)
                 (A) (A) (A) (A) (A) (A) (A) (A) (A) (A) (A) (A)
                 (A) (A) (A) (A) (A) (A) (A) (A) (A) (A) (A) (A)
                 (A) (A) (A) (A) (A) (A) (A) (A) (A) (A) (A) (A)
                 (A)
       Virtual   (A) (A) (A) (A) (A) (A) (A) (A) (A) (A) (A) (A)
                 (A) (A) (A) (A) (A) (A) (A) (A) (A) (A) (A) (A)
                 (A) (A) (A) (A) (A) (A) (A) (A) (A) (A) (A) (A)
                 (A) (A) (A) (A) (A) (A) (A) (A) (A) (A) (A) (A)
                 (A) (A) (A) (A) (A) (A) (A) (A) (A) (A) (A) (A)
                 (A) (A) (A) (A) (A) (A) (A) (A) (A) (A) (A) (A)
                 (A) (A) (A) (A) (A) (A) (A) (A) (A) (A) (A) (A)
                 (A) (A) (A) (A) (A) (A) (A) (A) (A) (A) (A) (A)
                 (A) (A) (A) (A) (A) (A) (A) (A) (A) (A) (A) (A)
                 (A) (A) (A) (A) (A) (A) (A) (A) (A) (A) (A) (A)
                 (A) (A) (A) (A) (A) (A) (A) (A) (A) (A) (A) (A)
                 (A) (A) (A) (A) (A) (A) (A) (A) (A) (A) (A) (A)
                 (A) (A) (A) (A) (A) (A) (A) (A) (A) (A) (A) (A)
                 (A) (A) (A) (A) (A) (A) (A) (A) (A) (A) (A) (A)
                 (A) (A) (A) (A) (A) (A) (A) (A) (A) (A) (A) (A)
                 (A) (A) (A) (A) (A) (A) (A) (A) (A) (A) (A) (A)
                 (A) (A) (A) (A) (A) (A) (A) (A) (A) (A) (A) (A)
                 (A) (A) (A) (A) (A) (A) (A) (A) (A) (A) (A) (A)
                 (A) (A) (A) (A) (A) (A) (A) (A) (A) (A) (A) (A)
                 (A) (A) (A) (A) (A) (A) (A) (A) (A) (A) (A) (A)
                 (A) (A) (A) (A) (A) (A) (A) (A) (A) (A) (A) (A)
                 (A) (A) (A) (A) (A) (A) (A) (A) (A) (A) (A) (A)
                 (A) (A) (A) (A) (A) (A) (A) (A) (A) (A) (A) (A)
                 (A) (A) (A) (A) (A) (A) (A) (A) (A) (A) (A) (A)
                 (A) (A) (A) (A) (A) (A) (A) (A) (A) (A) (A) (A)
                 (A) (A) (A) (A) (A) (A) (A) (A) (A) (A) (A) (A)
                 (A) (A) (A) (A) (A) (A) (A) (A) (A) (A) (A) (A)
                 (A) (A) (A) (A) (A) (A) (A) (A) (A) (A) (A) (A)
                 (A) (A) (A) (A) (A) (A) (A) (A)
 The electronic state is 1-A.
 Alpha  occ. eigenvalues -- -101.56971-101.56908-101.56711-101.55995 -10.26908
 Alpha  occ. eigenvalues --  -10.26389 -10.26242 -10.25176 -10.23021 -10.21583
 Alpha  occ. eigenvalues --  -10.21372 -10.21056 -10.19892 -10.19855 -10.19745
 Alpha  occ. eigenvalues --  -10.19390  -9.48429  -9.48383  -9.48181  -9.47469
 Alpha  occ. eigenvalues --   -7.24914  -7.24868  -7.24651  -7.23927  -7.23909
 Alpha  occ. eigenvalues --   -7.23868  -7.23852  -7.23791  -7.23663  -7.23612
 Alpha  occ. eigenvalues --   -7.22953  -7.22913  -0.94313  -0.90936  -0.89664
 Alpha  occ. eigenvalues --   -0.87433  -0.85057  -0.83752  -0.80321  -0.75952
 Alpha  occ. eigenvalues --   -0.74700  -0.73728  -0.66176  -0.62906  -0.62180
 Alpha  occ. eigenvalues --   -0.60547  -0.54648  -0.52684  -0.52312  -0.49477
 Alpha  occ. eigenvalues --   -0.48840  -0.47258  -0.45853  -0.45301  -0.44567
 Alpha  occ. eigenvalues --   -0.43791  -0.41736  -0.41537  -0.40001  -0.38840
 Alpha  occ. eigenvalues --   -0.38014  -0.37844  -0.36104  -0.34472  -0.34300
 Alpha  occ. eigenvalues --   -0.33009  -0.32875  -0.32365  -0.32134  -0.27807
 Alpha  occ. eigenvalues --   -0.27608  -0.26165  -0.25896
 Alpha virt. eigenvalues --   -0.05049  -0.04834  -0.03845  -0.03261  -0.02608
 Alpha virt. eigenvalues --   -0.00406   0.00124   0.00709   0.01412   0.01926
 Alpha virt. eigenvalues --    0.02694   0.02847   0.03168   0.04606   0.04800
 Alpha virt. eigenvalues --    0.05037   0.05567   0.06234   0.06436   0.06494
 Alpha virt. eigenvalues --    0.06942   0.07980   0.08219   0.09001   0.09232
 Alpha virt. eigenvalues --    0.09835   0.10337   0.10580   0.10946   0.11247
 Alpha virt. eigenvalues --    0.12032   0.12382   0.12833   0.13075   0.13364
 Alpha virt. eigenvalues --    0.13555   0.14216   0.14329   0.14683   0.15449
 Alpha virt. eigenvalues --    0.15649   0.15997   0.16199   0.17002   0.17297
 Alpha virt. eigenvalues --    0.17597   0.17675   0.18051   0.18298   0.19003
 Alpha virt. eigenvalues --    0.19198   0.19597   0.19850   0.20369   0.21000
 Alpha virt. eigenvalues --    0.21128   0.21504   0.22157   0.22297   0.22471
 Alpha virt. eigenvalues --    0.22951   0.23254   0.23410   0.23619   0.24335
 Alpha virt. eigenvalues --    0.24948   0.25593   0.25858   0.26365   0.26505
 Alpha virt. eigenvalues --    0.26946   0.27368   0.27697   0.28478   0.28956
 Alpha virt. eigenvalues --    0.29590   0.29853   0.30285   0.30912   0.31709
 Alpha virt. eigenvalues --    0.32422   0.32495   0.32788   0.33730   0.34455
 Alpha virt. eigenvalues --    0.36592   0.41365   0.41889   0.43312   0.44602
 Alpha virt. eigenvalues --    0.45028   0.45799   0.46470   0.47070   0.47703
 Alpha virt. eigenvalues --    0.49122   0.49347   0.50495   0.51066   0.51094
 Alpha virt. eigenvalues --    0.51513   0.52207   0.52936   0.53305   0.53796
 Alpha virt. eigenvalues --    0.55433   0.56991   0.57353   0.58077   0.58248
 Alpha virt. eigenvalues --    0.58523   0.58863   0.59839   0.60818   0.61517
 Alpha virt. eigenvalues --    0.61706   0.63014   0.64152   0.64539   0.65059
 Alpha virt. eigenvalues --    0.65952   0.66699   0.67554   0.67882   0.69347
 Alpha virt. eigenvalues --    0.69409   0.69743   0.70214   0.71243   0.71649
 Alpha virt. eigenvalues --    0.73056   0.73340   0.76920   0.79472   0.79716
 Alpha virt. eigenvalues --    0.80812   0.82430   0.82525   0.83193   0.83335
 Alpha virt. eigenvalues --    0.84061   0.84815   0.84904   0.85285   0.85444
 Alpha virt. eigenvalues --    0.86355   0.86598   0.87127   0.87835   0.89211
 Alpha virt. eigenvalues --    0.89385   0.90323   0.90762   0.91033   0.91846
 Alpha virt. eigenvalues --    0.94916   0.95164   0.96077   0.96152   0.96676
 Alpha virt. eigenvalues --    0.97237   0.97899   0.98642   0.99906   1.00072
 Alpha virt. eigenvalues --    1.00695   1.01639   1.02279   1.04169   1.04208
 Alpha virt. eigenvalues --    1.04852   1.05640   1.07646   1.09391   1.12176
 Alpha virt. eigenvalues --    1.14381   1.18576   1.20190   1.21896   1.22671
 Alpha virt. eigenvalues --    1.23303   1.26292   1.27230   1.29223   1.30490
 Alpha virt. eigenvalues --    1.30884   1.31862   1.33893   1.35221   1.36381
 Alpha virt. eigenvalues --    1.40541   1.43008   1.44763   1.48378   1.49029
 Alpha virt. eigenvalues --    1.49506   1.49917   1.53581   1.55699   1.56650
 Alpha virt. eigenvalues --    1.57416   1.58061   1.60913   1.62859   1.65051
 Alpha virt. eigenvalues --    1.65407   1.66198   1.67741   1.70425   1.71148
 Alpha virt. eigenvalues --    1.72504   1.73729   1.75136   1.80772   1.81524
 Alpha virt. eigenvalues --    1.82800   1.83836   1.85471   1.86030   1.86818
 Alpha virt. eigenvalues --    1.88465   1.89686   1.93784   1.94368   1.94572
 Alpha virt. eigenvalues --    1.94788   1.97324   1.98582   1.99410   2.01029
 Alpha virt. eigenvalues --    2.02203   2.04348   2.05544   2.08813   2.13409
 Alpha virt. eigenvalues --    2.16312   2.19289   2.21792   2.24849   2.26535
 Alpha virt. eigenvalues --    2.26839   2.27618   2.30758   2.31208   2.32623
 Alpha virt. eigenvalues --    2.35003   2.36622   2.37745   2.38534   2.39707
 Alpha virt. eigenvalues --    2.40895   2.43483   2.44999   2.47248   2.50697
 Alpha virt. eigenvalues --    2.51575   2.53704   2.54842   2.56056   2.58264
 Alpha virt. eigenvalues --    2.60501   2.62738   2.63757   2.68647   2.68706
 Alpha virt. eigenvalues --    2.69344   2.70450   2.71586   2.72327   2.75069
 Alpha virt. eigenvalues --    2.75463   2.75977   2.77010   2.78187   2.78992
 Alpha virt. eigenvalues --    2.80480   2.83385   2.83855   2.84780   2.85324
 Alpha virt. eigenvalues --    2.87343   2.90456   2.97945   2.99748   3.08596
 Alpha virt. eigenvalues --    3.10353   3.10482   3.12873   3.14777   3.19633
 Alpha virt. eigenvalues --    3.21951   3.24803   3.28197   3.33725   3.37625
 Alpha virt. eigenvalues --    3.39356   3.42118   3.52527   3.56013   3.59498
 Alpha virt. eigenvalues --    3.64439   3.72563   3.84232   3.85363   3.99290
 Alpha virt. eigenvalues --    4.02880   4.04872   4.07441   4.13673   4.35485
 Alpha virt. eigenvalues --    4.81180   4.82824   9.77982   9.80948   9.83728
 Alpha virt. eigenvalues --    9.85354  23.39650  23.59028  23.82785  23.89240
 Alpha virt. eigenvalues --   23.90632  23.93571  23.98550  23.99387  24.06351
 Alpha virt. eigenvalues --   24.09638  24.12989  24.17273  25.79995  25.84359
 Alpha virt. eigenvalues --   25.94852  25.97993  26.14044  26.22138  26.28114
 Alpha virt. eigenvalues --   26.32893  26.55935  26.66919  26.72957  26.98471
 Alpha virt. eigenvalues --  215.77306 215.80715 215.84190 215.86215
          Condensed to atoms (all electrons):
               1          2          3          4          5          6
     1  C   32.163700  -9.554667  -1.717465  -4.033786  -2.581486  -1.532293
     2  C   -9.554667  29.439444  -1.916363   2.050179 -12.398233  -4.468762
     3  C   -1.717465  -1.916363   9.748352  -0.083570   2.906487  -3.938808
     4  C   -4.033786   2.050179  -0.083570   7.825775   1.467814  -0.254499
     5  C   -2.581486 -12.398233   2.906487   1.467814  29.801611  -6.879274
     6  C   -1.532293  -4.468762  -3.938808  -0.254499  -6.879274  42.481100
     7  C    4.265048  -0.236290   0.201548  -0.851483  -2.056054  -3.196549
     8  C   -2.559194   1.777933   0.434888  -0.168816  -1.232214  -7.161330
     9  C   -3.800343  -0.610523   0.054665  -0.025021   0.396271  -1.243396
    10  C   -0.618782  -0.385314  -0.038787   0.012898   0.220823   0.608650
    11  C   -3.633140   0.171215   0.245211  -0.089032  -0.294357  -2.884324
    12  C   -1.685201   0.223905   0.178058  -0.185264  -0.451301  -4.219957
    13  H    0.009385   0.293454  -0.056358  -0.017351   0.007489  -0.113244
    14  H   -0.006124   0.010787   0.336370   0.022943  -0.031443   0.010920
    15  H    0.044429  -0.052638   0.043166   0.341984   0.021791  -0.056576
    16  H    0.097756   0.025182  -0.041206  -0.037215   0.258971   0.045854
    17  H    0.012010  -0.001712  -0.000250   0.000012   0.000127   0.002475
    18  H    0.005678  -0.001468  -0.000116  -0.000001   0.000138   0.002200
    19  Cl  -0.151656   0.596135   0.020050  -0.003803  -0.330785  -0.076066
    20  Cl   0.463843   1.233174  -0.149220   0.125217  -1.950426  -0.134119
    21  Cl  -0.177224   0.013212   0.010012  -0.002648  -0.004576  -0.114638
    22  Cl   0.340615   0.469755   0.061920  -0.027131  -0.314021  -0.141355
               7          8          9         10         11         12
     1  C    4.265048  -2.559194  -3.800343  -0.618782  -3.633140  -1.685201
     2  C   -0.236290   1.777933  -0.610523  -0.385314   0.171215   0.223905
     3  C    0.201548   0.434888   0.054665  -0.038787   0.245211   0.178058
     4  C   -0.851483  -0.168816  -0.025021   0.012898  -0.089032  -0.185264
     5  C   -2.056054  -1.232214   0.396271   0.220823  -0.294357  -0.451301
     6  C   -3.196549  -7.161330  -1.243396   0.608650  -2.884324  -4.219957
     7  C   20.168230  -4.149845  -3.851621  -0.384129  -4.673941   2.057994
     8  C   -4.149845  22.821601  -3.392272  -0.585517   4.150031  -3.989259
     9  C   -3.851621  -3.392272  14.507196   2.645932  -0.792780   2.648044
    10  C   -0.384129  -0.585517   2.645932  12.528892  -2.332462  -5.418070
    11  C   -4.673941   4.150031  -0.792780  -2.332462  17.334510  -1.653885
    12  C    2.057994  -3.989259   2.648044  -5.418070  -1.653885  20.562213
    13  H    0.074916   0.057666   0.019155   0.001669   0.011800   0.069222
    14  H    0.002025   0.001874   0.000197   0.000050  -0.000174   0.001630
    15  H    0.006402   0.001135   0.000078  -0.000006   0.000211   0.001222
    16  H    0.008495   0.000903  -0.000306   0.000111  -0.000671   0.001336
    17  H    0.055681   0.046968   0.311145  -0.033681  -0.025587  -0.013706
    18  H    0.030439   0.006624  -0.084603   0.356877  -0.001156   0.035165
    19  Cl  -0.163728  -0.593799   0.457665   0.487437  -0.415704  -0.915152
    20  Cl  -0.426797   0.160208  -0.343252  -0.157851  -0.016854  -0.164404
    21  Cl  -0.664191   0.110894   0.130468  -0.338204  -0.277843   0.716870
    22  Cl  -0.333749   0.317778  -0.717614  -0.010055   0.166140  -0.613467
              13         14         15         16         17         18
     1  C    0.009385  -0.006124   0.044429   0.097756   0.012010   0.005678
     2  C    0.293454   0.010787  -0.052638   0.025182  -0.001712  -0.001468
     3  C   -0.056358   0.336370   0.043166  -0.041206  -0.000250  -0.000116
     4  C   -0.017351   0.022943   0.341984  -0.037215   0.000012  -0.000001
     5  C    0.007489  -0.031443   0.021791   0.258971   0.000127   0.000138
     6  C   -0.113244   0.010920  -0.056576   0.045854   0.002475   0.002200
     7  C    0.074916   0.002025   0.006402   0.008495   0.055681   0.030439
     8  C    0.057666   0.001874   0.001135   0.000903   0.046968   0.006624
     9  C    0.019155   0.000197   0.000078  -0.000306   0.311145  -0.084603
    10  C    0.001669   0.000050  -0.000006   0.000111  -0.033681   0.356877
    11  C    0.011800  -0.000174   0.000211  -0.000671  -0.025587  -0.001156
    12  C    0.069222   0.001630   0.001222   0.001336  -0.013706   0.035165
    13  H    0.539904  -0.007303  -0.000258   0.000052   0.000003  -0.000003
    14  H   -0.007303   0.532694  -0.007608  -0.000199   0.000000  -0.000000
    15  H   -0.000258  -0.007608   0.530056  -0.007765  -0.000000  -0.000000
    16  H    0.000052  -0.000199  -0.007765   0.513902   0.000000  -0.000000
    17  H    0.000003   0.000000  -0.000000   0.000000   0.506079  -0.007513
    18  H   -0.000003  -0.000000  -0.000000  -0.000000  -0.007513   0.503244
    19  Cl  -0.008012  -0.000471  -0.000375  -0.000673   0.000524  -0.001385
    20  Cl  -0.004085   0.000987  -0.000593  -0.012164  -0.000772  -0.000286
    21  Cl   0.000539   0.000001   0.000001  -0.000004  -0.000225  -0.001762
    22  Cl  -0.006727  -0.000451  -0.000246  -0.000714  -0.007052   0.000277
              19         20         21         22
     1  C   -0.151656   0.463843  -0.177224   0.340615
     2  C    0.596135   1.233174   0.013212   0.469755
     3  C    0.020050  -0.149220   0.010012   0.061920
     4  C   -0.003803   0.125217  -0.002648  -0.027131
     5  C   -0.330785  -1.950426  -0.004576  -0.314021
     6  C   -0.076066  -0.134119  -0.114638  -0.141355
     7  C   -0.163728  -0.426797  -0.664191  -0.333749
     8  C   -0.593799   0.160208   0.110894   0.317778
     9  C    0.457665  -0.343252   0.130468  -0.717614
    10  C    0.487437  -0.157851  -0.338204  -0.010055
    11  C   -0.415704  -0.016854  -0.277843   0.166140
    12  C   -0.915152  -0.164404   0.716870  -0.613467
    13  H   -0.008012  -0.004085   0.000539  -0.006727
    14  H   -0.000471   0.000987   0.000001  -0.000451
    15  H   -0.000375  -0.000593   0.000001  -0.000246
    16  H   -0.000673  -0.012164  -0.000004  -0.000714
    17  H    0.000524  -0.000772  -0.000225  -0.007052
    18  H   -0.001385  -0.000286  -0.001762   0.000277
    19  Cl  17.727984   0.103662  -0.188226  -0.072996
    20  Cl   0.103662  17.790986  -0.001134   0.090652
    21  Cl  -0.188226  -0.001134  17.315760  -0.010501
    22  Cl  -0.072996   0.090652  -0.010501  17.403331
 Mulliken charges:
               1
     1  C    0.648896
     2  C   -0.678406
     3  C   -0.298583
     4  C   -0.067205
     5  C   -0.557353
     6  C   -0.736009
     7  C    0.117597
     8  C   -0.056257
     9  C   -0.309085
    10  C   -0.560481
    11  C    1.012793
    12  C   -1.185994
    13  H    0.128085
    14  H    0.133297
    15  H    0.135588
    16  H    0.148356
    17  H    0.155474
    18  H    0.157652
    19  Cl   0.529375
    20  Cl   0.393226
    21  Cl   0.483419
    22  Cl   0.405613
 Sum of Mulliken charges =  -0.00000
 Mulliken charges with hydrogens summed into heavy atoms:
               1
     1  C    0.648896
     2  C   -0.550321
     3  C   -0.165286
     4  C    0.068383
     5  C   -0.408996
     6  C   -0.736009
     7  C    0.117597
     8  C   -0.056257
     9  C   -0.153611
    10  C   -0.402829
    11  C    1.012793
    12  C   -1.185994
    19  Cl   0.529375
    20  Cl   0.393226
    21  Cl   0.483419
    22  Cl   0.405613
 Electronic spatial extent (au):  <R**2>=           4836.5146
 Charge=             -0.0000 electrons
 Dipole moment (field-independent basis, Debye):
    X=             -0.8075    Y=              0.8080    Z=             -1.4309  Tot=              1.8309
 Quadrupole moment (field-independent basis, Debye-Ang):
   XX=           -109.3478   YY=           -119.3991   ZZ=           -118.6645
   XY=             10.5653   XZ=              3.0016   YZ=              0.7680
 Traceless Quadrupole moment (field-independent basis, Debye-Ang):
   XX=              6.4560   YY=             -3.5953   ZZ=             -2.8607
   XY=             10.5653   XZ=              3.0016   YZ=              0.7680
 Octapole moment (field-independent basis, Debye-Ang**2):
  XXX=            -26.3098  YYY=              5.6839  ZZZ=             -2.8684  XYY=             17.4539
  XXY=             -4.3894  XXZ=             -0.6943  XZZ=             -7.3990  YZZ=             -5.9302
  YYZ=              5.8060  XYZ=             -1.9982
 Hexadecapole moment (field-independent basis, Debye-Ang**3):
 XXXX=          -3636.9291 YYYY=          -1697.7171 ZZZZ=           -837.6815 XXXY=             95.6017
 XXXZ=              9.9204 YYYX=            -23.2829 YYYZ=             -2.1680 ZZZX=             21.1522
 ZZZY=              7.6115 XXYY=           -882.3962 XXZZ=           -777.7708 YYZZ=           -454.3217
 XXYZ=              8.2724 YYXZ=             -4.8808 ZZXY=             -2.4018
 N-N= 1.519538549169D+03 E-N=-8.483941945549D+03  KE= 2.295550296832D+03
 1\1\GINC-CN015\FOpt\RB3LYP\6-311+G(d,p)\C12H6Cl4\20CY91R06\09-Apr-2022
 \0\\# opt b3lyp/6-311+g(d,p) scf=xqc\\Title Card Required\\0,1\C,-0.24
 87900031,-0.2177124479,-0.0190990076\C,0.4298495455,0.1307565847,-1.19
 20015162\C,1.1119593894,1.33808275,-1.297055637\C,1.1250430528,2.22164
 59088,-0.2198248518\C,0.4577638169,1.8968782826,0.9572509586\C,-0.2210
 296723,0.6851507524,1.048145291\C,-0.9664127308,-1.5232684662,0.065208
 6687\C,-0.3207445534,-2.6817078465,0.512582927\C,-0.9736636728,-3.9079
 316118,0.5799469797\C,-2.3026782698,-3.9964533205,0.1937322703\C,-2.97
 73294434,-2.866029181,-0.2574564492\C,-2.3137418491,-1.636514821,-0.32
 18583777\H,0.4162038325,-0.5607193251,-2.0266019912\H,1.6304301089,1.5
 870444632,-2.2153074457\H,1.6536164964,3.1651689075,-0.2910321634\H,0.
 4591846993,2.573013817,1.8025008405\H,-0.4447341484,-4.7832907828,0.93
 2502642\H,-2.8251881063,-4.9429989283,0.2405006588\Cl,-3.1563222313,-0
 .2157054691,-0.8828078232\Cl,-1.0556085803,0.3027406444,2.5469217872\C
 l,-4.6497130846,-3.0275197029,-0.7347723062\Cl,1.3587235939,-2.6103191
 276,1.0129922852\\Version=EM64L-G16RevB.01\State=1-A\HF=-2301.8972369\
 RMSD=4.991e-09\RMSF=3.087e-05\Dipole=0.6063754,-0.0914536,-0.3779486\Q
 uadrupole=-4.8383135,7.9230588,-3.0847453,4.9406743,-2.9924355,-1.7740
 183\PG=C01 [X(C12H6Cl4)]\\@


 A COMPLEXITY IS MERELY A DISARRANGEMENT OF SIMPLICITIES.

                                    -- G. O. ABELL IN "EXPLORATION OF THE UNIVERSE"
 Job cpu time:       1 days  2 hours 40 minutes 58.3 seconds.
 Elapsed time:       0 days 13 hours 26 minutes 47.2 seconds.
 File lengths (MBytes):  RWF=    110 Int=      0 D2E=      0 Chk=     17 Scr=      1
 Normal termination of Gaussian 16 at Sat Apr  9 00:43:20 2022.
