 Entering Gaussian System, Link 0=g16
 Input=2,2prime,3,3prime,5,5prime,6-Heptachlorobiphenyl.gjf
 Output=2,2prime,3,3prime,5,5prime,6-Heptachlorobiphenyl.log
 Initial command:
 /home/apps/g16/l1.exe "./Gau-398088.inp" -scrdir="./"
 Entering Link 1 = /home/apps/g16/l1.exe PID=    398089.
  
 Copyright (c) 1988-2017, Gaussian, Inc.  All Rights Reserved.
  
 This is part of the Gaussian(R) 16 program.  It is based on
 the Gaussian(R) 09 system (copyright 2009, Gaussian, Inc.),
 the Gaussian(R) 03 system (copyright 2003, Gaussian, Inc.),
 the Gaussian(R) 98 system (copyright 1998, Gaussian, Inc.),
 the Gaussian(R) 94 system (copyright 1995, Gaussian, Inc.),
 the Gaussian 92(TM) system (copyright 1992, Gaussian, Inc.),
 the Gaussian 90(TM) system (copyright 1990, Gaussian, Inc.),
 the Gaussian 88(TM) system (copyright 1988, Gaussian, Inc.),
 the Gaussian 86(TM) system (copyright 1986, Carnegie Mellon
 University), and the Gaussian 82(TM) system (copyright 1983,
 Carnegie Mellon University). Gaussian is a federally registered
 trademark of Gaussian, Inc.
  
 This software contains proprietary and confidential information,
 including trade secrets, belonging to Gaussian, Inc.
  
 This software is provided under written license and may be
 used, copied, transmitted, or stored only in accord with that
 written license.
  
 The following legend is applicable only to US Government
 contracts under FAR:
  
                    RESTRICTED RIGHTS LEGEND
  
 Use, reproduction and disclosure by the US Government is
 subject to restrictions as set forth in subparagraphs (a)
 and (c) of the Commercial Computer Software - Restricted
 Rights clause in FAR 52.227-19.
  
 Gaussian, Inc.
 340 Quinnipiac St., Bldg. 40, Wallingford CT 06492
  
  
 ---------------------------------------------------------------
 Warning -- This program may not be used in any manner that
 competes with the business of Gaussian, Inc. or will provide
 assistance to any competitor of Gaussian, Inc.  The licensee
 of this program is prohibited from giving any competitor of
 Gaussian, Inc. access to this program.  By using this program,
 the user acknowledges that Gaussian, Inc. is engaged in the
 business of creating and licensing software in the field of
 computational chemistry and represents and warrants to the
 licensee that it is not a competitor of Gaussian, Inc. and that
 it will not use this program in any manner prohibited above.
 ---------------------------------------------------------------
  

 Cite this work as:
 Gaussian 16, Revision B.01,
 M. J. Frisch, G. W. Trucks, H. B. Schlegel, G. E. Scuseria, 
 M. A. Robb, J. R. Cheeseman, G. Scalmani, V. Barone, 
 G. A. Petersson, H. Nakatsuji, X. Li, M. Caricato, A. V. Marenich, 
 J. Bloino, B. G. Janesko, R. Gomperts, B. Mennucci, H. P. Hratchian, 
 J. V. Ortiz, A. F. Izmaylov, J. L. Sonnenberg, D. Williams-Young, 
 F. Ding, F. Lipparini, F. Egidi, J. Goings, B. Peng, A. Petrone, 
 T. Henderson, D. Ranasinghe, V. G. Zakrzewski, J. Gao, N. Rega, 
 G. Zheng, W. Liang, M. Hada, M. Ehara, K. Toyota, R. Fukuda, 
 J. Hasegawa, M. Ishida, T. Nakajima, Y. Honda, O. Kitao, H. Nakai, 
 T. Vreven, K. Throssell, J. A. Montgomery, Jr., J. E. Peralta, 
 F. Ogliaro, M. J. Bearpark, J. J. Heyd, E. N. Brothers, K. N. Kudin, 
 V. N. Staroverov, T. A. Keith, R. Kobayashi, J. Normand, 
 K. Raghavachari, A. P. Rendell, J. C. Burant, S. S. Iyengar, 
 J. Tomasi, M. Cossi, J. M. Millam, M. Klene, C. Adamo, R. Cammi, 
 J. W. Ochterski, R. L. Martin, K. Morokuma, O. Farkas, 
 J. B. Foresman, and D. J. Fox, Gaussian, Inc., Wallingford CT, 2016.
 
 ******************************************
 Gaussian 16:  EM64L-G16RevB.01 20-Dec-2017
                 3-Apr-2022 
 ******************************************
 %mem=32GB
 %nprocshared=16
 Will use up to   16 processors via shared memory.
 --------------------------------
 # opt b3lyp/6-311+g(d,p) scf=xqc
 --------------------------------
 1/18=20,19=15,26=3,38=1/1,3;
 2/9=110,12=2,17=6,18=5,40=1/2;
 3/5=4,6=6,7=111,11=2,25=1,30=1,71=1,74=-5/1,2,3;
 4//1;
 5/5=2,8=3,13=1,38=5/2,8;
 6/7=2,8=2,9=2,10=2,28=1/1;
 7//1,2,3,16;
 1/18=20,19=15,26=3/3(2);
 2/9=110/2;
 99//99;
 2/9=110/2;
 3/5=4,6=6,7=111,11=2,25=1,30=1,71=1,74=-5/1,2,3;
 4/5=5,16=3,69=1/1;
 5/5=2,8=3,13=1,38=5/2,8;
 7//1,2,3,16;
 1/18=20,19=15,26=3/3(-5);
 2/9=110/2;
 6/7=2,8=2,9=2,10=2,19=2,28=1/1;
 99/9=1/99;
 -------------------
 Title Card Required
 -------------------
 Symbolic Z-matrix:
 Charge =  0 Multiplicity = 1
 C                    -0.18951   1.54479   0.16244 
 C                     1.14287   1.57468  -0.27091 
 C                     1.85076   2.78413  -0.27698 
 C                     1.22627   3.96369   0.1503 
 C                    -0.10611   3.93381   0.58364 
 C                    -0.814     2.72436   0.58971 
 C                    -1.21786  -0.21217   0.17126 
 C                    -0.59337  -1.39173  -0.25601 
 C                    -1.30127  -2.60118  -0.24994 
 C                    -2.63365  -2.63107   0.18341 
 C                    -3.25814  -1.45151   0.61069 
 C                    -2.55024  -0.24205   0.60461 
 H                     1.61968   0.67405  -0.59714 
 H                     1.76677   4.88713   0.14566 
 H                    -3.17414  -3.55451   0.18805 
 Cl                   -3.33453   1.23935   1.14122 
 Cl                   -2.48732   2.68682   1.13395 
 Cl                   -4.93145  -1.48904   1.15493 
 Cl                   -0.89039   5.41521   1.12025 
 Cl                   -0.51698  -4.08258  -0.78655 
 Cl                    3.52408   2.82166  -0.82121 
 Cl                    1.07995  -1.3542   -0.80025 
 

 GradGradGradGradGradGradGradGradGradGradGradGradGradGradGradGradGradGrad
 Berny optimization.
 Initialization pass.
                           ----------------------------
                           !    Initial Parameters    !
                           ! (Angstroms and Degrees)  !
 --------------------------                            --------------------------
 ! Name  Definition              Value          Derivative Info.                !
 --------------------------------------------------------------------------------
 ! R1    R(1,2)                  1.4014         estimate D2E/DX2                !
 ! R2    R(1,6)                  1.4014         estimate D2E/DX2                !
 ! R3    R(2,3)                  1.4014         estimate D2E/DX2                !
 ! R4    R(2,13)                 1.07           estimate D2E/DX2                !
 ! R5    R(3,4)                  1.4014         estimate D2E/DX2                !
 ! R6    R(3,21)                 1.76           estimate D2E/DX2                !
 ! R7    R(4,5)                  1.4014         estimate D2E/DX2                !
 ! R8    R(4,14)                 1.07           estimate D2E/DX2                !
 ! R9    R(5,6)                  1.4014         estimate D2E/DX2                !
 ! R10   R(5,19)                 1.76           estimate D2E/DX2                !
 ! R11   R(6,17)                 1.76           estimate D2E/DX2                !
 ! R12   R(7,8)                  1.4014         estimate D2E/DX2                !
 ! R13   R(7,12)                 1.4014         estimate D2E/DX2                !
 ! R14   R(8,9)                  1.4014         estimate D2E/DX2                !
 ! R15   R(8,22)                 1.76           estimate D2E/DX2                !
 ! R16   R(9,10)                 1.4014         estimate D2E/DX2                !
 ! R17   R(9,20)                 1.76           estimate D2E/DX2                !
 ! R18   R(10,11)                1.4014         estimate D2E/DX2                !
 ! R19   R(10,15)                1.07           estimate D2E/DX2                !
 ! R20   R(11,12)                1.4014         estimate D2E/DX2                !
 ! R21   R(11,18)                1.76           estimate D2E/DX2                !
 ! R22   R(12,16)                1.76           estimate D2E/DX2                !
 ! R23   R(16,17)                1.6772         estimate D2E/DX2                !
 ! A1    A(2,1,6)              120.0            estimate D2E/DX2                !
 ! A2    A(1,2,3)              120.0            estimate D2E/DX2                !
 ! A3    A(1,2,13)             120.0            estimate D2E/DX2                !
 ! A4    A(3,2,13)             120.0            estimate D2E/DX2                !
 ! A5    A(2,3,4)              120.0            estimate D2E/DX2                !
 ! A6    A(2,3,21)             120.0            estimate D2E/DX2                !
 ! A7    A(4,3,21)             120.0            estimate D2E/DX2                !
 ! A8    A(3,4,5)              120.0            estimate D2E/DX2                !
 ! A9    A(3,4,14)             120.0            estimate D2E/DX2                !
 ! A10   A(5,4,14)             120.0            estimate D2E/DX2                !
 ! A11   A(4,5,6)              120.0            estimate D2E/DX2                !
 ! A12   A(4,5,19)             120.0            estimate D2E/DX2                !
 ! A13   A(6,5,19)             120.0            estimate D2E/DX2                !
 ! A14   A(1,6,5)              120.0            estimate D2E/DX2                !
 ! A15   A(1,6,17)             120.0            estimate D2E/DX2                !
 ! A16   A(5,6,17)             120.0            estimate D2E/DX2                !
 ! A17   A(8,7,12)             120.0            estimate D2E/DX2                !
 ! A18   A(7,8,9)              120.0            estimate D2E/DX2                !
 ! A19   A(7,8,22)             120.0            estimate D2E/DX2                !
 ! A20   A(9,8,22)             120.0            estimate D2E/DX2                !
 ! A21   A(8,9,10)             120.0            estimate D2E/DX2                !
 ! A22   A(8,9,20)             120.0            estimate D2E/DX2                !
 ! A23   A(10,9,20)            120.0            estimate D2E/DX2                !
 ! A24   A(9,10,11)            120.0            estimate D2E/DX2                !
 ! A25   A(9,10,15)            120.0            estimate D2E/DX2                !
 ! A26   A(11,10,15)           120.0            estimate D2E/DX2                !
 ! A27   A(10,11,12)           120.0            estimate D2E/DX2                !
 ! A28   A(10,11,18)           120.0            estimate D2E/DX2                !
 ! A29   A(12,11,18)           120.0            estimate D2E/DX2                !
 ! A30   A(7,12,11)            120.0            estimate D2E/DX2                !
 ! A31   A(7,12,16)            120.0            estimate D2E/DX2                !
 ! A32   A(11,12,16)           120.0            estimate D2E/DX2                !
 ! A33   A(12,16,17)           120.0            estimate D2E/DX2                !
 ! A34   A(6,17,16)            120.0            estimate D2E/DX2                !
 ! D1    D(6,1,2,3)              0.0001         estimate D2E/DX2                !
 ! D2    D(6,1,2,13)           180.0            estimate D2E/DX2                !
 ! D3    D(2,1,6,5)             -0.0001         estimate D2E/DX2                !
 ! D4    D(2,1,6,17)           180.0            estimate D2E/DX2                !
 ! D5    D(1,2,3,4)              0.0            estimate D2E/DX2                !
 ! D6    D(1,2,3,21)           180.0            estimate D2E/DX2                !
 ! D7    D(13,2,3,4)          -179.9999         estimate D2E/DX2                !
 ! D8    D(13,2,3,21)            0.0001         estimate D2E/DX2                !
 ! D9    D(2,3,4,5)             -0.0001         estimate D2E/DX2                !
 ! D10   D(2,3,4,14)           180.0            estimate D2E/DX2                !
 ! D11   D(21,3,4,5)           179.9999         estimate D2E/DX2                !
 ! D12   D(21,3,4,14)            0.0            estimate D2E/DX2                !
 ! D13   D(3,4,5,6)              0.0001         estimate D2E/DX2                !
 ! D14   D(3,4,5,19)          -179.9999         estimate D2E/DX2                !
 ! D15   D(14,4,5,6)          -180.0            estimate D2E/DX2                !
 ! D16   D(14,4,5,19)            0.0            estimate D2E/DX2                !
 ! D17   D(4,5,6,1)              0.0            estimate D2E/DX2                !
 ! D18   D(4,5,6,17)           179.9999         estimate D2E/DX2                !
 ! D19   D(19,5,6,1)           180.0            estimate D2E/DX2                !
 ! D20   D(19,5,6,17)           -0.0001         estimate D2E/DX2                !
 ! D21   D(1,6,17,16)            0.0004         estimate D2E/DX2                !
 ! D22   D(5,6,17,16)         -179.9996         estimate D2E/DX2                !
 ! D23   D(12,7,8,9)             0.0001         estimate D2E/DX2                !
 ! D24   D(12,7,8,22)         -179.9998         estimate D2E/DX2                !
 ! D25   D(8,7,12,11)           -0.0001         estimate D2E/DX2                !
 ! D26   D(8,7,12,16)          179.9999         estimate D2E/DX2                !
 ! D27   D(7,8,9,10)             0.0            estimate D2E/DX2                !
 ! D28   D(7,8,9,20)           180.0            estimate D2E/DX2                !
 ! D29   D(22,8,9,10)          179.9998         estimate D2E/DX2                !
 ! D30   D(22,8,9,20)           -0.0002         estimate D2E/DX2                !
 ! D31   D(8,9,10,11)            0.0            estimate D2E/DX2                !
 ! D32   D(8,9,10,15)         -179.9999         estimate D2E/DX2                !
 ! D33   D(20,9,10,11)         180.0            estimate D2E/DX2                !
 ! D34   D(20,9,10,15)           0.0001         estimate D2E/DX2                !
 ! D35   D(9,10,11,12)           0.0            estimate D2E/DX2                !
 ! D36   D(9,10,11,18)        -179.9998         estimate D2E/DX2                !
 ! D37   D(15,10,11,12)        179.9999         estimate D2E/DX2                !
 ! D38   D(15,10,11,18)          0.0001         estimate D2E/DX2                !
 ! D39   D(10,11,12,7)           0.0            estimate D2E/DX2                !
 ! D40   D(10,11,12,16)       -179.9999         estimate D2E/DX2                !
 ! D41   D(18,11,12,7)         179.9999         estimate D2E/DX2                !
 ! D42   D(18,11,12,16)         -0.0001         estimate D2E/DX2                !
 ! D43   D(7,12,16,17)           0.0004         estimate D2E/DX2                !
 ! D44   D(11,12,16,17)       -179.9997         estimate D2E/DX2                !
 ! D45   D(12,16,17,6)          -0.0006         estimate D2E/DX2                !
 --------------------------------------------------------------------------------
 Trust Radius=3.00D-01 FncErr=1.00D-07 GrdErr=1.00D-06 EigMax=2.50D+02 EigMin=1.00D-04
 Number of steps in this run=    112 maximum allowed number of steps=    132.
 GradGradGradGradGradGradGradGradGradGradGradGradGradGradGradGradGradGrad

                          Input orientation:                          
 ---------------------------------------------------------------------
 Center     Atomic      Atomic             Coordinates (Angstroms)
 Number     Number       Type             X           Y           Z
 ---------------------------------------------------------------------
      1          6           0       -0.189513    1.544790    0.162440
      2          6           0        1.142869    1.574676   -0.270907
      3          6           0        1.850762    2.784126   -0.276979
      4          6           0        1.226275    3.963692    0.150296
      5          6           0       -0.106107    3.933806    0.583640
      6          6           0       -0.814001    2.724355    0.589713
      7          6           0       -1.217862   -0.212168    0.171262
      8          6           0       -0.593375   -1.391733   -0.256013
      9          6           0       -1.301268   -2.601185   -0.249938
     10          6           0       -2.633648   -2.631071    0.183411
     11          6           0       -3.258135   -1.451506    0.610687
     12          6           0       -2.550242   -0.242055    0.604613
     13          1           0        1.619679    0.674051   -0.597139
     14          1           0        1.766767    4.887134    0.145660
     15          1           0       -3.174139   -3.554514    0.188051
     16         17           0       -3.334527    1.239345    1.141224
     17         17           0       -2.487321    2.686822    1.133946
     18         17           0       -4.931453   -1.489041    1.154929
     19         17           0       -0.890394    5.415207    1.120246
     20         17           0       -0.516982   -4.082585   -0.786548
     21         17           0        3.524083    2.821660   -0.821213
     22         17           0        1.079945   -1.354200   -0.800247
 ---------------------------------------------------------------------
                    Distance matrix (angstroms):
                    1          2          3          4          5
     1  C    0.000000
     2  C    1.401400   0.000000
     3  C    2.427296   1.401400   0.000000
     4  C    2.802800   2.427296   1.401400   0.000000
     5  C    2.427296   2.802800   2.427296   1.401400   0.000000
     6  C    1.401400   2.427296   2.802800   2.427296   1.401400
     7  C    2.035800   2.993555   4.312210   4.838600   4.312210
     8  C    2.993555   3.437200   4.838600   5.670695   5.413300
     9  C    4.312210   4.838600   6.240000   7.046010   6.695474
    10  C    4.838600   5.670695   7.046010   7.641400   7.046010
    11  C    4.312210   5.413300   6.695474   7.046010   6.240000
    12  C    2.993555   4.207863   5.413300   5.670695   4.838600
    13  H    2.146700   1.070000   2.146700   3.396345   3.872800
    14  H    3.872800   3.396345   2.146700   1.070000   2.146700
    15  H    5.908600   6.719806   8.102114   8.711400   8.102114
    16  Cl   3.307934   4.706764   5.593288   5.404157   4.241900
    17  Cl   2.743718   4.048303   4.562800   4.048303   2.743718
    18  Cl   5.716219   6.951025   8.143019   8.286084   7.281319
    19  Cl   4.048303   4.562800   4.048303   2.743718   1.760000
    20  Cl   5.716219   5.918242   7.281319   8.286084   8.143019
    21  Cl   4.048303   2.743718   1.760000   2.743718   4.048303
    22  Cl   3.307934   2.976990   4.241900   5.404157   5.593288
                    6          7          8          9         10
     6  C    0.000000
     7  C    2.993555   0.000000
     8  C    4.207863   1.401400   0.000000
     9  C    5.413300   2.427296   1.401400   0.000000
    10  C    5.670695   2.802800   2.427296   1.401400   0.000000
    11  C    4.838600   2.427296   2.802800   2.427296   1.401400
    12  C    3.437200   1.401400   2.427296   2.802800   2.427296
    13  H    3.396345   3.070418   3.046546   4.402232   5.442783
    14  H    3.396345   5.908600   6.719806   8.102114   8.711400
    15  H    6.719806   3.872800   3.396345   2.146700   1.070000
    16  Cl   2.976990   2.743718   4.048303   4.562800   4.048303
    17  Cl   1.760000   3.307934   4.706764   5.593288   5.404157
    18  Cl   5.918242   4.048303   4.562800   4.048303   2.743718
    19  Cl   2.743718   5.716219   6.951025   8.143019   8.286084
    20  Cl   6.951025   4.048303   2.743718   1.760000   2.743718
    21  Cl   4.562800   5.716219   5.918242   7.281319   8.286084
    22  Cl   4.706764   2.743718   1.760000   2.743718   4.048303
                   11         12         13         14         15
    11  C    0.000000
    12  C    1.401400   0.000000
    13  H    5.456181   4.435279   0.000000
    14  H    8.102114   6.719806   4.280590   0.000000
    15  H    2.146700   3.396345   6.440340   9.781400   0.000000
    16  Cl   2.743718   1.760000   5.280684   6.349860   4.890332
    17  Cl   4.241900   2.976990   4.890332   4.890333   6.349860
    18  Cl   1.760000   2.743718   7.118008   9.302708   2.879094
    19  Cl   7.281319   5.918242   5.632800   2.879094   9.302708
    20  Cl   4.048303   4.562800   5.217929   9.302708   2.879094
    21  Cl   8.143019   6.951025   2.879094   2.879094   9.302708
    22  Cl   4.562800   4.048303   2.108641   6.349860   4.890332
                   16         17         18         19         20
    16  Cl   0.000000
    17  Cl   1.677200   0.000000
    18  Cl   3.161400   4.838600   0.000000
    19  Cl   4.838600   3.161400   8.000000   0.000000
    20  Cl   6.322800   7.307216   5.475705   9.694501   0.000000
    21  Cl   7.307216   6.322800   9.694501   5.475705   8.000000
    22  Cl   5.475705   5.726810   6.322800   7.307216   3.161400
                   21         22
    21  Cl   0.000000
    22  Cl   4.838600   0.000000
 Stoichiometry    C12H3Cl7
 Framework group  C1[X(C12H3Cl7)]
 Deg. of freedom    60
 Full point group                 C1      NOp   1
 Largest Abelian subgroup         C1      NOp   1
 Largest concise Abelian subgroup C1      NOp   1
                         Standard orientation:                         
 ---------------------------------------------------------------------
 Center     Atomic      Atomic             Coordinates (Angstroms)
 Number     Number       Type             X           Y           Z
 ---------------------------------------------------------------------
      1          6           0       -1.070886    0.288848   -0.000001
      2          6           0       -1.703048    1.539565    0.000001
      3          6           0       -3.102282    1.617455    0.000002
      4          6           0       -3.869353    0.444627    0.000003
      5          6           0       -3.237191   -0.806089   -0.000001
      6          6           0       -1.837957   -0.883979   -0.000002
      7          6           0        0.961767    0.175699   -0.000002
      8          6           0        1.728839    1.348527   -0.000003
      9          6           0        3.128072    1.270637   -0.000003
     10          6           0        3.760235    0.019920   -0.000001
     11          6           0        2.993164   -1.152907    0.000000
     12          6           0        1.593930   -1.075017   -0.000000
     13          1           0       -1.117373    2.435045    0.000002
     14          1           0       -4.937699    0.504098    0.000005
     15          1           0        4.828581   -0.039550    0.000001
     16         17           0        0.630575   -2.547956    0.000004
     17         17           0       -1.044032   -2.454738   -0.000005
     18         17           0        3.787089   -2.723666    0.000007
     19         17           0       -4.200545   -2.279028   -0.000004
     20         17           0        4.091427    2.743576   -0.000004
     21         17           0       -3.896207    3.188213    0.000005
     22         17           0        0.934914    2.919285   -0.000001
 ---------------------------------------------------------------------
 Rotational constants (GHZ):           0.2587199           0.1509156           0.0953161
 Standard basis: 6-311+G(d,p) (5D, 7F)
 There are   511 symmetry adapted cartesian basis functions of A   symmetry.
 There are   492 symmetry adapted basis functions of A   symmetry.
   492 basis functions,   827 primitive gaussians,   511 cartesian basis functions
    97 alpha electrons       97 beta electrons
       nuclear repulsion energy      2353.3381754782 Hartrees.
 NAtoms=   22 NActive=   22 NUniq=   22 SFac= 1.00D+00 NAtFMM=   60 NAOKFM=F Big=F
 Integral buffers will be    131072 words long.
 Raffenetti 2 integral format.
 Two-electron integral symmetry is turned on.
 One-electron integrals computed using PRISM.
 NBasis=   492 RedAO= T EigKep=  1.52D-06  NBF=   492
 NBsUse=   485 1.00D-06 EigRej=  9.51D-07 NBFU=   485
 ExpMin= 4.38D-02 ExpMax= 1.06D+05 ExpMxC= 3.62D+03 IAcc=3 IRadAn=         5 AccDes= 0.00D+00
 Harris functional with IExCor=  402 and IRadAn=       5 diagonalized for initial guess.
 HarFok:  IExCor=  402 AccDes= 0.00D+00 IRadAn=         5 IDoV= 1 UseB2=F ITyADJ=14
 ICtDFT=  3500011 ScaDFX=  1.000000  1.000000  1.000000  1.000000
 FoFCou: FMM=F IPFlag=           0 FMFlag=      100000 FMFlg1=           0
         NFxFlg=           0 DoJE=T BraDBF=F KetDBF=T FulRan=T
         wScrn=  0.000000 ICntrl=       500 IOpCl=  0 I1Cent=   200000004 NGrid=           0
         NMat0=    1 NMatS0=      1 NMatT0=    0 NMatD0=    1 NMtDS0=    0 NMtDT0=    0
 Petite list used in FoFCou.
 Requested convergence on RMS density matrix=1.00D-08 within  32 cycles.
 Requested convergence on MAX density matrix=1.00D-06.
 Requested convergence on             energy=1.00D-06.
 No special actions if energy rises.
 EnCoef did     4 forward-backward iterations
 EnCoef did     2 forward-backward iterations
 EnCoef did     2 forward-backward iterations
 Restarting incremental Fock formation.
 SCF Done:  E(RB3LYP) =  -3680.18781921     A.U. after   27 cycles
            NFock= 27  Conv=0.19D-08     -V/T= 2.0021
 QCSCF skips out because SCF is already converged.

 **********************************************************************

            Population analysis using the SCF Density.

 **********************************************************************

 Orbital symmetries:
       Occupied  (A) (A) (A) (A) (A) (A) (A) (A) (A) (A) (A) (A)
                 (A) (A) (A) (A) (A) (A) (A) (A) (A) (A) (A) (A)
                 (A) (A) (A) (A) (A) (A) (A) (A) (A) (A) (A) (A)
                 (A) (A) (A) (A) (A) (A) (A) (A) (A) (A) (A) (A)
                 (A) (A) (A) (A) (A) (A) (A) (A) (A) (A) (A) (A)
                 (A) (A) (A) (A) (A) (A) (A) (A) (A) (A) (A) (A)
                 (A) (A) (A) (A) (A) (A) (A) (A) (A) (A) (A) (A)
                 (A) (A) (A) (A) (A) (A) (A) (A) (A) (A) (A) (A)
                 (A)
       Virtual   (A) (A) (A) (A) (A) (A) (A) (A) (A) (A) (A) (A)
                 (A) (A) (A) (A) (A) (A) (A) (A) (A) (A) (A) (A)
                 (A) (A) (A) (A) (A) (A) (A) (A) (A) (A) (A) (A)
                 (A) (A) (A) (A) (A) (A) (A) (A) (A) (A) (A) (A)
                 (A) (A) (A) (A) (A) (A) (A) (A) (A) (A) (A) (A)
                 (A) (A) (A) (A) (A) (A) (A) (A) (A) (A) (A) (A)
                 (A) (A) (A) (A) (A) (A) (A) (A) (A) (A) (A) (A)
                 (A) (A) (A) (A) (A) (A) (A) (A) (A) (A) (A) (A)
                 (A) (A) (A) (A) (A) (A) (A) (A) (A) (A) (A) (A)
                 (A) (A) (A) (A) (A) (A) (A) (A) (A) (A) (A) (A)
                 (A) (A) (A) (A) (A) (A) (A) (A) (A) (A) (A) (A)
                 (A) (A) (A) (A) (A) (A) (A) (A) (A) (A) (A) (A)
                 (A) (A) (A) (A) (A) (A) (A) (A) (A) (A) (A) (A)
                 (A) (A) (A) (A) (A) (A) (A) (A) (A) (A) (A) (A)
                 (A) (A) (A) (A) (A) (A) (A) (A) (A) (A) (A) (A)
                 (A) (A) (A) (A) (A) (A) (A) (A) (A) (A) (A) (A)
                 (A) (A) (A) (A) (A) (A) (A) (A) (A) (A) (A) (A)
                 (A) (A) (A) (A) (A) (A) (A) (A) (A) (A) (A) (A)
                 (A) (A) (A) (A) (A) (A) (A) (A) (A) (A) (A) (A)
                 (A) (A) (A) (A) (A) (A) (A) (A) (A) (A) (A) (A)
                 (A) (A) (A) (A) (A) (A) (A) (A) (A) (A) (A) (A)
                 (A) (A) (A) (A) (A) (A) (A) (A) (A) (A) (A) (A)
                 (A) (A) (A) (A) (A) (A) (A) (A) (A) (A) (A) (A)
                 (A) (A) (A) (A) (A) (A) (A) (A) (A) (A) (A) (A)
                 (A) (A) (A) (A) (A) (A) (A) (A) (A) (A) (A) (A)
                 (A) (A) (A) (A) (A) (A) (A) (A) (A) (A) (A) (A)
                 (A) (A) (A) (A) (A) (A) (A) (A) (A) (A) (A) (A)
                 (A) (A) (A) (A) (A) (A) (A) (A) (A) (A) (A) (A)
                 (A) (A) (A) (A) (A) (A) (A) (A) (A) (A) (A) (A)
                 (A) (A) (A) (A) (A) (A) (A) (A) (A) (A) (A) (A)
                 (A) (A) (A) (A) (A) (A) (A) (A) (A) (A) (A) (A)
                 (A) (A) (A) (A) (A) (A) (A) (A) (A) (A) (A) (A)
                 (A) (A) (A) (A)
 The electronic state is 1-A.
 Alpha  occ. eigenvalues -- -101.63472-101.63041-101.57470-101.57297-101.57271
 Alpha  occ. eigenvalues -- -101.57243-101.57072 -10.28316 -10.27878 -10.27750
 Alpha  occ. eigenvalues --  -10.27483 -10.27432 -10.26802 -10.26524 -10.24384
 Alpha  occ. eigenvalues --  -10.23871 -10.22283 -10.22018 -10.20879  -9.56124
 Alpha  occ. eigenvalues --   -9.55757  -9.48951  -9.48766  -9.48724  -9.48668
 Alpha  occ. eigenvalues --   -9.48625  -7.32755  -7.32462  -7.31514  -7.31122
 Alpha  occ. eigenvalues --   -7.31078  -7.30686  -7.25423  -7.25222  -7.25213
 Alpha  occ. eigenvalues --   -7.25143  -7.25085  -7.24428  -7.24381  -7.24245
 Alpha  occ. eigenvalues --   -7.24208  -7.24207  -7.24150  -7.24145  -7.24108
 Alpha  occ. eigenvalues --   -7.24104  -7.24044  -1.12336  -0.94361  -0.93564
 Alpha  occ. eigenvalues --   -0.90824  -0.89611  -0.87556  -0.86929  -0.84952
 Alpha  occ. eigenvalues --   -0.83382  -0.78805  -0.76828  -0.75540  -0.73573
 Alpha  occ. eigenvalues --   -0.67204  -0.64860  -0.63170  -0.61111  -0.59199
 Alpha  occ. eigenvalues --   -0.55677  -0.53091  -0.52861  -0.51991  -0.51078
 Alpha  occ. eigenvalues --   -0.50100  -0.48112  -0.47042  -0.45629  -0.45115
 Alpha  occ. eigenvalues --   -0.44708  -0.43809  -0.43441  -0.42129  -0.41076
 Alpha  occ. eigenvalues --   -0.39737  -0.38544  -0.36731  -0.36619  -0.35823
 Alpha  occ. eigenvalues --   -0.34540  -0.34332  -0.33817  -0.33597  -0.33009
 Alpha  occ. eigenvalues --   -0.32477  -0.31736  -0.29152  -0.27574  -0.26894
 Alpha  occ. eigenvalues --   -0.25912  -0.13255
 Alpha virt. eigenvalues --   -0.09511  -0.07136  -0.06759  -0.05916  -0.05025
 Alpha virt. eigenvalues --   -0.03512  -0.01862  -0.01346  -0.00308   0.00624
 Alpha virt. eigenvalues --    0.00805   0.00875   0.01377   0.02305   0.02643
 Alpha virt. eigenvalues --    0.03519   0.03978   0.04309   0.04518   0.05172
 Alpha virt. eigenvalues --    0.05622   0.05874   0.06541   0.06674   0.07239
 Alpha virt. eigenvalues --    0.07491   0.07675   0.08020   0.08544   0.09352
 Alpha virt. eigenvalues --    0.09506   0.09912   0.09955   0.10050   0.10321
 Alpha virt. eigenvalues --    0.10683   0.10685   0.11405   0.12152   0.12422
 Alpha virt. eigenvalues --    0.12509   0.13081   0.13342   0.13648   0.13802
 Alpha virt. eigenvalues --    0.14390   0.14425   0.14940   0.15118   0.15189
 Alpha virt. eigenvalues --    0.15563   0.16127   0.17066   0.17094   0.17597
 Alpha virt. eigenvalues --    0.18211   0.18863   0.18867   0.19354   0.19787
 Alpha virt. eigenvalues --    0.19901   0.19912   0.20689   0.21563   0.22079
 Alpha virt. eigenvalues --    0.22231   0.22365   0.22645   0.23257   0.23951
 Alpha virt. eigenvalues --    0.24349   0.24623   0.25089   0.25459   0.25475
 Alpha virt. eigenvalues --    0.25915   0.26010   0.26492   0.26825   0.27476
 Alpha virt. eigenvalues --    0.27726   0.28425   0.28789   0.29324   0.29628
 Alpha virt. eigenvalues --    0.30508   0.31269   0.32018   0.32391   0.33796
 Alpha virt. eigenvalues --    0.34577   0.35000   0.35173   0.37359   0.39019
 Alpha virt. eigenvalues --    0.39730   0.40407   0.41342   0.41876   0.42808
 Alpha virt. eigenvalues --    0.42869   0.42902   0.43251   0.43359   0.43661
 Alpha virt. eigenvalues --    0.44963   0.45245   0.45335   0.45537   0.46380
 Alpha virt. eigenvalues --    0.47576   0.47911   0.48432   0.49125   0.49313
 Alpha virt. eigenvalues --    0.49390   0.50674   0.51669   0.52331   0.52480
 Alpha virt. eigenvalues --    0.52620   0.53957   0.54953   0.56679   0.57235
 Alpha virt. eigenvalues --    0.57733   0.58015   0.58484   0.58715   0.58893
 Alpha virt. eigenvalues --    0.59410   0.60470   0.60958   0.61049   0.61331
 Alpha virt. eigenvalues --    0.62355   0.63634   0.64074   0.65183   0.65295
 Alpha virt. eigenvalues --    0.65864   0.66976   0.69008   0.69723   0.69812
 Alpha virt. eigenvalues --    0.71765   0.75093   0.75911   0.76876   0.77052
 Alpha virt. eigenvalues --    0.79343   0.80693   0.81109   0.82141   0.82916
 Alpha virt. eigenvalues --    0.83410   0.83623   0.83844   0.84164   0.84480
 Alpha virt. eigenvalues --    0.84492   0.84937   0.85133   0.85323   0.86027
 Alpha virt. eigenvalues --    0.86420   0.86665   0.86938   0.87536   0.88121
 Alpha virt. eigenvalues --    0.88470   0.89258   0.89562   0.89784   0.90136
 Alpha virt. eigenvalues --    0.91471   0.92747   0.93800   0.93999   0.94197
 Alpha virt. eigenvalues --    0.94636   0.95006   0.95075   0.95437   0.95771
 Alpha virt. eigenvalues --    0.96250   0.96327   0.96387   0.98053   0.99554
 Alpha virt. eigenvalues --    1.00394   1.01990   1.02366   1.04303   1.04621
 Alpha virt. eigenvalues --    1.05904   1.06520   1.08176   1.08936   1.12165
 Alpha virt. eigenvalues --    1.14743   1.16407   1.17101   1.19015   1.19878
 Alpha virt. eigenvalues --    1.21899   1.22037   1.22960   1.24002   1.24108
 Alpha virt. eigenvalues --    1.25299   1.25521   1.26703   1.27164   1.28624
 Alpha virt. eigenvalues --    1.28986   1.29228   1.29366   1.30979   1.31351
 Alpha virt. eigenvalues --    1.33789   1.37427   1.38351   1.45982   1.47679
 Alpha virt. eigenvalues --    1.48553   1.49509   1.50923   1.55112   1.55866
 Alpha virt. eigenvalues --    1.58359   1.59005   1.59833   1.60313   1.61061
 Alpha virt. eigenvalues --    1.64742   1.67970   1.71173   1.73828   1.75542
 Alpha virt. eigenvalues --    1.76306   1.78292   1.78675   1.79062   1.83139
 Alpha virt. eigenvalues --    1.85195   1.85955   1.86014   1.86296   1.86788
 Alpha virt. eigenvalues --    1.87018   1.88592   1.93558   1.95054   1.95914
 Alpha virt. eigenvalues --    1.96930   2.01543   2.03914   2.05443   2.06758
 Alpha virt. eigenvalues --    2.09008   2.11816   2.14471   2.16571   2.18370
 Alpha virt. eigenvalues --    2.20027   2.23068   2.23618   2.23681   2.24690
 Alpha virt. eigenvalues --    2.25895   2.26461   2.27032   2.28717   2.29245
 Alpha virt. eigenvalues --    2.29491   2.31154   2.31364   2.33286   2.35682
 Alpha virt. eigenvalues --    2.38061   2.40837   2.42068   2.43018   2.44273
 Alpha virt. eigenvalues --    2.45749   2.52304   2.53117   2.54828   2.55039
 Alpha virt. eigenvalues --    2.56318   2.56872   2.58171   2.59240   2.60001
 Alpha virt. eigenvalues --    2.60995   2.61036   2.61929   2.65351   2.68562
 Alpha virt. eigenvalues --    2.72311   2.72699   2.73607   2.73611   2.74487
 Alpha virt. eigenvalues --    2.75198   2.76070   2.78015   2.80091   2.84364
 Alpha virt. eigenvalues --    2.85414   2.86115   2.88033   2.93141   3.04619
 Alpha virt. eigenvalues --    3.05899   3.06155   3.08252   3.09134   3.12872
 Alpha virt. eigenvalues --    3.15793   3.18432   3.21212   3.23464   3.27900
 Alpha virt. eigenvalues --    3.31246   3.33057   3.38367   3.43020   3.51781
 Alpha virt. eigenvalues --    3.60708   3.65256   3.72363   3.77308   3.79994
 Alpha virt. eigenvalues --    3.90863   3.98075   4.04936   4.12820   4.79689
 Alpha virt. eigenvalues --    4.80098   9.67749   9.76211   9.76436   9.78716
 Alpha virt. eigenvalues --    9.78971   9.85002   9.97595  23.28944  23.37680
 Alpha virt. eigenvalues --   23.78154  23.80867  23.83769  23.85609  23.92702
 Alpha virt. eigenvalues --   23.95071  23.97865  24.01551  24.04593  24.07826
 Alpha virt. eigenvalues --   25.73522  25.78079  25.79284  25.81297  25.83427
 Alpha virt. eigenvalues --   25.87816  25.97952  26.07561  26.10220  26.11713
 Alpha virt. eigenvalues --   26.20269  26.24540  26.32007  26.48470  26.58426
 Alpha virt. eigenvalues --   26.63142  26.67884  26.77046  26.91879  26.95398
 Alpha virt. eigenvalues --   27.02278 215.68523 215.75576 215.75921 215.78491
 Alpha virt. eigenvalues --  215.79417 215.85705 216.03920
          Condensed to atoms (all electrons):
               1          2          3          4          5          6
     1  C   28.478205  -0.546808  -7.135995   5.064110  -3.581259  -0.268503
     2  C   -0.546808  11.051971   1.244200  -6.742009   2.505333   1.471310
     3  C   -7.135995   1.244200  21.040345  -7.856317  -2.939092   3.574982
     4  C    5.064110  -6.742009  -7.856317  30.223837  -5.480760  -7.881823
     5  C   -3.581259   2.505333  -2.939092  -5.480760  16.571005  -1.265428
     6  C   -0.268503   1.471310   3.574982  -7.881823  -1.265428  21.207487
     7  C    5.279294  -1.364430  -2.834776   0.751262  -1.687340  -2.354672
     8  C   -1.670524  -0.816664   0.003141   0.837710  -0.330945  -0.831128
     9  C   -5.087552   0.126004   0.067530   0.332716  -0.318477  -0.403618
    10  C   -0.303230   0.720743   0.177616   0.042962  -0.044019  -0.024226
    11  C   -3.758217   0.009502  -0.132363   0.193872  -0.368197   0.646072
    12  C   -3.618989  -1.180680  -0.499363  -0.013994   0.864387  -5.980824
    13  H    0.051049   0.330315  -0.160975   0.031869   0.015682   0.013988
    14  H   -0.009560   0.038205   0.091407   0.123572   0.015181   0.061273
    15  H    0.000192  -0.000678  -0.000055   0.000033  -0.000034   0.001476
    16  Cl   5.640998   1.085884  -1.182966   2.246788  -3.530088  12.361041
    17  Cl -10.703839  -1.514860   2.872970  -3.219016   5.312149 -14.341466
    18  Cl   0.043785  -0.024897   0.004360   0.003476   0.018241  -0.087882
    19  Cl  -0.399262   0.271943  -0.280244  -1.428558  -0.039159   1.089768
    20  Cl  -0.078103  -0.040436  -0.006681   0.002172  -0.001496  -0.018057
    21  Cl  -0.596979   0.579214  -0.542146  -0.385206   0.069342   0.304888
    22  Cl   0.005777  -0.359136  -0.431874  -0.033640   0.042726  -0.092703
               7          8          9         10         11         12
     1  C    5.279294  -1.670524  -5.087552  -0.303230  -3.758217  -3.618989
     2  C   -1.364430  -0.816664   0.126004   0.720743   0.009502  -1.180680
     3  C   -2.834776   0.003141   0.067530   0.177616  -0.132363  -0.499363
     4  C    0.751262   0.837710   0.332716   0.042962   0.193872  -0.013994
     5  C   -1.687340  -0.330945  -0.318477  -0.044019  -0.368197   0.864387
     6  C   -2.354672  -0.831128  -0.403618  -0.024226   0.646072  -5.980824
     7  C   27.087942  -0.191131  -8.453132   4.920520  -6.018238  -0.073689
     8  C   -0.191131  12.676712  -0.677436  -5.272187   2.904747   1.614629
     9  C   -8.453132  -0.677436  24.051415  -6.067656  -4.694795   4.800014
    10  C    4.920520  -5.272187  -6.067656  21.565784  -1.675387  -5.966211
    11  C   -6.018238   2.904747  -4.694795  -1.675387  21.003567  -4.454059
    12  C   -0.073689   1.614629   4.800014  -5.966211  -4.454059  27.419667
    13  H    0.030054   0.046620  -0.013218  -0.008870  -0.000157   0.010164
    14  H    0.002437  -0.000451  -0.000057  -0.000007  -0.000027   0.001499
    15  H   -0.034928   0.023548   0.085731   0.186900  -0.045060   0.089776
    16  Cl -12.707613  -2.343304   3.866205  -0.729289   5.249537 -23.887331
    17  Cl   5.580026   1.010032  -1.503777   0.700990  -3.160407  17.002280
    18  Cl  -0.267230   0.271956  -0.479169  -0.879210  -0.083930   0.908067
    19  Cl   0.028236  -0.056676  -0.005177   0.002264  -0.011343  -0.034190
    20  Cl  -0.617964   0.713292  -0.146476  -0.767208  -0.299941   0.500814
    21  Cl  -0.171948  -0.024816  -0.014002   0.003829  -0.005567  -0.034755
    22  Cl  -0.108979  -1.168165   0.125845   0.305128   0.604121  -0.038580
              13         14         15         16         17         18
     1  C    0.051049  -0.009560   0.000192   5.640998 -10.703839   0.043785
     2  C    0.330315   0.038205  -0.000678   1.085884  -1.514860  -0.024897
     3  C   -0.160975   0.091407  -0.000055  -1.182966   2.872970   0.004360
     4  C    0.031869   0.123572   0.000033   2.246788  -3.219016   0.003476
     5  C    0.015682   0.015181  -0.000034  -3.530088   5.312149   0.018241
     6  C    0.013988   0.061273   0.001476  12.361041 -14.341466  -0.087882
     7  C    0.030054   0.002437  -0.034928 -12.707613   5.580026  -0.267230
     8  C    0.046620  -0.000451   0.023548  -2.343304   1.010032   0.271956
     9  C   -0.013218  -0.000057   0.085731   3.866205  -1.503777  -0.479169
    10  C   -0.008870  -0.000007   0.186900  -0.729289   0.700990  -0.879210
    11  C   -0.000157  -0.000027  -0.045060   5.249537  -3.160407  -0.083930
    12  C    0.010164   0.001499   0.089776 -23.887331  17.002280   0.908067
    13  H    0.561637  -0.000364   0.000000  -0.010521   0.016839   0.000042
    14  H   -0.000364   0.495264  -0.000000  -0.005296   0.021168   0.000000
    15  H    0.000000  -0.000000   0.499351   0.033463  -0.006559  -0.004824
    16  Cl  -0.010521  -0.005296   0.033463  86.932974 -56.443279  -0.451931
    17  Cl   0.016839   0.021168  -0.006559 -56.443279  74.328636  -0.292283
    18  Cl   0.000042   0.000000  -0.004824  -0.451931  -0.292283  17.858181
    19  Cl   0.001173  -0.001079  -0.000001  -0.576747   0.006943  -0.003473
    20  Cl   0.002129  -0.000000   0.005632   0.086693  -0.028762  -0.034067
    21  Cl  -0.022366  -0.001268  -0.000001  -0.014390   0.031980  -0.000035
    22  Cl  -0.049034   0.000083   0.000395  -0.014442  -0.013362   0.005973
              19         20         21         22
     1  C   -0.399262  -0.078103  -0.596979   0.005777
     2  C    0.271943  -0.040436   0.579214  -0.359136
     3  C   -0.280244  -0.006681  -0.542146  -0.431874
     4  C   -1.428558   0.002172  -0.385206  -0.033640
     5  C   -0.039159  -0.001496   0.069342   0.042726
     6  C    1.089768  -0.018057   0.304888  -0.092703
     7  C    0.028236  -0.617964  -0.171948  -0.108979
     8  C   -0.056676   0.713292  -0.024816  -1.168165
     9  C   -0.005177  -0.146476  -0.014002   0.125845
    10  C    0.002264  -0.767208   0.003829   0.305128
    11  C   -0.011343  -0.299941  -0.005567   0.604121
    12  C   -0.034190   0.500814  -0.034755  -0.038580
    13  H    0.001173   0.002129  -0.022366  -0.049034
    14  H   -0.001079  -0.000000  -0.001268   0.000083
    15  H   -0.000001   0.005632  -0.000001   0.000395
    16  Cl  -0.576747   0.086693  -0.014390  -0.014442
    17  Cl   0.006943  -0.028762   0.031980  -0.013362
    18  Cl  -0.003473  -0.034067  -0.000035   0.005973
    19  Cl  17.901575  -0.000008  -0.017809   0.000742
    20  Cl  -0.000008  17.440775  -0.000128  -0.231966
    21  Cl  -0.017809  -0.000128  17.447065  -0.027339
    22  Cl   0.000742  -0.231966  -0.027339  17.821128
 Mulliken charges:
               1
     1  C   -0.804589
     2  C   -0.844027
     3  C    0.926293
     4  C   -0.813056
     5  C    0.172248
     6  C   -1.181953
     7  C   -0.793703
     8  C   -0.718960
     9  C    0.409081
    10  C   -0.889237
    11  C    0.096269
    12  C   -1.428633
    13  H    0.153943
    14  H    0.168020
    15  H    0.165642
    16  Cl   1.393614
    17  Cl   1.343595
    18  Cl   0.494847
    19  Cl   0.551079
    20  Cl   0.519787
    21  Cl   0.422438
    22  Cl   0.657301
 Sum of Mulliken charges =  -0.00000
 Mulliken charges with hydrogens summed into heavy atoms:
               1
     1  C   -0.804589
     2  C   -0.690084
     3  C    0.926293
     4  C   -0.645036
     5  C    0.172248
     6  C   -1.181953
     7  C   -0.793703
     8  C   -0.718960
     9  C    0.409081
    10  C   -0.723594
    11  C    0.096269
    12  C   -1.428633
    16  Cl   1.393614
    17  Cl   1.343595
    18  Cl   0.494847
    19  Cl   0.551079
    20  Cl   0.519787
    21  Cl   0.422438
    22  Cl   0.657301
 Electronic spatial extent (au):  <R**2>=           9717.5897
 Charge=             -0.0000 electrons
 Dipole moment (field-independent basis, Debye):
    X=             -0.2599    Y=             -2.0130    Z=              0.0000  Tot=              2.0298
 Quadrupole moment (field-independent basis, Debye-Ang):
   XX=           -160.9540   YY=           -159.0353   ZZ=           -159.0675
   XY=             -0.3682   XZ=             -0.0000   YZ=              0.0000
 Traceless Quadrupole moment (field-independent basis, Debye-Ang):
   XX=             -1.2684   YY=              0.6503   ZZ=              0.6181
   XY=             -0.3682   XZ=             -0.0000   YZ=              0.0000
 Octapole moment (field-independent basis, Debye-Ang**2):
  XXX=              6.2697  YYY=            -28.3808  ZZZ=              0.0000  XYY=             -6.1148
  XXY=              6.6891  XXZ=              0.0001  XZZ=              0.8341  YZZ=             -6.8474
  YYZ=              0.0000  XYZ=              0.0001
 Hexadecapole moment (field-independent basis, Debye-Ang**3):
 XXXX=          -7998.2996 YYYY=          -4405.5238 ZZZZ=           -185.7123 XXXY=              6.5265
 XXXZ=              0.0000 YYYX=             24.2857 YYYZ=              0.0001 ZZZX=              0.0001
 ZZZY=              0.0000 XXYY=          -2198.9442 XXZZ=          -1423.4275 YYZZ=           -795.3205
 XXYZ=             -0.0000 YYXZ=             -0.0001 ZZXY=              6.6327
 N-N= 2.353338175478D+03 E-N=-1.342717924488D+04  KE= 3.672581209877D+03
 Calling FoFJK, ICntrl=      2127 FMM=F ISym2X=0 I1Cent= 0 IOpClX= 0 NMat=1 NMatS=1 NMatT=0.
 ***** Axes restored to original set *****
 -------------------------------------------------------------------
 Center     Atomic                   Forces (Hartrees/Bohr)
 Number     Number              X              Y              Z
 -------------------------------------------------------------------
      1        6          -0.014412331   -0.004925667    0.003823403
      2        6          -0.007000168    0.014126077    0.004959306
      3        6          -0.016578117    0.002977832    0.006021069
      4        6          -0.001856752   -0.006225457   -0.000557665
      5        6          -0.002003788   -0.013590850   -0.001892125
      6        6           0.058341957    0.001974215   -0.018850226
      7        6          -0.010742265    0.014183830    0.006202751
      8        6          -0.011113754    0.017476081    0.006943806
      9        6          -0.003955715    0.002843654    0.001837289
     10        6           0.002608205    0.008577700    0.000751684
     11        6           0.020879810    0.006912459   -0.005580831
     12        6           0.033095113   -0.093042488   -0.028377650
     13        1           0.002874966    0.005244719    0.000037780
     14        1           0.004021405    0.008100302    0.000196406
     15        1          -0.003656934   -0.009140590   -0.000511863
     16       17          -0.271971038   -0.413743538    0.011901505
     17       17           0.232194055    0.479192654    0.013495059
     18       17          -0.005750170   -0.008391665    0.000318354
     19       17           0.006712819    0.007043940   -0.000888627
     20       17          -0.005952513    0.001142575    0.002175649
     21       17          -0.004012634    0.000572088    0.001429461
     22       17          -0.001722151   -0.021307871   -0.003434535
 -------------------------------------------------------------------
 Cartesian Forces:  Max     0.479192654 RMS     0.091021819

 GradGradGradGradGradGradGradGradGradGradGradGradGradGradGradGradGradGrad
 Berny optimization.
 FormGI is forming the generalized inverse of G from B-inverse, IUseBI=4.
 Internal  Forces:  Max     0.557192624 RMS     0.059121466
 Search for a local minimum.
 Step number   1 out of a maximum of  112
 All quantities printed in internal units (Hartrees-Bohrs-Radians)
 Mixed Optimization -- RFO/linear search
 Second derivative matrix not updated -- first step.
 ITU=  0
     Eigenvalues ---    0.00238   0.00238   0.01655   0.01655   0.02070
     Eigenvalues ---    0.02070   0.02070   0.02070   0.02070   0.02070
     Eigenvalues ---    0.02070   0.02070   0.02070   0.02070   0.02070
     Eigenvalues ---    0.02070   0.02070   0.02070   0.04244   0.16000
     Eigenvalues ---    0.16000   0.16000   0.23315   0.23454   0.23491
     Eigenvalues ---    0.25000   0.25000   0.25000   0.25000   0.25000
     Eigenvalues ---    0.25000   0.25000   0.25000   0.25000   0.25000
     Eigenvalues ---    0.25000   0.25000   0.29539   0.29539   0.29539
     Eigenvalues ---    0.29539   0.29539   0.29539   0.29539   0.37230
     Eigenvalues ---    0.37230   0.37230   0.41669   0.41797   0.42042
     Eigenvalues ---    0.42057   0.45389   0.45389   0.45389   0.45389
     Eigenvalues ---    0.45389   0.45389   0.45389   0.45389   1.29765
 RFO step:  Lambda=-2.80945061D-01 EMin= 2.37799080D-03
 Linear search not attempted -- first point.
 Maximum step size (   0.300) exceeded in Quadratic search.
    -- Step size scaled by   0.567
 Iteration  1 RMS(Cart)=  0.37862190 RMS(Int)=  0.01101660
 Iteration  2 RMS(Cart)=  0.07956607 RMS(Int)=  0.00054329
 Iteration  3 RMS(Cart)=  0.00131531 RMS(Int)=  0.00001419
 Iteration  4 RMS(Cart)=  0.00000021 RMS(Int)=  0.00001419
 Variable       Old X    -DE/DX   Delta X   Delta X   Delta X     New X
                                 (Linear)    (Quad)   (Total)
    R1        2.64826  -0.00617   0.00000  -0.00477  -0.00476   2.64350
    R2        2.64826  -0.01701   0.00000  -0.01305  -0.01304   2.63523
    R3        2.64826  -0.00722   0.00000  -0.00566  -0.00566   2.64260
    R4        2.02201  -0.00315   0.00000  -0.00273  -0.00273   2.01928
    R5        2.64826  -0.02053   0.00000  -0.01594  -0.01595   2.63231
    R6        3.32592  -0.00425   0.00000  -0.00418  -0.00418   3.32174
    R7        2.64826  -0.01848   0.00000  -0.01427  -0.01427   2.63399
    R8        2.02201   0.00902   0.00000   0.00784   0.00784   2.02984
    R9        2.64826  -0.00070   0.00000  -0.00045  -0.00045   2.64781
   R10        3.32592   0.00267   0.00000   0.00263   0.00263   3.32854
   R11        3.32592   0.02689   0.00000   0.02648   0.02648   3.35240
   R12        2.64826   0.01168   0.00000   0.00949   0.00950   2.65777
   R13        2.64826  -0.00844   0.00000  -0.00617  -0.00614   2.64212
   R14        2.64826  -0.00151   0.00000  -0.00104  -0.00106   2.64720
   R15        3.32592  -0.00103   0.00000  -0.00101  -0.00101   3.32490
   R16        2.64826  -0.02733   0.00000  -0.02145  -0.02148   2.62678
   R17        3.32592  -0.00428   0.00000  -0.00421  -0.00421   3.32171
   R18        2.64826  -0.02430   0.00000  -0.01924  -0.01925   2.62901
   R19        2.02201   0.00973   0.00000   0.00845   0.00845   2.03046
   R20        2.64826  -0.00228   0.00000  -0.00188  -0.00187   2.64640
   R21        3.32592   0.00574   0.00000   0.00565   0.00565   3.33157
   R22        3.32592   0.08007   0.00000   0.07882   0.07882   3.40474
   R23        3.16945   0.55719   0.00000   0.20027   0.20027   3.36972
    A1        2.09440  -0.02316   0.00000  -0.02454  -0.02451   2.06988
    A2        2.09440   0.00936   0.00000   0.01049   0.01049   2.10488
    A3        2.09440   0.00046   0.00000   0.00138   0.00137   2.09577
    A4        2.09440  -0.00983   0.00000  -0.01186  -0.01186   2.08253
    A5        2.09440   0.00847   0.00000   0.00881   0.00880   2.10319
    A6        2.09440  -0.00311   0.00000  -0.00321  -0.00320   2.09119
    A7        2.09440  -0.00535   0.00000  -0.00560  -0.00560   2.08880
    A8        2.09440  -0.01158   0.00000  -0.01323  -0.01325   2.08114
    A9        2.09440   0.00646   0.00000   0.00748   0.00749   2.10189
   A10        2.09440   0.00512   0.00000   0.00575   0.00576   2.10016
   A11        2.09440   0.00250   0.00000   0.00281   0.00281   2.09720
   A12        2.09440  -0.01688   0.00000  -0.01811  -0.01811   2.07629
   A13        2.09440   0.01438   0.00000   0.01530   0.01530   2.10969
   A14        2.09440   0.01440   0.00000   0.01566   0.01567   2.11007
   A15        2.09440  -0.00114   0.00000  -0.00136  -0.00136   2.09303
   A16        2.09440  -0.01326   0.00000  -0.01430  -0.01431   2.08009
   A17        2.09440  -0.02810   0.00000  -0.02826  -0.02820   2.06619
   A18        2.09440   0.01025   0.00000   0.01181   0.01180   2.10620
   A19        2.09440   0.03084   0.00000   0.03253   0.03253   2.12693
   A20        2.09440  -0.04109   0.00000  -0.04434  -0.04434   2.05006
   A21        2.09440   0.00694   0.00000   0.00712   0.00707   2.10147
   A22        2.09440   0.00453   0.00000   0.00499   0.00502   2.09941
   A23        2.09440  -0.01147   0.00000  -0.01212  -0.01209   2.08231
   A24        2.09440  -0.01033   0.00000  -0.01290  -0.01295   2.08144
   A25        2.09440   0.00359   0.00000   0.00442   0.00444   2.09884
   A26        2.09440   0.00675   0.00000   0.00848   0.00851   2.10290
   A27        2.09440   0.01245   0.00000   0.01249   0.01249   2.10688
   A28        2.09440  -0.02020   0.00000  -0.02118  -0.02118   2.07322
   A29        2.09440   0.00775   0.00000   0.00869   0.00869   2.10308
   A30        2.09440   0.00880   0.00000   0.00974   0.00979   2.10418
   A31        2.09440   0.02860   0.00000   0.03039   0.03037   2.12477
   A32        2.09440  -0.03740   0.00000  -0.04014  -0.04016   2.05424
   A33        2.09440   0.15300   0.00000   0.16350   0.16350   2.25789
   A34        2.09440   0.06188   0.00000   0.06612   0.06612   2.16052
    D1        0.00000   0.00000   0.00000   0.00000   0.00000   0.00000
    D2        3.14159   0.00000   0.00000   0.00000   0.00000   3.14159
    D3       -0.00000  -0.00000   0.00000  -0.00000  -0.00000  -0.00000
    D4        3.14159   0.00000   0.00000   0.00000   0.00000   3.14159
    D5        0.00000   0.00000   0.00000   0.00000   0.00000   0.00000
    D6        3.14159  -0.00000   0.00000  -0.00000  -0.00000   3.14159
    D7       -3.14159  -0.00000   0.00000  -0.00000  -0.00000  -3.14159
    D8        0.00000  -0.00000   0.00000  -0.00000  -0.00000   0.00000
    D9       -0.00000   0.00000   0.00000   0.00000   0.00000  -0.00000
   D10        3.14159  -0.00000   0.00000  -0.00000  -0.00000   3.14159
   D11        3.14159   0.00000   0.00000   0.00000   0.00000   3.14159
   D12        0.00000   0.00000   0.00000   0.00000   0.00000   0.00000
   D13        0.00000  -0.00000   0.00000  -0.00000  -0.00000   0.00000
   D14       -3.14159  -0.00000   0.00000  -0.00000  -0.00000  -3.14159
   D15       -3.14159  -0.00000   0.00000  -0.00000  -0.00000  -3.14159
   D16        0.00000  -0.00000   0.00000  -0.00000  -0.00000   0.00000
   D17       -0.00000   0.00000   0.00000   0.00000   0.00000  -0.00000
   D18        3.14159  -0.00000   0.00000  -0.00000  -0.00000   3.14159
   D19        3.14159   0.00000   0.00000   0.00000   0.00000   3.14159
   D20       -0.00000  -0.00000   0.00000  -0.00000  -0.00000  -0.00000
   D21        0.00001  -0.00000   0.00000  -0.00000  -0.00000   0.00001
   D22       -3.14159  -0.00000   0.00000  -0.00000  -0.00000  -3.14159
   D23        0.00000   0.00000   0.00000   0.00000   0.00000   0.00000
   D24       -3.14159  -0.00000   0.00000  -0.00000  -0.00000  -3.14159
   D25       -0.00000  -0.00000   0.00000  -0.00000  -0.00000  -0.00000
   D26        3.14159   0.00000   0.00000   0.00000   0.00000   3.14159
   D27       -0.00000  -0.00000   0.00000  -0.00000  -0.00000  -0.00000
   D28        3.14159  -0.00000   0.00000  -0.00000  -0.00000   3.14159
   D29        3.14159   0.00000   0.00000   0.00000   0.00000   3.14159
   D30       -0.00000   0.00000   0.00000   0.00000   0.00000  -0.00000
   D31       -0.00000   0.00000   0.00000   0.00000   0.00000  -0.00000
   D32       -3.14159  -0.00000   0.00000  -0.00000  -0.00000  -3.14159
   D33        3.14159   0.00000   0.00000   0.00000   0.00000   3.14159
   D34        0.00000   0.00000   0.00000   0.00000   0.00000   0.00000
   D35        0.00000  -0.00000   0.00000  -0.00000  -0.00000  -0.00000
   D36       -3.14159  -0.00000   0.00000  -0.00000  -0.00000  -3.14159
   D37        3.14159   0.00000   0.00000   0.00000   0.00000   3.14159
   D38        0.00000  -0.00000   0.00000  -0.00000  -0.00000   0.00000
   D39        0.00000   0.00000   0.00000   0.00000   0.00000   0.00000
   D40       -3.14159  -0.00000   0.00000  -0.00000  -0.00000  -3.14159
   D41        3.14159   0.00000   0.00000   0.00000   0.00000   3.14159
   D42       -0.00000  -0.00000   0.00000  -0.00000  -0.00000  -0.00000
   D43        0.00001  -0.00000   0.00000  -0.00000  -0.00000   0.00001
   D44       -3.14159   0.00000   0.00000   0.00000   0.00000  -3.14159
   D45       -0.00001  -0.00000   0.00000  -0.00000  -0.00000  -0.00001
         Item               Value     Threshold  Converged?
 Maximum Force            0.557193     0.000450     NO 
 RMS     Force            0.059121     0.000300     NO 
 Maximum Displacement     1.785897     0.001800     NO 
 RMS     Displacement     0.454612     0.001200     NO 
 Predicted change in Energy=-1.268254D-01
 GradGradGradGradGradGradGradGradGradGradGradGradGradGradGradGradGradGrad

                          Input orientation:                          
 ---------------------------------------------------------------------
 Center     Atomic      Atomic             Coordinates (Angstroms)
 Number     Number       Type             X           Y           Z
 ---------------------------------------------------------------------
      1          6           0        0.153424    1.818047    0.100781
      2          6           0        1.477151    2.039273   -0.293778
      3          6           0        2.032405    3.321409   -0.235913
      4          6           0        1.275551    4.399964    0.215997
      5          6           0       -0.044214    4.187709    0.610933
      6          6           0       -0.598567    2.902214    0.552141
      7          6           0       -1.172428   -0.695773    0.065464
      8          6           0       -0.756857   -1.984839   -0.313548
      9          6           0       -1.635215   -3.072774   -0.228488
     10          6           0       -2.934121   -2.893851    0.233053
     11          6           0       -3.352642   -1.621714    0.609858
     12          6           0       -2.481192   -0.528537    0.528059
     13          1           0        2.074857    1.225497   -0.643527
     14          1           0        1.703266    5.384300    0.259952
     15          1           0       -3.605816   -3.730027    0.297309
     16         17           0       -3.108025    1.082101    1.037070
     17         17           0       -2.280857    2.661639    1.061195
     18         17           0       -5.002592   -1.408944    1.193415
     19         17           0       -0.994565    5.556720    1.181138
     20         17           0       -1.105055   -4.679542   -0.704921
     21         17           0        3.697967    3.575987   -0.736826
     22         17           0        0.868938   -2.299256   -0.908228
 ---------------------------------------------------------------------
                    Distance matrix (angstroms):
                    1          2          3          4          5
     1  C    0.000000
     2  C    1.398881   0.000000
     3  C    2.429821   1.398402   0.000000
     4  C    2.817576   2.423504   1.392958   0.000000
     5  C    2.431997   2.783672   2.404157   1.393847   0.000000
     6  C    1.394502   2.401843   2.778267   2.422512   1.401163
     7  C    2.842257   3.824892   5.147770   5.655245   5.041705
     8  C    3.932204   4.602680   5.995189   6.721370   6.281948
     9  C    5.218025   5.985325   7.371369   8.031933   7.480008
    10  C    5.634928   6.638718   7.969678   8.421483   7.657861
    11  C    4.937978   6.127502   7.358569   7.604992   6.685439
    12  C    3.553903   4.789315   5.981496   6.204887   5.309303
    13  H    2.144065   1.068554   2.135602   3.384510   3.852120
    14  H    3.891723   3.398081   2.147029   1.074146   2.146790
    15  H    6.704599   7.711729   9.044149   9.483202   8.687572
    16  Cl   3.472075   4.869411   5.749696   5.558607   4.383300
    17  Cl   2.749504   4.043008   4.552145   4.047737   2.744849
    18  Cl   6.179953   7.489259   8.597116   8.608939   7.499820
    19  Cl   4.057429   4.545018   4.020845   2.724520   1.761389
    20  Cl   6.667203   7.209667   8.606907   9.431479   9.026904
    21  Cl   4.044221   2.736751   1.757788   2.730368   4.024249
    22  Cl   4.299098   4.423834   5.779061   6.805054   6.724761
                    6          7          8          9         10
     6  C    0.000000
     7  C    3.675824   0.000000
     8  C    4.965659   1.406429   0.000000
     9  C    6.114287   2.439409   1.400839   0.000000
    10  C    6.257076   2.821914   2.421891   1.390033   0.000000
    11  C    5.296621   2.430446   2.778964   2.399574   1.391213
    12  C    3.913427   1.398150   2.408827   2.785890   2.426290
    13  H    3.374640   3.839116   4.293455   5.693157   6.544256
    14  H    3.397729   6.728650   7.790079   9.105281   9.488618
    15  H    7.286640   3.896387   3.396380   2.142829   1.074474
    16  Cl   3.137730   2.802033   4.093688   4.586262   4.060158
    17  Cl   1.774011   3.673188   5.079592   5.913005   5.654736
    18  Cl   6.196189   4.055988   4.541900   4.016138   2.721363
    19  Cl   2.756602   6.353742   7.691925   8.767306   8.721978
    20  Cl   7.701933   4.058134   2.745148   1.757772   2.722861
    21  Cl   4.536034   6.527814   7.137746   8.538575   9.315797
    22  Cl   5.598352   2.772438   1.759464   2.707611   4.014888
                   11         12         13         14         15
    11  C    0.000000
    12  C    1.400412   0.000000
    13  H    6.255825   5.020641   0.000000
    14  H    8.646900   7.248670   4.272001   0.000000
    15  H    2.146338   3.401113   7.596871  10.547925   0.000000
    16  Cl   2.748266   1.801712   5.450434   6.500873   4.894039
    17  Cl   4.438417   3.240616   4.892937   4.891638   6.572095
    18  Cl   1.762992   2.752321   7.772060   9.591040   2.853316
    19  Cl   7.577388   6.298168   5.613399   2.855977   9.687284
    20  Cl   4.016293   4.543659   6.707093  10.492787   2.856546
    21  Cl   8.862322   7.525228   2.857970   2.870957  10.382319
    22  Cl   4.537113   4.052374   3.734728   7.816507   4.850140
                   16         17         18         19         20
    16  Cl   0.000000
    17  Cl   1.783179   0.000000
    18  Cl   3.133550   4.898465   0.000000
    19  Cl   4.950726   3.170241   8.036473   0.000000
    20  Cl   6.343734   7.641637   5.430588  10.409154   0.000000
    21  Cl   7.462419   6.309933  10.211518   5.442586   9.551115
    22  Cl   5.570816   6.197606   6.299557   8.339932   3.098991
                   21         22
    21  Cl   0.000000
    22  Cl   6.523133   0.000000
 Stoichiometry    C12H3Cl7
 Framework group  C1[X(C12H3Cl7)]
 Deg. of freedom    60
 Full point group                 C1      NOp   1
 Largest Abelian subgroup         C1      NOp   1
 Largest concise Abelian subgroup C1      NOp   1
                         Standard orientation:                         
 ---------------------------------------------------------------------
 Center     Atomic      Atomic             Coordinates (Angstroms)
 Number     Number       Type             X           Y           Z
 ---------------------------------------------------------------------
      1          6           0       -1.513826    0.537662    0.000002
      2          6           0       -2.258604    1.721796    0.000005
      3          6           0       -3.656483    1.683546    0.000005
      4          6           0       -4.330452    0.464491    0.000003
      5          6           0       -3.595486   -0.719837   -0.000003
      6          6           0       -2.194912   -0.679202   -0.000002
      7          6           0        1.324200    0.382650   -0.000005
      8          6           0        2.330261    1.365445   -0.000005
      9          6           0        3.683406    1.003025   -0.000003
     10          6           0        4.052801   -0.337027    0.000001
     11          6           0        3.063402   -1.315067    0.000003
     12          6           0        1.708305   -0.961704    0.000000
     13          1           0       -1.761022    2.667429    0.000010
     14          1           0       -5.404234    0.436510    0.000003
     15          1           0        5.091420   -0.612280    0.000005
     16         17           0        0.495397   -2.294003    0.000003
     17         17           0       -1.285424   -2.202339   -0.000007
     18         17           0        3.545872   -3.010757    0.000012
     19         17           0       -4.455191   -2.257172   -0.000010
     20         17           0        4.932428    2.239838   -0.000004
     21         17           0       -4.571890    3.184163    0.000010
     22         17           0        1.950466    3.083428   -0.000006
 ---------------------------------------------------------------------
 Rotational constants (GHZ):           0.2694401           0.1187883           0.0824420
 Standard basis: 6-311+G(d,p) (5D, 7F)
 There are   511 symmetry adapted cartesian basis functions of A   symmetry.
 There are   492 symmetry adapted basis functions of A   symmetry.
   492 basis functions,   827 primitive gaussians,   511 cartesian basis functions
    97 alpha electrons       97 beta electrons
       nuclear repulsion energy      2257.2083574436 Hartrees.
 NAtoms=   22 NActive=   22 NUniq=   22 SFac= 1.00D+00 NAtFMM=   60 NAOKFM=F Big=F
 Integral buffers will be    131072 words long.
 Raffenetti 2 integral format.
 Two-electron integral symmetry is turned on.
 One-electron integrals computed using PRISM.
 NBasis=   492 RedAO= T EigKep=  1.10D-06  NBF=   492
 NBsUse=   487 1.00D-06 EigRej=  6.34D-07 NBFU=   487
 Initial guess from the checkpoint file:  "./Gau-398089.chk"
 B after Tr=    -0.000000   -0.000000   -0.000000
         Rot=    0.999556   -0.000000    0.000000    0.029810 Ang=  -3.42 deg.
 ExpMin= 4.38D-02 ExpMax= 1.06D+05 ExpMxC= 3.62D+03 IAcc=3 IRadAn=         5 AccDes= 0.00D+00
 Harris functional with IExCor=  402 and IRadAn=       5 diagonalized for initial guess.
 HarFok:  IExCor=  402 AccDes= 0.00D+00 IRadAn=         5 IDoV= 1 UseB2=F ITyADJ=14
 ICtDFT=  3500011 ScaDFX=  1.000000  1.000000  1.000000  1.000000
 FoFCou: FMM=F IPFlag=           0 FMFlag=      100000 FMFlg1=           0
         NFxFlg=           0 DoJE=T BraDBF=F KetDBF=T FulRan=T
         wScrn=  0.000000 ICntrl=       500 IOpCl=  0 I1Cent=   200000004 NGrid=           0
         NMat0=    1 NMatS0=      1 NMatT0=    0 NMatD0=    1 NMtDS0=    0 NMtDT0=    0
 Petite list used in FoFCou.
 Requested convergence on RMS density matrix=1.00D-08 within  32 cycles.
 Requested convergence on MAX density matrix=1.00D-06.
 Requested convergence on             energy=1.00D-06.
 No special actions if energy rises.
 Restarting incremental Fock formation.
 SCF Done:  E(RB3LYP) =  -3680.27685980     A.U. after   22 cycles
            NFock= 22  Conv=0.45D-08     -V/T= 2.0023
 QCSCF skips out because SCF is already converged.
 Calling FoFJK, ICntrl=      2127 FMM=F ISym2X=0 I1Cent= 0 IOpClX= 0 NMat=1 NMatS=1 NMatT=0.
 ***** Axes restored to original set *****
 -------------------------------------------------------------------
 Center     Atomic                   Forces (Hartrees/Bohr)
 Number     Number              X              Y              Z
 -------------------------------------------------------------------
      1        6          -0.008129655    0.022956798    0.006989743
      2        6          -0.012304861   -0.001305203    0.003808801
      3        6          -0.007245085   -0.002640278    0.001891193
      4        6          -0.000972841   -0.004319209   -0.000490900
      5        6          -0.009265412   -0.004039285    0.002294060
      6        6           0.056688655   -0.022157522   -0.022837381
      7        6          -0.042355389   -0.010693191    0.011946180
      8        6           0.000811743    0.021457680    0.003762694
      9        6           0.000896854   -0.001332328   -0.000545783
     10        6           0.002097992    0.004076954    0.000074536
     11        6           0.001230033    0.010172749    0.001505343
     12        6           0.055489271   -0.070486898   -0.031519826
     13        1           0.006030796   -0.008649175   -0.003611314
     14        1           0.000547991    0.005063352    0.000770380
     15        1          -0.003320500   -0.003292777    0.000475528
     16       17          -0.137509827   -0.243627905   -0.000449587
     17       17           0.105811843    0.298165016    0.021135098
     18       17          -0.004348437   -0.004042204    0.000673412
     19       17           0.002259494    0.004655164    0.000129913
     20       17          -0.006020465    0.001444894    0.002254860
     21       17          -0.002569356    0.000310107    0.000904737
     22       17           0.002177157    0.008283261    0.000838313
 -------------------------------------------------------------------
 Cartesian Forces:  Max     0.298165016 RMS     0.054507946

 GradGradGradGradGradGradGradGradGradGradGradGradGradGradGradGradGradGrad
 Berny optimization.
 Using GEDIIS/GDIIS optimizer.
 FormGI is forming the generalized inverse of G from B-inverse, IUseBI=4.
 Internal  Forces:  Max     0.315992157 RMS     0.033733314
 Search for a local minimum.
 Step number   2 out of a maximum of  112
 All quantities printed in internal units (Hartrees-Bohrs-Radians)
 Mixed Optimization -- RFO/linear search
 Update second derivatives using D2CorX and points    1    2
 DE= -8.90D-02 DEPred=-1.27D-01 R= 7.02D-01
 TightC=F SS=  1.41D+00  RLast= 3.00D-01 DXNew= 5.0454D-01 9.0000D-01
 Trust test= 7.02D-01 RLast= 3.00D-01 DXMaxT set to 5.05D-01
 ITU=  1  0
 Use linear search instead of GDIIS.
     Eigenvalues ---    0.00238   0.00238   0.01655   0.01662   0.02070
     Eigenvalues ---    0.02070   0.02070   0.02070   0.02070   0.02070
     Eigenvalues ---    0.02070   0.02070   0.02070   0.02070   0.02070
     Eigenvalues ---    0.02070   0.02070   0.02070   0.04244   0.15998
     Eigenvalues ---    0.16000   0.16007   0.22801   0.23367   0.23491
     Eigenvalues ---    0.23547   0.25000   0.25000   0.25000   0.25000
     Eigenvalues ---    0.25000   0.25000   0.25000   0.25000   0.25000
     Eigenvalues ---    0.25000   0.27985   0.29525   0.29539   0.29539
     Eigenvalues ---    0.29539   0.29539   0.29539   0.37094   0.37155
     Eigenvalues ---    0.37230   0.39506   0.41435   0.41588   0.42083
     Eigenvalues ---    0.43035   0.45278   0.45389   0.45389   0.45389
     Eigenvalues ---    0.45389   0.45389   0.45389   0.49644   1.32087
 RFO step:  Lambda=-2.13711515D-01 EMin= 2.37799080D-03
 Quartic linear search produced a step of  1.22299.
 Maximum step size (   0.505) exceeded in Quadratic search.
    -- Step size scaled by   0.799
 Iteration  1 RMS(Cart)=  0.15806607 RMS(Int)=  0.02974634
 Iteration  2 RMS(Cart)=  0.05045761 RMS(Int)=  0.00907240
 Iteration  3 RMS(Cart)=  0.02113688 RMS(Int)=  0.00014844
 Iteration  4 RMS(Cart)=  0.00000588 RMS(Int)=  0.00014844
 Iteration  5 RMS(Cart)=  0.00000000 RMS(Int)=  0.00014844
 Variable       Old X    -DE/DX   Delta X   Delta X   Delta X     New X
                                 (Linear)    (Quad)   (Total)
    R1        2.64350  -0.01425  -0.00582  -0.03604  -0.04194   2.60156
    R2        2.63523  -0.02533  -0.01594  -0.06330  -0.07911   2.55611
    R3        2.64260  -0.00151  -0.00693  -0.00179  -0.00891   2.63369
    R4        2.01928   0.01114  -0.00334   0.03293   0.02959   2.04887
    R5        2.63231   0.00072  -0.01951   0.00695  -0.01268   2.61962
    R6        3.32174  -0.00265  -0.00511  -0.00840  -0.01351   3.30823
    R7        2.63399  -0.00411  -0.01746  -0.00657  -0.02395   2.61004
    R8        2.02984   0.00489   0.00958   0.01286   0.02244   2.05229
    R9        2.64781  -0.00598  -0.00055  -0.01598  -0.01634   2.63148
   R10        3.32854   0.00244   0.00321   0.00788   0.01110   3.33964
   R11        3.35240   0.02529   0.03238   0.08177   0.11415   3.46655
   R12        2.65777  -0.02794   0.01162  -0.07517  -0.06362   2.59414
   R13        2.64212  -0.05205  -0.00751  -0.13470  -0.14198   2.50014
   R14        2.64720   0.00696  -0.00130   0.01946   0.01786   2.66506
   R15        3.32490   0.00025  -0.00124   0.00095  -0.00029   3.32461
   R16        2.62678   0.00204  -0.02627   0.01312  -0.01338   2.61340
   R17        3.32171  -0.00375  -0.00515  -0.01209  -0.01724   3.30447
   R18        2.62901  -0.00297  -0.02354  -0.00163  -0.02508   2.60393
   R19        2.03046   0.00467   0.01034   0.01210   0.02244   2.05290
   R20        2.64640  -0.00627  -0.00228  -0.01700  -0.01898   2.62742
   R21        3.33157   0.00381   0.00692   0.01211   0.01903   3.35060
   R22        3.40474   0.04499   0.09640   0.14187   0.23828   3.64302
   R23        3.36972   0.31599   0.24493   0.27082   0.51575   3.88547
    A1        2.06988   0.00543  -0.02998   0.01771  -0.01221   2.05768
    A2        2.10488  -0.00856   0.01283  -0.03323  -0.02068   2.08421
    A3        2.09577   0.00402   0.00168   0.01580   0.01761   2.11338
    A4        2.08253   0.00455  -0.01451   0.01744   0.00306   2.08559
    A5        2.10319   0.00416   0.01076   0.01867   0.02912   2.13231
    A6        2.09119  -0.00090  -0.00391  -0.00507  -0.00882   2.08237
    A7        2.08880  -0.00326  -0.00684  -0.01361  -0.02029   2.06851
    A8        2.08114  -0.00219  -0.01621  -0.00407  -0.02033   2.06082
    A9        2.10189   0.00274   0.00916   0.00959   0.01877   2.12066
   A10        2.10016  -0.00055   0.00705  -0.00552   0.00155   2.10171
   A11        2.09720  -0.00985   0.00343  -0.03590  -0.03220   2.06501
   A12        2.07629  -0.00267  -0.02215  -0.00890  -0.03117   2.04511
   A13        2.10969   0.01252   0.01871   0.04479   0.06337   2.17307
   A14        2.11007   0.01102   0.01917   0.03682   0.05629   2.16636
   A15        2.09303  -0.01891  -0.00167  -0.06816  -0.06998   2.02305
   A16        2.08009   0.00789  -0.01750   0.03134   0.01369   2.09378
   A17        2.06619   0.01317  -0.03449   0.04082   0.00654   2.07273
   A18        2.10620  -0.00792   0.01444  -0.02959  -0.01554   2.09066
   A19        2.12693  -0.01034   0.03978  -0.04041  -0.00043   2.12649
   A20        2.05006   0.01826  -0.05422   0.07000   0.01597   2.06603
   A21        2.10147  -0.00350   0.00865  -0.00613   0.00198   2.10345
   A22        2.09941   0.01075   0.00614   0.03563   0.04203   2.14145
   A23        2.08231  -0.00725  -0.01479  -0.02950  -0.04401   2.03829
   A24        2.08144  -0.00260  -0.01584  -0.00175  -0.01774   2.06370
   A25        2.09884   0.00187   0.00543   0.00337   0.00887   2.10771
   A26        2.10290   0.00073   0.01041  -0.00161   0.00887   2.11177
   A27        2.10688  -0.01147   0.01527  -0.04211  -0.02646   2.08042
   A28        2.07322  -0.00194  -0.02590  -0.00619  -0.03227   2.04095
   A29        2.10308   0.01341   0.01063   0.04830   0.05874   2.16182
   A30        2.10418   0.01232   0.01197   0.03876   0.05123   2.15541
   A31        2.12477  -0.02827   0.03714  -0.10312  -0.06622   2.05854
   A32        2.05424   0.01595  -0.04912   0.06436   0.01500   2.06923
   A33        2.25789  -0.00962   0.19996  -0.04635   0.15360   2.41150
   A34        2.16052  -0.07341   0.08087  -0.27462  -0.19375   1.96677
    D1        0.00000  -0.00000   0.00000  -0.00000  -0.00000   0.00000
    D2        3.14159   0.00000   0.00000   0.00000   0.00000   3.14159
    D3       -0.00000   0.00000  -0.00000   0.00000  -0.00000  -0.00000
    D4        3.14159  -0.00000   0.00000  -0.00000   0.00000   3.14159
    D5        0.00000  -0.00000   0.00000  -0.00000  -0.00000   0.00000
    D6        3.14159   0.00000  -0.00000   0.00000   0.00000   3.14159
    D7       -3.14159  -0.00000  -0.00000  -0.00000  -0.00000  -3.14159
    D8        0.00000  -0.00000  -0.00000  -0.00000  -0.00000   0.00000
    D9       -0.00000   0.00000   0.00000   0.00000   0.00000  -0.00000
   D10        3.14159   0.00000  -0.00000   0.00000   0.00000   3.14159
   D11        3.14159   0.00000   0.00000   0.00000   0.00000   3.14159
   D12        0.00000  -0.00000   0.00000  -0.00000  -0.00000   0.00000
   D13        0.00000  -0.00000  -0.00000  -0.00000  -0.00000   0.00000
   D14       -3.14159  -0.00000  -0.00000  -0.00000  -0.00000  -3.14159
   D15       -3.14159  -0.00000  -0.00000  -0.00000  -0.00000   3.14159
   D16        0.00000  -0.00000  -0.00000  -0.00000  -0.00000   0.00000
   D17       -0.00000   0.00000   0.00000   0.00000   0.00000   0.00000
   D18        3.14159   0.00000  -0.00000   0.00000   0.00000   3.14159
   D19        3.14159   0.00000   0.00000   0.00000   0.00000   3.14159
   D20       -0.00000   0.00000  -0.00000   0.00000  -0.00000  -0.00000
   D21        0.00001   0.00000  -0.00000   0.00000  -0.00000   0.00001
   D22       -3.14159   0.00000  -0.00000   0.00000   0.00000  -3.14159
   D23        0.00000   0.00000   0.00000   0.00000   0.00000   0.00000
   D24       -3.14159  -0.00000  -0.00000  -0.00000  -0.00000  -3.14159
   D25       -0.00000  -0.00000  -0.00000  -0.00000  -0.00000  -0.00000
   D26        3.14159  -0.00000   0.00000   0.00000   0.00000   3.14159
   D27       -0.00000  -0.00000  -0.00000  -0.00000  -0.00000  -0.00000
   D28        3.14159  -0.00000  -0.00000  -0.00000  -0.00000   3.14159
   D29        3.14159   0.00000   0.00000   0.00000   0.00000   3.14159
   D30       -0.00000   0.00000   0.00000   0.00000   0.00000  -0.00000
   D31       -0.00000   0.00000   0.00000   0.00000   0.00000   0.00000
   D32       -3.14159  -0.00000  -0.00000  -0.00000  -0.00000  -3.14159
   D33        3.14159   0.00000   0.00000   0.00000   0.00000  -3.14159
   D34        0.00000  -0.00000   0.00000  -0.00000  -0.00000   0.00000
   D35       -0.00000   0.00000  -0.00000   0.00000  -0.00000  -0.00000
   D36       -3.14159  -0.00000  -0.00000  -0.00000  -0.00000  -3.14159
   D37        3.14159   0.00000   0.00000   0.00000   0.00000   3.14159
   D38        0.00000  -0.00000  -0.00000  -0.00000  -0.00000   0.00000
   D39        0.00000  -0.00000   0.00000  -0.00000   0.00000   0.00000
   D40       -3.14159  -0.00000  -0.00000  -0.00000  -0.00000  -3.14159
   D41        3.14159   0.00000   0.00000   0.00000   0.00000   3.14159
   D42       -0.00000   0.00000  -0.00000   0.00000  -0.00000  -0.00000
   D43        0.00001   0.00000  -0.00000   0.00000   0.00000   0.00001
   D44       -3.14159   0.00000   0.00000   0.00000   0.00000  -3.14159
   D45       -0.00001  -0.00000  -0.00000  -0.00000  -0.00001  -0.00002
         Item               Value     Threshold  Converged?
 Maximum Force            0.315992     0.000450     NO 
 RMS     Force            0.033733     0.000300     NO 
 Maximum Displacement     0.630469     0.001800     NO 
 RMS     Displacement     0.173870     0.001200     NO 
 Predicted change in Energy=-1.037464D-01
 GradGradGradGradGradGradGradGradGradGradGradGradGradGradGradGradGradGrad

                          Input orientation:                          
 ---------------------------------------------------------------------
 Center     Atomic      Atomic             Coordinates (Angstroms)
 Number     Number       Type             X           Y           Z
 ---------------------------------------------------------------------
      1          6           0       -0.030006    1.979622    0.191560
      2          6           0        1.279536    2.034224   -0.229616
      3          6           0        1.950862    3.255541   -0.221414
      4          6           0        1.343742    4.428737    0.198935
      5          6           0        0.029822    4.366006    0.620024
      6          6           0       -0.612108    3.130446    0.599463
      7          6           0       -1.202488   -0.769131    0.061585
      8          6           0       -0.735768   -2.001316   -0.323597
      9          6           0       -1.585137   -3.125043   -0.254805
     10          6           0       -2.885498   -2.995834    0.197884
     11          6           0       -3.322759   -1.745262    0.576814
     12          6           0       -2.449458   -0.666735    0.491649
     13          1           0        1.796620    1.143102   -0.567325
     14          1           0        1.877210    5.374705    0.200842
     15          1           0       -3.543174   -3.858757    0.252502
[...]
                 (A) (A) (A) (A) (A) (A) (A) (A) (A) (A) (A) (A)
                 (A) (A) (A) (A) (A) (A) (A) (A) (A) (A) (A) (A)
                 (A) (A) (A) (A) (A) (A) (A) (A) (A) (A) (A) (A)
                 (A) (A) (A) (A) (A) (A) (A) (A) (A) (A) (A) (A)
                 (A) (A) (A) (A) (A) (A) (A) (A) (A) (A) (A) (A)
                 (A) (A) (A) (A) (A) (A) (A) (A) (A) (A) (A) (A)
                 (A) (A) (A) (A) (A) (A) (A) (A) (A) (A) (A) (A)
                 (A) (A) (A) (A) (A) (A) (A) (A) (A) (A) (A) (A)
                 (A) (A) (A) (A) (A) (A) (A) (A) (A) (A) (A) (A)
                 (A) (A) (A) (A) (A) (A) (A) (A) (A) (A) (A) (A)
                 (A) (A) (A) (A) (A) (A) (A) (A) (A) (A) (A) (A)
                 (A) (A) (A) (A) (A) (A) (A) (A) (A) (A) (A) (A)
                 (A) (A) (A) (A) (A) (A) (A) (A) (A) (A) (A) (A)
                 (A) (A) (A) (A) (A) (A) (A) (A) (A) (A) (A) (A)
                 (A) (A) (A) (A) (A) (A) (A) (A) (A) (A) (A) (A)
                 (A) (A) (A) (A) (A)
 The electronic state is 1-A.
 Alpha  occ. eigenvalues -- -101.58177-101.58176-101.58148-101.58147-101.57731
 Alpha  occ. eigenvalues -- -101.57721-101.57544 -10.28150 -10.28150 -10.27932
 Alpha  occ. eigenvalues --  -10.27932 -10.27561 -10.27406 -10.26915 -10.24779
 Alpha  occ. eigenvalues --  -10.23984 -10.22963 -10.22250 -10.21965  -9.49632
 Alpha  occ. eigenvalues --   -9.49632  -9.49620  -9.49619  -9.49194  -9.49189
 Alpha  occ. eigenvalues --   -9.48998  -7.26125  -7.26125  -7.26111  -7.26110
 Alpha  occ. eigenvalues --   -7.25679  -7.25679  -7.25472  -7.25108  -7.25108
 Alpha  occ. eigenvalues --   -7.25099  -7.25099  -7.25049  -7.25049  -7.25027
 Alpha  occ. eigenvalues --   -7.25027  -7.24672  -7.24668  -7.24610  -7.24608
 Alpha  occ. eigenvalues --   -7.24473  -7.24438  -0.96550  -0.94673  -0.92419
 Alpha  occ. eigenvalues --   -0.90608  -0.89906  -0.88091  -0.88070  -0.85179
 Alpha  occ. eigenvalues --   -0.84212  -0.80217  -0.76589  -0.74812  -0.74595
 Alpha  occ. eigenvalues --   -0.68671  -0.63483  -0.62782  -0.62261  -0.55331
 Alpha  occ. eigenvalues --   -0.54968  -0.53789  -0.53645  -0.50439  -0.48447
 Alpha  occ. eigenvalues --   -0.47334  -0.47185  -0.46693  -0.46116  -0.45104
 Alpha  occ. eigenvalues --   -0.44058  -0.42827  -0.41701  -0.41389  -0.41233
 Alpha  occ. eigenvalues --   -0.39478  -0.37970  -0.37006  -0.36415  -0.35995
 Alpha  occ. eigenvalues --   -0.35051  -0.34987  -0.33918  -0.33815  -0.33583
 Alpha  occ. eigenvalues --   -0.33394  -0.32771  -0.32666  -0.28620  -0.28523
 Alpha  occ. eigenvalues --   -0.26875  -0.26674
 Alpha virt. eigenvalues --   -0.06671  -0.06324  -0.06014  -0.05145  -0.04689
 Alpha virt. eigenvalues --   -0.02764  -0.01062  -0.00748   0.00071   0.00403
 Alpha virt. eigenvalues --    0.01237   0.01965   0.02256   0.02329   0.02859
 Alpha virt. eigenvalues --    0.03250   0.04005   0.04806   0.05226   0.05253
 Alpha virt. eigenvalues --    0.06049   0.06060   0.06311   0.07086   0.07785
 Alpha virt. eigenvalues --    0.07834   0.08233   0.08282   0.09017   0.09171
 Alpha virt. eigenvalues --    0.09546   0.10183   0.10323   0.10553   0.10687
 Alpha virt. eigenvalues --    0.10750   0.11251   0.11688   0.11801   0.12669
 Alpha virt. eigenvalues --    0.12707   0.13016   0.13706   0.13842   0.14076
 Alpha virt. eigenvalues --    0.14236   0.14472   0.14538   0.14975   0.15049
 Alpha virt. eigenvalues --    0.16638   0.16759   0.17246   0.18093   0.18102
 Alpha virt. eigenvalues --    0.18612   0.18714   0.19235   0.19270   0.19578
 Alpha virt. eigenvalues --    0.19995   0.20158   0.20798   0.20940   0.21145
 Alpha virt. eigenvalues --    0.21402   0.21721   0.21936   0.22252   0.23041
 Alpha virt. eigenvalues --    0.23142   0.23732   0.23951   0.24250   0.24602
 Alpha virt. eigenvalues --    0.25509   0.25745   0.26088   0.26339   0.26907
 Alpha virt. eigenvalues --    0.27388   0.27951   0.28197   0.28324   0.28585
 Alpha virt. eigenvalues --    0.28935   0.29222   0.29595   0.29893   0.30416
 Alpha virt. eigenvalues --    0.31473   0.31857   0.32772   0.33556   0.34576
 Alpha virt. eigenvalues --    0.39159   0.40674   0.41718   0.42112   0.43052
 Alpha virt. eigenvalues --    0.43538   0.43548   0.44053   0.44496   0.45569
 Alpha virt. eigenvalues --    0.45576   0.45920   0.46213   0.46882   0.47133
 Alpha virt. eigenvalues --    0.48001   0.48311   0.48531   0.48731   0.49716
 Alpha virt. eigenvalues --    0.50148   0.50829   0.50990   0.52662   0.54047
 Alpha virt. eigenvalues --    0.54496   0.56710   0.56760   0.56950   0.57806
 Alpha virt. eigenvalues --    0.57944   0.58035   0.59033   0.59216   0.59877
 Alpha virt. eigenvalues --    0.60159   0.61322   0.62071   0.62639   0.63101
 Alpha virt. eigenvalues --    0.64123   0.64405   0.64450   0.65625   0.65819
 Alpha virt. eigenvalues --    0.66927   0.67207   0.68555   0.68619   0.68910
 Alpha virt. eigenvalues --    0.69713   0.70770   0.74539   0.77809   0.78042
 Alpha virt. eigenvalues --    0.78835   0.79303   0.81824   0.82324   0.82633
 Alpha virt. eigenvalues --    0.82697   0.83248   0.83271   0.83562   0.83958
 Alpha virt. eigenvalues --    0.83975   0.84475   0.85052   0.85086   0.85337
 Alpha virt. eigenvalues --    0.85340   0.85822   0.86465   0.87171   0.87435
 Alpha virt. eigenvalues --    0.88118   0.88493   0.88998   0.89266   0.89399
 Alpha virt. eigenvalues --    0.90846   0.91895   0.92397   0.92420   0.92771
 Alpha virt. eigenvalues --    0.94131   0.94387   0.94475   0.94671   0.95224
 Alpha virt. eigenvalues --    0.95488   0.96703   0.97046   0.97616   0.97690
 Alpha virt. eigenvalues --    0.98863   1.00105   1.00461   1.00730   1.03130
 Alpha virt. eigenvalues --    1.05162   1.05240   1.05929   1.09632   1.09685
 Alpha virt. eigenvalues --    1.13761   1.14496   1.16758   1.17384   1.20353
 Alpha virt. eigenvalues --    1.20900   1.21447   1.22299   1.22522   1.24111
 Alpha virt. eigenvalues --    1.26146   1.26700   1.26842   1.27863   1.28121
 Alpha virt. eigenvalues --    1.29532   1.29600   1.29974   1.31155   1.34375
 Alpha virt. eigenvalues --    1.36323   1.37203   1.37208   1.40570   1.43418
 Alpha virt. eigenvalues --    1.47168   1.47477   1.47862   1.55149   1.55207
 Alpha virt. eigenvalues --    1.56720   1.58599   1.59192   1.59377   1.60144
 Alpha virt. eigenvalues --    1.63988   1.65852   1.67818   1.72245   1.72728
 Alpha virt. eigenvalues --    1.74578   1.75137   1.76356   1.77196   1.80555
 Alpha virt. eigenvalues --    1.81168   1.84332   1.85057   1.87209   1.88657
 Alpha virt. eigenvalues --    1.90474   1.92425   1.93332   1.94922   1.96015
 Alpha virt. eigenvalues --    1.97665   1.99635   2.02736   2.03021   2.05397
 Alpha virt. eigenvalues --    2.08090   2.08146   2.11345   2.14501   2.19672
 Alpha virt. eigenvalues --    2.22008   2.22918   2.24154   2.24419   2.24716
 Alpha virt. eigenvalues --    2.26393   2.26562   2.28046   2.30221   2.31452
 Alpha virt. eigenvalues --    2.31545   2.32771   2.33234   2.33686   2.37137
 Alpha virt. eigenvalues --    2.38890   2.41567   2.42143   2.44261   2.44791
 Alpha virt. eigenvalues --    2.46203   2.48065   2.49575   2.51579   2.52805
 Alpha virt. eigenvalues --    2.53455   2.55297   2.56606   2.59059   2.60532
 Alpha virt. eigenvalues --    2.62039   2.63830   2.63855   2.67115   2.68608
 Alpha virt. eigenvalues --    2.69081   2.70266   2.72945   2.73818   2.73987
 Alpha virt. eigenvalues --    2.74341   2.76368   2.81412   2.82321   2.82959
 Alpha virt. eigenvalues --    2.85914   2.89314   2.95432   2.96336   3.05162
 Alpha virt. eigenvalues --    3.07087   3.07149   3.08292   3.11580   3.12113
 Alpha virt. eigenvalues --    3.12695   3.17423   3.22232   3.24854   3.25266
 Alpha virt. eigenvalues --    3.28718   3.34031   3.37341   3.43081   3.50975
 Alpha virt. eigenvalues --    3.56076   3.63966   3.72370   3.78196   3.80116
 Alpha virt. eigenvalues --    3.89070   3.94013   4.00863   4.08501   4.31617
 Alpha virt. eigenvalues --    4.79907   4.80916   9.76184   9.76630   9.77731
 Alpha virt. eigenvalues --    9.78373   9.81034   9.83758   9.85402  23.32480
 Alpha virt. eigenvalues --   23.48535  23.78315  23.82435  23.85854  23.89209
 Alpha virt. eigenvalues --   23.92667  23.93656  24.00369  24.05604  24.07228
 Alpha virt. eigenvalues --   24.12284  25.78244  25.80017  25.80304  25.82089
 Alpha virt. eigenvalues --   25.86752  25.94993  25.98317  26.08521  26.11782
 Alpha virt. eigenvalues --   26.15787  26.17182  26.23723  26.28284  26.33151
 Alpha virt. eigenvalues --   26.53135  26.56712  26.61290  26.67928  26.75816
 Alpha virt. eigenvalues --   26.82075  27.04918 215.75456 215.75774 215.77114
 Alpha virt. eigenvalues --  215.77817 215.81040 215.84658 215.86345
          Condensed to atoms (all electrons):
               1          2          3          4          5          6
     1  C   29.807659  -3.928340  -8.110977  -1.588289  -2.679653   2.283646
     2  C   -3.928340  43.576197 -14.637051  -1.571047  -4.078660   4.208024
     3  C   -8.110977 -14.637051  30.818715  -3.260812  -4.484922  -1.696385
     4  C   -1.588289  -1.571047  -3.260812  37.709163  -2.764207 -20.027644
     5  C   -2.679653  -4.078660  -4.484922  -2.764207  28.915993  -3.569986
     6  C    2.283646   4.208024  -1.696385 -20.027644  -3.569986  42.135726
     7  C    7.037584 -13.232276   7.972087  -4.249810  -5.223690  -1.704244
     8  C   -0.305656  -2.041844   0.349712   1.169472  -1.125083  -6.102242
     9  C   -5.227798  -0.427059  -0.604125   0.373804   0.850931  -2.219109
    10  C   -3.412724   0.358145  -0.902828   0.195905   0.834493   0.901036
    11  C   -5.233430  -0.427235  -0.604797   0.374792   0.851935  -2.222736
    12  C   -0.296594  -2.044324   0.353173   1.167852  -1.127971  -6.100790
    13  H    0.000274   0.081225   0.045155   0.047877  -0.010010  -0.164453
    14  H    0.059685  -0.027900   0.005963   0.180621   0.062160   0.050281
    15  H    0.017646  -0.000291   0.000027   0.000015  -0.000277   0.000765
    16  Cl  -0.080561  -0.503049   0.770465  -0.494744  -0.331346   0.323030
    17  Cl  -0.452443   0.625594   0.066362   1.305075   0.427386  -1.191494
    18  Cl  -0.160096  -0.012938   0.025063  -0.000489  -0.009916  -0.069122
    19  Cl  -0.257284   0.080959  -0.044366  -0.676154  -0.775268   1.193916
    20  Cl  -0.160025  -0.012929   0.025067  -0.000482  -0.009917  -0.069098
    21  Cl  -0.264040   1.205456  -1.463075  -0.457242   0.141904   0.376407
    22  Cl  -0.081589  -0.503489   0.770588  -0.495147  -0.331151   0.322694
               7          8          9         10         11         12
     1  C    7.037584  -0.305656  -5.227798  -3.412724  -5.233430  -0.296594
     2  C  -13.232276  -2.041844  -0.427059   0.358145  -0.427235  -2.044324
     3  C    7.972087   0.349712  -0.604125  -0.902828  -0.604797   0.353173
     4  C   -4.249810   1.169472   0.373804   0.195905   0.374792   1.167852
     5  C   -5.223690  -1.125083   0.850931   0.834493   0.851935  -1.127971
     6  C   -1.704244  -6.102242  -2.219109   0.901036  -2.222736  -6.100790
     7  C   26.845666  -0.007454  -6.144735   2.248997  -6.145582  -0.001445
     8  C   -0.007454  21.552160  -4.496064 -11.650559   2.672693   8.104572
     9  C   -6.144735  -4.496064  25.168356   0.423248  -4.036593   2.667276
    10  C    2.248997 -11.650559   0.423248  29.956588   0.430990 -11.672475
    11  C   -6.145582   2.672693  -4.036593   0.430990  25.183774  -4.513000
    12  C   -0.001445   8.104572   2.667276 -11.672475  -4.513000  21.580880
    13  H    0.161554   0.086498   0.019506   0.008975   0.019550   0.086458
    14  H    0.014810   0.001018   0.000137   0.000019   0.000137   0.001019
    15  H    0.040164   0.079713  -0.021961   0.171484  -0.021914   0.079864
    16  Cl   0.654311  -0.660966   0.697906   0.240509  -0.917657  -1.424832
    17  Cl  -1.138496  -0.068613  -0.422129  -0.797349  -0.423494  -0.067149
    18  Cl  -0.537358   0.202761  -0.316577  -0.407420   0.099949   0.637815
    19  Cl   0.064107  -0.041524  -0.003280   0.003007  -0.003295  -0.041497
    20  Cl  -0.537113   0.638133   0.100139  -0.408251  -0.316670   0.202858
    21  Cl  -0.226200  -0.051674  -0.006289  -0.002401  -0.006322  -0.051647
    22  Cl   0.654489  -1.425539  -0.915958   0.241316   0.697872  -0.660136
              13         14         15         16         17         18
     1  C    0.000274   0.059685   0.017646  -0.080561  -0.452443  -0.160096
     2  C    0.081225  -0.027900  -0.000291  -0.503049   0.625594  -0.012938
     3  C    0.045155   0.005963   0.000027   0.770465   0.066362   0.025063
     4  C    0.047877   0.180621   0.000015  -0.494744   1.305075  -0.000489
     5  C   -0.010010   0.062160  -0.000277  -0.331346   0.427386  -0.009916
     6  C   -0.164453   0.050281   0.000765   0.323030  -1.191494  -0.069122
     7  C    0.161554   0.014810   0.040164   0.654311  -1.138496  -0.537358
     8  C    0.086498   0.001018   0.079713  -0.660966  -0.068613   0.202761
     9  C    0.019506   0.000137  -0.021961   0.697906  -0.422129  -0.316577
    10  C    0.008975   0.000019   0.171484   0.240509  -0.797349  -0.407420
    11  C    0.019550   0.000137  -0.021914  -0.917657  -0.423494   0.099949
    12  C    0.086458   0.001019   0.079864  -1.424832  -0.067149   0.637815
    13  H    0.513449  -0.000223  -0.000003  -0.009363  -0.005546   0.000451
    14  H   -0.000223   0.488964  -0.000000  -0.000058  -0.001607   0.000000
    15  H   -0.000003  -0.000000   0.485052  -0.001063   0.000239  -0.002257
    16  Cl  -0.009363  -0.000058  -0.001063  18.405294   0.151444  -0.293151
    17  Cl  -0.005546  -0.001607   0.000239   0.151444  18.614397  -0.003879
    18  Cl   0.000451   0.000000  -0.002257  -0.293151  -0.003879  17.360178
    19  Cl   0.000113  -0.003750  -0.000000   0.003119  -0.347049   0.000022
    20  Cl   0.000451   0.000000  -0.002250   0.009347  -0.003873  -0.024326
    21  Cl  -0.018866  -0.005654   0.000000  -0.004192  -0.005463   0.000174
    22  Cl  -0.009343  -0.000058  -0.001065  -0.129661   0.150983   0.009348
              19         20         21         22
     1  C   -0.257284  -0.160025  -0.264040  -0.081589
     2  C    0.080959  -0.012929   1.205456  -0.503489
     3  C   -0.044366   0.025067  -1.463075   0.770588
     4  C   -0.676154  -0.000482  -0.457242  -0.495147
     5  C   -0.775268  -0.009917   0.141904  -0.331151
     6  C    1.193916  -0.069098   0.376407   0.322694
     7  C    0.064107  -0.537113  -0.226200   0.654489
     8  C   -0.041524   0.638133  -0.051674  -1.425539
     9  C   -0.003280   0.100139  -0.006289  -0.915958
    10  C    0.003007  -0.408251  -0.002401   0.241316
    11  C   -0.003295  -0.316670  -0.006322   0.697872
    12  C   -0.041497   0.202858  -0.051647  -0.660136
    13  H    0.000113   0.000451  -0.018866  -0.009343
    14  H   -0.003750   0.000000  -0.005654  -0.000058
    15  H   -0.000000  -0.002250   0.000000  -0.001065
    16  Cl   0.003119   0.009347  -0.004192  -0.129661
    17  Cl  -0.347049  -0.003873  -0.005463   0.150983
    18  Cl   0.000022  -0.024326   0.000174   0.009348
    19  Cl  17.384381   0.000022  -0.011636   0.003137
    20  Cl   0.000022  17.360152   0.000174  -0.293167
    21  Cl  -0.011636   0.000174  17.414321  -0.004186
    22  Cl   0.003137  -0.293167  -0.004186  18.404750
 Mulliken charges:
               1
     1  C   -0.966993
     2  C   -0.687165
     3  C    0.606960
     4  C   -0.938510
     5  C    0.437255
     6  C   -0.658220
     7  C   -0.545365
     8  C   -0.879514
     9  C    0.540376
    10  C   -0.760705
    11  C    0.541035
    12  C   -0.879908
    13  H    0.146273
    14  H    0.174437
    15  H    0.176111
    16  Cl   0.595218
    17  Cl   0.587107
    18  Cl   0.501768
    19  Cl   0.472320
    20  Cl   0.501757
    21  Cl   0.440451
    22  Cl   0.595312
 Sum of Mulliken charges =  -0.00000
 Mulliken charges with hydrogens summed into heavy atoms:
               1
     1  C   -0.966993
     2  C   -0.540893
     3  C    0.606960
     4  C   -0.764073
     5  C    0.437255
     6  C   -0.658220
     7  C   -0.545365
     8  C   -0.879514
     9  C    0.540376
    10  C   -0.584594
    11  C    0.541035
    12  C   -0.879908
    16  Cl   0.595218
    17  Cl   0.587107
    18  Cl   0.501768
    19  Cl   0.472320
    20  Cl   0.501757
    21  Cl   0.440451
    22  Cl   0.595312
 Electronic spatial extent (au):  <R**2>=           8782.9427
 Charge=             -0.0000 electrons
 Dipole moment (field-independent basis, Debye):
    X=              0.5688    Y=              0.0002    Z=             -0.7906  Tot=              0.9739
 Quadrupole moment (field-independent basis, Debye-Ang):
   XX=           -149.6794   YY=           -160.9312   ZZ=           -159.2425
   XY=              0.0002   XZ=              0.1412   YZ=             -0.0005
 Traceless Quadrupole moment (field-independent basis, Debye-Ang):
   XX=              6.9383   YY=             -4.3135   ZZ=             -2.6248
   XY=              0.0002   XZ=              0.1412   YZ=             -0.0005
 Octapole moment (field-independent basis, Debye-Ang**2):
  XXX=              9.5448  YYY=             -0.0041  ZZZ=              9.8983  XYY=             -4.2752
  XXY=             -0.0030  XXZ=              5.1920  XZZ=              7.5512  YZZ=             -0.0021
  YYZ=              4.1921  XYZ=             -0.0026
 Hexadecapole moment (field-independent basis, Debye-Ang**3):
 XXXX=          -6631.9080 YYYY=          -2501.6015 ZZZZ=          -1971.6648 XXXY=              0.0120
 XXXZ=            -13.6698 YYYX=              0.0171 YYYZ=              0.0378 ZZZX=            -11.5325
 ZZZY=             -0.0294 XXYY=          -1590.2218 XXZZ=          -1518.9444 YYZZ=           -785.2390
 XXYZ=              0.0083 YYXZ=             -1.6317 ZZXY=              0.0087
 N-N= 2.368485924846D+03 E-N=-1.345817835636D+04  KE= 3.671258927162D+03
 1\1\GINC-CN311\FOpt\RB3LYP\6-311+G(d,p)\C12H3Cl7\20CY91R06\03-Apr-2022
 \0\\# opt b3lyp/6-311+g(d,p) scf=xqc\\Title Card Required\\0,1\C,-0.36
 17835233,1.3387087844,0.1436288101\C,0.3153716955,1.6657827697,-1.0311
 710813\C,0.9935880313,2.8738102341,-1.1234456217\C,1.0122761512,3.7699
 992946,-0.063324809\C,0.3370790798,3.4454321518,1.1098644009\C,-0.3524
 52619,2.2326253053,1.2226033866\C,-1.0855095658,0.0335598761,0.2215561
 835\C,-0.4271198078,-1.1187846218,0.6759238967\C,-1.102060837,-2.34275
 3019,0.7272574736\C,-2.4293003953,-2.4227385202,0.3264262952\C,-3.0927
 533116,-1.2901139708,-0.1271749497\C,-2.4257581728,-0.0619937552,-0.18
 17610138\H,0.3098669965,0.9776613018,-1.8659623552\H,1.5415824957,4.70
 95787383,-0.1393373333\H,-2.9479583881,-3.3704458952,0.3671718276\Cl,-
 3.2541396907,1.3636654689,-0.7434925672\Cl,-1.199088359,1.8225026506,2
 .6893504133\Cl,-4.7570746565,-1.4486084926,-0.6195991129\Cl,0.37701569
 51,4.5897154331,2.4257554197\Cl,-0.3180876785,-3.7956460836,1.28580436
 73\Cl,1.8419903239,3.2780371876,-2.6023013423\Cl,1.2357315966,-1.01038
 92679,1.1833625619\\Version=EM64L-G16RevB.01\State=1-A\HF=-3680.749353
 6\RMSD=8.736e-09\RMSF=1.118e-05\Dipole=-0.0120688,-0.2549007,-0.285841
 1\Quadrupole=-1.1777008,3.2795501,-2.1018493,3.4412691,-0.4891682,-0.0
 279131\PG=C01 [X(C12H3Cl7)]\\@


 WE'RE IN THE POSITION OF A VISITOR FROM ANOTHER
 DIMENSION WHO COMES TO EARTH AND SEES A CHESS MATCH.
 ASSUMING HE KNOWS IT'S A GAME, HE'S GOT TWO PROBLEMS:
 FIRST, FIGURE OUT THE RULES, AND SECOND, FIGURE OUT HOW TO WIN.
 NINETY PERCENT OF SCIENCE (INCLUDING VIRTUALLY ALL OF CHEMISRY)
 IS IN THAT SECOND CATEGORY.  THEY'RE TRYING TO APPLY
 THE LAWS THAT ARE ALREADY KNOWN.

                     -- SHELDON GLASHOW, 1979
 Job cpu time:       1 days 16 hours 19 minutes 32.1 seconds.
 Elapsed time:       0 days  5 hours 47 minutes 39.9 seconds.
 File lengths (MBytes):  RWF=    172 Int=      0 D2E=      0 Chk=     25 Scr=      1
 Normal termination of Gaussian 16 at Sun Apr  3 06:28:18 2022.
