 Entering Gaussian System, Link 0=g16
 Input=2,2prime,3,3prime,4,5-Hexachlorobiphenyl.gjf
 Output=2,2prime,3,3prime,4,5-Hexachlorobiphenyl.log
 Initial command:
 /home/apps/g16/l1.exe "./Gau-91555.inp" -scrdir="./"
 Entering Link 1 = /home/apps/g16/l1.exe PID=     91556.
  
 Copyright (c) 1988-2017, Gaussian, Inc.  All Rights Reserved.
  
 This is part of the Gaussian(R) 16 program.  It is based on
 the Gaussian(R) 09 system (copyright 2009, Gaussian, Inc.),
 the Gaussian(R) 03 system (copyright 2003, Gaussian, Inc.),
 the Gaussian(R) 98 system (copyright 1998, Gaussian, Inc.),
 the Gaussian(R) 94 system (copyright 1995, Gaussian, Inc.),
 the Gaussian 92(TM) system (copyright 1992, Gaussian, Inc.),
 the Gaussian 90(TM) system (copyright 1990, Gaussian, Inc.),
 the Gaussian 88(TM) system (copyright 1988, Gaussian, Inc.),
 the Gaussian 86(TM) system (copyright 1986, Carnegie Mellon
 University), and the Gaussian 82(TM) system (copyright 1983,
 Carnegie Mellon University). Gaussian is a federally registered
 trademark of Gaussian, Inc.
  
 This software contains proprietary and confidential information,
 including trade secrets, belonging to Gaussian, Inc.
  
 This software is provided under written license and may be
 used, copied, transmitted, or stored only in accord with that
 written license.
  
 The following legend is applicable only to US Government
 contracts under FAR:
  
                    RESTRICTED RIGHTS LEGEND
  
 Use, reproduction and disclosure by the US Government is
 subject to restrictions as set forth in subparagraphs (a)
 and (c) of the Commercial Computer Software - Restricted
 Rights clause in FAR 52.227-19.
  
 Gaussian, Inc.
 340 Quinnipiac St., Bldg. 40, Wallingford CT 06492
  
  
 ---------------------------------------------------------------
 Warning -- This program may not be used in any manner that
 competes with the business of Gaussian, Inc. or will provide
 assistance to any competitor of Gaussian, Inc.  The licensee
 of this program is prohibited from giving any competitor of
 Gaussian, Inc. access to this program.  By using this program,
 the user acknowledges that Gaussian, Inc. is engaged in the
 business of creating and licensing software in the field of
 computational chemistry and represents and warrants to the
 licensee that it is not a competitor of Gaussian, Inc. and that
 it will not use this program in any manner prohibited above.
 ---------------------------------------------------------------
  

 Cite this work as:
 Gaussian 16, Revision B.01,
 M. J. Frisch, G. W. Trucks, H. B. Schlegel, G. E. Scuseria, 
 M. A. Robb, J. R. Cheeseman, G. Scalmani, V. Barone, 
 G. A. Petersson, H. Nakatsuji, X. Li, M. Caricato, A. V. Marenich, 
 J. Bloino, B. G. Janesko, R. Gomperts, B. Mennucci, H. P. Hratchian, 
 J. V. Ortiz, A. F. Izmaylov, J. L. Sonnenberg, D. Williams-Young, 
 F. Ding, F. Lipparini, F. Egidi, J. Goings, B. Peng, A. Petrone, 
 T. Henderson, D. Ranasinghe, V. G. Zakrzewski, J. Gao, N. Rega, 
 G. Zheng, W. Liang, M. Hada, M. Ehara, K. Toyota, R. Fukuda, 
 J. Hasegawa, M. Ishida, T. Nakajima, Y. Honda, O. Kitao, H. Nakai, 
 T. Vreven, K. Throssell, J. A. Montgomery, Jr., J. E. Peralta, 
 F. Ogliaro, M. J. Bearpark, J. J. Heyd, E. N. Brothers, K. N. Kudin, 
 V. N. Staroverov, T. A. Keith, R. Kobayashi, J. Normand, 
 K. Raghavachari, A. P. Rendell, J. C. Burant, S. S. Iyengar, 
 J. Tomasi, M. Cossi, J. M. Millam, M. Klene, C. Adamo, R. Cammi, 
 J. W. Ochterski, R. L. Martin, K. Morokuma, O. Farkas, 
 J. B. Foresman, and D. J. Fox, Gaussian, Inc., Wallingford CT, 2016.
 
 ******************************************
 Gaussian 16:  EM64L-G16RevB.01 20-Dec-2017
                 3-Apr-2022 
 ******************************************
 %mem=32GB
 %nprocshared=16
 Will use up to   16 processors via shared memory.
 --------------------------------
 # opt b3lyp/6-311+g(d,p) scf=xqc
 --------------------------------
 1/18=20,19=15,26=3,38=1/1,3;
 2/9=110,12=2,17=6,18=5,40=1/2;
 3/5=4,6=6,7=111,11=2,25=1,30=1,71=1,74=-5/1,2,3;
 4//1;
 5/5=2,8=3,13=1,38=5/2,8;
 6/7=2,8=2,9=2,10=2,28=1/1;
 7//1,2,3,16;
 1/18=20,19=15,26=3/3(2);
 2/9=110/2;
 99//99;
 2/9=110/2;
 3/5=4,6=6,7=111,11=2,25=1,30=1,71=1,74=-5/1,2,3;
 4/5=5,16=3,69=1/1;
 5/5=2,8=3,13=1,38=5/2,8;
 7//1,2,3,16;
 1/18=20,19=15,26=3/3(-5);
 2/9=110/2;
 6/7=2,8=2,9=2,10=2,19=2,28=1/1;
 99/9=1/99;
 -------------------
 Title Card Required
 -------------------
 Symbolic Z-matrix:
 Charge =  0 Multiplicity = 1
 C                    -0.61193   0.95597  -0.00866 
 C                     0.72045   0.98585  -0.44201 
 C                     1.42834   2.19531  -0.44808 
 C                     0.80385   3.37487  -0.02081 
 C                    -0.52853   3.34499   0.41254 
 C                    -1.23642   2.13553   0.41861 
 C                    -1.63811  -0.79728   0.00014 
 C                    -1.01362  -1.97684  -0.42713 
 C                    -1.72152  -3.18629  -0.42106 
 C                    -3.0539   -3.21618   0.01229 
 C                    -3.67839  -2.03662   0.43956 
 C                    -2.97049  -0.82716   0.43349 
 H                     1.19726   0.08523  -0.76824 
 H                     2.44564   2.21812  -0.77895 
 H                     1.34435   4.29831  -0.02544 
 H                     0.00368  -1.95402  -0.758 
 Cl                   -3.75478   0.65424   0.9701 
 Cl                   -2.90974   2.098     0.96284 
 Cl                   -5.3517   -2.07415   0.98381 
 Cl                   -1.31282   4.82639   0.94914 
 Cl                   -3.94293  -4.73512   0.01992 
 Cl                   -0.93723  -4.66769  -0.95767 
 

 GradGradGradGradGradGradGradGradGradGradGradGradGradGradGradGradGradGrad
 Berny optimization.
 Initialization pass.
                           ----------------------------
                           !    Initial Parameters    !
                           ! (Angstroms and Degrees)  !
 --------------------------                            --------------------------
 ! Name  Definition              Value          Derivative Info.                !
 --------------------------------------------------------------------------------
 ! R1    R(1,2)                  1.4014         estimate D2E/DX2                !
 ! R2    R(1,6)                  1.4014         estimate D2E/DX2                !
 ! R3    R(2,3)                  1.4014         estimate D2E/DX2                !
 ! R4    R(2,13)                 1.07           estimate D2E/DX2                !
 ! R5    R(3,4)                  1.4014         estimate D2E/DX2                !
 ! R6    R(3,14)                 1.07           estimate D2E/DX2                !
 ! R7    R(4,5)                  1.4014         estimate D2E/DX2                !
 ! R8    R(4,15)                 1.07           estimate D2E/DX2                !
 ! R9    R(5,6)                  1.4014         estimate D2E/DX2                !
 ! R10   R(5,20)                 1.76           estimate D2E/DX2                !
 ! R11   R(6,18)                 1.76           estimate D2E/DX2                !
 ! R12   R(7,8)                  1.4014         estimate D2E/DX2                !
 ! R13   R(7,12)                 1.4014         estimate D2E/DX2                !
 ! R14   R(8,9)                  1.4014         estimate D2E/DX2                !
 ! R15   R(8,16)                 1.07           estimate D2E/DX2                !
 ! R16   R(9,10)                 1.4014         estimate D2E/DX2                !
 ! R17   R(9,22)                 1.76           estimate D2E/DX2                !
 ! R18   R(10,11)                1.4014         estimate D2E/DX2                !
 ! R19   R(10,21)                1.76           estimate D2E/DX2                !
 ! R20   R(11,12)                1.4014         estimate D2E/DX2                !
 ! R21   R(11,19)                1.76           estimate D2E/DX2                !
 ! R22   R(12,17)                1.76           estimate D2E/DX2                !
 ! R23   R(17,18)                1.6729         estimate D2E/DX2                !
 ! A1    A(2,1,6)              120.0            estimate D2E/DX2                !
 ! A2    A(1,2,3)              120.0            estimate D2E/DX2                !
 ! A3    A(1,2,13)             120.0            estimate D2E/DX2                !
 ! A4    A(3,2,13)             120.0            estimate D2E/DX2                !
 ! A5    A(2,3,4)              120.0            estimate D2E/DX2                !
 ! A6    A(2,3,14)             120.0            estimate D2E/DX2                !
 ! A7    A(4,3,14)             120.0            estimate D2E/DX2                !
 ! A8    A(3,4,5)              120.0            estimate D2E/DX2                !
 ! A9    A(3,4,15)             120.0            estimate D2E/DX2                !
 ! A10   A(5,4,15)             120.0            estimate D2E/DX2                !
 ! A11   A(4,5,6)              120.0            estimate D2E/DX2                !
 ! A12   A(4,5,20)             120.0            estimate D2E/DX2                !
 ! A13   A(6,5,20)             120.0            estimate D2E/DX2                !
 ! A14   A(1,6,5)              120.0            estimate D2E/DX2                !
 ! A15   A(1,6,18)             120.0            estimate D2E/DX2                !
 ! A16   A(5,6,18)             120.0            estimate D2E/DX2                !
 ! A17   A(8,7,12)             120.0            estimate D2E/DX2                !
 ! A18   A(7,8,9)              120.0            estimate D2E/DX2                !
 ! A19   A(7,8,16)             120.0            estimate D2E/DX2                !
 ! A20   A(9,8,16)             120.0            estimate D2E/DX2                !
 ! A21   A(8,9,10)             120.0            estimate D2E/DX2                !
 ! A22   A(8,9,22)             120.0            estimate D2E/DX2                !
 ! A23   A(10,9,22)            120.0            estimate D2E/DX2                !
 ! A24   A(9,10,11)            120.0            estimate D2E/DX2                !
 ! A25   A(9,10,21)            120.0            estimate D2E/DX2                !
 ! A26   A(11,10,21)           120.0            estimate D2E/DX2                !
 ! A27   A(10,11,12)           120.0            estimate D2E/DX2                !
 ! A28   A(10,11,19)           120.0            estimate D2E/DX2                !
 ! A29   A(12,11,19)           120.0            estimate D2E/DX2                !
 ! A30   A(7,12,11)            120.0            estimate D2E/DX2                !
 ! A31   A(7,12,17)            120.0            estimate D2E/DX2                !
 ! A32   A(11,12,17)           120.0            estimate D2E/DX2                !
 ! A33   A(12,17,18)           120.0            estimate D2E/DX2                !
 ! A34   A(6,18,17)            120.0            estimate D2E/DX2                !
 ! D1    D(6,1,2,3)              0.0001         estimate D2E/DX2                !
 ! D2    D(6,1,2,13)           180.0            estimate D2E/DX2                !
 ! D3    D(2,1,6,5)             -0.0001         estimate D2E/DX2                !
 ! D4    D(2,1,6,18)           180.0            estimate D2E/DX2                !
 ! D5    D(1,2,3,4)              0.0            estimate D2E/DX2                !
 ! D6    D(1,2,3,14)           180.0            estimate D2E/DX2                !
 ! D7    D(13,2,3,4)          -179.9999         estimate D2E/DX2                !
 ! D8    D(13,2,3,14)            0.0001         estimate D2E/DX2                !
 ! D9    D(2,3,4,5)             -0.0001         estimate D2E/DX2                !
 ! D10   D(2,3,4,15)           180.0            estimate D2E/DX2                !
 ! D11   D(14,3,4,5)           179.9999         estimate D2E/DX2                !
 ! D12   D(14,3,4,15)            0.0            estimate D2E/DX2                !
 ! D13   D(3,4,5,6)              0.0001         estimate D2E/DX2                !
 ! D14   D(3,4,5,20)          -179.9999         estimate D2E/DX2                !
 ! D15   D(15,4,5,6)          -180.0            estimate D2E/DX2                !
 ! D16   D(15,4,5,20)            0.0            estimate D2E/DX2                !
 ! D17   D(4,5,6,1)              0.0            estimate D2E/DX2                !
 ! D18   D(4,5,6,18)           179.9999         estimate D2E/DX2                !
 ! D19   D(20,5,6,1)           180.0            estimate D2E/DX2                !
 ! D20   D(20,5,6,18)           -0.0001         estimate D2E/DX2                !
 ! D21   D(1,6,18,17)            0.0004         estimate D2E/DX2                !
 ! D22   D(5,6,18,17)         -179.9996         estimate D2E/DX2                !
 ! D23   D(12,7,8,9)             0.0001         estimate D2E/DX2                !
 ! D24   D(12,7,8,16)         -179.9998         estimate D2E/DX2                !
 ! D25   D(8,7,12,11)           -0.0001         estimate D2E/DX2                !
 ! D26   D(8,7,12,17)          179.9999         estimate D2E/DX2                !
 ! D27   D(7,8,9,10)             0.0            estimate D2E/DX2                !
 ! D28   D(7,8,9,22)           180.0            estimate D2E/DX2                !
 ! D29   D(16,8,9,10)          179.9998         estimate D2E/DX2                !
 ! D30   D(16,8,9,22)           -0.0002         estimate D2E/DX2                !
 ! D31   D(8,9,10,11)            0.0            estimate D2E/DX2                !
 ! D32   D(8,9,10,21)         -179.9999         estimate D2E/DX2                !
 ! D33   D(22,9,10,11)         180.0            estimate D2E/DX2                !
 ! D34   D(22,9,10,21)           0.0001         estimate D2E/DX2                !
 ! D35   D(9,10,11,12)           0.0            estimate D2E/DX2                !
 ! D36   D(9,10,11,19)        -179.9998         estimate D2E/DX2                !
 ! D37   D(21,10,11,12)        179.9999         estimate D2E/DX2                !
 ! D38   D(21,10,11,19)          0.0001         estimate D2E/DX2                !
 ! D39   D(10,11,12,7)           0.0            estimate D2E/DX2                !
 ! D40   D(10,11,12,17)       -179.9999         estimate D2E/DX2                !
 ! D41   D(19,11,12,7)         179.9999         estimate D2E/DX2                !
 ! D42   D(19,11,12,17)         -0.0001         estimate D2E/DX2                !
 ! D43   D(7,12,17,18)           0.0004         estimate D2E/DX2                !
 ! D44   D(11,12,17,18)       -179.9997         estimate D2E/DX2                !
 ! D45   D(12,17,18,6)          -0.0006         estimate D2E/DX2                !
 --------------------------------------------------------------------------------
 Trust Radius=3.00D-01 FncErr=1.00D-07 GrdErr=1.00D-06 EigMax=2.50D+02 EigMin=1.00D-04
 Number of steps in this run=    112 maximum allowed number of steps=    132.
 GradGradGradGradGradGradGradGradGradGradGradGradGradGradGradGradGradGrad

                          Input orientation:                          
 ---------------------------------------------------------------------
 Center     Atomic      Atomic             Coordinates (Angstroms)
 Number     Number       Type             X           Y           Z
 ---------------------------------------------------------------------
      1          6           0       -0.611935    0.955969   -0.008664
      2          6           0        0.720446    0.985855   -0.442010
      3          6           0        1.428340    2.195306   -0.448083
      4          6           0        0.803853    3.374871   -0.020808
      5          6           0       -0.528529    3.344985    0.412537
      6          6           0       -1.236423    2.135534    0.418609
      7          6           0       -1.638112   -0.797278    0.000140
      8          6           0       -1.013625   -1.976843   -0.427135
      9          6           0       -1.721518   -3.186295   -0.421060
     10          6           0       -3.053898   -3.216181    0.012289
     11          6           0       -3.678385   -2.036616    0.439565
     12          6           0       -2.970492   -0.827165    0.433491
     13          1           0        1.197257    0.085230   -0.768242
     14          1           0        2.445643    2.218124   -0.778952
     15          1           0        1.344345    4.298313   -0.025444
     16          1           0        0.003678   -1.954025   -0.758004
     17         17           0       -3.754777    0.654235    0.970102
     18         17           0       -2.909743    2.098001    0.962843
     19         17           0       -5.351703   -2.074151    0.983807
     20         17           0       -1.312816    4.826386    0.949142
     21         17           0       -3.942931   -4.735116    0.019921
     22         17           0       -0.937232   -4.667695   -0.957670
 ---------------------------------------------------------------------
                    Distance matrix (angstroms):
                    1          2          3          4          5
     1  C    0.000000
     2  C    1.401400   0.000000
     3  C    2.427296   1.401400   0.000000
     4  C    2.802800   2.427296   1.401400   0.000000
     5  C    2.427296   2.802800   2.427296   1.401400   0.000000
     6  C    1.401400   2.427296   2.802800   2.427296   1.401400
     7  C    2.031500   2.989625   4.308084   4.834300   4.308084
     8  C    2.989625   3.432900   4.834300   5.666495   5.409457
     9  C    4.308084   4.834300   6.235700   7.041774   6.691466
    10  C    4.834300   5.666495   7.041774   7.637100   7.041774
    11  C    4.308084   5.409457   6.691466   7.041774   6.235700
    12  C    2.989625   4.204351   5.409457   5.666495   4.834300
    13  H    2.146700   1.070000   2.146700   3.396345   3.872800
    14  H    3.396345   2.146700   1.070000   2.146700   3.396345
    15  H    3.872800   3.396345   2.146700   1.070000   2.146700
    16  H    3.067336   3.042450   4.398029   5.438829   5.452790
    17  Cl   3.305523   4.704429   5.590246   5.400450   4.237887
    18  Cl   2.743718   4.048303   4.562800   4.048303   2.743718
    19  Cl   5.712445   6.947487   8.139259   8.282025   7.277114
    20  Cl   4.048303   4.562800   4.048303   2.743718   1.760000
    21  Cl   6.594300   7.395266   8.780678   9.397100   8.780678
    22  Cl   5.712445   5.914087   7.277114   8.282025   8.139259
                    6          7          8          9         10
     6  C    0.000000
     7  C    2.989625   0.000000
     8  C    4.204351   1.401400   0.000000
     9  C    5.409457   2.427296   1.401400   0.000000
    10  C    5.666495   2.802800   2.427296   1.401400   0.000000
    11  C    4.834300   2.427296   2.802800   2.427296   1.401400
    12  C    3.432900   1.401400   2.427296   2.802800   2.427296
    13  H    3.396345   3.067336   3.042450   4.398029   5.438829
    14  H    3.872800   5.135824   5.448675   6.833817   7.771916
    15  H    3.396345   5.904300   6.715576   8.097863   8.707100
    16  H    4.432466   2.146700   1.070000   2.146700   3.396345
    17  Cl   2.973298   2.743718   4.048303   4.562800   4.048303
    18  Cl   1.760000   3.305523   4.704429   5.590246   5.400450
    19  Cl   5.914087   4.048303   4.562800   4.048303   2.743718
    20  Cl   2.743718   5.712445   6.947487   8.139259   8.282026
    21  Cl   7.395266   4.562800   4.048303   2.743718   1.760000
    22  Cl   6.947487   4.048303   2.743718   1.760000   2.743718
                   11         12         13         14         15
    11  C    0.000000
    12  C    1.401400   0.000000
    13  H    5.452790   4.432466   0.000000
    14  H    7.555879   6.330744   2.471400   0.000000
    15  H    8.097863   6.715576   4.280590   2.471400   0.000000
    16  H    3.872800   3.396345   2.362900   4.834300   6.436285
    17  Cl   2.743718   1.760000   5.279038   6.629490   6.345980
    18  Cl   4.237887   2.973298   4.890332   5.632800   4.890332
    19  Cl   1.760000   2.743718   7.114877   9.073563   9.298599
    20  Cl   7.277114   5.914087   5.632800   4.890332   2.879094
    21  Cl   2.743718   4.048303   7.090731   9.476266  10.467100
    22  Cl   4.048303   4.562800   5.213657   7.674001   9.298599
                   16         17         18         19         20
    16  H    0.000000
    17  Cl   4.890332   0.000000
    18  Cl   5.279038   1.672900   0.000000
    19  Cl   5.632800   3.161400   4.834300   0.000000
    20  Cl   7.114877   4.834300   3.161400   7.995700   0.000000
    21  Cl   4.890332   5.475705   6.974816   3.161400   9.960084
    22  Cl   2.879094   6.322800   7.304369   5.475705   9.690953
                   21         22
    21  Cl   0.000000
    22  Cl   3.161400   0.000000
 Stoichiometry    C12H4Cl6
 Framework group  C1[X(C12H4Cl6)]
 Deg. of freedom    60
 Full point group                 C1      NOp   1
 Largest Abelian subgroup         C1      NOp   1
 Largest concise Abelian subgroup C1      NOp   1
                         Standard orientation:                         
 ---------------------------------------------------------------------
 Center     Atomic      Atomic             Coordinates (Angstroms)
 Number     Number       Type             X           Y           Z
 ---------------------------------------------------------------------
      1          6           0       -1.653785    1.169764    0.000000
      2          6           0       -2.049656    2.514089    0.000003
      3          6           0       -3.411811    2.843416    0.000006
      4          6           0       -4.378094    1.828419    0.000006
      5          6           0       -3.982222    0.484095    0.000001
      6          6           0       -2.620068    0.154767   -0.000001
      7          6           0        0.320825    0.692364   -0.000002
      8          6           0        1.287108    1.707361   -0.000002
      9          6           0        2.649263    1.378034   -0.000002
     10          6           0        3.045134    0.033710   -0.000002
     11          6           0        2.078851   -0.981287   -0.000001
     12          6           0        0.716696   -0.651960   -0.000001
     13          1           0       -1.311878    3.289061    0.000005
     14          1           0       -3.714068    3.869837    0.000008
     15          1           0       -5.418129    2.079868    0.000008
     16          1           0        0.984851    2.733783    0.000000
     17         17           0       -0.496846   -1.926681    0.000003
     18         17           0       -2.122898   -1.533552   -0.000006
     19         17           0        2.576021   -2.669606    0.000004
     20         17           0       -5.195765   -0.790627   -0.000003
     21         17           0        4.755846   -0.379888    0.000001
     22         17           0        3.862805    2.652756   -0.000003
 ---------------------------------------------------------------------
 Rotational constants (GHZ):           0.4664096           0.1365327           0.1056157
 Standard basis: 6-311+G(d,p) (5D, 7F)
 There are   486 symmetry adapted cartesian basis functions of A   symmetry.
 There are   468 symmetry adapted basis functions of A   symmetry.
   468 basis functions,   782 primitive gaussians,   486 cartesian basis functions
    89 alpha electrons       89 beta electrons
       nuclear repulsion energy      2046.0253416816 Hartrees.
 NAtoms=   22 NActive=   22 NUniq=   22 SFac= 1.00D+00 NAtFMM=   60 NAOKFM=F Big=F
 Integral buffers will be    131072 words long.
 Raffenetti 2 integral format.
 Two-electron integral symmetry is turned on.
 One-electron integrals computed using PRISM.
 NBasis=   468 RedAO= T EigKep=  1.26D-06  NBF=   468
 NBsUse=   462 1.00D-06 EigRej=  7.35D-07 NBFU=   462
 ExpMin= 4.38D-02 ExpMax= 1.06D+05 ExpMxC= 3.62D+03 IAcc=3 IRadAn=         5 AccDes= 0.00D+00
 Harris functional with IExCor=  402 and IRadAn=       5 diagonalized for initial guess.
 HarFok:  IExCor=  402 AccDes= 0.00D+00 IRadAn=         5 IDoV= 1 UseB2=F ITyADJ=14
 ICtDFT=  3500011 ScaDFX=  1.000000  1.000000  1.000000  1.000000
 FoFCou: FMM=F IPFlag=           0 FMFlag=      100000 FMFlg1=           0
         NFxFlg=           0 DoJE=T BraDBF=F KetDBF=T FulRan=T
         wScrn=  0.000000 ICntrl=       500 IOpCl=  0 I1Cent=   200000004 NGrid=           0
         NMat0=    1 NMatS0=      1 NMatT0=    0 NMatD0=    1 NMtDS0=    0 NMtDT0=    0
 Petite list used in FoFCou.
 Requested convergence on RMS density matrix=1.00D-08 within  32 cycles.
 Requested convergence on MAX density matrix=1.00D-06.
 Requested convergence on             energy=1.00D-06.
 No special actions if energy rises.
 EnCoef did     3 forward-backward iterations
 EnCoef did     3 forward-backward iterations
 EnCoef did     5 forward-backward iterations
 EnCoef did     8 forward-backward iterations
 Restarting incremental Fock formation.
 SCF Done:  E(RB3LYP) =  -3220.57208698     A.U. after   29 cycles
            NFock= 29  Conv=0.29D-08     -V/T= 2.0021
 QCSCF skips out because SCF is already converged.

 **********************************************************************

            Population analysis using the SCF Density.

 **********************************************************************

 Orbital symmetries:
       Occupied  (A) (A) (A) (A) (A) (A) (A) (A) (A) (A) (A) (A)
                 (A) (A) (A) (A) (A) (A) (A) (A) (A) (A) (A) (A)
                 (A) (A) (A) (A) (A) (A) (A) (A) (A) (A) (A) (A)
                 (A) (A) (A) (A) (A) (A) (A) (A) (A) (A) (A) (A)
                 (A) (A) (A) (A) (A) (A) (A) (A) (A) (A) (A) (A)
                 (A) (A) (A) (A) (A) (A) (A) (A) (A) (A) (A) (A)
                 (A) (A) (A) (A) (A) (A) (A) (A) (A) (A) (A) (A)
                 (A) (A) (A) (A) (A)
       Virtual   (A) (A) (A) (A) (A) (A) (A) (A) (A) (A) (A) (A)
                 (A) (A) (A) (A) (A) (A) (A) (A) (A) (A) (A) (A)
                 (A) (A) (A) (A) (A) (A) (A) (A) (A) (A) (A) (A)
                 (A) (A) (A) (A) (A) (A) (A) (A) (A) (A) (A) (A)
                 (A) (A) (A) (A) (A) (A) (A) (A) (A) (A) (A) (A)
                 (A) (A) (A) (A) (A) (A) (A) (A) (A) (A) (A) (A)
                 (A) (A) (A) (A) (A) (A) (A) (A) (A) (A) (A) (A)
                 (A) (A) (A) (A) (A) (A) (A) (A) (A) (A) (A) (A)
                 (A) (A) (A) (A) (A) (A) (A) (A) (A) (A) (A) (A)
                 (A) (A) (A) (A) (A) (A) (A) (A) (A) (A) (A) (A)
                 (A) (A) (A) (A) (A) (A) (A) (A) (A) (A) (A) (A)
                 (A) (A) (A) (A) (A) (A) (A) (A) (A) (A) (A) (A)
                 (A) (A) (A) (A) (A) (A) (A) (A) (A) (A) (A) (A)
                 (A) (A) (A) (A) (A) (A) (A) (A) (A) (A) (A) (A)
                 (A) (A) (A) (A) (A) (A) (A) (A) (A) (A) (A) (A)
                 (A) (A) (A) (A) (A) (A) (A) (A) (A) (A) (A) (A)
                 (A) (A) (A) (A) (A) (A) (A) (A) (A) (A) (A) (A)
                 (A) (A) (A) (A) (A) (A) (A) (A) (A) (A) (A) (A)
                 (A) (A) (A) (A) (A) (A) (A) (A) (A) (A) (A) (A)
                 (A) (A) (A) (A) (A) (A) (A) (A) (A) (A) (A) (A)
                 (A) (A) (A) (A) (A) (A) (A) (A) (A) (A) (A) (A)
                 (A) (A) (A) (A) (A) (A) (A) (A) (A) (A) (A) (A)
                 (A) (A) (A) (A) (A) (A) (A) (A) (A) (A) (A) (A)
                 (A) (A) (A) (A) (A) (A) (A) (A) (A) (A) (A) (A)
                 (A) (A) (A) (A) (A) (A) (A) (A) (A) (A) (A) (A)
                 (A) (A) (A) (A) (A) (A) (A) (A) (A) (A) (A) (A)
                 (A) (A) (A) (A) (A) (A) (A) (A) (A) (A) (A) (A)
                 (A) (A) (A) (A) (A) (A) (A) (A) (A) (A) (A) (A)
                 (A) (A) (A) (A) (A) (A) (A) (A) (A) (A) (A) (A)
                 (A) (A) (A) (A) (A) (A) (A) (A) (A) (A) (A) (A)
                 (A) (A) (A) (A) (A) (A) (A) (A) (A) (A) (A) (A)
                 (A)
 The electronic state is 1-A.
 Alpha  occ. eigenvalues -- -101.63126-101.62010-101.57479-101.56690-101.56027
 Alpha  occ. eigenvalues -- -101.55880 -10.28388 -10.28256 -10.27030 -10.26694
 Alpha  occ. eigenvalues --  -10.26506 -10.24821 -10.24001 -10.23896 -10.21865
 Alpha  occ. eigenvalues --  -10.21755 -10.21690 -10.21598  -9.55737  -9.54732
 Alpha  occ. eigenvalues --   -9.48950  -9.48122  -9.47545  -9.47341  -7.32295
 Alpha  occ. eigenvalues --   -7.31488  -7.31168  -7.30776  -7.30026  -7.29627
 Alpha  occ. eigenvalues --   -7.25428  -7.24608  -7.24429  -7.24374  -7.23997
 Alpha  occ. eigenvalues --   -7.23824  -7.23606  -7.23545  -7.23035  -7.22971
 Alpha  occ. eigenvalues --   -7.22835  -7.22748  -1.11796  -0.93901  -0.93060
 Alpha  occ. eigenvalues --   -0.89173  -0.87068  -0.86693  -0.84902  -0.83892
 Alpha  occ. eigenvalues --   -0.78936  -0.76959  -0.74896  -0.73702  -0.67372
 Alpha  occ. eigenvalues --   -0.64524  -0.62462  -0.61299  -0.58860  -0.55052
 Alpha  occ. eigenvalues --   -0.52823  -0.52296  -0.51211  -0.50895  -0.49351
 Alpha  occ. eigenvalues --   -0.47729  -0.46976  -0.45056  -0.44450  -0.44206
 Alpha  occ. eigenvalues --   -0.43164  -0.42493  -0.41855  -0.39633  -0.38041
 Alpha  occ. eigenvalues --   -0.36427  -0.35926  -0.35496  -0.34259  -0.33913
 Alpha  occ. eigenvalues --   -0.33858  -0.33330  -0.32704  -0.30585  -0.29046
 Alpha  occ. eigenvalues --   -0.28065  -0.26327  -0.25416  -0.12465
 Alpha virt. eigenvalues --   -0.09133  -0.06676  -0.06094  -0.04943  -0.04440
 Alpha virt. eigenvalues --   -0.02866  -0.01819  -0.01346  -0.00214   0.00622
 Alpha virt. eigenvalues --    0.00851   0.01660   0.02633   0.02890   0.03178
 Alpha virt. eigenvalues --    0.03465   0.03875   0.05236   0.05553   0.05573
 Alpha virt. eigenvalues --    0.05774   0.06547   0.07235   0.07287   0.07448
 Alpha virt. eigenvalues --    0.07837   0.08347   0.08580   0.09380   0.09534
 Alpha virt. eigenvalues --    0.09813   0.09848   0.10487   0.10684   0.11105
 Alpha virt. eigenvalues --    0.11285   0.11534   0.12820   0.12846   0.12875
 Alpha virt. eigenvalues --    0.13106   0.13831   0.14052   0.14510   0.14766
 Alpha virt. eigenvalues --    0.14927   0.15492   0.16145   0.16170   0.16521
 Alpha virt. eigenvalues --    0.17138   0.17728   0.17814   0.18310   0.18434
 Alpha virt. eigenvalues --    0.18538   0.19410   0.19476   0.19946   0.20819
 Alpha virt. eigenvalues --    0.21059   0.21259   0.21388   0.21739   0.22397
 Alpha virt. eigenvalues --    0.22709   0.23309   0.24001   0.24192   0.25160
 Alpha virt. eigenvalues --    0.25475   0.25704   0.25773   0.26347   0.26558
 Alpha virt. eigenvalues --    0.26885   0.27378   0.27864   0.28708   0.29387
 Alpha virt. eigenvalues --    0.29777   0.30296   0.30910   0.31567   0.31972
 Alpha virt. eigenvalues --    0.32756   0.33614   0.34670   0.35562   0.36407
 Alpha virt. eigenvalues --    0.37241   0.38299   0.40120   0.41057   0.41683
 Alpha virt. eigenvalues --    0.42985   0.43100   0.43513   0.44096   0.44538
 Alpha virt. eigenvalues --    0.45185   0.45842   0.46192   0.46405   0.47951
 Alpha virt. eigenvalues --    0.48403   0.48565   0.49121   0.49352   0.49885
 Alpha virt. eigenvalues --    0.50354   0.50396   0.50984   0.51774   0.52995
 Alpha virt. eigenvalues --    0.53145   0.55031   0.56410   0.56504   0.56707
 Alpha virt. eigenvalues --    0.57813   0.57985   0.58008   0.58731   0.59679
 Alpha virt. eigenvalues --    0.59686   0.60456   0.61674   0.61900   0.61947
 Alpha virt. eigenvalues --    0.62830   0.64226   0.64315   0.64649   0.65169
 Alpha virt. eigenvalues --    0.67588   0.68514   0.68788   0.70023   0.71152
 Alpha virt. eigenvalues --    0.72004   0.74327   0.76707   0.76731   0.78111
 Alpha virt. eigenvalues --    0.79864   0.80896   0.81060   0.82002   0.83222
 Alpha virt. eigenvalues --    0.84108   0.84252   0.84301   0.84668   0.84906
 Alpha virt. eigenvalues --    0.85268   0.85399   0.86096   0.86406   0.86876
 Alpha virt. eigenvalues --    0.87351   0.87558   0.88295   0.88685   0.89781
 Alpha virt. eigenvalues --    0.89999   0.90028   0.91545   0.92378   0.94243
 Alpha virt. eigenvalues --    0.94718   0.94878   0.95139   0.95415   0.96184
 Alpha virt. eigenvalues --    0.96325   0.96735   0.97035   0.97498   0.97787
 Alpha virt. eigenvalues --    0.99045   0.99630   1.00028   1.02026   1.02365
 Alpha virt. eigenvalues --    1.04254   1.05373   1.05992   1.06527   1.07972
 Alpha virt. eigenvalues --    1.08325   1.12814   1.14211   1.18592   1.19589
 Alpha virt. eigenvalues --    1.20510   1.21690   1.22979   1.23147   1.23740
 Alpha virt. eigenvalues --    1.24775   1.25734   1.26102   1.26109   1.27525
 Alpha virt. eigenvalues --    1.29013   1.29450   1.29655   1.31549   1.33557
 Alpha virt. eigenvalues --    1.35142   1.42402   1.43322   1.46528   1.48821
 Alpha virt. eigenvalues --    1.49660   1.50029   1.50551   1.54006   1.55695
 Alpha virt. eigenvalues --    1.58830   1.58978   1.60808   1.61554   1.63674
 Alpha virt. eigenvalues --    1.66385   1.68173   1.69535   1.70874   1.72777
 Alpha virt. eigenvalues --    1.76293   1.76467   1.80155   1.82794   1.83573
 Alpha virt. eigenvalues --    1.84173   1.85095   1.85130   1.86358   1.86921
 Alpha virt. eigenvalues --    1.87220   1.88172   1.88919   1.90416   1.93627
 Alpha virt. eigenvalues --    1.95256   1.96988   1.99034   2.02776   2.05845
 Alpha virt. eigenvalues --    2.08286   2.10439   2.16974   2.17170   2.18863
 Alpha virt. eigenvalues --    2.19162   2.21852   2.23331   2.24503   2.25265
 Alpha virt. eigenvalues --    2.26689   2.27102   2.28877   2.29192   2.29666
 Alpha virt. eigenvalues --    2.29985   2.32869   2.33151   2.34600   2.38258
 Alpha virt. eigenvalues --    2.40814   2.41086   2.42662   2.42876   2.43712
 Alpha virt. eigenvalues --    2.45012   2.51099   2.52581   2.53338   2.56101
 Alpha virt. eigenvalues --    2.57817   2.59554   2.59587   2.60967   2.61326
 Alpha virt. eigenvalues --    2.62691   2.63961   2.66838   2.68137   2.70054
 Alpha virt. eigenvalues --    2.72694   2.73678   2.74177   2.74237   2.75765
 Alpha virt. eigenvalues --    2.76619   2.78186   2.78211   2.79149   2.83924
 Alpha virt. eigenvalues --    2.85288   2.86984   2.88508   2.93423   3.04107
 Alpha virt. eigenvalues --    3.07174   3.08829   3.10151   3.13838   3.15378
 Alpha virt. eigenvalues --    3.18342   3.19989   3.20750   3.27967   3.31338
 Alpha virt. eigenvalues --    3.34145   3.36602   3.40892   3.50229   3.51922
 Alpha virt. eigenvalues --    3.65807   3.68329   3.70791   3.77479   3.90814
 Alpha virt. eigenvalues --    3.98229   4.04649   4.05659   4.13184   4.79205
 Alpha virt. eigenvalues --    4.81353   9.67875   9.75636   9.78480   9.80053
 Alpha virt. eigenvalues --    9.81902   9.98687  23.30195  23.40757  23.79966
 Alpha virt. eigenvalues --   23.83455  23.85351  23.87219  23.94773  23.96358
 Alpha virt. eigenvalues --   23.97520  24.01236  24.06276  24.11171  25.74194
 Alpha virt. eigenvalues --   25.77420  25.80416  25.83207  25.89030  25.99344
 Alpha virt. eigenvalues --   26.09543  26.11760  26.13713  26.21826  26.25864
 Alpha virt. eigenvalues --   26.45899  26.53744  26.64069  26.78199  26.94080
 Alpha virt. eigenvalues --   26.99470  27.01739 215.68341 215.75250 215.78672
 Alpha virt. eigenvalues --  215.80090 215.81983 216.05034
          Condensed to atoms (all electrons):
               1          2          3          4          5          6
     1  C   23.266537  -0.048813  -3.642513   0.670283  -2.092873  -2.131912
     2  C   -0.048813  18.028508  -3.411912   2.162669   0.857881  -8.154039
     3  C   -3.642513  -3.411912  10.758276  -0.227656  -1.090238   3.510717
     4  C    0.670283   2.162669  -0.227656  13.388242  -2.924275  -5.931331
     5  C   -2.092873   0.857881  -1.090238  -2.924275  14.544343  -4.119068
     6  C   -2.131912  -8.154039   3.510717  -5.931331  -4.119068  29.726627
     7  C    5.595235  -1.321655  -0.855881  -0.131729  -1.201646  -1.463258
     8  C    0.776211   2.000128  -0.943765   0.307871   0.158294  -2.361639
     9  C   -1.590350  -0.640210   0.128860  -0.141091  -0.364135  -0.809630
    10  C   -1.240290   0.224493   0.110485   0.059629  -0.057812   0.259395
    11  C   -1.406872  -0.048921  -0.054896   0.059732  -0.066712   0.496293
    12  C   -6.990443  -3.874364   0.784256  -0.506682   0.596293  -0.078729
    13  H    0.058342   0.346705  -0.079362  -0.028409   0.002904   0.003208
    14  H   -0.029795  -0.042316   0.434300  -0.024088  -0.037383   0.041710
    15  H   -0.008908  -0.039172  -0.035008   0.345488   0.012785   0.060856
    16  H   -0.004350   0.028135   0.001771   0.002260  -0.004642  -0.029653
    17  Cl   7.293330   1.348885  -1.378396   1.231168  -4.778149   9.795272
    18  Cl -11.564814  -1.222700   2.196783  -0.842586   6.673292 -12.282563
    19  Cl   0.195668  -0.008545  -0.004562   0.005276   0.029582  -0.190974
    20  Cl  -0.599693  -0.011209   0.076031  -1.048422  -0.451108   1.201965
    21  Cl  -0.122946  -0.004145  -0.002766   0.000816  -0.005572   0.014737
    22  Cl  -0.143918  -0.044748   0.004346  -0.003606  -0.007376  -0.044358
               7          8          9         10         11         12
     1  C    5.595235   0.776211  -1.590350  -1.240290  -1.406872  -6.990443
     2  C   -1.321655   2.000128  -0.640210   0.224493  -0.048921  -3.874364
     3  C   -0.855881  -0.943765   0.128860   0.110485  -0.054896   0.784256
     4  C   -0.131729   0.307871  -0.141091   0.059629   0.059732  -0.506682
     5  C   -1.201646   0.158294  -0.364135  -0.057812  -0.066712   0.596293
     6  C   -1.463258  -2.361639  -0.809630   0.259395   0.496293  -0.078729
     7  C   24.148050  -0.050648  -5.360086   6.086175  -3.775480  -6.261354
     8  C   -0.050648  12.082951   0.962604  -4.610668   1.800085  -3.554701
     9  C   -5.360086   0.962604  21.015042  -9.595180  -3.126924   4.151439
    10  C    6.086175  -4.610668  -9.595180  24.306666  -1.886163  -3.797590
    11  C   -3.775480   1.800085  -3.126924  -1.886163  14.323008  -1.612632
    12  C   -6.261354  -3.554701   4.151439  -3.797590  -1.612632  35.562654
    13  H    0.020153   0.017896   0.005149  -0.004633  -0.001081  -0.018132
    14  H   -0.009207   0.002735  -0.000164   0.000091   0.000203  -0.000373
    15  H   -0.000865  -0.000205   0.000026   0.000032   0.000010   0.002328
    16  H    0.023881   0.276789  -0.016515  -0.008347  -0.027931   0.058976
    17  Cl  -9.851835   0.106617   1.872187  -4.016214   4.461038 -27.050292
    18  Cl   2.532500  -0.431146  -0.798156   1.558525  -1.540226  19.072779
    19  Cl   0.033497   0.373072   0.190149  -0.212245  -1.319511   0.248256
    20  Cl  -0.051378  -0.049465   0.007850  -0.005515  -0.014194   0.061226
    21  Cl  -0.378640  -0.388736  -0.630872  -0.413056   0.833637  -0.075228
    22  Cl  -1.113017   0.196337   0.291610  -0.470079  -0.194061   0.612702
              13         14         15         16         17         18
     1  C    0.058342  -0.029795  -0.008908  -0.004350   7.293330 -11.564814
     2  C    0.346705  -0.042316  -0.039172   0.028135   1.348885  -1.222700
     3  C   -0.079362   0.434300  -0.035008   0.001771  -1.378396   2.196783
     4  C   -0.028409  -0.024088   0.345488   0.002260   1.231168  -0.842586
     5  C    0.002904  -0.037383   0.012785  -0.004642  -4.778149   6.673292
     6  C    0.003208   0.041710   0.060856  -0.029653   9.795272 -12.282563
     7  C    0.020153  -0.009207  -0.000865   0.023881  -9.851835   2.532500
     8  C    0.017896   0.002735  -0.000205   0.276789   0.106617  -0.431146
     9  C    0.005149  -0.000164   0.000026  -0.016515   1.872187  -0.798156
    10  C   -0.004633   0.000091   0.000032  -0.008347  -4.016214   1.558525
    11  C   -0.001081   0.000203   0.000010  -0.027931   4.461038  -1.540226
    12  C   -0.018132  -0.000373   0.002328   0.058976 -27.050292  19.072779
    13  H    0.540455  -0.005832  -0.000223   0.001743  -0.013322   0.016547
    14  H   -0.005832   0.526152  -0.005533  -0.000037  -0.004080   0.012546
    15  H   -0.000223  -0.005533   0.503642  -0.000002  -0.004148   0.013963
    16  H    0.001743  -0.000037  -0.000002   0.540398   0.051526  -0.028940
    17  Cl  -0.013322  -0.004080  -0.004148   0.051526  96.195131 -58.815496
    18  Cl   0.016547   0.012546   0.013963  -0.028940 -58.815496  71.359236
    19  Cl   0.000042  -0.000000  -0.000000   0.001054  -0.521287  -0.320954
    20  Cl   0.000659  -0.000278   0.000432  -0.000008  -0.725777   0.225401
    21  Cl  -0.000015  -0.000001  -0.000000   0.001629   0.385278  -0.100975
    22  Cl  -0.000101  -0.000007  -0.000000  -0.007954   0.059279  -0.015426
              19         20         21         22
     1  C    0.195668  -0.599693  -0.122946  -0.143918
     2  C   -0.008545  -0.011209  -0.004145  -0.044748
     3  C   -0.004562   0.076031  -0.002766   0.004346
     4  C    0.005276  -1.048422   0.000816  -0.003606
     5  C    0.029582  -0.451108  -0.005572  -0.007376
     6  C   -0.190974   1.201965   0.014737  -0.044358
     7  C    0.033497  -0.051378  -0.378640  -1.113017
     8  C    0.373072  -0.049465  -0.388736   0.196337
     9  C    0.190149   0.007850  -0.630872   0.291610
    10  C   -0.212245  -0.005515  -0.413056  -0.470079
    11  C   -1.319511  -0.014194   0.833637  -0.194061
    12  C    0.248256   0.061226  -0.075228   0.612702
    13  H    0.000042   0.000659  -0.000015  -0.000101
    14  H   -0.000000  -0.000278  -0.000001  -0.000007
    15  H   -0.000000   0.000432  -0.000000  -0.000000
    16  H    0.001054  -0.000008   0.001629  -0.007954
    17  Cl  -0.521287  -0.725777   0.385278   0.059279
    18  Cl  -0.320954   0.225401  -0.100975  -0.015426
    19  Cl  18.177646  -0.003020  -0.330546   0.001282
    20  Cl  -0.003020  17.825545  -0.000144   0.000018
    21  Cl  -0.330546  -0.000144  17.774187  -0.175358
    22  Cl   0.001282   0.000018  -0.175358  17.521706
 Mulliken charges:
               1
     1  C   -0.237114
     2  C   -0.124655
     3  C   -0.278870
     4  C   -0.423557
     5  C    0.325616
     6  C   -1.513629
     7  C   -0.612810
     8  C   -0.670617
     9  C    0.448397
    10  C   -0.287699
    11  C   -0.898403
    12  C   -1.330388
    13  H    0.137308
    14  H    0.141356
    15  H    0.154501
    16  H    0.140219
    17  Cl   1.359285
    18  Cl   1.302411
    19  Cl   0.656120
    20  Cl   0.561084
    21  Cl   0.618715
    22  Cl   0.532730
 Sum of Mulliken charges =  -0.00000
 Mulliken charges with hydrogens summed into heavy atoms:
               1
     1  C   -0.237114
     2  C    0.012653
     3  C   -0.137513
     4  C   -0.269056
     5  C    0.325616
     6  C   -1.513629
     7  C   -0.612810
     8  C   -0.530398
     9  C    0.448397
    10  C   -0.287699
    11  C   -0.898403
    12  C   -1.330388
    17  Cl   1.359285
    18  Cl   1.302411
    19  Cl   0.656120
    20  Cl   0.561084
    21  Cl   0.618715
    22  Cl   0.532730
 Electronic spatial extent (au):  <R**2>=           8852.3517
 Charge=             -0.0000 electrons
 Dipole moment (field-independent basis, Debye):
    X=             -4.3238    Y=              1.8840    Z=              0.0000  Tot=              4.7165
 Quadrupole moment (field-independent basis, Debye-Ang):
   XX=           -155.6657   YY=           -135.4216   ZZ=           -147.6156
   XY=             -5.8782   XZ=             -0.0000   YZ=              0.0000
 Traceless Quadrupole moment (field-independent basis, Debye-Ang):
   XX=             -9.4314   YY=             10.8127   ZZ=             -1.3813
   XY=             -5.8782   XZ=             -0.0000   YZ=              0.0000
 Octapole moment (field-independent basis, Debye-Ang**2):
  XXX=            -39.4093  YYY=              3.1903  ZZZ=             -0.0000  XYY=            -38.0682
  XXY=             27.4937  XXZ=              0.0002  XZZ=              8.2584  YZZ=            -16.4268
  YYZ=              0.0001  XYZ=             -0.0000
 Hexadecapole moment (field-independent basis, Debye-Ang**3):
 XXXX=          -8939.9781 YYYY=          -2578.4209 ZZZZ=           -173.7419 XXXY=           -137.5533
 XXXZ=             -0.0005 YYYX=            -15.6114 YYYZ=              0.0004 ZZZX=              0.0002
 ZZZY=             -0.0001 XXYY=          -1834.0421 XXZZ=          -1552.9474 YYZZ=           -507.3075
 XXYZ=              0.0003 YYXZ=             -0.0003 ZZXY=             32.8919
 N-N= 2.046025341682D+03 E-N=-1.172050372726D+04  KE= 3.213982195171D+03
 Calling FoFJK, ICntrl=      2127 FMM=F ISym2X=0 I1Cent= 0 IOpClX= 0 NMat=1 NMatS=1 NMatT=0.
 ***** Axes restored to original set *****
 -------------------------------------------------------------------
 Center     Atomic                   Forces (Hartrees/Bohr)
 Number     Number              X              Y              Z
 -------------------------------------------------------------------
      1        6          -0.020176948   -0.023093303    0.002310549
      2        6          -0.014849717    0.010725202    0.006906615
      3        6          -0.018946402    0.001809230    0.006581872
      4        6          -0.004163947   -0.013542203   -0.001171732
      5        6          -0.005080440   -0.005182522    0.000700650
      6        6           0.042270886   -0.005285546   -0.014918926
      7        6          -0.011124393    0.021213579    0.007648939
      8        6          -0.012799021    0.011854669    0.006443268
      9        6          -0.000587582    0.006570369    0.001427579
     10        6          -0.006647187   -0.000639261    0.002069848
     11        6           0.023625759    0.009914006   -0.005921821
     12        6           0.021875334   -0.111968808   -0.028235586
     13        1           0.003924396   -0.008000842   -0.002795600
     14        1           0.009333281    0.001036010   -0.002880274
     15        1           0.003206701    0.008571096    0.000553234
     16        1           0.009399968   -0.001864248   -0.003447111
     17       17          -0.256984161   -0.412313339    0.007232547
     18       17           0.236501364    0.506215221    0.017150957
     19       17          -0.008842184   -0.004310667    0.002103518
     20       17           0.007540931    0.005142551   -0.001518538
     21       17           0.000927081   -0.002130365   -0.000705521
     22       17           0.001596281    0.005279173    0.000465535
 -------------------------------------------------------------------
 Cartesian Forces:  Max     0.506215221 RMS     0.092832141

 GradGradGradGradGradGradGradGradGradGradGradGradGradGradGradGradGradGrad
 Berny optimization.
 FormGI is forming the generalized inverse of G from B-inverse, IUseBI=4.
 Internal  Forces:  Max     0.533831795 RMS     0.060478051
 Search for a local minimum.
 Step number   1 out of a maximum of  112
 All quantities printed in internal units (Hartrees-Bohrs-Radians)
 Mixed Optimization -- RFO/linear search
 Second derivative matrix not updated -- first step.
 ITU=  0
     Eigenvalues ---    0.00238   0.00238   0.01655   0.01655   0.02070
     Eigenvalues ---    0.02070   0.02070   0.02070   0.02070   0.02070
     Eigenvalues ---    0.02070   0.02070   0.02070   0.02070   0.02070
     Eigenvalues ---    0.02070   0.02070   0.02070   0.04301   0.16000
     Eigenvalues ---    0.16000   0.16000   0.16000   0.22076   0.23331
     Eigenvalues ---    0.23353   0.24905   0.25000   0.25000   0.25000
     Eigenvalues ---    0.25000   0.25000   0.25000   0.25000   0.25000
     Eigenvalues ---    0.25000   0.25000   0.29539   0.29539   0.29539
     Eigenvalues ---    0.29539   0.29539   0.29539   0.37230   0.37230
     Eigenvalues ---    0.37230   0.37230   0.41539   0.41671   0.41990
     Eigenvalues ---    0.42184   0.45389   0.45389   0.45389   0.45389
     Eigenvalues ---    0.45389   0.45389   0.45389   0.45389   1.32680
 RFO step:  Lambda=-3.24551326D-01 EMin= 2.37798995D-03
 Linear search not attempted -- first point.
 Maximum step size (   0.300) exceeded in Quadratic search.
    -- Step size scaled by   0.495
 Iteration  1 RMS(Cart)=  0.30462509 RMS(Int)=  0.01500259
 Iteration  2 RMS(Cart)=  0.22847824 RMS(Int)=  0.00437542
 Iteration  3 RMS(Cart)=  0.00722143 RMS(Int)=  0.00000681
 Iteration  4 RMS(Cart)=  0.00000304 RMS(Int)=  0.00000679
 Iteration  5 RMS(Cart)=  0.00000000 RMS(Int)=  0.00000679
 Variable       Old X    -DE/DX   Delta X   Delta X   Delta X     New X
                                 (Linear)    (Quad)   (Total)
    R1        2.64826  -0.01536   0.00000  -0.00981  -0.00981   2.63846
    R2        2.64826  -0.00180   0.00000  -0.00115  -0.00114   2.64712
    R3        2.64826  -0.00063   0.00000  -0.00044  -0.00045   2.64782
    R4        2.02201   0.00934   0.00000   0.00663   0.00663   2.02864
    R5        2.64826  -0.00468   0.00000  -0.00298  -0.00299   2.64528
    R6        2.02201   0.00979   0.00000   0.00695   0.00695   2.02896
    R7        2.64826  -0.00729   0.00000  -0.00460  -0.00460   2.64366
    R8        2.02201   0.00901   0.00000   0.00641   0.00641   2.02841
    R9        2.64826  -0.00535   0.00000  -0.00336  -0.00336   2.64491
   R10        3.32592   0.00051   0.00000   0.00040   0.00040   3.32632
   R11        3.32592   0.00424   0.00000   0.00338   0.00338   3.32930
   R12        2.64826  -0.02021   0.00000  -0.01308  -0.01309   2.63517
   R13        2.64826  -0.02047   0.00000  -0.01337  -0.01336   2.63490
   R14        2.64826  -0.00534   0.00000  -0.00327  -0.00328   2.64498
   R15        2.02201   0.00996   0.00000   0.00708   0.00708   2.02909
   R16        2.64826   0.00466   0.00000   0.00332   0.00331   2.65157
   R17        3.32592  -0.00387   0.00000  -0.00309  -0.00309   3.32282
   R18        2.64826  -0.00136   0.00000  -0.00064  -0.00063   2.64763
   R19        3.32592   0.00137   0.00000   0.00109   0.00109   3.32701
   R20        2.64826  -0.01242   0.00000  -0.00803  -0.00801   2.64025
   R21        3.32592   0.00915   0.00000   0.00731   0.00731   3.33323
   R22        3.32592   0.06892   0.00000   0.05505   0.05505   3.38097
   R23        3.16132   0.53383   0.00000   0.16007   0.16007   3.32140
    A1        2.09440  -0.01237   0.00000  -0.01079  -0.01078   2.08361
    A2        2.09440  -0.00056   0.00000  -0.00066  -0.00066   2.09373
    A3        2.09440  -0.00000   0.00000   0.00004   0.00004   2.09444
    A4        2.09440   0.00056   0.00000   0.00062   0.00062   2.09502
    A5        2.09440   0.00684   0.00000   0.00612   0.00611   2.10050
    A6        2.09440  -0.00257   0.00000  -0.00219  -0.00218   2.09221
    A7        2.09440  -0.00427   0.00000  -0.00393  -0.00392   2.09047
    A8        2.09440   0.00013   0.00000   0.00012   0.00011   2.09451
    A9        2.09440   0.00163   0.00000   0.00167   0.00167   2.09607
   A10        2.09440  -0.00175   0.00000  -0.00179  -0.00178   2.09261
   A11        2.09440  -0.01492   0.00000  -0.01280  -0.01280   2.08160
   A12        2.09440  -0.00790   0.00000  -0.00684  -0.00684   2.08755
   A13        2.09440   0.02282   0.00000   0.01964   0.01964   2.11403
   A14        2.09440   0.02088   0.00000   0.01801   0.01802   2.11242
   A15        2.09440  -0.07331   0.00000  -0.06319  -0.06320   2.03120
   A16        2.09440   0.05243   0.00000   0.04518   0.04517   2.13957
   A17        2.09440  -0.00212   0.00000  -0.00289  -0.00288   2.09151
   A18        2.09440  -0.00433   0.00000  -0.00398  -0.00400   2.09040
   A19        2.09440   0.00430   0.00000   0.00417   0.00418   2.09857
   A20        2.09440   0.00003   0.00000  -0.00019  -0.00018   2.09422
   A21        2.09440   0.00638   0.00000   0.00626   0.00623   2.10063
   A22        2.09440  -0.00977   0.00000  -0.00880  -0.00878   2.08561
   A23        2.09440   0.00338   0.00000   0.00254   0.00255   2.09694
   A24        2.09440  -0.00646   0.00000  -0.00467  -0.00467   2.08972
   A25        2.09440  -0.00011   0.00000  -0.00054  -0.00054   2.09385
   A26        2.09440   0.00657   0.00000   0.00521   0.00521   2.09961
   A27        2.09440  -0.01214   0.00000  -0.01023  -0.01022   2.08418
   A28        2.09440  -0.00088   0.00000  -0.00088  -0.00089   2.09351
   A29        2.09440   0.01303   0.00000   0.01111   0.01110   2.10550
   A30        2.09440   0.01866   0.00000   0.01551   0.01554   2.10993
   A31        2.09440  -0.08662   0.00000  -0.07437  -0.07438   2.02001
   A32        2.09440   0.06796   0.00000   0.05886   0.05885   2.15324
   A33        2.09440  -0.10202   0.00000  -0.08792  -0.08792   2.00647
   A34        2.09440  -0.22005   0.00000  -0.18964  -0.18964   1.90475
    D1        0.00000   0.00000   0.00000   0.00000   0.00000   0.00000
    D2        3.14159   0.00000   0.00000   0.00000   0.00000   3.14159
    D3       -0.00000  -0.00000   0.00000  -0.00000  -0.00000  -0.00000
    D4        3.14159   0.00000   0.00000   0.00000   0.00000   3.14159
    D5        0.00000  -0.00000   0.00000  -0.00000  -0.00000   0.00000
    D6        3.14159  -0.00000   0.00000  -0.00000  -0.00000   3.14159
    D7       -3.14159  -0.00000   0.00000  -0.00000  -0.00000  -3.14159
    D8        0.00000  -0.00000   0.00000  -0.00000  -0.00000   0.00000
    D9       -0.00000   0.00000   0.00000   0.00000   0.00000  -0.00000
   D10        3.14159  -0.00000   0.00000  -0.00000  -0.00000   3.14159
   D11        3.14159   0.00000   0.00000   0.00000   0.00000   3.14159
   D12        0.00000  -0.00000   0.00000  -0.00000  -0.00000   0.00000
   D13        0.00000  -0.00000   0.00000  -0.00000  -0.00000   0.00000
   D14       -3.14159  -0.00000   0.00000  -0.00000  -0.00000  -3.14159
   D15       -3.14159  -0.00000   0.00000  -0.00000  -0.00000  -3.14159
   D16        0.00000  -0.00000   0.00000  -0.00000  -0.00000   0.00000
   D17       -0.00000   0.00000   0.00000   0.00000   0.00000  -0.00000
   D18        3.14159  -0.00000   0.00000  -0.00000  -0.00000   3.14159
   D19        3.14159   0.00000   0.00000   0.00000   0.00000   3.14159
   D20       -0.00000  -0.00000   0.00000  -0.00000  -0.00000  -0.00000
   D21        0.00001  -0.00000   0.00000  -0.00000  -0.00000   0.00001
   D22       -3.14159  -0.00000   0.00000  -0.00000  -0.00000  -3.14159
   D23        0.00000   0.00000   0.00000   0.00000   0.00000   0.00000
   D24       -3.14159  -0.00000   0.00000  -0.00000  -0.00000  -3.14159
   D25       -0.00000  -0.00000   0.00000  -0.00000  -0.00000  -0.00000
   D26        3.14159   0.00000   0.00000   0.00000   0.00000   3.14159
   D27       -0.00000  -0.00000   0.00000  -0.00000  -0.00000  -0.00000
   D28        3.14159  -0.00000   0.00000  -0.00000  -0.00000   3.14159
   D29        3.14159   0.00000   0.00000   0.00000   0.00000   3.14159
   D30       -0.00000   0.00000   0.00000   0.00000   0.00000  -0.00000
   D31       -0.00000  -0.00000   0.00000  -0.00000  -0.00000  -0.00000
   D32       -3.14159  -0.00000   0.00000  -0.00000  -0.00000  -3.14159
   D33        3.14159   0.00000   0.00000   0.00000   0.00000   3.14159
   D34        0.00000   0.00000   0.00000   0.00000   0.00000   0.00000
   D35        0.00000  -0.00000   0.00000  -0.00000  -0.00000   0.00000
   D36       -3.14159  -0.00000   0.00000  -0.00000  -0.00000  -3.14159
   D37        3.14159   0.00000   0.00000   0.00000   0.00000   3.14159
   D38        0.00000  -0.00000   0.00000  -0.00000  -0.00000   0.00000
   D39        0.00000   0.00000   0.00000   0.00000   0.00000   0.00000
   D40       -3.14159  -0.00000   0.00000  -0.00000  -0.00000  -3.14159
   D41        3.14159   0.00000   0.00000   0.00000   0.00000   3.14159
   D42       -0.00000  -0.00000   0.00000  -0.00000  -0.00000  -0.00000
   D43        0.00001  -0.00000   0.00000  -0.00000  -0.00000   0.00001
   D44       -3.14159  -0.00000   0.00000  -0.00000  -0.00000  -3.14159
   D45       -0.00001  -0.00000   0.00000  -0.00000  -0.00000  -0.00001
         Item               Value     Threshold  Converged?
 Maximum Force            0.533832     0.000450     NO 
 RMS     Force            0.060478     0.000300     NO 
 Maximum Displacement     1.666277     0.001800     NO 
 RMS     Displacement     0.532264     0.001200     NO 
 Predicted change in Energy=-1.355241D-01
 GradGradGradGradGradGradGradGradGradGradGradGradGradGradGradGradGradGrad

                          Input orientation:                          
 ---------------------------------------------------------------------
 Center     Atomic      Atomic             Coordinates (Angstroms)
 Number     Number       Type             X           Y           Z
 ---------------------------------------------------------------------
      1          6           0       -1.116690    0.775539    0.123747
      2          6           0        0.168866    0.507010   -0.350217
      3          6           0        1.103844    1.544442   -0.463411
      4          6           0        0.756668    2.851889   -0.103484
      5          6           0       -0.529543    3.128449    0.372202
      6          6           0       -1.457232    2.086208    0.482092
      7          6           0       -1.681616   -0.312367    0.105541
      8          6           0       -0.857089   -1.336760   -0.358496
      9          6           0       -1.351665   -2.643529   -0.440976
     10          6           0       -2.671731   -2.927552   -0.059410
     11          6           0       -3.497606   -1.896081    0.406402
     12          6           0       -2.993252   -0.595473    0.484503
     13          1           0        0.440518   -0.493814   -0.627674
     14          1           0        2.092039    1.336368   -0.828053
     15          1           0        1.476149    3.643537   -0.191841
     16          1           0        0.154032   -1.126055   -0.652044
     17         17           0       -3.953167    0.799248    1.062699
     18         17           0       -3.099268    2.335473    1.069880
     19         17           0       -5.157960   -2.246681    0.887580
     20         17           0       -0.954847    4.776277    0.821791
     21         17           0       -3.283286   -4.574971   -0.167324
     22         17           0       -0.305719   -3.929710   -1.027128
 ---------------------------------------------------------------------
                    Distance matrix (angstroms):
                    1          2          3          4          5
     1  C    0.000000
     2  C    1.396211   0.000000
     3  C    2.422135   1.401164   0.000000
     4  C    2.805768   2.429989   1.399820   0.000000
     5  C    2.437757   2.807420   2.423898   1.398965   0.000000
     6  C    1.400798   2.414705   2.783271   2.414647   1.399624
     7  C    1.225974   2.074459   3.395620   4.000180   3.638350
     8  C    2.182145   2.110009   3.486773   4.496001   4.536441
     9  C    3.473349   3.499449   4.854804   5.895641   5.886669
    10  C    4.020520   4.466517   5.866593   6.719956   6.438199
    11  C    3.589736   4.448633   5.810948   6.395471   5.835792
    12  C    2.351872   3.451263   4.718471   5.127566   4.466550
    13  H    2.144944   1.073510   2.149760   3.401243   3.880922
    14  H    3.393581   2.148198   1.073680   2.145931   3.394828
    15  H    3.879152   3.401745   2.149083   1.073390   2.146220
    16  H    2.415087   1.660789   2.840647   4.060557   4.429126
    17  Cl   2.987942   4.367253   5.334575   5.268384   4.197996
    18  Cl   2.694286   4.005078   4.543441   4.063460   2.778318
    19  Cl   5.103833   6.122910   7.443653   7.871496   7.111953
    20  Cl   4.064402   4.567601   4.041623   2.736547   1.760214
    21  Cl   5.779863   6.146327   7.535370   8.454795   8.198590
    22  Cl   4.911370   4.513083   5.680756   6.926173   7.199016
                    6          7          8          9         10
     6  C    0.000000
     7  C    2.438299   0.000000
     8  C    3.575398   1.394474   0.000000
     9  C    4.820126   2.416995   1.399662   0.000000
    10  C    5.187102   2.801202   2.431666   1.403152   0.000000
    11  C    4.475208   2.428268   2.805395   2.425241   1.401066
    12  C    3.090433   1.394328   2.413161   2.783137   2.416156
    13  H    3.389624   2.252550   1.570605   2.805005   3.991504
    14  H    3.856950   4.222606   4.007924   5.277168   6.439358
    15  H    3.388832   5.070413   5.502284   6.898246   7.771850
    16  H    3.768431   2.146072   1.073747   2.148115   3.403166
    17  Cl   2.867589   2.704031   4.020948   4.569635   4.097590
    18  Cl   1.761791   3.154479   4.533532   5.488830   5.399770
    19  Cl   5.712594   4.054395   4.569262   4.050979   2.746218
    20  Cl   2.757582   5.189943   6.226705   7.536947   7.941864
    21  Cl   6.937401   4.561754   4.050802   2.745271   1.760578
    22  Cl   6.308328   4.032518   2.733947   1.758363   2.745689
                   11         12         13         14         15
    11  C    0.000000
    12  C    1.397159   0.000000
    13  H    4.306331   3.610824   0.000000
    14  H    6.573944   5.595981   2.473305   0.000000
    15  H    7.468835   6.196950   4.287207   2.471257   0.000000
    16  H    3.879137   3.388016   0.694548   3.138531   4.970793
    17  Cl   2.811238   1.789132   4.881991   6.356726   6.256303
    18  Cl   4.301735   2.990711   4.839074   5.616941   4.923150
    19  Cl   1.763867   2.752257   6.059001   8.267050   8.937069
    20  Cl   7.152519   5.755394   5.641086   4.882466   2.867105
    21  Cl   2.748008   4.042945   5.543869   8.017145   9.497194
    22  Cl   4.047073   4.541475   3.538618   5.789685   7.824757
                   16         17         18         19         20
    16  H    0.000000
    17  Cl   4.849352   0.000000
    18  Cl   5.052836   1.757608   0.000000
    19  Cl   5.643004   3.280224   5.026687   0.000000
    20  Cl   6.183796   4.986454   3.258468   8.184890   0.000000
    21  Cl   4.893376   5.553731   7.022733   3.169883   9.687406
    22  Cl   2.865753   6.327266   7.173136   5.481143   8.923793
                   21         22
    21  Cl   0.000000
    22  Cl   3.165680   0.000000
 Stoichiometry    C12H4Cl6
 Framework group  C1[X(C12H4Cl6)]
 Deg. of freedom    60
 Full point group                 C1      NOp   1
 Largest Abelian subgroup         C1      NOp   1
 Largest concise Abelian subgroup C1      NOp   1
                         Standard orientation:                         
 ---------------------------------------------------------------------
 Center     Atomic      Atomic             Coordinates (Angstroms)
 Number     Number       Type             X           Y           Z
 ---------------------------------------------------------------------
      1          6           0       -1.169364    0.707510    0.000003
      2          6           0       -1.176784    2.103701    0.000007
      3          6           0       -2.394395    2.797016    0.000010
      4          6           0       -3.606765    2.097262    0.000009
      5          6           0       -3.607103    0.698298    0.000002
      6          6           0       -2.386304    0.013757   -0.000001
      7          6           0        0.019734    0.409085   -0.000003
      8          6           0        0.852956    1.527253   -0.000004
      9          6           0        2.242418    1.358582   -0.000004
     10          6           0        2.800480    0.071181   -0.000002
     11          6           0        1.960582   -1.050227   -0.000001
     12          6           0        0.575115   -0.869860   -0.000001
     13          1           0       -0.249986    2.645429    0.000011
     14          1           0       -2.398469    3.870688    0.000014
     15          1           0       -4.537174    2.632524    0.000011
     16          1           0        0.432233    2.515141   -0.000003
     17         17           0       -0.593681   -2.224449    0.000003
     18         17           0       -2.284659   -1.745099   -0.000008
     19         17           0        2.655974   -2.671232    0.000006
     20         17           0       -5.137690   -0.170987   -0.000004
     21         17           0        4.549625   -0.129138    0.000001
     22         17           0        3.286312    2.773546   -0.000006
 ---------------------------------------------------------------------
 Rotational constants (GHZ):           0.4511331           0.1584917           0.1172866
 Standard basis: 6-311+G(d,p) (5D, 7F)
 There are   486 symmetry adapted cartesian basis functions of A   symmetry.
 There are   468 symmetry adapted basis functions of A   symmetry.
   468 basis functions,   782 primitive gaussians,   486 cartesian basis functions
    89 alpha electrons       89 beta electrons
       nuclear repulsion energy      2110.6693221867 Hartrees.
 NAtoms=   22 NActive=   22 NUniq=   22 SFac= 1.00D+00 NAtFMM=   60 NAOKFM=F Big=F
 Integral buffers will be    131072 words long.
 Raffenetti 2 integral format.
 Two-electron integral symmetry is turned on.
 One-electron integrals computed using PRISM.
 NBasis=   468 RedAO= T EigKep=  1.04D-06  NBF=   468
 NBsUse=   461 1.00D-06 EigRej=  5.37D-07 NBFU=   461
 Initial guess from the checkpoint file:  "./Gau-91556.chk"
 B after Tr=    -0.000000    0.000000    0.000000
         Rot=    0.999950   -0.000000   -0.000000    0.009951 Ang=  -1.14 deg.
 ExpMin= 4.38D-02 ExpMax= 1.06D+05 ExpMxC= 3.62D+03 IAcc=3 IRadAn=         5 AccDes= 0.00D+00
 Harris functional with IExCor=  402 and IRadAn=       5 diagonalized for initial guess.
 HarFok:  IExCor=  402 AccDes= 0.00D+00 IRadAn=         5 IDoV= 1 UseB2=F ITyADJ=14
 ICtDFT=  3500011 ScaDFX=  1.000000  1.000000  1.000000  1.000000
 FoFCou: FMM=F IPFlag=           0 FMFlag=      100000 FMFlg1=           0
         NFxFlg=           0 DoJE=T BraDBF=F KetDBF=T FulRan=T
         wScrn=  0.000000 ICntrl=       500 IOpCl=  0 I1Cent=   200000004 NGrid=           0
         NMat0=    1 NMatS0=      1 NMatT0=    0 NMatD0=    1 NMtDS0=    0 NMtDT0=    0
 Petite list used in FoFCou.
 Requested convergence on RMS density matrix=1.00D-08 within  32 cycles.
 Requested convergence on MAX density matrix=1.00D-06.
 Requested convergence on             energy=1.00D-06.
 No special actions if energy rises.
 Restarting incremental Fock formation.
 SCF Done:  E(RB3LYP) =  -3220.44598638     A.U. after   28 cycles
            NFock= 28  Conv=0.55D-08     -V/T= 2.0016
 QCSCF skips out because SCF is already converged.
 Calling FoFJK, ICntrl=      2127 FMM=F ISym2X=0 I1Cent= 0 IOpClX= 0 NMat=1 NMatS=1 NMatT=0.
 ***** Axes restored to original set *****
 -------------------------------------------------------------------
 Center     Atomic                   Forces (Hartrees/Bohr)
 Number     Number              X              Y              Z
 -------------------------------------------------------------------
      1        6           0.164055556    0.228734189   -0.011090637
      2        6           0.105058690    0.172568847   -0.002200836
      3        6          -0.020594106   -0.000795506    0.006635519
      4        6          -0.004850587   -0.004857703    0.000685433
      5        6          -0.006608005    0.004060946    0.002939753
      6        6           0.005102412   -0.046993256   -0.010506448
      7        6          -0.153736562   -0.235920244    0.006340867
      8        6          -0.091752412   -0.161105739   -0.000029929
      9        6          -0.002242759    0.011459817    0.002891148
     10        6          -0.011964473   -0.007873807    0.002463233
     11        6           0.023611403   -0.001186395   -0.008001293
     12        6          -0.012998496   -0.137077426   -0.021462188
     13        1           0.102935108    0.213164391    0.006126258
     14        1           0.007395731    0.000018109   -0.002433117
     15        1           0.001970867    0.007309919    0.000723544
     16        1          -0.098766699   -0.213690151   -0.007597894
     17       17          -0.129831363   -0.273175363   -0.008528866
     18       17           0.118883522    0.447196455    0.044817941
     19       17           0.001386698    0.002230867   -0.000037701
     20       17           0.002742829   -0.005885748   -0.002009019
     21       17           0.000489247   -0.003373955   -0.000795213
     22       17          -0.000286600    0.005191756    0.001069444
 -------------------------------------------------------------------
 Cartesian Forces:  Max     0.447196455 RMS     0.101253883

 GradGradGradGradGradGradGradGradGradGradGradGradGradGradGradGradGradGrad
 Berny optimization.
 Using GEDIIS/GDIIS optimizer.
 FormGI is forming the generalized inverse of G from B-inverse, IUseBI=4.
 Internal  Forces:  Max     5.192328720 RMS     0.779815791
 Search for a local minimum.
 Step number   2 out of a maximum of  112
 All quantities printed in internal units (Hartrees-Bohrs-Radians)
 Mixed Optimization -- RFO/linear search
 Update second derivatives using D2CorX and points    2    1
 DE=  1.26D-01 DEPred=-1.36D-01 R=-9.30D-01
 Trust test=-9.30D-01 RLast= 3.00D-01 DXMaxT set to 1.50D-01
 ITU= -1  0
 Use linear search instead of GDIIS.
     Eigenvalues ---    0.00238   0.00238   0.01671   0.01671   0.02070
     Eigenvalues ---    0.02070   0.02070   0.02070   0.02070   0.02070
     Eigenvalues ---    0.02070   0.02070   0.02070   0.02070   0.02070
     Eigenvalues ---    0.02070   0.02070   0.02070   0.04301   0.15473
     Eigenvalues ---    0.16000   0.16000   0.16001   0.17156   0.22077
     Eigenvalues ---    0.23345   0.23386   0.24912   0.25000   0.25000
     Eigenvalues ---    0.25000   0.25000   0.25000   0.25000   0.25000
     Eigenvalues ---    0.25000   0.27970   0.29536   0.29539   0.29539
     Eigenvalues ---    0.29539   0.29539   0.37051   0.37222   0.37230
     Eigenvalues ---    0.37230   0.41385   0.41528   0.41741   0.41986
     Eigenvalues ---    0.43526   0.45304   0.45389   0.45389   0.45389
     Eigenvalues ---    0.45389   0.45389   0.45389   0.49893  38.31350
 RFO step:  Lambda=-2.45891063D+00 EMin= 2.37798995D-03
 Quartic linear search produced a step of -0.42011.
 Maximum step size (   0.150) exceeded in Quadratic search.
    -- Step size scaled by   0.162
 Iteration  1 RMS(Cart)=  0.22317236 RMS(Int)=  0.00317339
 Iteration  2 RMS(Cart)=  0.02010842 RMS(Int)=  0.00002971
 Iteration  3 RMS(Cart)=  0.00008224 RMS(Int)=  0.00000219
 Iteration  4 RMS(Cart)=  0.00000000 RMS(Int)=  0.00000219
 Variable       Old X    -DE/DX   Delta X   Delta X   Delta X     New X
                                 (Linear)    (Quad)   (Total)
    R1        2.63846   0.26995   0.00412  -0.00178   0.00234   2.64080
    R2        2.64712  -0.19289   0.00048  -0.00410  -0.00362   2.64350
    R3        2.64782  -0.13610   0.00019  -0.00269  -0.00250   2.64532
    R4        2.02864  -0.17427  -0.00279   0.00125  -0.00154   2.02710
    R5        2.64528  -0.29346   0.00125  -0.00714  -0.00589   2.63939
    R6        2.02896   0.00763  -0.00292   0.00473   0.00181   2.03077
    R7        2.64366  -0.17235   0.00193  -0.00609  -0.00415   2.63951
    R8        2.02841   0.00665  -0.00269   0.00435   0.00166   2.03007
    R9        2.64491   0.12393   0.00141  -0.00005   0.00136   2.64627
   R10        3.32632  -0.00669  -0.00017   0.00014  -0.00003   3.32629
   R11        3.32930   0.25638  -0.00142   0.00696   0.00554   3.33484
   R12        2.63517   0.31357   0.00550  -0.00319   0.00231   2.63749
   R13        2.63490  -0.16515   0.00561  -0.01171  -0.00610   2.62880
   R14        2.64498  -0.13501   0.00138  -0.00457  -0.00318   2.64179
   R15        2.02909  -0.13286  -0.00297   0.00228  -0.00069   2.02840
   R16        2.65157  -0.28244  -0.00139  -0.00279  -0.00418   2.64739
   R17        3.32282  -0.00432   0.00130  -0.00211  -0.00081   3.32201
   R18        2.64763  -0.16187   0.00027  -0.00328  -0.00301   2.64462
   R19        3.32701   0.00304  -0.00046   0.00077   0.00031   3.32732
   R20        2.64025   0.12732   0.00337  -0.00307   0.00029   2.64054
   R21        3.33323  -0.00176  -0.00307   0.00476   0.00169   3.33492
   R22        3.38097   0.40027  -0.02313   0.04351   0.02039   3.40136
   R23        3.32140   1.11817  -0.06725   0.12672   0.05947   3.38087
    A1        2.08361  -0.22757   0.00453  -0.01126  -0.00673   2.07688
    A2        2.09373   0.26765   0.00028   0.00465   0.00493   2.09866
    A3        2.09444   0.02879  -0.00002   0.00065   0.00063   2.09507
    A4        2.09502  -0.29644  -0.00026  -0.00530  -0.00556   2.08945
    A5        2.10050  -0.07508  -0.00257   0.00250  -0.00006   2.10044
    A6        2.09221   0.03911   0.00092  -0.00066   0.00026   2.09247
    A7        2.09047   0.03596   0.00165  -0.00184  -0.00020   2.09027
    A8        2.09451  -0.11629  -0.00005  -0.00219  -0.00224   2.09227
    A9        2.09607   0.06188  -0.00070   0.00229   0.00159   2.09765
   A10        2.09261   0.05441   0.00075  -0.00010   0.00065   2.09326
   A11        2.08160   0.31352   0.00538  -0.00247   0.00290   2.08450
   A12        2.08755  -0.15880   0.00287  -0.00745  -0.00458   2.08298
   A13        2.11403  -0.15472  -0.00825   0.00993   0.00168   2.11571
   A14        2.11242  -0.16224  -0.00757   0.00877   0.00120   2.11362
   A15        2.03120   1.50960   0.02655  -0.01294   0.01361   2.04481
   A16        2.13957  -1.34736  -0.01898   0.00417  -0.01481   2.12476
   A17        2.09151  -0.21307   0.00121  -0.00578  -0.00457   2.08694
   A18        2.09040   0.24650   0.00168   0.00206   0.00375   2.09414
   A19        2.09857   0.07406  -0.00176   0.00422   0.00246   2.10103
   A20        2.09422  -0.32056   0.00008  -0.00628  -0.00621   2.08801
   A21        2.10063  -0.06292  -0.00262   0.00279   0.00018   2.10081
   A22        2.08561   0.02635   0.00369  -0.00519  -0.00151   2.08410
   A23        2.09694   0.03657  -0.00107   0.00240   0.00133   2.09827
   A24        2.08972  -0.11459   0.00196  -0.00531  -0.00335   2.08638
   A25        2.09385   0.05440   0.00023   0.00072   0.00095   2.09480
   A26        2.09961   0.06019  -0.00219   0.00459   0.00240   2.10201
   A27        2.08418   0.32406   0.00429  -0.00060   0.00369   2.08786
   A28        2.09351  -0.15878   0.00037  -0.00356  -0.00318   2.09033
   A29        2.10550  -0.16528  -0.00466   0.00416  -0.00051   2.10499
   A30        2.10993  -0.17998  -0.00653   0.00684   0.00031   2.11024
   A31        2.02001   1.47901   0.03125  -0.02084   0.01041   2.03042
   A32        2.15324  -1.29904  -0.02472   0.01400  -0.01072   2.14252
   A33        2.00647   5.19233   0.03694   0.04014   0.07708   2.08355
   A34        1.90475   4.91965   0.07967  -0.03145   0.04822   1.95297
    D1        0.00000  -0.00000  -0.00000  -0.00000  -0.00000   0.00000
    D2        3.14159  -0.00000  -0.00000  -0.00000  -0.00000   3.14159
    D3       -0.00000   0.00000   0.00000  -0.00000  -0.00000  -0.00000
    D4        3.14159   0.00001  -0.00000   0.00000   0.00000   3.14159
    D5        0.00000   0.00000   0.00000   0.00000   0.00000   0.00000
    D6        3.14159   0.00000   0.00000  -0.00000   0.00000   3.14159
    D7       -3.14159   0.00000   0.00000   0.00000   0.00000  -3.14159
    D8        0.00000   0.00000   0.00000   0.00000   0.00000   0.00000
    D9       -0.00000   0.00000  -0.00000   0.00000   0.00000  -0.00000
   D10        3.14159  -0.00000   0.00000  -0.00000  -0.00000   3.14159
   D11        3.14159   0.00000  -0.00000   0.00000   0.00000   3.14159
   D12        0.00000   0.00000   0.00000  -0.00000  -0.00000   0.00000
   D13        0.00000  -0.00000   0.00000  -0.00000  -0.00000   0.00000
   D14       -3.14159  -0.00000   0.00000  -0.00000  -0.00000  -3.14159
   D15       -3.14159  -0.00000   0.00000  -0.00000  -0.00000  -3.14159
   D16        0.00000  -0.00000   0.00000  -0.00000  -0.00000   0.00000
   D17       -0.00000   0.00000  -0.00000   0.00000   0.00000  -0.00000
   D18        3.14159  -0.00001   0.00000  -0.00000  -0.00000   3.14159
   D19        3.14159   0.00000  -0.00000   0.00000   0.00000   3.14159
   D20       -0.00000  -0.00001   0.00000  -0.00000  -0.00000  -0.00000
   D21        0.00001  -0.00002   0.00000  -0.00000  -0.00000   0.00001
   D22       -3.14159  -0.00001   0.00000  -0.00000  -0.00000  -3.14159
   D23        0.00000  -0.00000  -0.00000   0.00000  -0.00000   0.00000
   D24       -3.14159  -0.00000   0.00000  -0.00000  -0.00000  -3.14159
   D25       -0.00000   0.00000   0.00000  -0.00000  -0.00000  -0.00000
   D26        3.14159   0.00001  -0.00000   0.00000   0.00000   3.14159
   D27       -0.00000   0.00000   0.00000   0.00000   0.00000  -0.00000
   D28        3.14159  -0.00000   0.00000  -0.00000  -0.00000   3.14159
   D29        3.14159   0.00000  -0.00000   0.00000   0.00000   3.14159
   D30       -0.00000   0.00000  -0.00000   0.00000   0.00000  -0.00000
   D31       -0.00000   0.00000   0.00000   0.00000   0.00000  -0.00000
   D32       -3.14159  -0.00000   0.00000  -0.00000  -0.00000  -3.14159
   D33        3.14159   0.00000  -0.00000   0.00000   0.00000   3.14159
   D34        0.00000  -0.00000  -0.00000   0.00000   0.00000   0.00000
   D35        0.00000  -0.00000   0.00000  -0.00000  -0.00000  -0.00000
   D36       -3.14159  -0.00000   0.00000  -0.00000  -0.00000  -3.14159
   D37        3.14159   0.00000  -0.00000   0.00000   0.00000   3.14159
   D38        0.00000  -0.00000   0.00000  -0.00000  -0.00000   0.00000
   D39        0.00000   0.00000  -0.00000   0.00000   0.00000   0.00000
   D40       -3.14159  -0.00001   0.00000  -0.00000  -0.00000  -3.14159
   D41        3.14159   0.00000  -0.00000   0.00000   0.00000   3.14159
   D42       -0.00000  -0.00001   0.00000  -0.00000  -0.00000  -0.00000
   D43        0.00001  -0.00002   0.00000  -0.00000  -0.00000   0.00001
   D44       -3.14159  -0.00001   0.00000  -0.00000  -0.00000  -3.14159
   D45       -0.00001  -0.00008   0.00000  -0.00000  -0.00000  -0.00001
         Item               Value     Threshold  Converged?
 Maximum Force            5.192329     0.000450     NO 
 RMS     Force            0.779816     0.000300     NO 
 Maximum Displacement     0.740737     0.001800     NO 
 RMS     Displacement     0.242451     0.001200     NO 
 Predicted change in Energy=-4.918561D-01
 GradGradGradGradGradGradGradGradGradGradGradGradGradGradGradGradGradGrad

                          Input orientation:                          
 ---------------------------------------------------------------------
 Center     Atomic      Atomic             Coordinates (Angstroms)
 Number     Number       Type             X           Y           Z
 ---------------------------------------------------------------------
      1          6           0       -0.922209    0.893271    0.081786
      2          6           0        0.387845    0.737563   -0.379058
      3          6           0        1.244858    1.841857   -0.454010
      4          6           0        0.799132    3.108392   -0.069299
      5          6           0       -0.508385    3.275206    0.392793
      6          6           0       -1.359595    2.165606    0.464836
      7          6           0       -1.674835   -0.552404    0.058224
      8          6           0       -0.932512   -1.645371   -0.391610
      9          6           0       -1.516044   -2.914898   -0.437788
     10          6           0       -2.845028   -3.098603   -0.034441
     11          6           0       -3.587308   -2.001132    0.416225
     12          6           0       -2.994352   -0.736573    0.458365
     13          1           0        0.740712   -0.230584   -0.677134
     14          1           0        2.251189    1.715610   -0.809258
     15          1           0        1.459001    3.954082   -0.127868
     16          1           0        0.086645   -1.518036   -0.703465
     17         17           0       -3.869941    0.731344    1.022526
     18         17           0       -3.022275    2.306779    1.039125
     19         17           0       -5.261914   -2.225737    0.925764
     20         17           0       -1.055426    4.877560    0.873948
     21         17           0       -3.570928   -4.701556   -0.096331
     22         17           0       -0.567184   -4.280932   -1.006952
 ---------------------------------------------------------------------
                    Distance matrix (angstroms):
[...]
                 (A) (A) (A) (A) (A) (A) (A) (A) (A) (A) (A) (A)
                 (A) (A) (A) (A) (A) (A) (A) (A) (A) (A) (A) (A)
                 (A) (A) (A) (A) (A) (A) (A) (A) (A) (A) (A) (A)
                 (A) (A) (A) (A) (A) (A) (A) (A) (A) (A) (A) (A)
                 (A) (A) (A) (A) (A) (A) (A) (A) (A) (A) (A) (A)
                 (A) (A) (A) (A) (A) (A) (A) (A) (A) (A) (A) (A)
                 (A) (A) (A) (A) (A) (A) (A) (A) (A) (A) (A) (A)
                 (A) (A) (A) (A) (A) (A) (A) (A) (A) (A) (A) (A)
                 (A) (A) (A) (A) (A) (A) (A) (A) (A) (A) (A) (A)
                 (A) (A) (A) (A) (A) (A) (A) (A) (A) (A) (A) (A)
                 (A) (A) (A) (A) (A) (A) (A) (A) (A) (A) (A) (A)
                 (A) (A) (A) (A) (A) (A) (A) (A) (A) (A) (A) (A)
                 (A) (A) (A) (A) (A) (A) (A) (A) (A) (A) (A) (A)
                 (A) (A) (A) (A) (A) (A) (A) (A) (A) (A) (A) (A)
                 (A) (A) (A) (A) (A) (A) (A) (A) (A) (A) (A) (A)
                 (A) (A) (A) (A) (A) (A) (A) (A) (A) (A) (A) (A)
                 (A) (A) (A) (A) (A) (A) (A) (A) (A) (A) (A) (A)
                 (A) (A) (A) (A) (A) (A) (A) (A) (A) (A) (A) (A)
                 (A) (A) (A) (A) (A) (A) (A) (A) (A) (A) (A) (A)
                 (A) (A) (A) (A) (A) (A) (A) (A) (A) (A) (A) (A)
                 (A) (A) (A) (A) (A) (A) (A) (A) (A) (A) (A) (A)
                 (A) (A) (A) (A) (A) (A) (A) (A) (A) (A) (A) (A)
                 (A) (A) (A) (A) (A) (A) (A) (A) (A) (A) (A) (A)
                 (A) (A) (A) (A) (A) (A) (A) (A) (A) (A) (A) (A)
                 (A) (A) (A) (A) (A) (A) (A) (A) (A) (A) (A) (A)
                 (A) (A) (A) (A) (A) (A) (A) (A) (A) (A) (A) (A)
                 (A) (A)
 The electronic state is 1-A.
 Alpha  occ. eigenvalues -- -101.57941-101.57889-101.57780-101.57636-101.57236
 Alpha  occ. eigenvalues -- -101.57146 -10.28130 -10.28047 -10.27592 -10.27446
 Alpha  occ. eigenvalues --  -10.26935 -10.26677 -10.23547 -10.22995 -10.22094
 Alpha  occ. eigenvalues --  -10.21269 -10.21012 -10.20884  -9.49405  -9.49356
 Alpha  occ. eigenvalues --   -9.49236  -9.49111  -9.48710  -9.48606  -7.25909
 Alpha  occ. eigenvalues --   -7.25860  -7.25727  -7.25600  -7.25191  -7.25088
 Alpha  occ. eigenvalues --   -7.24886  -7.24838  -7.24800  -7.24750  -7.24714
 Alpha  occ. eigenvalues --   -7.24654  -7.24592  -7.24520  -7.24194  -7.24126
 Alpha  occ. eigenvalues --   -7.24088  -7.24029  -0.96205  -0.93802  -0.91533
 Alpha  occ. eigenvalues --   -0.89785  -0.87713  -0.86806  -0.86407  -0.84742
 Alpha  occ. eigenvalues --   -0.79650  -0.75720  -0.75552  -0.74451  -0.66747
 Alpha  occ. eigenvalues --   -0.63936  -0.62992  -0.61488  -0.55165  -0.54611
 Alpha  occ. eigenvalues --   -0.52963  -0.51747  -0.49724  -0.48158  -0.46909
 Alpha  occ. eigenvalues --   -0.46559  -0.46076  -0.45949  -0.43953  -0.43485
 Alpha  occ. eigenvalues --   -0.42126  -0.40508  -0.39960  -0.39856  -0.37853
 Alpha  occ. eigenvalues --   -0.36422  -0.35794  -0.35613  -0.35352  -0.35022
 Alpha  occ. eigenvalues --   -0.34415  -0.33571  -0.33448  -0.32222  -0.31740
 Alpha  occ. eigenvalues --   -0.28138  -0.27656  -0.26924  -0.26712
 Alpha virt. eigenvalues --   -0.06199  -0.05916  -0.05076  -0.04840  -0.04395
 Alpha virt. eigenvalues --   -0.02237  -0.00845  -0.00142   0.00783   0.01779
 Alpha virt. eigenvalues --    0.02035   0.02112   0.02406   0.02603   0.03484
 Alpha virt. eigenvalues --    0.03979   0.04834   0.05174   0.05720   0.05968
 Alpha virt. eigenvalues --    0.06299   0.06460   0.07491   0.07931   0.08068
 Alpha virt. eigenvalues --    0.08294   0.08752   0.08920   0.09139   0.09451
 Alpha virt. eigenvalues --    0.09776   0.10096   0.10824   0.11177   0.11669
 Alpha virt. eigenvalues --    0.11869   0.12308   0.12629   0.12869   0.13172
 Alpha virt. eigenvalues --    0.13468   0.14117   0.14386   0.14554   0.14829
 Alpha virt. eigenvalues --    0.15488   0.15829   0.16083   0.16704   0.17007
 Alpha virt. eigenvalues --    0.17747   0.18115   0.18281   0.18387   0.18749
 Alpha virt. eigenvalues --    0.18857   0.19429   0.19464   0.19818   0.20221
 Alpha virt. eigenvalues --    0.20518   0.20727   0.21246   0.21685   0.22201
 Alpha virt. eigenvalues --    0.22477   0.23041   0.23271   0.24002   0.24720
 Alpha virt. eigenvalues --    0.24782   0.25083   0.25574   0.25704   0.26342
 Alpha virt. eigenvalues --    0.26479   0.27227   0.27543   0.27863   0.28106
 Alpha virt. eigenvalues --    0.28158   0.28712   0.29044   0.29101   0.29992
 Alpha virt. eigenvalues --    0.30368   0.31006   0.31396   0.32142   0.33054
 Alpha virt. eigenvalues --    0.33439   0.35120   0.40153   0.41778   0.42486
 Alpha virt. eigenvalues --    0.42965   0.43500   0.43924   0.44359   0.45188
 Alpha virt. eigenvalues --    0.45532   0.45578   0.46193   0.46434   0.47410
 Alpha virt. eigenvalues --    0.48067   0.48127   0.48715   0.48998   0.50192
 Alpha virt. eigenvalues --    0.50901   0.51262   0.51409   0.52831   0.53462
 Alpha virt. eigenvalues --    0.54042   0.56204   0.56336   0.57098   0.57304
 Alpha virt. eigenvalues --    0.57619   0.58385   0.59381   0.60642   0.60889
 Alpha virt. eigenvalues --    0.61075   0.61407   0.62927   0.63494   0.64059
 Alpha virt. eigenvalues --    0.64244   0.65090   0.65246   0.66665   0.66790
 Alpha virt. eigenvalues --    0.67584   0.68448   0.68924   0.69396   0.69914
 Alpha virt. eigenvalues --    0.71271   0.72602   0.74787   0.77379   0.78185
 Alpha virt. eigenvalues --    0.79265   0.80528   0.81200   0.81802   0.82273
 Alpha virt. eigenvalues --    0.82660   0.83508   0.83831   0.84056   0.84084
 Alpha virt. eigenvalues --    0.84403   0.84848   0.85002   0.85167   0.85594
 Alpha virt. eigenvalues --    0.85967   0.86930   0.87478   0.88294   0.88643
 Alpha virt. eigenvalues --    0.89209   0.89929   0.90469   0.91079   0.91977
 Alpha virt. eigenvalues --    0.92109   0.93006   0.93958   0.94334   0.94450
 Alpha virt. eigenvalues --    0.94767   0.95358   0.95695   0.95959   0.97019
 Alpha virt. eigenvalues --    0.98359   0.99054   0.99285   0.99748   1.01798
 Alpha virt. eigenvalues --    1.03480   1.03787   1.04357   1.05742   1.06507
 Alpha virt. eigenvalues --    1.09694   1.11377   1.14651   1.14879   1.18722
 Alpha virt. eigenvalues --    1.19409   1.20044   1.22443   1.23635   1.24992
 Alpha virt. eigenvalues --    1.25764   1.26274   1.27140   1.27303   1.28366
 Alpha virt. eigenvalues --    1.28982   1.29791   1.31255   1.32895   1.35596
 Alpha virt. eigenvalues --    1.36818   1.38407   1.39117   1.42025   1.44311
 Alpha virt. eigenvalues --    1.47390   1.48895   1.49980   1.54406   1.55454
 Alpha virt. eigenvalues --    1.56115   1.58443   1.60497   1.62149   1.64147
 Alpha virt. eigenvalues --    1.65220   1.65540   1.67636   1.71114   1.71793
 Alpha virt. eigenvalues --    1.74613   1.75904   1.78592   1.79306   1.80885
 Alpha virt. eigenvalues --    1.82536   1.83347   1.84014   1.85441   1.86962
 Alpha virt. eigenvalues --    1.88122   1.90371   1.90857   1.92591   1.93213
 Alpha virt. eigenvalues --    1.94828   1.98621   1.99559   2.02201   2.04457
 Alpha virt. eigenvalues --    2.06998   2.08386   2.11909   2.16755   2.16979
 Alpha virt. eigenvalues --    2.20845   2.22650   2.23897   2.24604   2.25149
 Alpha virt. eigenvalues --    2.25530   2.27381   2.28262   2.29404   2.30772
 Alpha virt. eigenvalues --    2.31983   2.32694   2.34695   2.36042   2.38174
 Alpha virt. eigenvalues --    2.39080   2.41769   2.42381   2.42561   2.44600
 Alpha virt. eigenvalues --    2.47155   2.48598   2.50035   2.51932   2.52818
 Alpha virt. eigenvalues --    2.53870   2.55409   2.58489   2.61229   2.62317
 Alpha virt. eigenvalues --    2.66093   2.67037   2.68646   2.69324   2.69514
 Alpha virt. eigenvalues --    2.71531   2.72400   2.74379   2.74959   2.76949
 Alpha virt. eigenvalues --    2.77293   2.79380   2.82661   2.83535   2.84038
 Alpha virt. eigenvalues --    2.88016   2.90237   2.97030   2.97926   3.06216
 Alpha virt. eigenvalues --    3.07756   3.08992   3.11423   3.13531   3.14261
 Alpha virt. eigenvalues --    3.16254   3.19250   3.20917   3.23325   3.27255
 Alpha virt. eigenvalues --    3.34923   3.37062   3.39261   3.50995   3.51411
 Alpha virt. eigenvalues --    3.63208   3.66863   3.71778   3.76013   3.89802
 Alpha virt. eigenvalues --    3.95407   4.02790   4.04030   4.09385   4.31447
 Alpha virt. eigenvalues --    4.80458   4.81432   9.74011   9.77685   9.78779
 Alpha virt. eigenvalues --    9.80621   9.81945   9.83988  23.32368  23.51131
 Alpha virt. eigenvalues --   23.79633  23.84990  23.88084  23.89229  23.93869
 Alpha virt. eigenvalues --   23.94775  24.00334  24.04180  24.11292  24.15439
 Alpha virt. eigenvalues --   25.76795  25.80170  25.80750  25.86354  25.90888
 Alpha virt. eigenvalues --   25.97177  26.07966  26.10172  26.15960  26.17484
 Alpha virt. eigenvalues --   26.21581  26.37176  26.46518  26.57975  26.59320
 Alpha virt. eigenvalues --   26.73464  26.85344  26.99125 215.72968 215.77006
 Alpha virt. eigenvalues --  215.78298 215.80422 215.82345 215.84314
          Condensed to atoms (all electrons):
               1          2          3          4          5          6
     1  C   26.298303  -7.168465  -1.740680  -3.751333   2.572691   2.744404
     2  C   -7.168465  24.104003  -4.829388   6.637069  -3.586109  -4.598462
     3  C   -1.740680  -4.829388  11.830677  -2.312602   0.957001  -2.192961
     4  C   -3.751333   6.637069  -2.312602  22.791864 -10.182643  -1.332276
     5  C    2.572691  -3.586109   0.957001 -10.182643  20.789725  -7.996003
     6  C    2.744404  -4.598462  -2.192961  -1.332276  -7.996003  43.534355
     7  C    0.620745  -3.961858   3.128110  -5.449289   2.876702 -13.665066
     8  C   -0.470113  -0.013381  -0.737319   1.015227  -0.724860   3.141397
     9  C   -1.377339   0.661101   0.473884  -0.328928   0.164318  -1.871505
    10  C   -1.018391  -0.163125  -0.031045  -0.000572  -0.054899  -0.027812
    11  C   -0.716064  -0.679360  -0.208802   0.185861  -0.124447   0.860655
    12  C   -7.887383  -1.416052   1.425595  -1.468805   0.558773  -9.738565
    13  H   -0.006129   0.288567  -0.040488  -0.032848   0.007156  -0.092324
    14  H    0.006175   0.026388   0.354556   0.011149  -0.031637  -0.014428
    15  H    0.069956  -0.070877  -0.007182   0.235798   0.103304   0.000463
    16  H    0.131135   0.002680  -0.011099   0.009088  -0.008943   0.105134
    17  Cl  -0.881326   0.449369   0.431024  -0.486759   0.395257  -1.754977
    18  Cl  -0.667447   0.704927  -0.161382   1.682546   0.039315  -0.588885
    19  Cl  -0.058944  -0.033616  -0.003142   0.004186  -0.001972   0.026134
    20  Cl  -0.329263   0.005102   0.059883  -0.662678  -0.662085   1.129627
    21  Cl  -0.097776  -0.004494   0.003558  -0.002430   0.002880  -0.052740
    22  Cl  -0.321098   0.052506   0.031703  -0.014863   0.011255  -0.189104
               7          8          9         10         11         12
     1  C    0.620745  -0.470113  -1.377339  -1.018391  -0.716064  -7.887383
     2  C   -3.961858  -0.013381   0.661101  -0.163125  -0.679360  -1.416052
     3  C    3.128110  -0.737319   0.473884  -0.031045  -0.208802   1.425595
     4  C   -5.449289   1.015227  -0.328928  -0.000572   0.185861  -1.468805
     5  C    2.876702  -0.724860   0.164318  -0.054899  -0.124447   0.558773
     6  C  -13.665066   3.141397  -1.871505  -0.027812   0.860655  -9.738565
     7  C   34.241515  -5.138194  -8.173108   4.962626  -1.971809   1.695429
     8  C   -5.138194  11.549371  -0.464157  -2.921627   3.865122  -2.699415
     9  C   -8.173108  -0.464157  22.205790  -7.933667  -5.452624   7.961905
    10  C    4.962626  -2.921627  -7.933667  21.489252   0.270835  -7.030052
    11  C   -1.971809   3.865122  -5.452624   0.270835  16.206054  -5.528207
    12  C    1.695429  -2.699415   7.961905  -7.030052  -5.528207  30.821358
    13  H    0.142961  -0.006157  -0.019655   0.010033   0.007239   0.101174
    14  H   -0.002039  -0.001135  -0.000741   0.000000   0.000077   0.001444
    15  H    0.020006  -0.002445  -0.000031   0.000077  -0.000035   0.003406
    16  H   -0.016579   0.384305  -0.094589  -0.027099  -0.017952  -0.094034
    17  Cl  -0.162228  -0.599472   1.164583  -0.756733  -0.584779   0.628817
    18  Cl  -2.204461   0.628685   0.150644  -0.247840   0.110185  -1.372875
    19  Cl  -0.399157   0.218053  -0.178549  -0.254263  -0.115493   0.327246
    20  Cl   0.028118  -0.035722   0.013505  -0.001566  -0.011333  -0.017425
    21  Cl   0.192969  -0.130909  -0.878970   0.366858   0.513222  -0.598321
    22  Cl  -0.641005   0.073223   0.338844  -0.573980  -0.368864   0.768177
              13         14         15         16         17         18
     1  C   -0.006129   0.006175   0.069956   0.131135  -0.881326  -0.667447
     2  C    0.288567   0.026388  -0.070877   0.002680   0.449369   0.704927
     3  C   -0.040488   0.354556  -0.007182  -0.011099   0.431024  -0.161382
     4  C   -0.032848   0.011149   0.235798   0.009088  -0.486759   1.682546
     5  C    0.007156  -0.031637   0.103304  -0.008943   0.395257   0.039315
     6  C   -0.092324  -0.014428   0.000463   0.105134  -1.754977  -0.588885
     7  C    0.142961  -0.002039   0.020006  -0.016579  -0.162228  -2.204461
     8  C   -0.006157  -0.001135  -0.002445   0.384305  -0.599472   0.628685
     9  C   -0.019655  -0.000741  -0.000031  -0.094589   1.164583   0.150644
    10  C    0.010033   0.000000   0.000077  -0.027099  -0.756733  -0.247840
    11  C    0.007239   0.000077  -0.000035  -0.017952  -0.584779   0.110185
    12  C    0.101174   0.001444   0.003406  -0.094034   0.628817  -1.372875
    13  H    0.530000  -0.006838  -0.000217  -0.000390  -0.009674  -0.004130
    14  H   -0.006838   0.523747  -0.007581   0.000006  -0.000941   0.001161
    15  H   -0.000217  -0.007581   0.507512  -0.000003  -0.000052  -0.002559
    16  H   -0.000390   0.000006  -0.000003   0.505386  -0.003017  -0.006699
    17  Cl  -0.009674  -0.000941  -0.000052  -0.003017  18.788615   0.066755
    18  Cl  -0.004130   0.001161  -0.002559  -0.006699   0.066755  18.607871
    19  Cl   0.000490   0.000002  -0.000001   0.000735  -0.306836  -0.001918
    20  Cl   0.000013  -0.000433  -0.004576   0.000320   0.008055  -0.286451
    21  Cl   0.000149  -0.000001   0.000000  -0.001297  -0.023670   0.007448
    22  Cl   0.000029  -0.000002  -0.000000  -0.008600   0.017805  -0.020624
              19         20         21         22
     1  C   -0.058944  -0.329263  -0.097776  -0.321098
     2  C   -0.033616   0.005102  -0.004494   0.052506
     3  C   -0.003142   0.059883   0.003558   0.031703
     4  C    0.004186  -0.662678  -0.002430  -0.014863
     5  C   -0.001972  -0.662085   0.002880   0.011255
     6  C    0.026134   1.129627  -0.052740  -0.189104
     7  C   -0.399157   0.028118   0.192969  -0.641005
     8  C    0.218053  -0.035722  -0.130909   0.073223
     9  C   -0.178549   0.013505  -0.878970   0.338844
    10  C   -0.254263  -0.001566   0.366858  -0.573980
    11  C   -0.115493  -0.011333   0.513222  -0.368864
    12  C    0.327246  -0.017425  -0.598321   0.768177
    13  H    0.000490   0.000013   0.000149   0.000029
    14  H    0.000002  -0.000433  -0.000001  -0.000002
    15  H   -0.000001  -0.004576   0.000000  -0.000000
    16  H    0.000735   0.000320  -0.001297  -0.008600
    17  Cl  -0.306836   0.008055  -0.023670   0.017805
    18  Cl  -0.001918  -0.286451   0.007448  -0.020624
    19  Cl  17.382260  -0.000203  -0.204126   0.004760
    20  Cl  -0.000203  17.316649   0.000022   0.000471
    21  Cl  -0.204126   0.000022  17.453969  -0.181971
    22  Cl   0.004760   0.000471  -0.181971  17.454916
 Mulliken charges:
               1
     1  C    0.048342
     2  C   -0.406527
     3  C   -0.419901
     4  C   -0.546764
     5  C    0.895222
     6  C   -1.427061
     7  C   -0.124390
     8  C   -0.930477
     9  C   -0.360711
    10  C   -0.057012
    11  C   -0.239482
    12  C   -0.442190
    13  H    0.131042
    14  H    0.141070
    15  H    0.155038
    16  H    0.151512
    17  Cl   0.620182
    18  Cl   0.565735
    19  Cl   0.594352
    20  Cl   0.449969
    21  Cl   0.635630
    22  Cl   0.566420
 Sum of Mulliken charges =  -0.00000
 Mulliken charges with hydrogens summed into heavy atoms:
               1
     1  C    0.048342
     2  C   -0.275485
     3  C   -0.278830
     4  C   -0.391725
     5  C    0.895222
     6  C   -1.427061
     7  C   -0.124390
     8  C   -0.778966
     9  C   -0.360711
    10  C   -0.057012
    11  C   -0.239482
    12  C   -0.442190
    17  Cl   0.620182
    18  Cl   0.565735
    19  Cl   0.594352
    20  Cl   0.449969
    21  Cl   0.635630
    22  Cl   0.566420
 Electronic spatial extent (au):  <R**2>=           8134.3296
 Charge=             -0.0000 electrons
 Dipole moment (field-independent basis, Debye):
    X=             -1.4348    Y=              0.9460    Z=             -2.6439  Tot=              3.1533
 Quadrupole moment (field-independent basis, Debye-Ang):
   XX=           -144.6691   YY=           -146.1873   ZZ=           -139.1455
   XY=             -1.6697   XZ=              8.3427   YZ=             -1.8545
 Traceless Quadrupole moment (field-independent basis, Debye-Ang):
   XX=             -1.3351   YY=             -2.8533   ZZ=              4.1884
   XY=             -1.6697   XZ=              8.3427   YZ=             -1.8545
 Octapole moment (field-independent basis, Debye-Ang**2):
  XXX=             -8.1884  YYY=            -10.9544  ZZZ=              0.4383  XYY=              9.6528
  XXY=             -4.9185  XXZ=            -23.7398  XZZ=            -12.5112  YZZ=             -0.2656
  YYZ=              8.4329  XYZ=              3.7548
 Hexadecapole moment (field-independent basis, Debye-Ang**3):
 XXXX=          -7421.2367 YYYY=          -1960.8712 ZZZZ=           -992.9862 XXXY=            -19.3558
 XXXZ=            115.9433 YYYX=             16.8792 YYYZ=              8.3896 ZZZX=             14.6132
 ZZZY=             -7.1549 XXYY=          -1618.6705 XXZZ=          -1382.6132 YYZZ=           -536.9100
 XXYZ=            -14.1086 YYXZ=            -12.3590 ZZXY=             -8.3219
 N-N= 2.041042099146D+03 E-N=-1.171124955141D+04  KE= 3.212688782946D+03
 1\1\GINC-CN159\FOpt\RB3LYP\6-311+G(d,p)\C12H4Cl6\20CY91R06\03-Apr-2022
 \0\\# opt b3lyp/6-311+g(d,p) scf=xqc\\Title Card Required\\0,1\C,-0.84
 0977473,0.7681629715,-0.0533079482\C,-0.0975436402,1.0494850502,-1.201
 6444675\C,0.5993044006,2.2471195473,-1.3237152302\C,0.5641729751,3.180
 2577507,-0.2949227116\C,-0.16897251,2.913994913,0.8588370798\C,-0.8719
 560544,1.7102517886,0.9859251715\C,-1.558520796,-0.5378525942,0.053581
 1449\C,-0.8599413816,-1.6604030268,0.4907230215\C,-1.4787233955,-2.900
 3788715,0.5842869391\C,-2.825490028,-3.0473699167,0.2367597468\C,-3.54
 17814356,-1.9243659488,-0.2102642319\C,-2.9057238952,-0.6783262105,-0.
 3002734832\H,-0.0773266861,0.3211474025,-2.0034252406\H,1.1702007246,2
 .456198067,-2.2202837516\H,1.1003967738,4.1171491396,-0.3733675328\H,0
 .1808422128,-1.5666970643,0.7708655865\Cl,-3.7879857132,0.7168602649,-
 0.8604667554\Cl,-1.7872944993,1.3659974875,2.4319152663\Cl,-5.21305507
 91,-2.0857141344,-0.6537396762\Cl,-0.1827097261,4.1096142474,2.1326564
 811\Cl,-3.5998974119,-4.5963052048,0.3528322905\Cl,-0.5355727717,-4.25
 7380548,1.1434046513\\Version=EM64L-G16RevB.01\State=1-A\HF=-3221.1273
 265\RMSD=2.644e-09\RMSF=2.637e-05\Dipole=0.9154602,0.3132492,-0.776499
 7\Quadrupole=2.2051704,-2.5852753,0.3801049,2.750277,-4.3839442,-4.108
 2115\PG=C01 [X(C12H4Cl6)]\\@


 IF I HAVE SEEN FARTHER, IT IS BY STANDING ON THE
 SHOULDERS OF GIANTS. -- SIR ISAAC NEWTON
 Job cpu time:       1 days 11 hours 49 minutes 22.4 seconds.
 Elapsed time:       0 days  8 hours 57 minutes 40.3 seconds.
 File lengths (MBytes):  RWF=    140 Int=      0 D2E=      0 Chk=     21 Scr=      1
 Normal termination of Gaussian 16 at Sun Apr  3 09:33:38 2022.
