 Entering Gaussian System, Link 0=g16
 Input=2,2prime,3,3prime,4,4prime,5,5prime,6-nonachlorobiphenyl.gjf
 Output=2,2prime,3,3prime,4,4prime,5,5prime,6-nonachlorobiphenyl.log
 Initial command:
 /home/apps/g16/l1.exe "./Gau-201138.inp" -scrdir="./"
 Entering Link 1 = /home/apps/g16/l1.exe PID=    201139.
  
 Copyright (c) 1988-2017, Gaussian, Inc.  All Rights Reserved.
  
 This is part of the Gaussian(R) 16 program.  It is based on
 the Gaussian(R) 09 system (copyright 2009, Gaussian, Inc.),
 the Gaussian(R) 03 system (copyright 2003, Gaussian, Inc.),
 the Gaussian(R) 98 system (copyright 1998, Gaussian, Inc.),
 the Gaussian(R) 94 system (copyright 1995, Gaussian, Inc.),
 the Gaussian 92(TM) system (copyright 1992, Gaussian, Inc.),
 the Gaussian 90(TM) system (copyright 1990, Gaussian, Inc.),
 the Gaussian 88(TM) system (copyright 1988, Gaussian, Inc.),
 the Gaussian 86(TM) system (copyright 1986, Carnegie Mellon
 University), and the Gaussian 82(TM) system (copyright 1983,
 Carnegie Mellon University). Gaussian is a federally registered
 trademark of Gaussian, Inc.
  
 This software contains proprietary and confidential information,
 including trade secrets, belonging to Gaussian, Inc.
  
 This software is provided under written license and may be
 used, copied, transmitted, or stored only in accord with that
 written license.
  
 The following legend is applicable only to US Government
 contracts under FAR:
  
                    RESTRICTED RIGHTS LEGEND
  
 Use, reproduction and disclosure by the US Government is
 subject to restrictions as set forth in subparagraphs (a)
 and (c) of the Commercial Computer Software - Restricted
 Rights clause in FAR 52.227-19.
  
 Gaussian, Inc.
 340 Quinnipiac St., Bldg. 40, Wallingford CT 06492
  
  
 ---------------------------------------------------------------
 Warning -- This program may not be used in any manner that
 competes with the business of Gaussian, Inc. or will provide
 assistance to any competitor of Gaussian, Inc.  The licensee
 of this program is prohibited from giving any competitor of
 Gaussian, Inc. access to this program.  By using this program,
 the user acknowledges that Gaussian, Inc. is engaged in the
 business of creating and licensing software in the field of
 computational chemistry and represents and warrants to the
 licensee that it is not a competitor of Gaussian, Inc. and that
 it will not use this program in any manner prohibited above.
 ---------------------------------------------------------------
  

 Cite this work as:
 Gaussian 16, Revision B.01,
 M. J. Frisch, G. W. Trucks, H. B. Schlegel, G. E. Scuseria, 
 M. A. Robb, J. R. Cheeseman, G. Scalmani, V. Barone, 
 G. A. Petersson, H. Nakatsuji, X. Li, M. Caricato, A. V. Marenich, 
 J. Bloino, B. G. Janesko, R. Gomperts, B. Mennucci, H. P. Hratchian, 
 J. V. Ortiz, A. F. Izmaylov, J. L. Sonnenberg, D. Williams-Young, 
 F. Ding, F. Lipparini, F. Egidi, J. Goings, B. Peng, A. Petrone, 
 T. Henderson, D. Ranasinghe, V. G. Zakrzewski, J. Gao, N. Rega, 
 G. Zheng, W. Liang, M. Hada, M. Ehara, K. Toyota, R. Fukuda, 
 J. Hasegawa, M. Ishida, T. Nakajima, Y. Honda, O. Kitao, H. Nakai, 
 T. Vreven, K. Throssell, J. A. Montgomery, Jr., J. E. Peralta, 
 F. Ogliaro, M. J. Bearpark, J. J. Heyd, E. N. Brothers, K. N. Kudin, 
 V. N. Staroverov, T. A. Keith, R. Kobayashi, J. Normand, 
 K. Raghavachari, A. P. Rendell, J. C. Burant, S. S. Iyengar, 
 J. Tomasi, M. Cossi, J. M. Millam, M. Klene, C. Adamo, R. Cammi, 
 J. W. Ochterski, R. L. Martin, K. Morokuma, O. Farkas, 
 J. B. Foresman, and D. J. Fox, Gaussian, Inc., Wallingford CT, 2016.
 
 ******************************************
 Gaussian 16:  EM64L-G16RevB.01 20-Dec-2017
                 1-Apr-2022 
 ******************************************
 %mem=32GB
 %nprocshared=16
 Will use up to   16 processors via shared memory.
 --------------------------------
 # opt b3lyp/6-311+g(d,p) scf=xqc
 --------------------------------
 1/18=20,19=15,26=3,38=1/1,3;
 2/9=110,12=2,17=6,18=5,40=1/2;
 3/5=4,6=6,7=111,11=2,25=1,30=1,71=1,74=-5/1,2,3;
 4//1;
 5/5=2,8=3,13=1,38=5/2,8;
 6/7=2,8=2,9=2,10=2,28=1/1;
 7//1,2,3,16;
 1/18=20,19=15,26=3/3(2);
 2/9=110/2;
 99//99;
 2/9=110/2;
 3/5=4,6=6,7=111,11=2,25=1,30=1,71=1,74=-5/1,2,3;
 4/5=5,16=3,69=1/1;
 5/5=2,8=3,13=1,38=5/2,8;
 7//1,2,3,16;
 1/18=20,19=15,26=3/3(-5);
 2/9=110/2;
 6/7=2,8=2,9=2,10=2,19=2,28=1/1;
 99/9=1/99;
 -------------------
 Title Card Required
 -------------------
 Symbolic Z-matrix:
 Charge =  0 Multiplicity = 1
 C                    -0.30217   0.39335   0.03954 
 C                     1.06471   0.32292  -0.27561 
 C                     1.86547   1.47164  -0.25356 
 C                     1.30814   2.70843   0.08139 
 C                    -0.0571    2.80312   0.36794 
 C                    -0.87132   1.66227   0.32474 
 C                    -1.30962  -1.32151   0.04363 
 C                    -0.66472  -2.43507  -0.51915 
 C                    -1.31569  -3.67194  -0.60656 
 C                    -2.62117  -3.81242  -0.1286 
 C                    -3.26792  -2.72301   0.46288 
 C                    -2.61501  -1.48722   0.57647 
 H                     1.50027  -0.62027  -0.53166 
 Cl                   -3.43981  -0.18184   1.40457 
 Cl                   -2.59001   1.85379   0.60661 
 Cl                   -4.90821  -2.90559   1.07419 
 Cl                   -0.75883   4.36404   0.77867 
 Cl                   -3.44884  -5.35944  -0.26751 
 Cl                    2.32244   4.14561   0.13886 
 Cl                   -0.48909  -5.05106  -1.32236 
 Cl                    3.57741   1.35677  -0.64558 
 Cl                    0.97867  -2.27246  -1.1278 
 

 GradGradGradGradGradGradGradGradGradGradGradGradGradGradGradGradGradGrad
 Berny optimization.
 Initialization pass.
                           ----------------------------
                           !    Initial Parameters    !
                           ! (Angstroms and Degrees)  !
 --------------------------                            --------------------------
 ! Name  Definition              Value          Derivative Info.                !
 --------------------------------------------------------------------------------
 ! R1    R(1,2)                  1.4045         estimate D2E/DX2                !
 ! R2    R(1,6)                  1.4197         estimate D2E/DX2                !
 ! R3    R(2,3)                  1.4005         estimate D2E/DX2                !
 ! R4    R(2,13)                 1.07           estimate D2E/DX2                !
 ! R5    R(3,4)                  1.3973         estimate D2E/DX2                !
 ! R6    R(3,21)                 1.76           estimate D2E/DX2                !
 ! R7    R(4,5)                  1.3982         estimate D2E/DX2                !
 ! R8    R(4,19)                 1.76           estimate D2E/DX2                !
 ! R9    R(5,6)                  1.4023         estimate D2E/DX2                !
 ! R10   R(5,17)                 1.76           estimate D2E/DX2                !
 ! R11   R(6,15)                 1.7522         estimate D2E/DX2                !
 ! R12   R(7,8)                  1.4045         estimate D2E/DX2                !
 ! R13   R(7,12)                 1.4197         estimate D2E/DX2                !
 ! R14   R(8,9)                  1.4005         estimate D2E/DX2                !
 ! R15   R(8,22)                 1.76           estimate D2E/DX2                !
 ! R16   R(9,10)                 1.3973         estimate D2E/DX2                !
 ! R17   R(9,20)                 1.76           estimate D2E/DX2                !
 ! R18   R(10,11)                1.3982         estimate D2E/DX2                !
 ! R19   R(10,18)                1.76           estimate D2E/DX2                !
 ! R20   R(11,12)                1.4023         estimate D2E/DX2                !
 ! R21   R(11,16)                1.76           estimate D2E/DX2                !
 ! R22   R(12,14)                1.7522         estimate D2E/DX2                !
 ! R23   R(14,15)                2.3458         estimate D2E/DX2                !
 ! A1    A(2,1,6)              118.6894         estimate D2E/DX2                !
 ! A2    A(1,2,3)              120.7845         estimate D2E/DX2                !
 ! A3    A(1,2,13)             119.6081         estimate D2E/DX2                !
 ! A4    A(3,2,13)             119.6069         estimate D2E/DX2                !
 ! A5    A(2,3,4)              120.1143         estimate D2E/DX2                !
 ! A6    A(2,3,21)             119.9427         estimate D2E/DX2                !
 ! A7    A(4,3,21)             119.9429         estimate D2E/DX2                !
 ! A8    A(3,4,5)              119.9031         estimate D2E/DX2                !
 ! A9    A(3,4,19)             120.0485         estimate D2E/DX2                !
 ! A10   A(5,4,19)             120.0482         estimate D2E/DX2                !
 ! A11   A(4,5,6)              120.3675         estimate D2E/DX2                !
 ! A12   A(4,5,17)             119.8153         estimate D2E/DX2                !
 ! A13   A(6,5,17)             119.8168         estimate D2E/DX2                !
 ! A14   A(1,6,5)              120.0395         estimate D2E/DX2                !
 ! A15   A(1,6,15)             121.5519         estimate D2E/DX2                !
 ! A16   A(5,6,15)             118.4028         estimate D2E/DX2                !
 ! A17   A(8,7,12)             118.6894         estimate D2E/DX2                !
 ! A18   A(7,8,9)              120.7845         estimate D2E/DX2                !
 ! A19   A(7,8,22)             119.6081         estimate D2E/DX2                !
 ! A20   A(9,8,22)             119.6069         estimate D2E/DX2                !
 ! A21   A(8,9,10)             120.1143         estimate D2E/DX2                !
 ! A22   A(8,9,20)             119.9427         estimate D2E/DX2                !
 ! A23   A(10,9,20)            119.9429         estimate D2E/DX2                !
 ! A24   A(9,10,11)            119.9031         estimate D2E/DX2                !
 ! A25   A(9,10,18)            120.0485         estimate D2E/DX2                !
 ! A26   A(11,10,18)           120.0482         estimate D2E/DX2                !
 ! A27   A(10,11,12)           120.3675         estimate D2E/DX2                !
 ! A28   A(10,11,16)           119.8153         estimate D2E/DX2                !
 ! A29   A(12,11,16)           119.8168         estimate D2E/DX2                !
 ! A30   A(7,12,11)            120.0395         estimate D2E/DX2                !
 ! A31   A(7,12,14)            121.5519         estimate D2E/DX2                !
 ! A32   A(11,12,14)           118.4028         estimate D2E/DX2                !
 ! A33   A(12,14,15)           108.3737         estimate D2E/DX2                !
 ! A34   A(6,15,14)            108.3737         estimate D2E/DX2                !
 ! D1    D(6,1,2,3)              2.7167         estimate D2E/DX2                !
 ! D2    D(6,1,2,13)          -177.5379         estimate D2E/DX2                !
 ! D3    D(2,1,6,5)             -3.844          estimate D2E/DX2                !
 ! D4    D(2,1,6,15)           175.2669         estimate D2E/DX2                !
 ! D5    D(1,2,3,4)             -0.1535         estimate D2E/DX2                !
 ! D6    D(1,2,3,21)           179.735          estimate D2E/DX2                !
 ! D7    D(13,2,3,4)          -179.8989         estimate D2E/DX2                !
 ! D8    D(13,2,3,21)           -0.0105         estimate D2E/DX2                !
 ! D9    D(2,3,4,5)             -1.3238         estimate D2E/DX2                !
 ! D10   D(2,3,4,19)           178.8185         estimate D2E/DX2                !
 ! D11   D(21,3,4,5)           178.7878         estimate D2E/DX2                !
 ! D12   D(21,3,4,19)           -1.07           estimate D2E/DX2                !
 ! D13   D(3,4,5,6)              0.1711         estimate D2E/DX2                !
 ! D14   D(3,4,5,17)          -179.5768         estimate D2E/DX2                !
 ! D15   D(19,4,5,6)          -179.9711         estimate D2E/DX2                !
 ! D16   D(19,4,5,17)            0.281          estimate D2E/DX2                !
 ! D17   D(4,5,6,1)              2.4377         estimate D2E/DX2                !
 ! D18   D(4,5,6,15)          -176.701          estimate D2E/DX2                !
 ! D19   D(17,5,6,1)          -177.8144         estimate D2E/DX2                !
 ! D20   D(17,5,6,15)            3.0469         estimate D2E/DX2                !
 ! D21   D(1,6,15,14)           25.9773         estimate D2E/DX2                !
 ! D22   D(5,6,15,14)         -154.8977         estimate D2E/DX2                !
 ! D23   D(12,7,8,9)             2.7167         estimate D2E/DX2                !
 ! D24   D(12,7,8,22)         -177.5379         estimate D2E/DX2                !
 ! D25   D(8,7,12,11)           -3.844          estimate D2E/DX2                !
 ! D26   D(8,7,12,14)          175.2669         estimate D2E/DX2                !
 ! D27   D(7,8,9,10)            -0.1535         estimate D2E/DX2                !
 ! D28   D(7,8,9,20)           179.735          estimate D2E/DX2                !
 ! D29   D(22,8,9,10)         -179.8989         estimate D2E/DX2                !
 ! D30   D(22,8,9,20)           -0.0105         estimate D2E/DX2                !
 ! D31   D(8,9,10,11)           -1.3238         estimate D2E/DX2                !
 ! D32   D(8,9,10,18)          178.8185         estimate D2E/DX2                !
 ! D33   D(20,9,10,11)         178.7878         estimate D2E/DX2                !
 ! D34   D(20,9,10,18)          -1.07           estimate D2E/DX2                !
 ! D35   D(9,10,11,12)           0.1711         estimate D2E/DX2                !
 ! D36   D(9,10,11,16)        -179.5768         estimate D2E/DX2                !
 ! D37   D(18,10,11,12)       -179.9711         estimate D2E/DX2                !
 ! D38   D(18,10,11,16)          0.281          estimate D2E/DX2                !
 ! D39   D(10,11,12,7)           2.4377         estimate D2E/DX2                !
 ! D40   D(10,11,12,14)       -176.701          estimate D2E/DX2                !
 ! D41   D(16,11,12,7)        -177.8144         estimate D2E/DX2                !
 ! D42   D(16,11,12,14)          3.0469         estimate D2E/DX2                !
 ! D43   D(7,12,14,15)          25.9773         estimate D2E/DX2                !
 ! D44   D(11,12,14,15)       -154.8977         estimate D2E/DX2                !
 ! D45   D(12,14,15,6)         -37.0751         estimate D2E/DX2                !
 --------------------------------------------------------------------------------
 Trust Radius=3.00D-01 FncErr=1.00D-07 GrdErr=1.00D-06 EigMax=2.50D+02 EigMin=1.00D-04
 Number of steps in this run=    112 maximum allowed number of steps=    132.
 GradGradGradGradGradGradGradGradGradGradGradGradGradGradGradGradGradGrad

                          Input orientation:                          
 ---------------------------------------------------------------------
 Center     Atomic      Atomic             Coordinates (Angstroms)
 Number     Number       Type             X           Y           Z
 ---------------------------------------------------------------------
      1          6           0       -0.302174    0.393351    0.039541
      2          6           0        1.064706    0.322923   -0.275612
      3          6           0        1.865474    1.471642   -0.253563
      4          6           0        1.308139    2.708427    0.081393
      5          6           0       -0.057098    2.803119    0.367937
      6          6           0       -0.871318    1.662266    0.324736
      7          6           0       -1.309624   -1.321511    0.043634
      8          6           0       -0.664715   -2.435068   -0.519147
      9          6           0       -1.315694   -3.671942   -0.606563
     10          6           0       -2.621172   -3.812418   -0.128598
     11          6           0       -3.267922   -2.723008    0.462879
     12          6           0       -2.615009   -1.487221    0.576473
     13          1           0        1.500275   -0.620272   -0.531663
     14         17           0       -3.439807   -0.181845    1.404565
     15         17           0       -2.590010    1.853794    0.606609
     16         17           0       -4.908215   -2.905588    1.074193
     17         17           0       -0.758831    4.364038    0.778671
     18         17           0       -3.448843   -5.359436   -0.267511
     19         17           0        2.322440    4.145609    0.138861
     20         17           0       -0.489089   -5.051059   -1.322356
     21         17           0        3.577411    1.356767   -0.645576
     22         17           0        0.978666   -2.272461   -1.127798
 ---------------------------------------------------------------------
                    Distance matrix (angstroms):
                    1          2          3          4          5
     1  C    0.000000
     2  C    1.404507   0.000000
     3  C    2.438713   1.400454   0.000000
     4  C    2.820362   2.424323   1.397303   0.000000
     5  C    2.444359   2.797136   2.419788   1.398194   0.000000
     6  C    1.419650   2.429495   2.803712   2.429755   1.402273
     7  C    1.988900   2.905774   4.239254   4.805675   4.322796
     8  C    2.905774   3.264464   4.662057   5.541512   5.347404
     9  C    4.239254   4.662057   6.058126   6.933029   6.667843
    10  C    4.805675   5.541512   6.933029   7.616102   7.112409
    11  C    4.322796   5.347404   6.667843   7.112409   6.391908
    12  C    3.028870   4.188433   5.433098   5.765385   4.999341
    13  H    2.145350   1.070000   2.141685   3.390132   3.867079
    14  Cl   3.469710   4.834090   5.799088   5.713795   4.628967
    15  Cl   2.772842   4.059412   4.553819   4.025148   2.715479
    16  Cl   5.759264   6.922502   8.173490   8.434802   7.524725
    17  Cl   4.064629   4.557127   4.039609   2.738542   1.760000
    18  Cl   6.564325   7.256817   8.654813   9.372355   8.862000
    19  Cl   4.580164   4.045567   2.740970   1.760000   2.741707
    20  Cl   5.615274   5.691189   7.016546   8.087655   8.045609
    21  Cl   4.055704   2.742152   1.760000   2.739537   4.040891
    22  Cl   3.179588   2.733064   3.945760   5.136141   5.391803
                    6          7          8          9         10
     6  C    0.000000
     7  C    3.028870   0.000000
     8  C    4.188433   1.404507   0.000000
     9  C    5.433098   2.438713   1.400454   0.000000
    10  C    5.765385   2.820362   2.424323   1.397303   0.000000
    11  C    4.999341   2.444359   2.797136   2.419788   1.398194
    12  C    3.608752   1.419650   2.429495   2.803712   2.429755
    13  H    3.401155   2.952665   2.825035   4.153068   5.228630
    14  Cl   3.341244   2.772842   4.059412   4.553819   4.025148
    15  Cl   1.752152   3.469710   4.834090   5.799088   5.713795
    16  Cl   6.141947   4.064629   4.557127   4.039609   2.738542
    17  Cl   2.741949   5.759264   6.922502   8.173490   8.434802
    18  Cl   7.503245   4.580164   4.045567   2.740970   1.760000
    19  Cl   4.049894   6.564325   7.256817   8.654813   9.372355
    20  Cl   6.922986   4.055704   2.742152   1.760000   2.739537
    21  Cl   4.563555   5.615274   5.691189   7.016546   8.087655
    22  Cl   4.584143   2.740955   1.760000   2.737576   4.040879
                   11         12         13         14         15
    11  C    0.000000
    12  C    1.402273   0.000000
    13  H    5.305310   4.349152   0.000000
    14  Cl   2.715479   1.752152   5.324059   0.000000
    15  Cl   4.628967   3.341244   4.913969   2.345787   0.000000
    16  Cl   1.760000   2.741949   6.990721   3.111936   5.314549
    17  Cl   7.524725   6.141947   5.627067   5.314549   3.111936
    18  Cl   2.741707   4.049894   6.857347   5.440898   7.316581
    19  Cl   8.862000   7.503245   4.882539   7.316581   5.440898
    20  Cl   4.040891   4.563555   4.920837   6.312851   7.470727
    21  Cl   8.045609   6.922986   2.869871   7.470727   6.312851
    22  Cl   4.557056   4.054090   1.832261   5.505129   5.724473
                   16         17         18         19         20
    16  Cl   0.000000
    17  Cl   8.375690   0.000000
    18  Cl   3.154569  10.142811   0.000000
    19  Cl  10.142811   3.154569  11.127386   0.000000
    20  Cl   5.465817   9.650447   3.157204   9.727207   0.000000
    21  Cl   9.650447   5.465817   9.727207   3.157204   7.619363
    22  Cl   6.317039   7.120157   5.465560   6.678456   3.148455
                   21         22
    21  Cl   0.000000
    22  Cl   4.489689   0.000000
 Stoichiometry    C12HCl9
 Framework group  C1[X(C12HCl9)]
 Deg. of freedom    60
 Full point group                 C1      NOp   1
 Largest Abelian subgroup         C1      NOp   1
 Largest concise Abelian subgroup C1      NOp   1
                         Standard orientation:                         
 ---------------------------------------------------------------------
 Center     Atomic      Atomic             Coordinates (Angstroms)
 Number     Number       Type             X           Y           Z
 ---------------------------------------------------------------------
      1          6           0       -1.037843    0.081722   -0.008991
      2          6           0       -1.652319    1.337914    0.121551
      3          6           0       -3.047695    1.453916    0.148801
      4          6           0       -3.848187    0.313583    0.042464
      5          6           0       -3.254738   -0.942058   -0.119182
      6          6           0       -1.858851   -1.064948   -0.171780
      7          6           0        0.950135    0.047837    0.041202
      8          6           0        1.606463    1.285130   -0.063587
      9          6           0        3.004954    1.354782   -0.088920
     10          6           0        3.766694    0.186277   -0.006429
     11          6           0        3.131389   -1.051813    0.129462
     12          6           0        1.732147   -1.128854    0.179995
     13          1           0       -1.047105    2.216328    0.205240
     14         17           0        0.992544   -2.695976    0.439128
     15         17           0       -1.172160   -2.650321   -0.463473
     16         17           0        4.093453   -2.521108    0.244378
     17         17           0       -4.265523   -2.375557   -0.264079
     18         17           0        5.523409    0.273149   -0.069718
     19         17           0       -5.601019    0.458028    0.108143
     20         17           0        3.804358    2.916592   -0.227854
     21         17           0       -3.794289    3.038469    0.320231
     22         17           0        0.660062    2.765123   -0.171035
 ---------------------------------------------------------------------
 Rotational constants (GHZ):           0.2536110           0.0918951           0.0679537
 Standard basis: 6-311+G(d,p) (5D, 7F)
 There are   561 symmetry adapted cartesian basis functions of A   symmetry.
 There are   540 symmetry adapted basis functions of A   symmetry.
   540 basis functions,   917 primitive gaussians,   561 cartesian basis functions
   113 alpha electrons      113 beta electrons
       nuclear repulsion energy      2994.2763693196 Hartrees.
 NAtoms=   22 NActive=   22 NUniq=   22 SFac= 1.00D+00 NAtFMM=   60 NAOKFM=F Big=F
 Integral buffers will be    131072 words long.
 Raffenetti 2 integral format.
 Two-electron integral symmetry is turned on.
 One-electron integrals computed using PRISM.
 NBasis=   540 RedAO= T EigKep=  1.24D-06  NBF=   540
 NBsUse=   533 1.00D-06 EigRej=  8.36D-07 NBFU=   533
 ExpMin= 4.38D-02 ExpMax= 1.06D+05 ExpMxC= 3.62D+03 IAcc=3 IRadAn=         5 AccDes= 0.00D+00
 Harris functional with IExCor=  402 and IRadAn=       5 diagonalized for initial guess.
 HarFok:  IExCor=  402 AccDes= 0.00D+00 IRadAn=         5 IDoV= 1 UseB2=F ITyADJ=14
 ICtDFT=  3500011 ScaDFX=  1.000000  1.000000  1.000000  1.000000
 FoFCou: FMM=F IPFlag=           0 FMFlag=      100000 FMFlg1=           0
         NFxFlg=           0 DoJE=T BraDBF=F KetDBF=T FulRan=T
         wScrn=  0.000000 ICntrl=       500 IOpCl=  0 I1Cent=   200000004 NGrid=           0
         NMat0=    1 NMatS0=      1 NMatT0=    0 NMatD0=    1 NMtDS0=    0 NMtDT0=    0
 Petite list used in FoFCou.
 Requested convergence on RMS density matrix=1.00D-08 within  32 cycles.
 Requested convergence on MAX density matrix=1.00D-06.
 Requested convergence on             energy=1.00D-06.
 No special actions if energy rises.
 SCF Done:  E(RB3LYP) =  -4599.79040361     A.U. after   17 cycles
            NFock= 17  Conv=0.62D-08     -V/T= 2.0025
 QCSCF skips out because SCF is already converged.

 **********************************************************************

            Population analysis using the SCF Density.

 **********************************************************************

 Orbital symmetries:
       Occupied  (A) (A) (A) (A) (A) (A) (A) (A) (A) (A) (A) (A)
                 (A) (A) (A) (A) (A) (A) (A) (A) (A) (A) (A) (A)
                 (A) (A) (A) (A) (A) (A) (A) (A) (A) (A) (A) (A)
                 (A) (A) (A) (A) (A) (A) (A) (A) (A) (A) (A) (A)
                 (A) (A) (A) (A) (A) (A) (A) (A) (A) (A) (A) (A)
                 (A) (A) (A) (A) (A) (A) (A) (A) (A) (A) (A) (A)
                 (A) (A) (A) (A) (A) (A) (A) (A) (A) (A) (A) (A)
                 (A) (A) (A) (A) (A) (A) (A) (A) (A) (A) (A) (A)
                 (A) (A) (A) (A) (A) (A) (A) (A) (A) (A) (A) (A)
                 (A) (A) (A) (A) (A)
       Virtual   (A) (A) (A) (A) (A) (A) (A) (A) (A) (A) (A) (A)
                 (A) (A) (A) (A) (A) (A) (A) (A) (A) (A) (A) (A)
                 (A) (A) (A) (A) (A) (A) (A) (A) (A) (A) (A) (A)
                 (A) (A) (A) (A) (A) (A) (A) (A) (A) (A) (A) (A)
                 (A) (A) (A) (A) (A) (A) (A) (A) (A) (A) (A) (A)
                 (A) (A) (A) (A) (A) (A) (A) (A) (A) (A) (A) (A)
                 (A) (A) (A) (A) (A) (A) (A) (A) (A) (A) (A) (A)
                 (A) (A) (A) (A) (A) (A) (A) (A) (A) (A) (A) (A)
                 (A) (A) (A) (A) (A) (A) (A) (A) (A) (A) (A) (A)
                 (A) (A) (A) (A) (A) (A) (A) (A) (A) (A) (A) (A)
                 (A) (A) (A) (A) (A) (A) (A) (A) (A) (A) (A) (A)
                 (A) (A) (A) (A) (A) (A) (A) (A) (A) (A) (A) (A)
                 (A) (A) (A) (A) (A) (A) (A) (A) (A) (A) (A) (A)
                 (A) (A) (A) (A) (A) (A) (A) (A) (A) (A) (A) (A)
                 (A) (A) (A) (A) (A) (A) (A) (A) (A) (A) (A) (A)
                 (A) (A) (A) (A) (A) (A) (A) (A) (A) (A) (A) (A)
                 (A) (A) (A) (A) (A) (A) (A) (A) (A) (A) (A) (A)
                 (A) (A) (A) (A) (A) (A) (A) (A) (A) (A) (A) (A)
                 (A) (A) (A) (A) (A) (A) (A) (A) (A) (A) (A) (A)
                 (A) (A) (A) (A) (A) (A) (A) (A) (A) (A) (A) (A)
                 (A) (A) (A) (A) (A) (A) (A) (A) (A) (A) (A) (A)
                 (A) (A) (A) (A) (A) (A) (A) (A) (A) (A) (A) (A)
                 (A) (A) (A) (A) (A) (A) (A) (A) (A) (A) (A) (A)
                 (A) (A) (A) (A) (A) (A) (A) (A) (A) (A) (A) (A)
                 (A) (A) (A) (A) (A) (A) (A) (A) (A) (A) (A) (A)
                 (A) (A) (A) (A) (A) (A) (A) (A) (A) (A) (A) (A)
                 (A) (A) (A) (A) (A) (A) (A) (A) (A) (A) (A) (A)
                 (A) (A) (A) (A) (A) (A) (A) (A) (A) (A) (A) (A)
                 (A) (A) (A) (A) (A) (A) (A) (A) (A) (A) (A) (A)
                 (A) (A) (A) (A) (A) (A) (A) (A) (A) (A) (A) (A)
                 (A) (A) (A) (A) (A) (A) (A) (A) (A) (A) (A) (A)
                 (A) (A) (A) (A) (A) (A) (A) (A) (A) (A) (A) (A)
                 (A) (A) (A) (A) (A) (A) (A) (A) (A) (A) (A) (A)
                 (A) (A) (A) (A) (A) (A) (A) (A) (A) (A) (A) (A)
                 (A) (A) (A) (A) (A) (A) (A) (A) (A) (A) (A) (A)
 The electronic state is 1-A.
 Alpha  occ. eigenvalues -- -101.59527-101.59048-101.58985-101.58690-101.58107
 Alpha  occ. eigenvalues -- -101.58048-101.58012-101.57509-101.56954 -10.30085
 Alpha  occ. eigenvalues --  -10.29850 -10.29748 -10.29674 -10.29529 -10.28950
 Alpha  occ. eigenvalues --  -10.28706 -10.28517 -10.28403 -10.28046 -10.27681
 Alpha  occ. eigenvalues --  -10.21961  -9.51171  -9.50460  -9.50394  -9.50104
 Alpha  occ. eigenvalues --   -9.49527  -9.49467  -9.49435  -9.49296  -9.48760
 Alpha  occ. eigenvalues --   -7.27637  -7.26986  -7.26924  -7.26632  -7.26628
 Alpha  occ. eigenvalues --   -7.26574  -7.26027  -7.25992  -7.25949  -7.25934
 Alpha  occ. eigenvalues --   -7.25870  -7.25853  -7.25782  -7.25771  -7.25582
 Alpha  occ. eigenvalues --   -7.25490  -7.25223  -7.25002  -7.24946  -7.24944
 Alpha  occ. eigenvalues --   -7.24918  -7.24856  -7.24829  -7.24734  -7.24651
 Alpha  occ. eigenvalues --   -7.24201  -7.24123  -0.97723  -0.96055  -0.93667
 Alpha  occ. eigenvalues --   -0.92385  -0.91251  -0.89364  -0.88740  -0.87194
 Alpha  occ. eigenvalues --   -0.86395  -0.85581  -0.84494  -0.77712  -0.76814
 Alpha  occ. eigenvalues --   -0.76204  -0.74853  -0.65798  -0.64848  -0.64453
 Alpha  occ. eigenvalues --   -0.62535  -0.56948  -0.54748  -0.54105  -0.53968
 Alpha  occ. eigenvalues --   -0.50415  -0.49927  -0.48126  -0.47969  -0.47305
 Alpha  occ. eigenvalues --   -0.47043  -0.46331  -0.45320  -0.44440  -0.43396
 Alpha  occ. eigenvalues --   -0.42002  -0.41063  -0.40976  -0.39874  -0.39144
 Alpha  occ. eigenvalues --   -0.37858  -0.37208  -0.36724  -0.36144  -0.36047
 Alpha  occ. eigenvalues --   -0.35654  -0.35267  -0.34789  -0.34289  -0.33925
 Alpha  occ. eigenvalues --   -0.33105  -0.32364  -0.31779  -0.29415  -0.28425
 Alpha  occ. eigenvalues --   -0.28083  -0.27207  -0.24878
 Alpha virt. eigenvalues --   -0.09962  -0.08299  -0.07365  -0.06340  -0.06159
 Alpha virt. eigenvalues --   -0.05110  -0.02969  -0.02671  -0.01352  -0.00785
 Alpha virt. eigenvalues --    0.00240   0.00773   0.01199   0.01589   0.02188
 Alpha virt. eigenvalues --    0.02320   0.03227   0.03488   0.03633   0.04847
 Alpha virt. eigenvalues --    0.05047   0.05172   0.05310   0.06099   0.06669
 Alpha virt. eigenvalues --    0.06801   0.07176   0.07337   0.07396   0.07498
 Alpha virt. eigenvalues --    0.08006   0.08248   0.08402   0.08972   0.09247
 Alpha virt. eigenvalues --    0.09634   0.09972   0.10008   0.10345   0.10695
 Alpha virt. eigenvalues --    0.11324   0.11368   0.11762   0.12370   0.12820
 Alpha virt. eigenvalues --    0.13086   0.13324   0.13499   0.13821   0.14189
 Alpha virt. eigenvalues --    0.14217   0.14936   0.15405   0.15601   0.15924
 Alpha virt. eigenvalues --    0.16098   0.16706   0.17288   0.17517   0.17733
 Alpha virt. eigenvalues --    0.18254   0.18554   0.18764   0.19112   0.19290
 Alpha virt. eigenvalues --    0.19804   0.19927   0.20506   0.20778   0.21269
 Alpha virt. eigenvalues --    0.21743   0.22297   0.22882   0.22958   0.23096
 Alpha virt. eigenvalues --    0.23539   0.23625   0.24158   0.24297   0.24666
 Alpha virt. eigenvalues --    0.24980   0.25451   0.26268   0.26320   0.26964
 Alpha virt. eigenvalues --    0.27155   0.27305   0.27709   0.27926   0.28176
 Alpha virt. eigenvalues --    0.28497   0.28618   0.29464   0.29712   0.30115
 Alpha virt. eigenvalues --    0.30363   0.31246   0.32278   0.32909   0.33939
 Alpha virt. eigenvalues --    0.34721   0.37112   0.38700   0.38974   0.40509
 Alpha virt. eigenvalues --    0.41493   0.41678   0.42155   0.42378   0.42532
 Alpha virt. eigenvalues --    0.42949   0.43227   0.43696   0.44132   0.44497
 Alpha virt. eigenvalues --    0.44676   0.44869   0.45177   0.45877   0.46407
 Alpha virt. eigenvalues --    0.47242   0.47394   0.47724   0.48092   0.48343
 Alpha virt. eigenvalues --    0.48584   0.48957   0.49505   0.49720   0.50550
 Alpha virt. eigenvalues --    0.50779   0.51542   0.53090   0.53289   0.55322
 Alpha virt. eigenvalues --    0.55802   0.55890   0.56866   0.57376   0.57750
 Alpha virt. eigenvalues --    0.58244   0.58732   0.59178   0.59371   0.59734
 Alpha virt. eigenvalues --    0.60120   0.60638   0.61400   0.61971   0.62268
 Alpha virt. eigenvalues --    0.63147   0.63832   0.64618   0.65551   0.67536
 Alpha virt. eigenvalues --    0.68496   0.68937   0.72735   0.74304   0.76363
 Alpha virt. eigenvalues --    0.77073   0.78162   0.78652   0.79870   0.80414
 Alpha virt. eigenvalues --    0.81149   0.81355   0.81815   0.82563   0.82958
 Alpha virt. eigenvalues --    0.83217   0.83408   0.83581   0.83689   0.83908
 Alpha virt. eigenvalues --    0.84307   0.84696   0.84961   0.85093   0.85530
 Alpha virt. eigenvalues --    0.85929   0.85995   0.86264   0.86904   0.87056
 Alpha virt. eigenvalues --    0.87561   0.88546   0.88793   0.88972   0.89604
 Alpha virt. eigenvalues --    0.90277   0.90609   0.91117   0.91458   0.92073
 Alpha virt. eigenvalues --    0.92268   0.92920   0.93196   0.93536   0.93791
 Alpha virt. eigenvalues --    0.94068   0.94473   0.95047   0.95345   0.95607
 Alpha virt. eigenvalues --    0.95723   0.96543   0.97075   0.97735   0.98984
 Alpha virt. eigenvalues --    0.99524   0.99986   1.01344   1.03856   1.04311
 Alpha virt. eigenvalues --    1.05935   1.06674   1.09578   1.11083   1.11962
 Alpha virt. eigenvalues --    1.14349   1.16245   1.17525   1.18841   1.19073
 Alpha virt. eigenvalues --    1.19854   1.20556   1.21278   1.22698   1.23223
 Alpha virt. eigenvalues --    1.24153   1.25531   1.25615   1.26420   1.26731
 Alpha virt. eigenvalues --    1.27091   1.27610   1.27734   1.28446   1.28671
 Alpha virt. eigenvalues --    1.30315   1.30591   1.32732   1.33057   1.33876
 Alpha virt. eigenvalues --    1.39116   1.42309   1.44241   1.46991   1.47719
 Alpha virt. eigenvalues --    1.49103   1.49610   1.53875   1.59347   1.61063
 Alpha virt. eigenvalues --    1.62507   1.63584   1.64967   1.67213   1.71473
 Alpha virt. eigenvalues --    1.72519   1.73304   1.75304   1.76636   1.78238
 Alpha virt. eigenvalues --    1.80898   1.81363   1.82731   1.82836   1.83637
 Alpha virt. eigenvalues --    1.83917   1.84445   1.84854   1.85705   1.86588
 Alpha virt. eigenvalues --    1.92480   1.95932   1.98672   2.04798   2.07039
 Alpha virt. eigenvalues --    2.11008   2.12164   2.16815   2.18176   2.19636
 Alpha virt. eigenvalues --    2.20887   2.21081   2.22208   2.22574   2.22873
 Alpha virt. eigenvalues --    2.23763   2.24124   2.24903   2.25861   2.26608
 Alpha virt. eigenvalues --    2.27225   2.27442   2.29377   2.30041   2.30972
 Alpha virt. eigenvalues --    2.31180   2.33058   2.35464   2.37854   2.38356
 Alpha virt. eigenvalues --    2.40391   2.41204   2.41642   2.42185   2.43522
 Alpha virt. eigenvalues --    2.44714   2.47153   2.48316   2.49461   2.51139
 Alpha virt. eigenvalues --    2.52908   2.54392   2.56955   2.57452   2.59128
 Alpha virt. eigenvalues --    2.59822   2.61650   2.62998   2.66487   2.68562
 Alpha virt. eigenvalues --    2.72058   2.72370   2.74689   2.74975   2.76072
 Alpha virt. eigenvalues --    2.81323   2.83315   2.84342   2.85076   2.85638
 Alpha virt. eigenvalues --    2.87260   3.03494   3.04053   3.04954   3.06789
 Alpha virt. eigenvalues --    3.08644   3.09664   3.11998   3.12968   3.13467
 Alpha virt. eigenvalues --    3.17413   3.20175   3.20973   3.22904   3.30165
 Alpha virt. eigenvalues --    3.38197   3.44575   3.48455   3.54086   3.64369
 Alpha virt. eigenvalues --    3.67108   3.74851   3.83768   3.87084   3.96065
 Alpha virt. eigenvalues --    4.06020   4.77267   4.78602   9.69842   9.71926
 Alpha virt. eigenvalues --    9.77298   9.77800   9.78888   9.79704   9.82203
 Alpha virt. eigenvalues --    9.84940   9.87074  23.20004  23.29393  23.74290
 Alpha virt. eigenvalues --   23.76508  23.77636  23.80472  23.89325  23.90849
 Alpha virt. eigenvalues --   23.91201  23.94978  23.97001  24.04679  25.74402
 Alpha virt. eigenvalues --   25.75635  25.78123  25.79327  25.81440  25.83651
 Alpha virt. eigenvalues --   25.86625  25.90422  25.91410  26.03121  26.07881
 Alpha virt. eigenvalues --   26.10339  26.12649  26.13453  26.16781  26.20909
 Alpha virt. eigenvalues --   26.38113  26.42995  26.47526  26.54096  26.56788
 Alpha virt. eigenvalues --   26.67901  26.72603  26.73956  26.91487  26.94674
 Alpha virt. eigenvalues --   26.99214 215.68709 215.70772 215.76839 215.77319
 Alpha virt. eigenvalues --  215.78647 215.79440 215.82072 215.86614 215.89761
          Condensed to atoms (all electrons):
               1          2          3          4          5          6
     1  C   36.485556  -2.683117 -12.180460   6.887399  -0.560332  -5.629015
     2  C   -2.683117  14.680998  -0.317868  -5.460870   5.139693   1.094889
     3  C  -12.180460  -0.317868  40.516114 -14.072216 -17.629894  13.165727
     4  C    6.887399  -5.460870 -14.072216  30.743363  -0.245368 -11.504771
     5  C   -0.560332   5.139693 -17.629894  -0.245368  31.624311  -8.451849
     6  C   -5.629015   1.094889  13.165727 -11.504771  -8.451849  21.420802
     7  C    5.653360  -3.381583  -3.776055   0.350350  -2.240732  -1.520893
     8  C   -4.600914  -0.797802  -0.842043   1.161059   0.511894  -1.207021
     9  C   -8.624259  -1.468715   0.207203   0.156732   0.008045   0.281618
    10  C   -0.174421   0.913630  -0.087533   0.088725   0.045733  -0.091992
    11  C   -1.953155   1.098015  -0.028477   0.022004  -0.083726  -0.919811
    12  C   -2.322677  -2.216537  -0.913414   0.131056  -0.010675  -0.428573
    13  H    0.018319   0.269963  -0.115870   0.049943   0.003245  -0.045828
    14  Cl  -1.683078  -0.773546  -0.526479   0.155581   0.367072   1.612857
    15  Cl   0.181191   0.813237   2.326725  -0.809153  -1.588840  -1.598069
    16  Cl  -0.165205   0.024751   0.016054  -0.003476  -0.021925  -0.079577
    17  Cl  -0.784916   0.425438  -0.287628  -0.610371  -0.225272   0.923442
    18  Cl  -0.063958  -0.001335  -0.000292   0.000418   0.000719  -0.009098
    19  Cl   0.310334  -0.391602  -0.247199   0.143780   0.289961  -0.774454
    20  Cl  -0.055209  -0.099908   0.011927  -0.006857   0.007793  -0.004196
    21  Cl  -1.084958   0.292008   0.856008  -0.667974  -0.459385   0.580648
    22  Cl   0.092493  -0.108643  -0.620034  -0.087094   0.090251  -0.124936
               7          8          9         10         11         12
     1  C    5.653360  -4.600914  -8.624259  -0.174421  -1.953155  -2.322677
     2  C   -3.381583  -0.797802  -1.468715   0.913630   1.098015  -2.216537
     3  C   -3.776055  -0.842043   0.207203  -0.087533  -0.028477  -0.913414
     4  C    0.350350   1.161059   0.156732   0.088725   0.022004   0.131056
     5  C   -2.240732   0.511894   0.008045   0.045733  -0.083726  -0.010675
     6  C   -1.520893  -1.207021   0.281618  -0.091992  -0.919811  -0.428573
     7  C   32.485479  -3.678470 -12.705114   9.084427  -2.421134  -7.376535
     8  C   -3.678470  15.323330  -4.859487  -3.351253   9.803560  -0.046255
     9  C  -12.705114  -4.859487  44.910746 -12.095275 -19.298198  17.622048
    10  C    9.084427  -3.351253 -12.095275  28.986561  -4.036831 -10.878390
    11  C   -2.421134   9.803560 -19.298198  -4.036831  37.547585 -12.054600
    12  C   -7.376535  -0.046255  17.622048 -10.878390 -12.054600  24.421368
    13  H    0.095432   0.086272   0.031593   0.003845  -0.025203   0.028654
    14  Cl  -0.450785  -0.213010   2.132588  -0.804718  -1.652181   0.131137
    15  Cl  -1.192181  -0.277609  -0.535829   0.110854   0.332039   0.476491
    16  Cl  -1.085951   0.542715  -0.160621  -0.229121  -0.096203   0.475204
    17  Cl  -0.112995  -0.051130   0.002246  -0.006338  -0.021096  -0.028084
    18  Cl   0.409305  -0.601743   0.076668   0.262794  -0.021884  -0.746325
    19  Cl  -0.039156  -0.004148  -0.001295  -0.000457   0.001028  -0.007567
    20  Cl  -0.911190   0.463250   0.456675  -0.897577  -0.535414   0.803168
    21  Cl  -0.226486  -0.039234  -0.009437  -0.003108  -0.003109  -0.037996
    22  Cl  -0.146819  -0.647857  -0.211550  -0.174598   0.880076  -0.336297
              13         14         15         16         17         18
     1  C    0.018319  -1.683078   0.181191  -0.165205  -0.784916  -0.063958
     2  C    0.269963  -0.773546   0.813237   0.024751   0.425438  -0.001335
     3  C   -0.115870  -0.526479   2.326725   0.016054  -0.287628  -0.000292
     4  C    0.049943   0.155581  -0.809153  -0.003476  -0.610371   0.000418
     5  C    0.003245   0.367072  -1.588840  -0.021925  -0.225272   0.000719
     6  C   -0.045828   1.612857  -1.598069  -0.079577   0.923442  -0.009098
     7  C    0.095432  -0.450785  -1.192181  -1.085951  -0.112995   0.409305
     8  C    0.086272  -0.213010  -0.277609   0.542715  -0.051130  -0.601743
     9  C    0.031593   2.132588  -0.535829  -0.160621   0.002246   0.076668
    10  C    0.003845  -0.804718   0.110854  -0.229121  -0.006338   0.262794
    11  C   -0.025203  -1.652181   0.332039  -0.096203  -0.021096  -0.021884
    12  C    0.028654   0.131137   0.476491   0.475204  -0.028084  -0.746325
    13  H    0.606071   0.003645  -0.004525  -0.000218   0.001993   0.000392
    14  Cl   0.003645  21.119768  -2.866624  -0.403080   0.031917  -0.023005
    15  Cl  -0.004525  -2.866624  21.117092   0.042570  -0.383879   0.003263
    16  Cl  -0.000218  -0.403080   0.042570  17.792994  -0.000364  -0.327818
    17  Cl   0.001993   0.031917  -0.383879  -0.000364  17.800664  -0.000023
    18  Cl   0.000392  -0.023005   0.003263  -0.327818  -0.000023  17.686371
    19  Cl   0.000576   0.003445  -0.022114  -0.000013  -0.334059  -0.000004
    20  Cl   0.002764   0.031162  -0.003505  -0.000565   0.000184  -0.313961
    21  Cl  -0.024787  -0.001819   0.019639   0.000080   0.012399  -0.000055
    22  Cl  -0.135194  -0.072337   0.005958   0.020034   0.002648  -0.004855
              19         20         21         22
     1  C    0.310334  -0.055209  -1.084958   0.092493
     2  C   -0.391602  -0.099908   0.292008  -0.108643
     3  C   -0.247199   0.011927   0.856008  -0.620034
     4  C    0.143780  -0.006857  -0.667974  -0.087094
     5  C    0.289961   0.007793  -0.459385   0.090251
     6  C   -0.774454  -0.004196   0.580648  -0.124936
     7  C   -0.039156  -0.911190  -0.226486  -0.146819
     8  C   -0.004148   0.463250  -0.039234  -0.647857
     9  C   -0.001295   0.456675  -0.009437  -0.211550
    10  C   -0.000457  -0.897577  -0.003108  -0.174598
    11  C    0.001028  -0.535414  -0.003109   0.880076
    12  C   -0.007567   0.803168  -0.037996  -0.336297
    13  H    0.000576   0.002764  -0.024787  -0.135194
    14  Cl   0.003445   0.031162  -0.001819  -0.072337
    15  Cl  -0.022114  -0.003505   0.019639   0.005958
    16  Cl  -0.000013  -0.000565   0.000080   0.020034
    17  Cl  -0.334059   0.000184   0.012399   0.002648
    18  Cl  -0.000004  -0.313961  -0.000055  -0.004855
    19  Cl  17.654539  -0.000034  -0.252768   0.000425
    20  Cl  -0.000034  17.738769   0.000912  -0.389429
    21  Cl  -0.252768   0.000912  17.544208  -0.046784
    22  Cl   0.000425  -0.389429  -0.046784  18.264174
 Mulliken charges:
               1
     1  C   -1.062979
     2  C   -1.051095
     3  C    0.545704
     4  C   -0.422260
     5  C   -0.570718
     6  C   -0.689899
     7  C   -0.812272
     8  C   -0.674107
     9  C    0.083616
    10  C   -0.664957
    11  C   -0.533286
    12  C   -0.685202
    13  H    0.148917
    14  Cl   0.881490
    15  Cl   0.853270
    16  Cl   0.659736
    17  Cl   0.645227
    18  Cl   0.674423
    19  Cl   0.670782
    20  Cl   0.701241
    21  Cl   0.551999
    22  Cl   0.750369
 Sum of Mulliken charges =  -0.00000
 Mulliken charges with hydrogens summed into heavy atoms:
               1
     1  C   -1.062979
     2  C   -0.902177
     3  C    0.545704
     4  C   -0.422260
     5  C   -0.570718
     6  C   -0.689899
     7  C   -0.812272
     8  C   -0.674107
     9  C    0.083616
    10  C   -0.664957
    11  C   -0.533286
    12  C   -0.685202
    14  Cl   0.881490
    15  Cl   0.853270
    16  Cl   0.659736
    17  Cl   0.645227
    18  Cl   0.674423
    19  Cl   0.670782
    20  Cl   0.701241
    21  Cl   0.551999
    22  Cl   0.750369
 Electronic spatial extent (au):  <R**2>=          13436.0508
 Charge=             -0.0000 electrons
 Dipole moment (field-independent basis, Debye):
    X=              1.0325    Y=              0.6092    Z=              0.0538  Tot=              1.2001
 Quadrupole moment (field-independent basis, Debye-Ang):
   XX=           -188.3993   YY=           -180.3806   ZZ=           -183.0980
   XY=              0.1201   XZ=             -0.6064   YZ=             -0.0216
 Traceless Quadrupole moment (field-independent basis, Debye-Ang):
   XX=             -4.4400   YY=              3.5787   ZZ=              0.8613
   XY=              0.1201   XZ=             -0.6064   YZ=             -0.0216
 Octapole moment (field-independent basis, Debye-Ang**2):
  XXX=             27.0300  YYY=             -7.7699  ZZZ=             -0.7537  XYY=              2.6491
  XXY=             -3.6742  XXZ=             -0.9936  XZZ=              1.8756  YZZ=             -1.5410
  YYZ=             -0.2597  XYZ=              1.8669
 Hexadecapole moment (field-independent basis, Debye-Ang**3):
 XXXX=         -12506.8778 YYYY=          -4354.8254 ZZZZ=           -274.1789 XXXY=             26.4021
 XXXZ=             -7.8742 YYYX=              1.8495 YYYZ=             -1.9749 ZZZX=             -1.6303
 ZZZY=             -1.1085 XXYY=          -2821.8047 XXZZ=          -2181.7405 YYZZ=           -817.1054
 XXYZ=             -2.1014 YYXZ=             -7.2303 ZZXY=              2.4591
 N-N= 2.994276369320D+03 E-N=-1.689381637782D+04  KE= 4.588189779319D+03
 Calling FoFJK, ICntrl=      2127 FMM=F ISym2X=0 I1Cent= 0 IOpClX= 0 NMat=1 NMatS=1 NMatT=0.
 ***** Axes restored to original set *****
 -------------------------------------------------------------------
 Center     Atomic                   Forces (Hartrees/Bohr)
 Number     Number              X              Y              Z
 -------------------------------------------------------------------
      1        6          -0.024984241   -0.037771484    0.001760728
      2        6          -0.006219335    0.023365576    0.012449086
      3        6          -0.006001128   -0.000080691    0.000612087
      4        6           0.010194982    0.010036117    0.000225331
      5        6          -0.003077383    0.006125837    0.002581287
      6        6          -0.008752129   -0.014532281   -0.000867065
      7        6           0.024902550    0.052864256    0.001284480
      8        6          -0.000047388    0.014240748    0.002866229
      9        6           0.007713949   -0.009519436   -0.005111112
     10        6          -0.005742506   -0.008859853   -0.001174426
     11        6          -0.009387373   -0.001145217    0.002484245
     12        6           0.010256362    0.010157398   -0.000330114
     13        1           0.005418318    0.021692504    0.009971165
     14       17          -0.030652400   -0.106313405    0.036499950
     15       17           0.049034503    0.095495008   -0.045070518
     16       17           0.010331500   -0.000162070   -0.004011540
     17       17           0.004998128   -0.008647054   -0.002833461
     18       17           0.005737743    0.009665634    0.000987585
     19       17          -0.005751549   -0.007237916   -0.000467165
     20       17          -0.004733136    0.008092619    0.004010275
     21       17          -0.007969790   -0.004153668    0.001231990
     22       17          -0.015269675   -0.053312621   -0.017099037
 -------------------------------------------------------------------
 Cartesian Forces:  Max     0.106313405 RMS     0.024409371

 GradGradGradGradGradGradGradGradGradGradGradGradGradGradGradGradGradGrad
 Berny optimization.
 FormGI is forming the generalized inverse of G from B-inverse, IUseBI=4.
 Internal  Forces:  Max     0.132292638 RMS     0.032170865
 Search for a local minimum.
 Step number   1 out of a maximum of  112
 All quantities printed in internal units (Hartrees-Bohrs-Radians)
 Mixed Optimization -- RFO/linear search
 Second derivative matrix not updated -- first step.
 ITU=  0
     Eigenvalues ---    0.00230   0.00342   0.00342   0.01616   0.01616
     Eigenvalues ---    0.01949   0.01949   0.02064   0.02064   0.02074
     Eigenvalues ---    0.02074   0.02084   0.02084   0.02103   0.02103
     Eigenvalues ---    0.02108   0.02108   0.02119   0.02119   0.13110
     Eigenvalues ---    0.16000   0.23335   0.24979   0.24985   0.24991
     Eigenvalues ---    0.24997   0.24999   0.25000   0.25000   0.25000
     Eigenvalues ---    0.25000   0.25000   0.25000   0.25000   0.25000
     Eigenvalues ---    0.25000   0.25000   0.25000   0.29539   0.29539
     Eigenvalues ---    0.29539   0.29539   0.29539   0.29539   0.29539
     Eigenvalues ---    0.30280   0.30280   0.37230   0.40765   0.40776
     Eigenvalues ---    0.41745   0.41875   0.44175   0.44176   0.45369
     Eigenvalues ---    0.45369   0.45415   0.45416   0.45903   0.45903
 RFO step:  Lambda=-2.50160710D-01 EMin= 2.30000000D-03
 Linear search not attempted -- first point.
 Maximum step size (   0.300) exceeded in Quadratic search.
    -- Step size scaled by   0.515
 Iteration  1 RMS(Cart)=  0.28828785 RMS(Int)=  0.02171392
 Iteration  2 RMS(Cart)=  0.22750067 RMS(Int)=  0.00705937
 Iteration  3 RMS(Cart)=  0.01199578 RMS(Int)=  0.00032606
 Iteration  4 RMS(Cart)=  0.00004339 RMS(Int)=  0.00032570
 Iteration  5 RMS(Cart)=  0.00000002 RMS(Int)=  0.00032570
 Variable       Old X    -DE/DX   Delta X   Delta X   Delta X     New X
                                 (Linear)    (Quad)   (Total)
    R1        2.65413  -0.00100   0.00000  -0.00071  -0.00065   2.65348
    R2        2.68275  -0.00355   0.00000  -0.00228  -0.00220   2.68055
    R3        2.64647  -0.01095   0.00000  -0.00836  -0.00838   2.63809
    R4        2.02201  -0.01930   0.00000  -0.01597  -0.01597   2.00603
    R5        2.64052  -0.02051   0.00000  -0.01527  -0.01535   2.62517
    R6        3.32592  -0.00776   0.00000  -0.00732  -0.00732   3.31859
    R7        2.64220  -0.01679   0.00000  -0.01223  -0.01229   2.62991
    R8        3.32592  -0.00924   0.00000  -0.00872  -0.00872   3.31719
    R9        2.64991   0.00329   0.00000   0.00278   0.00280   2.65271
   R10        3.32592  -0.01032   0.00000  -0.00975  -0.00975   3.31617
   R11        3.31109  -0.04408   0.00000  -0.04107  -0.04107   3.27002
   R12        2.65413   0.06296   0.00000   0.04791   0.04805   2.70218
   R13        2.68275   0.05330   0.00000   0.04226   0.04246   2.72521
   R14        2.64647  -0.00455   0.00000  -0.00335  -0.00340   2.64308
   R15        3.32592  -0.01327   0.00000  -0.01253  -0.01253   3.31339
   R16        2.64052  -0.03515   0.00000  -0.02700  -0.02719   2.61333
   R17        3.32592  -0.01020   0.00000  -0.00963  -0.00963   3.31629
   R18        2.64220  -0.03124   0.00000  -0.02419  -0.02434   2.61786
   R19        3.32592  -0.01127   0.00000  -0.01064  -0.01064   3.31527
   R20        2.64991   0.00438   0.00000   0.00323   0.00326   2.65318
   R21        3.32592  -0.01101   0.00000  -0.01039  -0.01039   3.31553
   R22        3.31109   0.00239   0.00000   0.00222   0.00222   3.31331
   R23        4.43289   0.08259   0.00000   0.11158   0.11158   4.54448
    A1        2.07152  -0.04882   0.00000  -0.04987  -0.04962   2.02190
    A2        2.10809   0.02983   0.00000   0.03180   0.03186   2.13995
    A3        2.08756  -0.00155   0.00000   0.00089   0.00086   2.08841
    A4        2.08753  -0.02829   0.00000  -0.03270  -0.03273   2.05480
    A5        2.09639   0.00751   0.00000   0.00626   0.00618   2.10257
    A6        2.09339  -0.01157   0.00000  -0.01118  -0.01114   2.08225
    A7        2.09340   0.00406   0.00000   0.00491   0.00495   2.09835
    A8        2.09270  -0.01889   0.00000  -0.02043  -0.02056   2.07214
    A9        2.09524   0.01022   0.00000   0.01103   0.01108   2.10632
   A10        2.09524   0.00867   0.00000   0.00942   0.00948   2.10471
   A11        2.10081   0.00642   0.00000   0.00675   0.00672   2.10753
   A12        2.09117  -0.00494   0.00000  -0.00515  -0.00514   2.08603
   A13        2.09120  -0.00148   0.00000  -0.00159  -0.00158   2.08962
   A14        2.09508   0.02399   0.00000   0.02559   0.02548   2.12057
   A15        2.12148   0.01017   0.00000   0.01015   0.00987   2.13135
   A16        2.06652  -0.03389   0.00000  -0.03522  -0.03549   2.03103
   A17        2.07152  -0.06956   0.00000  -0.06557  -0.06498   2.00654
   A18        2.10809   0.02669   0.00000   0.02925   0.02933   2.13742
   A19        2.08756   0.07975   0.00000   0.08125   0.08118   2.16874
   A20        2.08753  -0.10647   0.00000  -0.11055  -0.11061   1.97692
   A21        2.09639   0.01542   0.00000   0.01328   0.01302   2.10941
   A22        2.09339  -0.00792   0.00000  -0.00686  -0.00673   2.08666
   A23        2.09340  -0.00751   0.00000  -0.00643  -0.00631   2.08709
   A24        2.09270  -0.01172   0.00000  -0.01677  -0.01717   2.07554
   A25        2.09524   0.00519   0.00000   0.00770   0.00789   2.10313
   A26        2.09524   0.00653   0.00000   0.00908   0.00927   2.10451
   A27        2.10081   0.02585   0.00000   0.02418   0.02402   2.12482
   A28        2.09117  -0.01508   0.00000  -0.01430  -0.01422   2.07695
   A29        2.09120  -0.01077   0.00000  -0.00987  -0.00979   2.08141
   A30        2.09508   0.01336   0.00000   0.01575   0.01585   2.11094
   A31        2.12148   0.10621   0.00000   0.10848   0.10823   2.22971
   A32        2.06652  -0.11937   0.00000  -0.12385  -0.12406   1.94246
   A33        1.89148   0.06157   0.00000   0.06342   0.06342   1.95489
   A34        1.89148  -0.05962   0.00000  -0.06140  -0.06140   1.83007
    D1        0.04742  -0.00414   0.00000  -0.00759  -0.00741   0.04001
    D2       -3.09862  -0.00617   0.00000  -0.01123  -0.01113  -3.10975
    D3       -0.06709   0.00124   0.00000   0.00166   0.00147  -0.06562
    D4        3.05898   0.02148   0.00000   0.04087   0.04149   3.10048
    D5       -0.00268   0.00222   0.00000   0.00482   0.00484   0.00216
    D6        3.13697   0.00029   0.00000   0.00085   0.00089   3.13786
    D7       -3.13983   0.00418   0.00000   0.00837   0.00841  -3.13142
    D8       -0.00018   0.00225   0.00000   0.00440   0.00447   0.00428
    D9       -0.02310   0.00127   0.00000   0.00256   0.00258  -0.02052
   D10        3.12097  -0.00203   0.00000  -0.00418  -0.00412   3.11685
   D11        3.12044   0.00322   0.00000   0.00654   0.00658   3.12702
   D12       -0.01867  -0.00009   0.00000  -0.00019  -0.00012  -0.01879
   D13        0.00299  -0.00411   0.00000  -0.00836  -0.00827  -0.00528
   D14       -3.13421  -0.00549   0.00000  -0.01114  -0.01102   3.13796
   D15       -3.14109  -0.00080   0.00000  -0.00162  -0.00157   3.14052
   D16        0.00490  -0.00219   0.00000  -0.00440  -0.00432   0.00058
   D17        0.04255   0.00430   0.00000   0.00773   0.00777   0.05032
   D18       -3.08401  -0.01568   0.00000  -0.03064  -0.03042  -3.11444
   D19       -3.10345   0.00568   0.00000   0.01050   0.01052  -3.09293
   D20        0.05318  -0.01430   0.00000  -0.02787  -0.02768   0.02550
   D21        0.45339  -0.03295   0.00000  -0.06575  -0.06549   0.38790
   D22       -2.70347  -0.01254   0.00000  -0.02664  -0.02690  -2.73038
   D23        0.04742  -0.00369   0.00000  -0.00661  -0.00600   0.04141
   D24       -3.09862  -0.01001   0.00000  -0.01800  -0.01845  -3.11707
   D25       -0.06709   0.00212   0.00000   0.00281   0.00241  -0.06468
   D26        3.05898   0.01617   0.00000   0.03090   0.03290   3.09189
   D27       -0.00268   0.00115   0.00000   0.00308   0.00292   0.00025
   D28        3.13697  -0.00113   0.00000  -0.00155  -0.00159   3.13537
   D29       -3.13983   0.00700   0.00000   0.01398   0.01368  -3.12615
   D30       -0.00018   0.00472   0.00000   0.00935   0.00916   0.00897
   D31       -0.02310   0.00112   0.00000   0.00262   0.00244  -0.02066
   D32        3.12097  -0.00172   0.00000  -0.00342  -0.00325   3.11773
   D33        3.12044   0.00339   0.00000   0.00725   0.00696   3.12740
   D34       -0.01867   0.00056   0.00000   0.00122   0.00127  -0.01740
   D35        0.00299  -0.00342   0.00000  -0.00700  -0.00666  -0.00367
   D36       -3.13421  -0.00431   0.00000  -0.00899  -0.00842   3.14056
   D37       -3.14109  -0.00059   0.00000  -0.00097  -0.00097   3.14113
   D38        0.00490  -0.00148   0.00000  -0.00296  -0.00273   0.00217
   D39        0.04255   0.00373   0.00000   0.00611   0.00598   0.04853
   D40       -3.08401  -0.01184   0.00000  -0.02311  -0.02176  -3.10577
   D41       -3.10345   0.00461   0.00000   0.00809   0.00774  -3.09571
   D42        0.05318  -0.01096   0.00000  -0.02114  -0.02000   0.03318
   D43        0.45339  -0.02124   0.00000  -0.04238  -0.04251   0.41088
   D44       -2.70347  -0.00631   0.00000  -0.01358  -0.01345  -2.71693
   D45       -0.64708  -0.13229   0.00000  -0.26993  -0.26993  -0.91701
         Item               Value     Threshold  Converged?
 Maximum Force            0.132293     0.000450     NO 
 RMS     Force            0.032171     0.000300     NO 
 Maximum Displacement     1.683101     0.001800     NO 
 RMS     Displacement     0.508129     0.001200     NO 
 Predicted change in Energy=-1.176774D-01
 GradGradGradGradGradGradGradGradGradGradGradGradGradGradGradGradGradGrad

                          Input orientation:                          
 ---------------------------------------------------------------------
 Center     Atomic      Atomic             Coordinates (Angstroms)
 Number     Number       Type             X           Y           Z
 ---------------------------------------------------------------------
      1          6           0       -0.027702    0.538359    0.249434
      2          6           0        1.366632    0.641400    0.119481
      3          6           0        2.030680    1.868982    0.088647
      4          6           0        1.318900    3.057622    0.190294
      5          6           0       -0.067410    2.999955    0.298110
      6          6           0       -0.736664    1.766008    0.297931
      7          6           0       -1.236208   -1.624924   -0.437682
      8          6           0       -0.882981   -2.888776   -1.005681
      9          6           0       -1.654487   -4.039664   -0.814698
     10          6           0       -2.810098   -4.001183   -0.056057
     11          6           0       -3.182956   -2.805807    0.536520
     12          6           0       -2.417134   -1.638226    0.389927
     13          1           0        1.954057   -0.239903    0.047930
     14         17           0       -3.106760   -0.306225    1.297864
     15         17           0       -2.463202    1.828072    0.395739
     16         17           0       -4.649531   -2.754199    1.498168
     17         17           0       -0.986865    4.488519    0.433204
     18         17           0       -3.789771   -5.442174    0.147881
     19         17           0        2.151338    4.603071    0.189356
     20         17           0       -1.154402   -5.549880   -1.555547
     21         17           0        3.779292    1.896535   -0.071262
     22         17           0        0.522864   -3.157455   -2.018457
 ---------------------------------------------------------------------
                    Distance matrix (angstroms):
                    1          2          3          4          5
     1  C    0.000000
     2  C    1.404163   0.000000
     3  C    2.456288   1.396019   0.000000
     4  C    2.857187   2.417731   1.389182   0.000000
     5  C    2.462397   2.766074   2.392688   1.391691   0.000000
     6  C    1.418485   2.391745   2.777156   2.430060   1.403754
     7  C    2.571460   3.495916   4.812168   5.371142   4.826695
     8  C    3.748609   4.334615   5.685353   6.452773   6.086228
     9  C    4.973641   5.649089   7.022008   7.760316   7.301602
    10  C    5.333150   6.247356   7.610053   8.181444   7.527529
    11  C    4.606679   5.723278   7.016854   7.400430   6.593204
    12  C    3.235220   4.425689   5.672242   6.004064   5.200227
    13  H    2.138613   1.061547   2.110670   3.361155   3.826957
    14  Cl   3.360525   4.722057   5.708504   5.668213   4.600867
    15  Cl   2.759787   4.018973   4.504548   3.982247   2.668831
    16  Cl   5.810471   7.044508   8.245349   8.432672   7.452936
    17  Cl   4.069094   4.520807   4.010769   2.724522   1.754842
    18  Cl   7.066134   7.974909   9.345275   9.916998   9.227572
    19  Cl   4.612343   4.039244   2.738603   1.755383   2.739462
    20  Cl   6.449346   6.891536   8.239396   9.124377   8.815740
    21  Cl   4.054713   2.726293   1.756125   2.733142   4.018842
    22  Cl   4.370983   4.440047   5.654951   6.643751   6.605195
                    6          7          8          9         10
     6  C    0.000000
     7  C    3.505580   0.000000
     8  C    4.836096   1.429935   0.000000
     9  C    5.982154   2.479530   1.398656   0.000000
    10  C    6.138805   2.875652   2.419300   1.382916   0.000000
    11  C    5.190641   2.476566   2.770406   2.384200   1.385313
    12  C    3.797532   1.442117   2.421822   2.792787   2.436573
    13  H    3.365436   3.511679   4.021866   5.310734   6.070849
    14  Cl   3.303236   2.872290   4.113524   4.528861   3.946368
    15  Cl   1.730420   3.758096   5.168146   6.045619   5.857019
    16  Cl   6.097817   4.083326   4.524850   3.996506   2.711844
    17  Cl   2.737328   6.180194   7.517024   8.644818   8.697045
    18  Cl   7.829551   4.629791   4.037323   2.730024   1.754368
    19  Cl   4.049848   7.117343   8.170862   9.496805   9.935254
    20  Cl   7.558578   4.081862   2.730842   1.754906   2.718136
    21  Cl   4.532902   6.139233   6.746046   8.081900   8.843267
    22  Cl   5.585029   2.818126   1.753369   2.639731   3.958728
                   11         12         13         14         15
    11  C    0.000000
    12  C    1.404000   0.000000
    13  H    5.762940   4.602128   0.000000
    14  Cl   2.614070   1.753328   5.213310   0.000000
    15  Cl   4.691557   3.466609   4.889751   2.404833   0.000000
    16  Cl   1.754501   2.730785   7.213338   2.900490   5.195440
    17  Cl   7.618443   6.291625   5.581705   5.313300   3.042852
    18  Cl   2.733075   4.051264   7.750172   5.307254   7.394437
    19  Cl   9.136011   7.737245   4.849054   7.278569   5.388617
    20  Cl   4.002713   4.547571   6.358420   6.280890   7.743039
    21  Cl   8.423438   7.148631   2.812483   7.358286   6.260312
    22  Cl   4.514937   4.092916   3.851023   5.683455   6.292886
                   16         17         18         19         20
    16  Cl   0.000000
    17  Cl   8.185734   0.000000
    18  Cl   3.128526  10.322614   0.000000
    19  Cl  10.104169   3.149746  11.670709   0.000000
    20  Cl   5.418204  10.234874   3.139815  10.819197   0.000000
    21  Cl   9.753845   5.448772  10.544923   3.169148   9.055028
    22  Cl   6.267610   8.170118   5.339642   8.231169   2.958243
                   21         22
    21  Cl   0.000000
    22  Cl   6.319708   0.000000
 Stoichiometry    C12HCl9
 Framework group  C1[X(C12HCl9)]
 Deg. of freedom    60
 Full point group                 C1      NOp   1
 Largest Abelian subgroup         C1      NOp   1
 Largest concise Abelian subgroup C1      NOp   1
                         Standard orientation:                         
 ---------------------------------------------------------------------
 Center     Atomic      Atomic             Coordinates (Angstroms)
 Number     Number       Type             X           Y           Z
 ---------------------------------------------------------------------
      1          6           0       -1.347578    0.243954    0.278513
      2          6           0       -2.075023    1.403647    0.590938
      3          6           0       -3.467123    1.464289    0.505797
      4          6           0       -4.197224    0.353442    0.102312
      5          6           0       -3.512545   -0.809420   -0.237938
      6          6           0       -2.110822   -0.859624   -0.181568
      7          6           0        1.161167    0.395842   -0.265118
      8          6           0        2.147027    1.424011   -0.390267
      9          6           0        3.512537    1.180765   -0.210122
     10          6           0        3.972426   -0.085698    0.101376
     11          6           0        3.055025   -1.111832    0.257954
     12          6           0        1.675078   -0.897452    0.113019
     13          1           0       -1.561408    2.275033    0.913066
     14         17           0        0.766556   -2.364098    0.425578
     15         17           0       -1.374856   -2.348068   -0.668643
     16         17           0        3.636268   -2.719769    0.651612
     17         17           0       -4.414326   -2.226785   -0.745222
     18         17           0        5.690250   -0.387782    0.290137
     19         17           0       -5.950087    0.412017    0.028764
     20         17           0        4.657786    2.498062   -0.391305
     21         17           0       -4.289486    2.958807    0.923060
     22         17           0        1.788702    3.090170   -0.802360
 ---------------------------------------------------------------------
 Rotational constants (GHZ):           0.2575598           0.0785519           0.0621383
 Standard basis: 6-311+G(d,p) (5D, 7F)
 There are   561 symmetry adapted cartesian basis functions of A   symmetry.
 There are   540 symmetry adapted basis functions of A   symmetry.
   540 basis functions,   917 primitive gaussians,   561 cartesian basis functions
   113 alpha electrons      113 beta electrons
       nuclear repulsion energy      2916.1888742073 Hartrees.
 NAtoms=   22 NActive=   22 NUniq=   22 SFac= 1.00D+00 NAtFMM=   60 NAOKFM=F Big=F
 Integral buffers will be    131072 words long.
 Raffenetti 2 integral format.
 Two-electron integral symmetry is turned on.
 One-electron integrals computed using PRISM.
 NBasis=   540 RedAO= T EigKep=  1.30D-06  NBF=   540
 NBsUse=   535 1.00D-06 EigRej=  8.99D-07 NBFU=   535
 Initial guess from the checkpoint file:  "./Gau-201139.chk"
 B after Tr=    -0.000000    0.000000    0.000000
         Rot=    0.999482   -0.006052    0.008513    0.030447 Ang=  -3.69 deg.
 ExpMin= 4.38D-02 ExpMax= 1.06D+05 ExpMxC= 3.62D+03 IAcc=3 IRadAn=         5 AccDes= 0.00D+00
 Harris functional with IExCor=  402 and IRadAn=       5 diagonalized for initial guess.
 HarFok:  IExCor=  402 AccDes= 0.00D+00 IRadAn=         5 IDoV= 1 UseB2=F ITyADJ=14
 ICtDFT=  3500011 ScaDFX=  1.000000  1.000000  1.000000  1.000000
 FoFCou: FMM=F IPFlag=           0 FMFlag=      100000 FMFlg1=           0
         NFxFlg=           0 DoJE=T BraDBF=F KetDBF=T FulRan=T
         wScrn=  0.000000 ICntrl=       500 IOpCl=  0 I1Cent=   200000004 NGrid=           0
         NMat0=    1 NMatS0=      1 NMatT0=    0 NMatD0=    1 NMtDS0=    0 NMtDT0=    0
 Petite list used in FoFCou.
 Requested convergence on RMS density matrix=1.00D-08 within  32 cycles.
 Requested convergence on MAX density matrix=1.00D-06.
 Requested convergence on             energy=1.00D-06.
 No special actions if energy rises.
 EnCoef did     5 forward-backward iterations
 Restarting incremental Fock formation.
 SCF Done:  E(RB3LYP) =  -4599.72174807     A.U. after   21 cycles
            NFock= 21  Conv=0.66D-08     -V/T= 2.0025
 QCSCF skips out because SCF is already converged.
 Calling FoFJK, ICntrl=      2127 FMM=F ISym2X=0 I1Cent= 0 IOpClX= 0 NMat=1 NMatS=1 NMatT=0.
 ***** Axes restored to original set *****
 -------------------------------------------------------------------
 Center     Atomic                   Forces (Hartrees/Bohr)
 Number     Number              X              Y              Z
 -------------------------------------------------------------------
      1        6           0.004979512    0.013790604   -0.022786500
      2        6          -0.018352115   -0.012773249   -0.000807598
      3        6           0.004060279   -0.004677713    0.002811445
      4        6           0.006223183    0.013086946    0.000091808
      5        6          -0.004024134    0.006834154    0.004524556
      6        6          -0.013876993   -0.020650272   -0.000354653
      7        6          -0.020781146   -0.000191644    0.038619640
      8        6           0.014291180    0.025358234    0.001289265
      9        6           0.003738532   -0.009151845   -0.007378256
     10        6          -0.010410555   -0.011937539    0.003286463
     11        6          -0.012359027    0.002201610    0.003337360
     12        6           0.013111874    0.000646058   -0.007741521
     13        1           0.008402319   -0.013143508   -0.002952079
     14       17           0.003505484   -0.070197287    0.024372766
     15       17           0.019792986    0.075576025   -0.038859614
     16       17           0.000876151   -0.009307378   -0.003388534
     17       17           0.006067107   -0.004170304   -0.000699140
     18       17           0.005391975    0.006829258   -0.000776475
     19       17          -0.004290444   -0.008379428   -0.000739811
     20       17          -0.006130006    0.002850903    0.003896587
     21       17          -0.006176495   -0.003913428    0.001049031
     22       17           0.005960333    0.021319805    0.003205261
 -------------------------------------------------------------------
 Cartesian Forces:  Max     0.075576025 RMS     0.017457829

 GradGradGradGradGradGradGradGradGradGradGradGradGradGradGradGradGradGrad
 Berny optimization.
 Using GEDIIS/GDIIS optimizer.
 FormGI is forming the generalized inverse of G from B-inverse, IUseBI=4.
 Internal  Forces:  Max     0.221621212 RMS     0.044786349
 Search for a local minimum.
 Step number   2 out of a maximum of  112
 All quantities printed in internal units (Hartrees-Bohrs-Radians)
 Mixed Optimization -- RFO/linear search
 Update second derivatives using D2CorX and points    2    1
 DE=  6.87D-02 DEPred=-1.18D-01 R=-5.83D-01
 Trust test=-5.83D-01 RLast= 4.20D-01 DXMaxT set to 1.50D-01
 ITU= -1  0
 Use linear search instead of GDIIS.
     Eigenvalues ---    0.00319   0.00342   0.00435   0.01601   0.01686
     Eigenvalues ---    0.01951   0.01988   0.02063   0.02074   0.02074
     Eigenvalues ---    0.02084   0.02084   0.02086   0.02103   0.02103
     Eigenvalues ---    0.02108   0.02109   0.02119   0.02119   0.12422
     Eigenvalues ---    0.15992   0.19159   0.23390   0.24985   0.24987
     Eigenvalues ---    0.24991   0.24995   0.24999   0.24999   0.25000
     Eigenvalues ---    0.25000   0.25000   0.25000   0.25000   0.25000
     Eigenvalues ---    0.25000   0.25000   0.29433   0.29537   0.29539
     Eigenvalues ---    0.29539   0.29539   0.29539   0.29539   0.30094
     Eigenvalues ---    0.30235   0.37105   0.39127   0.40733   0.41416
     Eigenvalues ---    0.41676   0.43956   0.44200   0.45308   0.45357
     Eigenvalues ---    0.45388   0.45410   0.45897   0.45900   2.06445
 RFO step:  Lambda=-9.11680698D-02 EMin= 3.18696391D-03
 Quartic linear search produced a step of -0.78928.
 Maximum step size (   0.150) exceeded in Quadratic search.
    -- Step size scaled by   0.223
 Iteration  1 RMS(Cart)=  0.27007678 RMS(Int)=  0.02184455
 Iteration  2 RMS(Cart)=  0.26173301 RMS(Int)=  0.00886471
 Iteration  3 RMS(Cart)=  0.01731363 RMS(Int)=  0.00014822
 Iteration  4 RMS(Cart)=  0.00010645 RMS(Int)=  0.00014655
 Iteration  5 RMS(Cart)=  0.00000001 RMS(Int)=  0.00014655
 Variable       Old X    -DE/DX   Delta X   Delta X   Delta X     New X
                                 (Linear)    (Quad)   (Total)
    R1        2.65348  -0.02462   0.00051  -0.00255  -0.00208   2.65140
    R2        2.68055  -0.00272   0.00174  -0.00180  -0.00010   2.68045
    R3        2.63809  -0.00152   0.00661  -0.00546   0.00115   2.63924
    R4        2.00603   0.01576   0.01261  -0.00835   0.00426   2.01029
    R5        2.62517   0.01787   0.01211  -0.00835   0.00380   2.62897
    R6        3.31859  -0.00631   0.00578  -0.00501   0.00077   3.31936
    R7        2.62991   0.01276   0.00970  -0.00688   0.00286   2.63278
    R8        3.31719  -0.00941   0.00689  -0.00620   0.00069   3.31788
    R9        2.65271   0.00127  -0.00221   0.00181  -0.00039   2.65232
   R10        3.31617  -0.00677   0.00769  -0.00648   0.00122   3.31739
   R11        3.27002  -0.01461   0.03241  -0.02579   0.00663   3.27664
   R12        2.70218  -0.04486  -0.03793   0.02683  -0.01121   2.69098
   R13        2.72521  -0.05097  -0.03351   0.02212  -0.01152   2.71369
   R14        2.64308   0.01815   0.00268  -0.00066   0.00204   2.64512
   R15        3.31339  -0.00034   0.00989  -0.00734   0.00255   3.31594
   R16        2.61333   0.02624   0.02146  -0.01503   0.00656   2.61989
   R17        3.31629  -0.00584   0.00760  -0.00630   0.00130   3.31759
   R18        2.61786   0.01606   0.01921  -0.01404   0.00529   2.62315
   R19        3.31527  -0.00871   0.00840  -0.00723   0.00117   3.31645
   R20        2.65318   0.00795  -0.00258   0.00275   0.00017   2.65334
   R21        3.31553  -0.00286   0.00820  -0.00639   0.00181   3.31734
   R22        3.31331  -0.04201  -0.00175  -0.00358  -0.00533   3.30798
   R23        4.54448   0.05968  -0.08807   0.05855  -0.02952   4.51496
    A1        2.02190   0.02450   0.03917  -0.02426   0.01479   2.03669
    A2        2.13995  -0.01665  -0.02515   0.01467  -0.01052   2.12943
    A3        2.08841   0.00814  -0.00068   0.00035  -0.00030   2.08811
    A4        2.05480   0.00851   0.02584  -0.01503   0.01083   2.06563
    A5        2.10257   0.00488  -0.00488   0.00465  -0.00020   2.10237
    A6        2.08225  -0.00874   0.00880  -0.00761   0.00117   2.08342
    A7        2.09835   0.00387  -0.00391   0.00297  -0.00096   2.09739
    A8        2.07214   0.00427   0.01623  -0.01033   0.00599   2.07813
    A9        2.10632  -0.00256  -0.00875   0.00555  -0.00324   2.10308
   A10        2.10471  -0.00171  -0.00748   0.00478  -0.00274   2.10197
   A11        2.10753  -0.01678  -0.00530   0.00150  -0.00374   2.10379
   A12        2.08603   0.00346   0.00405  -0.00240   0.00163   2.08766
   A13        2.08962   0.01332   0.00124   0.00089   0.00211   2.09173
   A14        2.12057   0.00004  -0.02011   0.01388  -0.00625   2.11431
   A15        2.13135  -0.07327  -0.00779  -0.00422  -0.01200   2.11935
   A16        2.03103   0.07344   0.02801  -0.00958   0.01844   2.04947
   A17        2.00654   0.03059   0.05128  -0.03372   0.01718   2.02372
   A18        2.13742  -0.01852  -0.02315   0.01317  -0.01005   2.12737
   A19        2.16874  -0.02775  -0.06407   0.04139  -0.02264   2.14610
   A20        1.97692   0.04628   0.08730  -0.05457   0.03277   2.00970
   A21        2.10941  -0.00294  -0.01028   0.00768  -0.00243   2.10698
   A22        2.08666   0.00996   0.00531  -0.00281   0.00241   2.08907
   A23        2.08709  -0.00701   0.00498  -0.00486   0.00003   2.08712
   A24        2.07554   0.00498   0.01355  -0.00729   0.00655   2.08208
   A25        2.10313  -0.00311  -0.00623   0.00318  -0.00319   2.09994
   A26        2.10451  -0.00187  -0.00732   0.00411  -0.00335   2.10116
   A27        2.12482  -0.03196  -0.01895   0.00973  -0.00909   2.11573
   A28        2.07695   0.00019   0.01122  -0.00820   0.00295   2.07990
   A29        2.08141   0.03177   0.00773  -0.00152   0.00614   2.08754
   A30        2.11094   0.01805  -0.01251   0.01050  -0.00214   2.10880
   A31        2.22971  -0.14682  -0.08542   0.04041  -0.04497   2.18474
   A32        1.94246   0.12887   0.09792  -0.05087   0.04711   1.98957
   A33        1.95489  -0.22162  -0.05005   0.00529  -0.04477   1.91013
   A34        1.83007  -0.20423   0.04847  -0.06130  -0.01284   1.81724
    D1        0.04001  -0.00084   0.00584  -0.00064   0.00514   0.04515
    D2       -3.10975  -0.00020   0.00878  -0.00073   0.00801  -3.10174
    D3       -0.06562   0.00396  -0.00116   0.00242   0.00135  -0.06427
    D4        3.10048  -0.00764  -0.03275  -0.00208  -0.03496   3.06552
    D5        0.00216  -0.00208  -0.00382  -0.00127  -0.00513  -0.00297
    D6        3.13786  -0.00021  -0.00071  -0.00029  -0.00104   3.13682
    D7       -3.13142  -0.00271  -0.00664  -0.00125  -0.00791  -3.13933
    D8        0.00428  -0.00083  -0.00352  -0.00027  -0.00382   0.00046
    D9       -0.02052   0.00186  -0.00204   0.00077  -0.00130  -0.02182
   D10        3.11685   0.00247   0.00325   0.00133   0.00457   3.12142
   D11        3.12702   0.00001  -0.00520  -0.00019  -0.00543   3.12159
   D12       -0.01879   0.00063   0.00009   0.00037   0.00044  -0.01836
   D13       -0.00528   0.00177   0.00653   0.00119   0.00770   0.00242
   D14        3.13796   0.00049   0.00870   0.00076   0.00945  -3.13578
   D15        3.14052   0.00115   0.00124   0.00063   0.00184  -3.14082
   D16        0.00058  -0.00012   0.00341   0.00019   0.00359   0.00417
   D17        0.05032  -0.00569  -0.00613  -0.00213  -0.00829   0.04203
   D18       -3.11444   0.00337   0.02401   0.00218   0.02622  -3.08822
   D19       -3.09293  -0.00442  -0.00830  -0.00170  -0.01004  -3.10297
   D20        0.02550   0.00464   0.02185   0.00261   0.02447   0.04997
   D21        0.38790   0.03775   0.05169   0.02356   0.07508   0.46297
   D22       -2.73038   0.02756   0.02123   0.01896   0.04038  -2.69000
   D23        0.04141  -0.00070   0.00474  -0.00024   0.00421   0.04562
   D24       -3.11707   0.00056   0.01456  -0.00124   0.01359  -3.10348
   D25       -0.06468   0.00215  -0.00191   0.00185   0.00016  -0.06452
   D26        3.09189  -0.00819  -0.02597  -0.00179  -0.02860   3.06329
   D27        0.00025  -0.00142  -0.00231  -0.00128  -0.00354  -0.00329
   D28        3.13537  -0.00018   0.00126  -0.00056   0.00070   3.13607
   D29       -3.12615  -0.00197  -0.01079  -0.00116  -0.01178  -3.13793
   D30        0.00897  -0.00073  -0.00723  -0.00044  -0.00754   0.00143
   D31       -0.02066   0.00171  -0.00193   0.00032  -0.00153  -0.02219
   D32        3.11773   0.00207   0.00256   0.00104   0.00353   3.12125
   D33        3.12740   0.00040  -0.00550  -0.00041  -0.00577   3.12163
   D34       -0.01740   0.00077  -0.00101   0.00031  -0.00071  -0.01811
   D35       -0.00367   0.00156   0.00526   0.00112   0.00623   0.00256
   D36        3.14056   0.00041   0.00665   0.00098   0.00739  -3.13524
   D37        3.14113   0.00121   0.00076   0.00041   0.00117  -3.14088
   D38        0.00217   0.00005   0.00216   0.00026   0.00233   0.00450
   D39        0.04853  -0.00416  -0.00472  -0.00134  -0.00602   0.04251
   D40       -3.10577   0.00253   0.01717   0.00239   0.01902  -3.08675
   D41       -3.09571  -0.00305  -0.00611  -0.00121  -0.00718  -3.10289
   D42        0.03318   0.00364   0.01578   0.00253   0.01786   0.05104
   D43        0.41088   0.03047   0.03355   0.01773   0.05133   0.46222
   D44       -2.71693   0.02149   0.01062   0.01403   0.02459  -2.69233
   D45       -0.91701   0.19859   0.21305   0.13215   0.34520  -0.57181
         Item               Value     Threshold  Converged?
 Maximum Force            0.221621     0.000450     NO 
 RMS     Force            0.044786     0.000300     NO 
 Maximum Displacement     1.692373     0.001800     NO 
 RMS     Displacement     0.526054     0.001200     NO 
 Predicted change in Energy=-3.584530D-02
 GradGradGradGradGradGradGradGradGradGradGradGradGradGradGradGradGradGrad

                          Input orientation:                          
 ---------------------------------------------------------------------
 Center     Atomic      Atomic             Coordinates (Angstroms)
 Number     Number       Type             X           Y           Z
 ---------------------------------------------------------------------
      1          6           0       -0.420131    0.419910   -0.027587
      2          6           0        0.944355    0.348276   -0.346386
      3          6           0        1.780989    1.464248   -0.274175
[...]
                 (A) (A) (A) (A) (A) (A) (A) (A) (A) (A) (A) (A)
                 (A) (A) (A) (A) (A) (A) (A) (A) (A) (A) (A) (A)
                 (A) (A) (A) (A) (A) (A) (A) (A) (A) (A) (A) (A)
                 (A) (A) (A) (A) (A) (A) (A) (A) (A) (A) (A) (A)
                 (A) (A) (A) (A) (A) (A) (A) (A) (A) (A) (A) (A)
                 (A) (A) (A) (A) (A) (A) (A) (A) (A) (A) (A) (A)
                 (A) (A) (A) (A) (A) (A) (A) (A) (A) (A) (A) (A)
 The electronic state is 1-A.
 Alpha  occ. eigenvalues -- -101.58824-101.58720-101.58719-101.58686-101.58686
 Alpha  occ. eigenvalues -- -101.58343-101.58309-101.58275-101.58159 -10.29287
 Alpha  occ. eigenvalues --  -10.28973 -10.28967 -10.28892 -10.28892 -10.28616
 Alpha  occ. eigenvalues --  -10.28551 -10.28188 -10.27927 -10.25180 -10.24397
 Alpha  occ. eigenvalues --  -10.22707  -9.50290  -9.50185  -9.50185  -9.50162
 Alpha  occ. eigenvalues --   -9.50161  -9.49806  -9.49775  -9.49751  -9.49615
 Alpha  occ. eigenvalues --   -7.26800  -7.26694  -7.26694  -7.26657  -7.26657
 Alpha  occ. eigenvalues --   -7.26311  -7.26281  -7.26239  -7.26108  -7.25771
 Alpha  occ. eigenvalues --   -7.25678  -7.25663  -7.25663  -7.25640  -7.25640
 Alpha  occ. eigenvalues --   -7.25576  -7.25576  -7.25563  -7.25563  -7.25288
 Alpha  occ. eigenvalues --   -7.25256  -7.25228  -7.25199  -7.25168  -7.25162
 Alpha  occ. eigenvalues --   -7.25091  -7.25031  -0.97972  -0.96556  -0.93282
 Alpha  occ. eigenvalues --   -0.92699  -0.91799  -0.89935  -0.88739  -0.87684
 Alpha  occ. eigenvalues --   -0.87196  -0.85665  -0.84558  -0.79729  -0.76105
 Alpha  occ. eigenvalues --   -0.75330  -0.74703  -0.67313  -0.64541  -0.64033
 Alpha  occ. eigenvalues --   -0.62299  -0.56989  -0.55641  -0.55217  -0.53166
 Alpha  occ. eigenvalues --   -0.50487  -0.49235  -0.48055  -0.47918  -0.47684
 Alpha  occ. eigenvalues --   -0.47398  -0.46732  -0.45536  -0.44188  -0.43096
 Alpha  occ. eigenvalues --   -0.42824  -0.41988  -0.40583  -0.40171  -0.38516
 Alpha  occ. eigenvalues --   -0.37052  -0.36651  -0.36573  -0.36207  -0.36031
 Alpha  occ. eigenvalues --   -0.35850  -0.35497  -0.35283  -0.34039  -0.33989
 Alpha  occ. eigenvalues --   -0.33986  -0.33505  -0.32140  -0.31997  -0.28248
 Alpha  occ. eigenvalues --   -0.28092  -0.27472  -0.27200
 Alpha virt. eigenvalues --   -0.07199  -0.07102  -0.06617  -0.06575  -0.06011
 Alpha virt. eigenvalues --   -0.05036  -0.01425  -0.01051  -0.00663  -0.00005
 Alpha virt. eigenvalues --    0.01197   0.01679   0.01920   0.01996   0.02134
 Alpha virt. eigenvalues --    0.02347   0.02604   0.03821   0.04377   0.04978
 Alpha virt. eigenvalues --    0.05400   0.05591   0.05695   0.06332   0.06781
 Alpha virt. eigenvalues --    0.07340   0.07556   0.07695   0.07766   0.08189
 Alpha virt. eigenvalues --    0.08239   0.08405   0.09020   0.09211   0.09335
 Alpha virt. eigenvalues --    0.09915   0.10241   0.10316   0.10902   0.10964
 Alpha virt. eigenvalues --    0.11292   0.11563   0.12146   0.12414   0.13075
 Alpha virt. eigenvalues --    0.13170   0.13363   0.13651   0.13963   0.14408
 Alpha virt. eigenvalues --    0.14639   0.15186   0.15346   0.16245   0.16353
 Alpha virt. eigenvalues --    0.16680   0.16890   0.16990   0.17441   0.17617
 Alpha virt. eigenvalues --    0.18145   0.18391   0.18728   0.19048   0.19276
 Alpha virt. eigenvalues --    0.19630   0.20414   0.20447   0.20561   0.21251
 Alpha virt. eigenvalues --    0.21562   0.21855   0.22413   0.22737   0.23023
 Alpha virt. eigenvalues --    0.23275   0.23550   0.24116   0.24537   0.24729
 Alpha virt. eigenvalues --    0.25233   0.25573   0.25912   0.26078   0.26827
 Alpha virt. eigenvalues --    0.27040   0.27485   0.27612   0.27715   0.28034
 Alpha virt. eigenvalues --    0.28354   0.28683   0.28965   0.29539   0.29762
 Alpha virt. eigenvalues --    0.29847   0.30235   0.30554   0.30836   0.31766
 Alpha virt. eigenvalues --    0.33303   0.35184   0.37814   0.39884   0.41277
 Alpha virt. eigenvalues --    0.42103   0.42308   0.42511   0.42842   0.43237
 Alpha virt. eigenvalues --    0.44114   0.44444   0.45027   0.45064   0.45136
 Alpha virt. eigenvalues --    0.45384   0.46031   0.46044   0.46119   0.47334
 Alpha virt. eigenvalues --    0.47754   0.47832   0.47939   0.48386   0.48699
 Alpha virt. eigenvalues --    0.49035   0.50227   0.50251   0.50786   0.50958
 Alpha virt. eigenvalues --    0.52033   0.53382   0.56123   0.56191   0.56352
 Alpha virt. eigenvalues --    0.57096   0.57584   0.57700   0.59002   0.59582
 Alpha virt. eigenvalues --    0.60172   0.60516   0.60740   0.60834   0.61229
 Alpha virt. eigenvalues --    0.61942   0.62096   0.63158   0.63534   0.64187
 Alpha virt. eigenvalues --    0.64559   0.64876   0.65771   0.67083   0.67800
 Alpha virt. eigenvalues --    0.68094   0.68271   0.69693   0.74208   0.76481
 Alpha virt. eigenvalues --    0.76803   0.78258   0.78474   0.79431   0.80366
 Alpha virt. eigenvalues --    0.81518   0.82083   0.82603   0.82847   0.82971
 Alpha virt. eigenvalues --    0.83159   0.83327   0.83459   0.83722   0.83821
 Alpha virt. eigenvalues --    0.83917   0.84218   0.84330   0.85051   0.85190
 Alpha virt. eigenvalues --    0.85294   0.85754   0.85785   0.87183   0.88367
 Alpha virt. eigenvalues --    0.88717   0.88803   0.89002   0.89159   0.89270
 Alpha virt. eigenvalues --    0.89314   0.90537   0.91309   0.91548   0.92218
 Alpha virt. eigenvalues --    0.92904   0.93309   0.93316   0.93756   0.93951
 Alpha virt. eigenvalues --    0.94203   0.94846   0.95177   0.95339   0.95827
 Alpha virt. eigenvalues --    0.96713   0.97048   0.98118   1.00727   1.01291
 Alpha virt. eigenvalues --    1.02205   1.02721   1.03420   1.04804   1.05993
 Alpha virt. eigenvalues --    1.07059   1.08065   1.09400   1.11839   1.11863
 Alpha virt. eigenvalues --    1.16651   1.18017   1.18585   1.18621   1.19246
 Alpha virt. eigenvalues --    1.20366   1.22191   1.24223   1.24867   1.26528
 Alpha virt. eigenvalues --    1.26607   1.26767   1.26949   1.27210   1.28078
 Alpha virt. eigenvalues --    1.28547   1.28821   1.28882   1.29115   1.30580
 Alpha virt. eigenvalues --    1.31619   1.34852   1.36649   1.38098   1.38248
 Alpha virt. eigenvalues --    1.38895   1.43461   1.46135   1.47111   1.48221
 Alpha virt. eigenvalues --    1.52844   1.55373   1.58445   1.60949   1.63084
 Alpha virt. eigenvalues --    1.64725   1.65731   1.65797   1.70368   1.72652
 Alpha virt. eigenvalues --    1.72765   1.73593   1.77094   1.79180   1.79445
 Alpha virt. eigenvalues --    1.80563   1.81680   1.83091   1.83147   1.84280
 Alpha virt. eigenvalues --    1.84873   1.87344   1.88446   1.89930   1.92944
 Alpha virt. eigenvalues --    1.96720   2.00293   2.04019   2.06141   2.09363
 Alpha virt. eigenvalues --    2.11316   2.11988   2.18953   2.20769   2.21787
 Alpha virt. eigenvalues --    2.21876   2.22438   2.22816   2.23860   2.24667
 Alpha virt. eigenvalues --    2.24944   2.26267   2.26623   2.27498   2.29046
 Alpha virt. eigenvalues --    2.30795   2.31272   2.32293   2.32696   2.34128
 Alpha virt. eigenvalues --    2.34200   2.36498   2.40031   2.40658   2.40888
 Alpha virt. eigenvalues --    2.41331   2.42546   2.43256   2.44369   2.45013
 Alpha virt. eigenvalues --    2.47350   2.49207   2.51564   2.52145   2.52373
 Alpha virt. eigenvalues --    2.54562   2.55889   2.58717   2.61249   2.63449
 Alpha virt. eigenvalues --    2.63742   2.65372   2.66299   2.67181   2.68399
 Alpha virt. eigenvalues --    2.69504   2.73013   2.75411   2.80110   2.81337
 Alpha virt. eigenvalues --    2.82261   2.84928   2.88326   2.95131   2.95870
 Alpha virt. eigenvalues --    3.03287   3.05895   3.06767   3.07473   3.10996
 Alpha virt. eigenvalues --    3.11334   3.11666   3.13844   3.14615   3.16909
 Alpha virt. eigenvalues --    3.21661   3.22892   3.24332   3.27936   3.36524
 Alpha virt. eigenvalues --    3.46237   3.50235   3.54745   3.65572   3.66518
 Alpha virt. eigenvalues --    3.74035   3.87682   3.87784   3.92549   4.02656
 Alpha virt. eigenvalues --    4.27301   4.79619   4.80222   9.73413   9.74362
 Alpha virt. eigenvalues --    9.77971   9.78615   9.80256   9.80339   9.80997
 Alpha virt. eigenvalues --    9.83511   9.85295  23.24662  23.41451  23.76301
 Alpha virt. eigenvalues --   23.79349  23.80998  23.84960  23.91121  23.91538
 Alpha virt. eigenvalues --   23.93949  23.95909  24.02433  24.12044  25.75921
 Alpha virt. eigenvalues --   25.76577  25.78397  25.80035  25.84590  25.85173
 Alpha virt. eigenvalues --   25.89071  25.96581  25.98210  26.06389  26.08698
 Alpha virt. eigenvalues --   26.10194  26.11843  26.17604  26.19151  26.23419
 Alpha virt. eigenvalues --   26.35918  26.37008  26.45934  26.51436  26.54622
 Alpha virt. eigenvalues --   26.60322  26.73956  26.77124  26.79754  26.97576
 Alpha virt. eigenvalues --   27.15524 215.72551 215.73392 215.77496 215.78171
 Alpha virt. eigenvalues --  215.80124 215.80161 215.81089 215.84567 215.86148
          Condensed to atoms (all electrons):
               1          2          3          4          5          6
     1  C   34.068923  -2.733481 -10.363193   6.018939  -2.946067   0.128102
     2  C   -2.733481  12.131028  -0.178569  -4.531825   4.143026   3.204506
     3  C  -10.363193  -0.178569  26.751179 -10.405826  -6.000735   5.313701
     4  C    6.018939  -4.531825 -10.405826  25.744305  -0.351173  -9.784515
     5  C   -2.946067   4.143026  -6.000735  -0.351173  18.069156  -0.263423
     6  C    0.128102   3.204506   5.313701  -9.784515  -0.263423  24.126050
     7  C   10.146954  -3.561668   0.649130  -0.365669  -3.332033   1.443432
     8  C   -2.716479  -1.546619  -0.065143   0.710329  -1.391826  -4.971856
     9  C   -7.704749   0.161045   0.265363   0.156614  -0.300152  -3.361985
    10  C   -5.067605   0.333232  -0.120975   0.101419  -0.033340  -1.029429
    11  C   -7.712239   0.161160   0.263869   0.156758  -0.300624  -3.366968
    12  C   -2.697708  -1.546827  -0.065755   0.709236  -1.391008  -4.963517
    13  H   -0.003538   0.303419  -0.088095  -0.008180  -0.055587  -0.108537
    14  Cl  -0.001008   0.219860   0.058665  -0.048125   0.058842   0.598648
    15  Cl  -0.096873  -0.391895   1.047786  -0.993304  -0.426590  -1.015722
    16  Cl  -0.222834   0.014314   0.017301  -0.005458  -0.004374  -0.078369
    17  Cl  -0.590486   0.248386  -0.033171  -0.371431  -0.163022   0.671264
    18  Cl  -0.155892   0.002363   0.007387  -0.001634  -0.002432  -0.068124
    19  Cl   0.109324  -0.102537  -0.880150   0.154113   0.787341  -0.691397
    20  Cl  -0.222902   0.014277   0.017315  -0.005435  -0.004378  -0.078236
    21  Cl  -0.796445   0.367965   0.177445  -0.690150  -0.115494   0.449943
    22  Cl  -0.001132   0.220332   0.058571  -0.048924   0.058787   0.596524
               7          8          9         10         11         12
     1  C   10.146954  -2.716479  -7.704749  -5.067605  -7.712239  -2.697708
     2  C   -3.561668  -1.546619   0.161045   0.333232   0.161160  -1.546827
     3  C    0.649130  -0.065143   0.265363  -0.120975   0.263869  -0.065755
     4  C   -0.365669   0.710329   0.156614   0.101419   0.156758   0.709236
     5  C   -3.332033  -1.391826  -0.300152  -0.033340  -0.300624  -1.391008
     6  C    1.443432  -4.971856  -3.361985  -1.029429  -3.366968  -4.963517
     7  C   29.527475  -2.801939 -11.137689   2.169028 -11.137790  -2.784659
     8  C   -2.801939  21.568382  -5.765788  -8.257948  10.896760   3.987524
     9  C  -11.137689  -5.765788  34.467294  -1.577972 -10.248717  10.879344
    10  C    2.169028  -8.257948  -1.577972  30.568640  -1.580276  -8.269648
    11  C  -11.137790  10.896760 -10.248717  -1.580276  34.478814  -5.777610
    12  C   -2.784659   3.987524  10.879344  -8.269648  -5.777610  21.566412
    13  H    0.076202   0.096093   0.026641   0.026577   0.026658   0.096051
    14  Cl   0.020466  -1.117537   1.590744  -0.574821  -1.899113  -1.165584
    15  Cl   0.217355   0.076183  -0.206914  -0.315710  -0.204909   0.076877
    16  Cl  -1.112207   0.684313  -0.659095  -0.487918   1.203611   0.059942
    17  Cl  -0.154502  -0.062478  -0.006731  -0.001392  -0.006799  -0.062512
    18  Cl   0.112553  -0.768009  -0.005618   0.918525  -0.005187  -0.768749
    19  Cl   0.003794  -0.048446  -0.002263  -0.005407  -0.002260  -0.048425
    20  Cl  -1.112415   0.059948   1.204468  -0.487692  -0.659525   0.683800
    21  Cl  -0.091431  -0.049854  -0.019756  -0.002186  -0.019834  -0.049845
    22  Cl   0.020583  -1.165188  -1.898950  -0.575326   1.590779  -1.116306
              13         14         15         16         17         18
     1  C   -0.003538  -0.001008  -0.096873  -0.222834  -0.590486  -0.155892
     2  C    0.303419   0.219860  -0.391895   0.014314   0.248386   0.002363
     3  C   -0.088095   0.058665   1.047786   0.017301  -0.033171   0.007387
     4  C   -0.008180  -0.048125  -0.993304  -0.005458  -0.371431  -0.001634
     5  C   -0.055587   0.058842  -0.426590  -0.004374  -0.163022  -0.002432
     6  C   -0.108537   0.598648  -1.015722  -0.078369   0.671264  -0.068124
     7  C    0.076202   0.020466   0.217355  -1.112207  -0.154502   0.112553
     8  C    0.096093  -1.117537   0.076183   0.684313  -0.062478  -0.768009
     9  C    0.026641   1.590744  -0.206914  -0.659095  -0.006731  -0.005618
    10  C    0.026577  -0.574821  -0.315710  -0.487918  -0.001392   0.918525
    11  C    0.026658  -1.899113  -0.204909   1.203611  -0.006799  -0.005187
    12  C    0.096051  -1.165584   0.076877   0.059942  -0.062512  -0.768749
    13  H    0.512499  -0.019255  -0.002344   0.000376   0.000291   0.000235
    14  Cl  -0.019255  19.190049   0.086700  -0.418016  -0.001900  -0.027517
    15  Cl  -0.002344   0.086700  18.858441  -0.006170  -0.339076   0.015906
    16  Cl   0.000376  -0.418016  -0.006170  17.588259   0.000150  -0.229197
    17  Cl   0.000291  -0.001900  -0.339076   0.000150  17.450505  -0.000033
    18  Cl   0.000235  -0.027517   0.015906  -0.229197  -0.000033  17.549820
    19  Cl  -0.002255   0.015890  -0.034475   0.000023  -0.194821  -0.000004
    20  Cl   0.000376   0.035122  -0.006292  -0.010845   0.000152  -0.229314
    21  Cl  -0.009409  -0.008553   0.009224   0.000381   0.009697   0.000127
    22  Cl  -0.019250  -0.184274   0.088456   0.035118  -0.001977  -0.027456
              19         20         21         22
     1  C    0.109324  -0.222902  -0.796445  -0.001132
     2  C   -0.102537   0.014277   0.367965   0.220332
     3  C   -0.880150   0.017315   0.177445   0.058571
     4  C    0.154113  -0.005435  -0.690150  -0.048924
     5  C    0.787341  -0.004378  -0.115494   0.058787
     6  C   -0.691397  -0.078236   0.449943   0.596524
     7  C    0.003794  -1.112415  -0.091431   0.020583
     8  C   -0.048446   0.059948  -0.049854  -1.165188
     9  C   -0.002263   1.204468  -0.019756  -1.898950
    10  C   -0.005407  -0.487692  -0.002186  -0.575326
    11  C   -0.002260  -0.659525  -0.019834   1.590779
    12  C   -0.048425   0.683800  -0.049845  -1.116306
    13  H   -0.002255   0.000376  -0.009409  -0.019250
    14  Cl   0.015890   0.035122  -0.008553  -0.184274
    15  Cl  -0.034475  -0.006292   0.009224   0.088456
    16  Cl   0.000023  -0.010845   0.000381   0.035118
    17  Cl  -0.194821   0.000152   0.009697  -0.001977
    18  Cl  -0.000004  -0.229314   0.000127  -0.027456
    19  Cl  17.493637   0.000023  -0.203309   0.015864
    20  Cl   0.000023  17.588262   0.000380  -0.417885
    21  Cl  -0.203309   0.000380  17.474369  -0.008539
    22  Cl   0.015864  -0.417885  -0.008539  19.189784
 Mulliken charges:
               1
     1  C   -0.439609
     2  C   -0.931494
     3  C   -0.426099
     4  C   -0.140063
     5  C   -0.034892
     6  C   -0.750095
     7  C   -0.794970
     8  C   -1.350420
     9  C    0.144867
    10  C    0.270226
    11  C    0.143443
    12  C   -1.351033
    13  H    0.151034
    14  Cl   0.590716
    15  Cl   0.563344
    16  Cl   0.630693
    17  Cl   0.609884
    18  Cl   0.682251
    19  Cl   0.635739
    20  Cl   0.630795
    21  Cl   0.575275
    22  Cl   0.590407
 Sum of Mulliken charges =  -0.00000
 Mulliken charges with hydrogens summed into heavy atoms:
               1
     1  C   -0.439609
     2  C   -0.780460
     3  C   -0.426099
     4  C   -0.140063
     5  C   -0.034892
     6  C   -0.750095
     7  C   -0.794970
     8  C   -1.350420
     9  C    0.144867
    10  C    0.270226
    11  C    0.143443
    12  C   -1.351033
    14  Cl   0.590716
    15  Cl   0.563344
    16  Cl   0.630693
    17  Cl   0.609884
    18  Cl   0.682251
    19  Cl   0.635739
    20  Cl   0.630795
    21  Cl   0.575275
    22  Cl   0.590407
 Electronic spatial extent (au):  <R**2>=          12048.7138
 Charge=             -0.0000 electrons
 Dipole moment (field-independent basis, Debye):
    X=              0.6019    Y=             -0.0018    Z=              0.7031  Tot=              0.9256
 Quadrupole moment (field-independent basis, Debye-Ang):
   XX=           -184.3970   YY=           -181.9191   ZZ=           -180.4980
   XY=             -0.0003   XZ=              0.3385   YZ=             -0.0040
 Traceless Quadrupole moment (field-independent basis, Debye-Ang):
   XX=             -2.1257   YY=              0.3523   ZZ=              1.7734
   XY=             -0.0003   XZ=              0.3385   YZ=             -0.0040
 Octapole moment (field-independent basis, Debye-Ang**2):
  XXX=             14.0990  YYY=              0.0233  ZZZ=             -6.6099  XYY=              2.7802
  XXY=              0.0206  XXZ=             -8.4713  XZZ=              0.2568  YZZ=              0.0018
  YYZ=             -3.2002  XYZ=              0.0051
 Hexadecapole moment (field-independent basis, Debye-Ang**3):
 XXXX=         -10735.4970 YYYY=          -2514.1448 ZZZZ=          -2000.4729 XXXY=             -0.0259
 XXXZ=             23.3762 YYYX=             -0.0122 YYYZ=              0.3518 ZZZX=              0.6862
 ZZZY=             -0.3153 XXYY=          -2230.4928 XXZZ=          -2160.2910 YYZZ=           -799.7536
 XXYZ=              0.0286 YYXZ=              1.9842 ZZXY=              0.0126
 N-N= 3.061003583300D+03 E-N=-1.702757058069D+04  KE= 4.588394115934D+03
 1\1\GINC-CN305\FOpt\RB3LYP\6-311+G(d,p)\C12H1Cl9\20CY91R06\02-Apr-2022
 \0\\# opt b3lyp/6-311+g(d,p) scf=xqc\\Title Card Required\\0,1\C,-0.35
 37969798,0.1438943834,0.049527148\C,0.9088725159,0.1333709251,0.633948
 7308\C,1.6584597407,1.297581214,0.7341433322\C,1.1542363784,2.50852263
 38,0.2464304549\C,-0.119649871,2.5308219659,-0.3457298121\C,-0.8666973
 835,1.3489858293,-0.4411155876\C,-1.1270231898,-1.1305972415,-0.038239
 3554\C,-0.9943971953,-1.972808532,-1.1484226086\C,-1.6994640971,-3.179
 464419,-1.2321153034\C,-2.5535251894,-3.5528180374,-0.1848212087\C,-2.
 6975284595,-2.7229478143,0.9358800376\C,-1.9828016076,-1.5206301173,0.
 9984725034\H,1.3166288801,-0.7925238119,1.0171775602\Cl,-2.1577275956,
 -0.4773039188,2.3822761803\Cl,-2.4474090687,1.3633984781,-1.17325432\C
 l,-3.7524936361,-3.1839961221,2.2334102319\Cl,-0.7649502292,4.02134846
 7,-0.957447017\Cl,-3.4320087475,-5.0457449681,-0.2748607531\Cl,2.09038
 32365,3.9633698476,0.3715698938\Cl,-1.5188305791,-4.2058706965,-2.6188
 291907\Cl,3.2323448234,1.2077074204,1.478716285\Cl,0.0649683542,-1.494
 1880057,-2.4456130216\\Version=EM64L-G16RevB.01\State=1-A\HF=-4599.970
 5948\RMSD=8.190e-09\RMSF=1.133e-05\Dipole=0.089534,-0.3347778,0.111838
 \Quadrupole=0.2012035,-0.6595506,0.4583471,-1.2863511,0.2436019,-0.398
 4664\PG=C01 [X(C12H1Cl9)]\\@


 LAWS OF PROGRAMMING DEFINITION:  A WORKING PROGRAM
                                  IS ONE THAT HAS
                                  ONLY UNOBSERVED
                                  BUGS.
 Job cpu time:       0 days 23 hours 46 minutes 15.6 seconds.
 Elapsed time:       0 days  1 hours 29 minutes 41.8 seconds.
 File lengths (MBytes):  RWF=    195 Int=      0 D2E=      0 Chk=     27 Scr=      1
 Normal termination of Gaussian 16 at Sat Apr  2 00:33:53 2022.
