 Entering Gaussian System, Link 0=g16
 Input=2,2prime,3,4prime,6prime-Pentachlorobiphenyl.gjf
 Output=2,2prime,3,4prime,6prime-Pentachlorobiphenyl.log
 Initial command:
 /home/apps/g16/l1.exe "./Gau-420161.inp" -scrdir="./"
 Entering Link 1 = /home/apps/g16/l1.exe PID=    420162.
  
 Copyright (c) 1988-2017, Gaussian, Inc.  All Rights Reserved.
  
 This is part of the Gaussian(R) 16 program.  It is based on
 the Gaussian(R) 09 system (copyright 2009, Gaussian, Inc.),
 the Gaussian(R) 03 system (copyright 2003, Gaussian, Inc.),
 the Gaussian(R) 98 system (copyright 1998, Gaussian, Inc.),
 the Gaussian(R) 94 system (copyright 1995, Gaussian, Inc.),
 the Gaussian 92(TM) system (copyright 1992, Gaussian, Inc.),
 the Gaussian 90(TM) system (copyright 1990, Gaussian, Inc.),
 the Gaussian 88(TM) system (copyright 1988, Gaussian, Inc.),
 the Gaussian 86(TM) system (copyright 1986, Carnegie Mellon
 University), and the Gaussian 82(TM) system (copyright 1983,
 Carnegie Mellon University). Gaussian is a federally registered
 trademark of Gaussian, Inc.
  
 This software contains proprietary and confidential information,
 including trade secrets, belonging to Gaussian, Inc.
  
 This software is provided under written license and may be
 used, copied, transmitted, or stored only in accord with that
 written license.
  
 The following legend is applicable only to US Government
 contracts under FAR:
  
                    RESTRICTED RIGHTS LEGEND
  
 Use, reproduction and disclosure by the US Government is
 subject to restrictions as set forth in subparagraphs (a)
 and (c) of the Commercial Computer Software - Restricted
 Rights clause in FAR 52.227-19.
  
 Gaussian, Inc.
 340 Quinnipiac St., Bldg. 40, Wallingford CT 06492
  
  
 ---------------------------------------------------------------
 Warning -- This program may not be used in any manner that
 competes with the business of Gaussian, Inc. or will provide
 assistance to any competitor of Gaussian, Inc.  The licensee
 of this program is prohibited from giving any competitor of
 Gaussian, Inc. access to this program.  By using this program,
 the user acknowledges that Gaussian, Inc. is engaged in the
 business of creating and licensing software in the field of
 computational chemistry and represents and warrants to the
 licensee that it is not a competitor of Gaussian, Inc. and that
 it will not use this program in any manner prohibited above.
 ---------------------------------------------------------------
  

 Cite this work as:
 Gaussian 16, Revision B.01,
 M. J. Frisch, G. W. Trucks, H. B. Schlegel, G. E. Scuseria, 
 M. A. Robb, J. R. Cheeseman, G. Scalmani, V. Barone, 
 G. A. Petersson, H. Nakatsuji, X. Li, M. Caricato, A. V. Marenich, 
 J. Bloino, B. G. Janesko, R. Gomperts, B. Mennucci, H. P. Hratchian, 
 J. V. Ortiz, A. F. Izmaylov, J. L. Sonnenberg, D. Williams-Young, 
 F. Ding, F. Lipparini, F. Egidi, J. Goings, B. Peng, A. Petrone, 
 T. Henderson, D. Ranasinghe, V. G. Zakrzewski, J. Gao, N. Rega, 
 G. Zheng, W. Liang, M. Hada, M. Ehara, K. Toyota, R. Fukuda, 
 J. Hasegawa, M. Ishida, T. Nakajima, Y. Honda, O. Kitao, H. Nakai, 
 T. Vreven, K. Throssell, J. A. Montgomery, Jr., J. E. Peralta, 
 F. Ogliaro, M. J. Bearpark, J. J. Heyd, E. N. Brothers, K. N. Kudin, 
 V. N. Staroverov, T. A. Keith, R. Kobayashi, J. Normand, 
 K. Raghavachari, A. P. Rendell, J. C. Burant, S. S. Iyengar, 
 J. Tomasi, M. Cossi, J. M. Millam, M. Klene, C. Adamo, R. Cammi, 
 J. W. Ochterski, R. L. Martin, K. Morokuma, O. Farkas, 
 J. B. Foresman, and D. J. Fox, Gaussian, Inc., Wallingford CT, 2016.
 
 ******************************************
 Gaussian 16:  EM64L-G16RevB.01 20-Dec-2017
                 3-Apr-2022 
 ******************************************
 %mem=32GB
 %nprocshared=16
 Will use up to   16 processors via shared memory.
 --------------------------------
 # opt b3lyp/6-311+g(d,p) scf=xqc
 --------------------------------
 1/18=20,19=15,26=3,38=1/1,3;
 2/9=110,12=2,17=6,18=5,40=1/2;
 3/5=4,6=6,7=111,11=2,25=1,30=1,71=1,74=-5/1,2,3;
 4//1;
 5/5=2,8=3,13=1,38=5/2,8;
 6/7=2,8=2,9=2,10=2,28=1/1;
 7//1,2,3,16;
 1/18=20,19=15,26=3/3(2);
 2/9=110/2;
 99//99;
 2/9=110/2;
 3/5=4,6=6,7=111,11=2,25=1,30=1,71=1,74=-5/1,2,3;
 4/5=5,16=3,69=1/1;
 5/5=2,8=3,13=1,38=5/2,8;
 7//1,2,3,16;
 1/18=20,19=15,26=3/3(-5);
 2/9=110/2;
 6/7=2,8=2,9=2,10=2,19=2,28=1/1;
 99/9=1/99;
 -------------------
 Title Card Required
 -------------------
 Symbolic Z-matrix:
 Charge =  0 Multiplicity = 1
 C                     0.03183   0.29176   0.01324 
 C                     1.36421   0.32165  -0.4201 
 C                     2.07211   1.5311   -0.42617 
 C                     1.44762   2.71067   0.0011 
 C                     0.11524   2.68078   0.43445 
 C                    -0.59265   1.47133   0.44052 
 C                    -0.9707   -1.42109   0.02185 
 C                    -0.34622  -2.60066  -0.40543 
 C                    -1.05411  -3.81011  -0.39935 
 C                    -2.38649  -3.84      0.03399 
 C                    -3.01098  -2.66043   0.46127 
 C                    -2.30308  -1.45098   0.4552 
 H                     3.08941   1.55392  -0.75704 
 H                    -0.36157   3.5814    0.76068 
 H                     0.67109  -2.57784  -0.7363 
 H                    -0.5773   -4.71073  -0.72559 
 H                    -2.92698  -4.76344   0.03863 
 Cl                   -3.08737   0.03042   0.99181 
 Cl                   -2.26597   1.4338    0.98475 
 Cl                   -4.68429  -2.69797   1.00551 
 Cl                    2.33666   4.2296   -0.00653 
 Cl                    2.1485   -1.15975  -0.95671 
 

 GradGradGradGradGradGradGradGradGradGradGradGradGradGradGradGradGradGrad
 Berny optimization.
 Initialization pass.
                           ----------------------------
                           !    Initial Parameters    !
                           ! (Angstroms and Degrees)  !
 --------------------------                            --------------------------
 ! Name  Definition              Value          Derivative Info.                !
 --------------------------------------------------------------------------------
 ! R1    R(1,2)                  1.4014         estimate D2E/DX2                !
 ! R2    R(1,6)                  1.4014         estimate D2E/DX2                !
 ! R3    R(2,3)                  1.4014         estimate D2E/DX2                !
 ! R4    R(2,22)                 1.76           estimate D2E/DX2                !
 ! R5    R(3,4)                  1.4014         estimate D2E/DX2                !
 ! R6    R(3,13)                 1.07           estimate D2E/DX2                !
 ! R7    R(4,5)                  1.4014         estimate D2E/DX2                !
 ! R8    R(4,21)                 1.76           estimate D2E/DX2                !
 ! R9    R(5,6)                  1.4014         estimate D2E/DX2                !
 ! R10   R(5,14)                 1.07           estimate D2E/DX2                !
 ! R11   R(6,19)                 1.76           estimate D2E/DX2                !
 ! R12   R(7,8)                  1.4014         estimate D2E/DX2                !
 ! R13   R(7,12)                 1.4014         estimate D2E/DX2                !
 ! R14   R(8,9)                  1.4014         estimate D2E/DX2                !
 ! R15   R(8,15)                 1.07           estimate D2E/DX2                !
 ! R16   R(9,10)                 1.4014         estimate D2E/DX2                !
 ! R17   R(9,16)                 1.07           estimate D2E/DX2                !
 ! R18   R(10,11)                1.4014         estimate D2E/DX2                !
 ! R19   R(10,17)                1.07           estimate D2E/DX2                !
 ! R20   R(11,12)                1.4014         estimate D2E/DX2                !
 ! R21   R(11,20)                1.76           estimate D2E/DX2                !
 ! R22   R(12,18)                1.76           estimate D2E/DX2                !
 ! R23   R(18,19)                1.6261         estimate D2E/DX2                !
 ! A1    A(2,1,6)              120.0            estimate D2E/DX2                !
 ! A2    A(1,2,3)              120.0            estimate D2E/DX2                !
 ! A3    A(1,2,22)             120.0            estimate D2E/DX2                !
 ! A4    A(3,2,22)             120.0            estimate D2E/DX2                !
 ! A5    A(2,3,4)              120.0            estimate D2E/DX2                !
 ! A6    A(2,3,13)             120.0            estimate D2E/DX2                !
 ! A7    A(4,3,13)             120.0            estimate D2E/DX2                !
 ! A8    A(3,4,5)              120.0            estimate D2E/DX2                !
 ! A9    A(3,4,21)             120.0            estimate D2E/DX2                !
 ! A10   A(5,4,21)             120.0            estimate D2E/DX2                !
 ! A11   A(4,5,6)              120.0            estimate D2E/DX2                !
 ! A12   A(4,5,14)             120.0            estimate D2E/DX2                !
 ! A13   A(6,5,14)             120.0            estimate D2E/DX2                !
 ! A14   A(1,6,5)              120.0            estimate D2E/DX2                !
 ! A15   A(1,6,19)             120.0            estimate D2E/DX2                !
 ! A16   A(5,6,19)             120.0            estimate D2E/DX2                !
 ! A17   A(8,7,12)             120.0            estimate D2E/DX2                !
 ! A18   A(7,8,9)              120.0            estimate D2E/DX2                !
 ! A19   A(7,8,15)             120.0            estimate D2E/DX2                !
 ! A20   A(9,8,15)             120.0            estimate D2E/DX2                !
 ! A21   A(8,9,10)             120.0            estimate D2E/DX2                !
 ! A22   A(8,9,16)             120.0            estimate D2E/DX2                !
 ! A23   A(10,9,16)            120.0            estimate D2E/DX2                !
 ! A24   A(9,10,11)            120.0            estimate D2E/DX2                !
 ! A25   A(9,10,17)            120.0            estimate D2E/DX2                !
 ! A26   A(11,10,17)           120.0            estimate D2E/DX2                !
 ! A27   A(10,11,12)           120.0            estimate D2E/DX2                !
 ! A28   A(10,11,20)           120.0            estimate D2E/DX2                !
 ! A29   A(12,11,20)           120.0            estimate D2E/DX2                !
 ! A30   A(7,12,11)            120.0            estimate D2E/DX2                !
 ! A31   A(7,12,18)            120.0            estimate D2E/DX2                !
 ! A32   A(11,12,18)           120.0            estimate D2E/DX2                !
 ! A33   A(12,18,19)           120.0            estimate D2E/DX2                !
 ! A34   A(6,19,18)            120.0            estimate D2E/DX2                !
 ! D1    D(6,1,2,3)              0.0001         estimate D2E/DX2                !
 ! D2    D(6,1,2,22)           180.0            estimate D2E/DX2                !
 ! D3    D(2,1,6,5)             -0.0001         estimate D2E/DX2                !
 ! D4    D(2,1,6,19)           180.0            estimate D2E/DX2                !
 ! D5    D(1,2,3,4)              0.0            estimate D2E/DX2                !
 ! D6    D(1,2,3,13)           180.0            estimate D2E/DX2                !
 ! D7    D(22,2,3,4)          -179.9999         estimate D2E/DX2                !
 ! D8    D(22,2,3,13)            0.0001         estimate D2E/DX2                !
 ! D9    D(2,3,4,5)             -0.0001         estimate D2E/DX2                !
 ! D10   D(2,3,4,21)           180.0            estimate D2E/DX2                !
 ! D11   D(13,3,4,5)           179.9999         estimate D2E/DX2                !
 ! D12   D(13,3,4,21)            0.0            estimate D2E/DX2                !
 ! D13   D(3,4,5,6)              0.0001         estimate D2E/DX2                !
 ! D14   D(3,4,5,14)          -179.9999         estimate D2E/DX2                !
 ! D15   D(21,4,5,6)          -180.0            estimate D2E/DX2                !
 ! D16   D(21,4,5,14)            0.0            estimate D2E/DX2                !
 ! D17   D(4,5,6,1)              0.0            estimate D2E/DX2                !
 ! D18   D(4,5,6,19)           179.9999         estimate D2E/DX2                !
 ! D19   D(14,5,6,1)           180.0            estimate D2E/DX2                !
 ! D20   D(14,5,6,19)           -0.0001         estimate D2E/DX2                !
 ! D21   D(1,6,19,18)            0.0004         estimate D2E/DX2                !
 ! D22   D(5,6,19,18)         -179.9996         estimate D2E/DX2                !
 ! D23   D(12,7,8,9)             0.0001         estimate D2E/DX2                !
 ! D24   D(12,7,8,15)         -179.9998         estimate D2E/DX2                !
 ! D25   D(8,7,12,11)           -0.0001         estimate D2E/DX2                !
 ! D26   D(8,7,12,18)          179.9999         estimate D2E/DX2                !
 ! D27   D(7,8,9,10)             0.0            estimate D2E/DX2                !
 ! D28   D(7,8,9,16)           180.0            estimate D2E/DX2                !
 ! D29   D(15,8,9,10)          179.9998         estimate D2E/DX2                !
 ! D30   D(15,8,9,16)           -0.0002         estimate D2E/DX2                !
 ! D31   D(8,9,10,11)            0.0            estimate D2E/DX2                !
 ! D32   D(8,9,10,17)         -179.9999         estimate D2E/DX2                !
 ! D33   D(16,9,10,11)         180.0            estimate D2E/DX2                !
 ! D34   D(16,9,10,17)           0.0001         estimate D2E/DX2                !
 ! D35   D(9,10,11,12)           0.0            estimate D2E/DX2                !
 ! D36   D(9,10,11,20)        -179.9998         estimate D2E/DX2                !
 ! D37   D(17,10,11,12)        179.9999         estimate D2E/DX2                !
 ! D38   D(17,10,11,20)          0.0001         estimate D2E/DX2                !
 ! D39   D(10,11,12,7)           0.0            estimate D2E/DX2                !
 ! D40   D(10,11,12,18)       -179.9999         estimate D2E/DX2                !
 ! D41   D(20,11,12,7)         179.9999         estimate D2E/DX2                !
 ! D42   D(20,11,12,18)         -0.0001         estimate D2E/DX2                !
 ! D43   D(7,12,18,19)           0.0004         estimate D2E/DX2                !
 ! D44   D(11,12,18,19)       -179.9997         estimate D2E/DX2                !
 ! D45   D(12,18,19,6)          -0.0006         estimate D2E/DX2                !
 --------------------------------------------------------------------------------
 Trust Radius=3.00D-01 FncErr=1.00D-07 GrdErr=1.00D-06 EigMax=2.50D+02 EigMin=1.00D-04
 Number of steps in this run=    112 maximum allowed number of steps=    132.
 GradGradGradGradGradGradGradGradGradGradGradGradGradGradGradGradGradGrad

                          Input orientation:                          
 ---------------------------------------------------------------------
 Center     Atomic      Atomic             Coordinates (Angstroms)
 Number     Number       Type             X           Y           Z
 ---------------------------------------------------------------------
      1          6           0        0.031834    0.291764    0.013245
      2          6           0        1.364215    0.321649   -0.420102
      3          6           0        2.072109    1.531100   -0.426174
      4          6           0        1.447621    2.710665    0.001101
      5          6           0        0.115239    2.680780    0.434445
      6          6           0       -0.592654    1.471329    0.440518
      7          6           0       -0.970704   -1.421093    0.021846
      8          6           0       -0.346216   -2.600658   -0.405429
      9          6           0       -1.054109   -3.810110   -0.399355
     10          6           0       -2.386489   -3.839996    0.033995
     11          6           0       -3.010976   -2.660431    0.461270
     12          6           0       -2.303084   -1.450980    0.455196
     13          1           0        3.089411    1.553919   -0.757043
     14          1           0       -0.361571    3.581404    0.760677
     15          1           0        0.671086   -2.577840   -0.736299
     16          1           0       -0.577299   -4.710734   -0.725589
     17          1           0       -2.926981   -4.763440    0.038635
     18         17           0       -3.087368    0.030420    0.991807
     19         17           0       -2.265975    1.433796    0.984751
     20         17           0       -4.684294   -2.697966    1.005513
     21         17           0        2.336656    4.229599   -0.006525
     22         17           0        2.148502   -1.159752   -0.956707
 ---------------------------------------------------------------------
                    Distance matrix (angstroms):
                    1          2          3          4          5
     1  C    0.000000
     2  C    1.401400   0.000000
     3  C    2.427296   1.401400   0.000000
     4  C    2.802800   2.427296   1.401400   0.000000
     5  C    2.427296   2.802800   2.427296   1.401400   0.000000
     6  C    1.401400   2.427296   2.802800   2.427296   1.401400
     7  C    1.984700   2.946916   4.263200   4.787500   4.263200
     8  C    2.946916   3.386100   4.787500   5.620790   5.367674
     9  C    4.263200   4.787500   6.188900   6.995679   6.647876
    10  C    4.787500   5.620790   6.995679   7.590300   6.995679
    11  C    4.263200   5.367674   6.647876   6.995679   6.188900
    12  C    2.946916   4.166226   5.367674   5.620790   4.787500
    13  H    3.396345   2.146700   1.070000   2.146700   3.396345
    14  H    3.396345   3.872800   3.396345   2.146700   1.070000
    15  H    3.033988   2.997907   4.352290   5.395837   5.415966
    16  H    5.093319   5.402562   6.787452   7.726937   7.513971
    17  H    5.857500   6.669552   8.051594   8.660300   8.051594
    18  Cl   3.279528   4.679198   5.557240   5.360163   4.194253
    19  Cl   2.743718   4.048303   4.562800   4.048303   2.743718
    20  Cl   5.671414   6.909046   8.098377   8.237871   7.231359
    21  Cl   4.562800   4.048303   2.743718   1.760000   2.743718
    22  Cl   2.743718   1.760000   2.743718   4.048303   4.562800
                    6          7          8          9         10
     6  C    0.000000
     7  C    2.946916   0.000000
     8  C    4.166226   1.401400   0.000000
     9  C    5.367674   2.427296   1.401400   0.000000
    10  C    5.620790   2.802800   2.427296   1.401400   0.000000
    11  C    4.787500   2.427296   2.802800   2.427296   1.401400
    12  C    3.386100   1.401400   2.427296   2.802800   2.427296
    13  H    3.872800   5.093319   5.402562   6.787452   7.726937
    14  H    2.146700   5.093319   6.291100   7.513971   7.726937
    15  H    4.402012   2.146700   1.070000   2.146700   3.396345
    16  H    6.291100   3.396345   2.146700   1.070000   2.146700
    17  H    6.669552   3.872800   3.396345   2.146700   1.070000
    18  Cl   2.933213   2.743718   4.048303   4.562800   4.048303
    19  Cl   1.760000   3.279528   4.679198   5.557240   5.360163
    20  Cl   5.868880   4.048303   4.562800   4.048303   2.743718
    21  Cl   4.048303   6.547500   7.349105   8.734330   9.350300
    22  Cl   4.048303   3.279528   2.933213   4.194253   5.360163
                   11         12         13         14         15
    11  C    0.000000
    12  C    1.401400   0.000000
    13  H    7.513971   6.291100   0.000000
    14  H    6.787452   5.402562   4.280590   0.000000
    15  H    3.872800   3.396345   4.787500   6.422119   0.000000
    16  H    3.396345   3.872800   7.258900   8.427045   2.471400
    17  H    2.146700   3.396345   8.760085   8.760085   4.280590
    18  Cl   2.743718   1.760000   6.597889   4.482508   4.890332
    19  Cl   4.194253   2.933213   5.632800   2.879094   5.261327
    20  Cl   1.760000   2.743718   9.034136   7.627344   5.632800
    21  Cl   8.734330   7.349105   2.879094   2.879094   7.046128
    22  Cl   5.557240   4.679198   2.879094   5.632800   2.059687
                   16         17         18         19         20
    16  H    0.000000
    17  H    2.471400   0.000000
    18  Cl   5.632800   4.890332   0.000000
    19  Cl   6.597889   6.303792   1.626100   0.000000
    20  Cl   4.890332   2.879094   3.161400   4.787500   0.000000
    21  Cl   9.430681  10.420300   6.931797   5.475705   9.915095
    22  Cl   4.482508   6.303792   5.712053   5.475705   7.273480
                   21         22
    21  Cl   0.000000
    22  Cl   5.475705   0.000000
 Stoichiometry    C12H5Cl5
 Framework group  C1[X(C12H5Cl5)]
 Deg. of freedom    60
 Full point group                 C1      NOp   1
 Largest Abelian subgroup         C1      NOp   1
 Largest concise Abelian subgroup C1      NOp   1
                         Standard orientation:                         
 ---------------------------------------------------------------------
 Center     Atomic      Atomic             Coordinates (Angstroms)
 Number     Number       Type             X           Y           Z
 ---------------------------------------------------------------------
      1          6           0        0.871483    0.335347    0.000002
      2          6           0        1.860731    1.327975    0.000001
      3          6           0        3.214996    0.967576   -0.000001
      4          6           0        3.580014   -0.385452   -0.000001
      5          6           0        2.590766   -1.378080    0.000002
      6          6           0        1.236501   -1.017681    0.000004
      7          6           0       -1.046463    0.845754    0.000003
      8          6           0       -1.411481    2.198781    0.000004
      9          6           0       -2.765746    2.559181    0.000003
     10          6           0       -3.754994    1.566552    0.000002
     11          6           0       -3.389976    0.213524    0.000001
     12          6           0       -2.035711   -0.146875    0.000001
     13          1           0        3.970308    1.725470   -0.000003
     14          1           0        2.869465   -2.411147    0.000004
     15          1           0       -0.656169    2.956675    0.000003
     16          1           0       -3.044446    3.592247    0.000004
     17          1           0       -4.789005    1.841725   -0.000000
     18         17           0       -1.577290   -1.846125   -0.000003
     19         17           0       -0.005882   -2.264310    0.000007
     20         17           0       -4.632359   -1.033105   -0.000006
     21         17           0        5.280818   -0.838072   -0.000004
     22         17           0        1.402310    3.027225   -0.000002
 ---------------------------------------------------------------------
 Rotational constants (GHZ):           0.5262649           0.1772083           0.1325687
 Standard basis: 6-311+G(d,p) (5D, 7F)
 There are   461 symmetry adapted cartesian basis functions of A   symmetry.
 There are   444 symmetry adapted basis functions of A   symmetry.
   444 basis functions,   737 primitive gaussians,   461 cartesian basis functions
    81 alpha electrons       81 beta electrons
       nuclear repulsion energy      1769.2389128529 Hartrees.
 NAtoms=   22 NActive=   22 NUniq=   22 SFac= 1.00D+00 NAtFMM=   60 NAOKFM=F Big=F
 Integral buffers will be    131072 words long.
 Raffenetti 2 integral format.
 Two-electron integral symmetry is turned on.
 One-electron integrals computed using PRISM.
 NBasis=   444 RedAO= T EigKep=  1.19D-06  NBF=   444
 NBsUse=   439 1.00D-06 EigRej=  8.69D-07 NBFU=   439
 ExpMin= 4.38D-02 ExpMax= 1.06D+05 ExpMxC= 3.62D+03 IAcc=3 IRadAn=         5 AccDes= 0.00D+00
 Harris functional with IExCor=  402 and IRadAn=       5 diagonalized for initial guess.
 HarFok:  IExCor=  402 AccDes= 0.00D+00 IRadAn=         5 IDoV= 1 UseB2=F ITyADJ=14
 ICtDFT=  3500011 ScaDFX=  1.000000  1.000000  1.000000  1.000000
 FoFCou: FMM=F IPFlag=           0 FMFlag=      100000 FMFlg1=           0
         NFxFlg=           0 DoJE=T BraDBF=F KetDBF=T FulRan=T
         wScrn=  0.000000 ICntrl=       500 IOpCl=  0 I1Cent=   200000004 NGrid=           0
         NMat0=    1 NMatS0=      1 NMatT0=    0 NMatD0=    1 NMtDS0=    0 NMtDT0=    0
 Petite list used in FoFCou.
 Requested convergence on RMS density matrix=1.00D-08 within  32 cycles.
 Requested convergence on MAX density matrix=1.00D-06.
 Requested convergence on             energy=1.00D-06.
 No special actions if energy rises.
 EnCoef did     4 forward-backward iterations
 EnCoef did     4 forward-backward iterations
 EnCoef did     4 forward-backward iterations
 EnCoef did     4 forward-backward iterations
 EnCoef did     2 forward-backward iterations
 Restarting incremental Fock formation.
 SCF Done:  E(RB3LYP) =  -2760.92549007     A.U. after   25 cycles
            NFock= 25  Conv=0.25D-08     -V/T= 2.0021
 QCSCF skips out because SCF is already converged.

 **********************************************************************

            Population analysis using the SCF Density.

 **********************************************************************

 Orbital symmetries:
       Occupied  (A) (A) (A) (A) (A) (A) (A) (A) (A) (A) (A) (A)
                 (A) (A) (A) (A) (A) (A) (A) (A) (A) (A) (A) (A)
                 (A) (A) (A) (A) (A) (A) (A) (A) (A) (A) (A) (A)
                 (A) (A) (A) (A) (A) (A) (A) (A) (A) (A) (A) (A)
                 (A) (A) (A) (A) (A) (A) (A) (A) (A) (A) (A) (A)
                 (A) (A) (A) (A) (A) (A) (A) (A) (A) (A) (A) (A)
                 (A) (A) (A) (A) (A) (A) (A) (A) (A)
       Virtual   (A) (A) (A) (A) (A) (A) (A) (A) (A) (A) (A) (A)
                 (A) (A) (A) (A) (A) (A) (A) (A) (A) (A) (A) (A)
                 (A) (A) (A) (A) (A) (A) (A) (A) (A) (A) (A) (A)
                 (A) (A) (A) (A) (A) (A) (A) (A) (A) (A) (A) (A)
                 (A) (A) (A) (A) (A) (A) (A) (A) (A) (A) (A) (A)
                 (A) (A) (A) (A) (A) (A) (A) (A) (A) (A) (A) (A)
                 (A) (A) (A) (A) (A) (A) (A) (A) (A) (A) (A) (A)
                 (A) (A) (A) (A) (A) (A) (A) (A) (A) (A) (A) (A)
                 (A) (A) (A) (A) (A) (A) (A) (A) (A) (A) (A) (A)
                 (A) (A) (A) (A) (A) (A) (A) (A) (A) (A) (A) (A)
                 (A) (A) (A) (A) (A) (A) (A) (A) (A) (A) (A) (A)
                 (A) (A) (A) (A) (A) (A) (A) (A) (A) (A) (A) (A)
                 (A) (A) (A) (A) (A) (A) (A) (A) (A) (A) (A) (A)
                 (A) (A) (A) (A) (A) (A) (A) (A) (A) (A) (A) (A)
                 (A) (A) (A) (A) (A) (A) (A) (A) (A) (A) (A) (A)
                 (A) (A) (A) (A) (A) (A) (A) (A) (A) (A) (A) (A)
                 (A) (A) (A) (A) (A) (A) (A) (A) (A) (A) (A) (A)
                 (A) (A) (A) (A) (A) (A) (A) (A) (A) (A) (A) (A)
                 (A) (A) (A) (A) (A) (A) (A) (A) (A) (A) (A) (A)
                 (A) (A) (A) (A) (A) (A) (A) (A) (A) (A) (A) (A)
                 (A) (A) (A) (A) (A) (A) (A) (A) (A) (A) (A) (A)
                 (A) (A) (A) (A) (A) (A) (A) (A) (A) (A) (A) (A)
                 (A) (A) (A) (A) (A) (A) (A) (A) (A) (A) (A) (A)
                 (A) (A) (A) (A) (A) (A) (A) (A) (A) (A) (A) (A)
                 (A) (A) (A) (A) (A) (A) (A) (A) (A) (A) (A) (A)
                 (A) (A) (A) (A) (A) (A) (A) (A) (A) (A) (A) (A)
                 (A) (A) (A) (A) (A) (A) (A) (A) (A) (A) (A) (A)
                 (A) (A) (A) (A) (A) (A) (A) (A) (A) (A) (A) (A)
                 (A) (A) (A) (A) (A) (A) (A) (A) (A) (A) (A) (A)
                 (A) (A) (A) (A) (A) (A) (A) (A) (A) (A)
 The electronic state is 1-A.
 Alpha  occ. eigenvalues -- -101.68288-101.68268-101.56865-101.56605-101.56459
 Alpha  occ. eigenvalues --  -10.26539 -10.26299 -10.24968 -10.24079 -10.23693
 Alpha  occ. eigenvalues --  -10.21075 -10.21034 -10.20099 -10.19780 -10.19332
 Alpha  occ. eigenvalues --  -10.18834 -10.18659  -9.59714  -9.59651  -9.48426
 Alpha  occ. eigenvalues --   -9.48046  -9.47929  -7.36336  -7.36125  -7.35367
 Alpha  occ. eigenvalues --   -7.35304  -7.34803  -7.34713  -7.24872  -7.24510
 Alpha  occ. eigenvalues --   -7.24359  -7.23905  -7.23861  -7.23529  -7.23494
 Alpha  occ. eigenvalues --   -7.23412  -7.23405  -1.15778  -0.92272  -0.91113
 Alpha  occ. eigenvalues --   -0.88779  -0.87132  -0.84856  -0.83120  -0.78214
 Alpha  occ. eigenvalues --   -0.75562  -0.74410  -0.73651  -0.67573  -0.62971
 Alpha  occ. eigenvalues --   -0.61330  -0.60138  -0.58320  -0.55479  -0.54731
 Alpha  occ. eigenvalues --   -0.51878  -0.51434  -0.49966  -0.48018  -0.47539
 Alpha  occ. eigenvalues --   -0.45807  -0.44194  -0.43745  -0.42807  -0.41405
 Alpha  occ. eigenvalues --   -0.41296  -0.40394  -0.38988  -0.37776  -0.36269
 Alpha  occ. eigenvalues --   -0.34889  -0.34748  -0.33138  -0.32772  -0.32664
 Alpha  occ. eigenvalues --   -0.31366  -0.28416  -0.26930  -0.25710  -0.25033
 Alpha  occ. eigenvalues --   -0.12341
 Alpha virt. eigenvalues --   -0.07249  -0.05572  -0.04848  -0.03463  -0.03018
 Alpha virt. eigenvalues --   -0.01794  -0.01376   0.00157   0.00782   0.01044
 Alpha virt. eigenvalues --    0.01316   0.02322   0.02562   0.03583   0.03876
 Alpha virt. eigenvalues --    0.04335   0.05179   0.05467   0.05550   0.05998
 Alpha virt. eigenvalues --    0.06516   0.07100   0.07810   0.08040   0.08283
 Alpha virt. eigenvalues --    0.08679   0.09263   0.09577   0.09837   0.10189
 Alpha virt. eigenvalues --    0.10670   0.11084   0.11257   0.11516   0.11845
 Alpha virt. eigenvalues --    0.12755   0.12935   0.13449   0.14044   0.14339
 Alpha virt. eigenvalues --    0.14341   0.14548   0.15164   0.15530   0.15658
 Alpha virt. eigenvalues --    0.16176   0.16266   0.16806   0.17652   0.17801
 Alpha virt. eigenvalues --    0.18193   0.18976   0.19242   0.19554   0.20047
 Alpha virt. eigenvalues --    0.20349   0.20849   0.21410   0.21535   0.21551
 Alpha virt. eigenvalues --    0.21913   0.22492   0.23506   0.23769   0.23806
 Alpha virt. eigenvalues --    0.23916   0.24184   0.25016   0.25107   0.26003
 Alpha virt. eigenvalues --    0.26219   0.26581   0.27527   0.28025   0.28105
 Alpha virt. eigenvalues --    0.29121   0.29491   0.29829   0.30402   0.30602
 Alpha virt. eigenvalues --    0.32080   0.32516   0.33922   0.34183   0.34763
 Alpha virt. eigenvalues --    0.35894   0.36678   0.39231   0.39311   0.39495
 Alpha virt. eigenvalues --    0.40127   0.41967   0.42976   0.43511   0.43874
 Alpha virt. eigenvalues --    0.44139   0.44717   0.45486   0.45931   0.46902
 Alpha virt. eigenvalues --    0.47816   0.48107   0.49046   0.49415   0.50267
 Alpha virt. eigenvalues --    0.50818   0.52177   0.52835   0.53225   0.53759
 Alpha virt. eigenvalues --    0.53944   0.55403   0.56355   0.57213   0.57956
 Alpha virt. eigenvalues --    0.58514   0.58750   0.58901   0.59522   0.60424
 Alpha virt. eigenvalues --    0.60487   0.62034   0.62133   0.62402   0.63583
 Alpha virt. eigenvalues --    0.64270   0.64764   0.65953   0.66151   0.66610
 Alpha virt. eigenvalues --    0.68729   0.69803   0.70074   0.70720   0.71501
 Alpha virt. eigenvalues --    0.73949   0.75918   0.76233   0.79278   0.80515
 Alpha virt. eigenvalues --    0.81421   0.81426   0.82599   0.82652   0.83871
 Alpha virt. eigenvalues --    0.84134   0.84329   0.84708   0.85285   0.85429
 Alpha virt. eigenvalues --    0.85601   0.85928   0.86150   0.87754   0.88350
 Alpha virt. eigenvalues --    0.88548   0.89743   0.90123   0.90305   0.91452
 Alpha virt. eigenvalues --    0.91761   0.93004   0.93742   0.94413   0.94914
 Alpha virt. eigenvalues --    0.96149   0.97190   0.97217   0.97883   0.98586
 Alpha virt. eigenvalues --    0.98709   1.00632   1.01055   1.01149   1.02320
 Alpha virt. eigenvalues --    1.04148   1.06172   1.06566   1.08186   1.08991
 Alpha virt. eigenvalues --    1.09681   1.10988   1.11927   1.13305   1.17090
 Alpha virt. eigenvalues --    1.17753   1.19732   1.22234   1.23176   1.23619
 Alpha virt. eigenvalues --    1.25591   1.25963   1.26349   1.27646   1.28566
 Alpha virt. eigenvalues --    1.29837   1.30068   1.30204   1.33050   1.33146
 Alpha virt. eigenvalues --    1.35110   1.44006   1.46500   1.49455   1.50421
 Alpha virt. eigenvalues --    1.51629   1.52733   1.55952   1.56193   1.56437
 Alpha virt. eigenvalues --    1.58841   1.60174   1.60639   1.61682   1.63811
 Alpha virt. eigenvalues --    1.66871   1.68918   1.69168   1.73167   1.73606
 Alpha virt. eigenvalues --    1.76011   1.80055   1.80092   1.81432   1.84957
 Alpha virt. eigenvalues --    1.86061   1.87184   1.87893   1.88190   1.88313
 Alpha virt. eigenvalues --    1.89531   1.90678   1.93101   1.94377   1.95380
 Alpha virt. eigenvalues --    1.95784   1.97873   1.98853   2.01816   2.03366
 Alpha virt. eigenvalues --    2.07048   2.08552   2.08841   2.12972   2.16149
 Alpha virt. eigenvalues --    2.19852   2.20695   2.22667   2.24010   2.24466
 Alpha virt. eigenvalues --    2.26060   2.28061   2.28265   2.28788   2.30410
 Alpha virt. eigenvalues --    2.31203   2.31895   2.34156   2.36745   2.38301
 Alpha virt. eigenvalues --    2.41059   2.43579   2.44780   2.45911   2.52071
 Alpha virt. eigenvalues --    2.53270   2.54158   2.56422   2.56889   2.58974
 Alpha virt. eigenvalues --    2.60130   2.61534   2.62191   2.63770   2.63870
 Alpha virt. eigenvalues --    2.66623   2.69558   2.70592   2.73461   2.74448
 Alpha virt. eigenvalues --    2.75030   2.75263   2.75955   2.76685   2.78152
 Alpha virt. eigenvalues --    2.78823   2.79664   2.80067   2.83337   2.85269
 Alpha virt. eigenvalues --    2.87191   2.88031   2.90290   2.96903   3.05850
 Alpha virt. eigenvalues --    3.07998   3.11575   3.12549   3.17731   3.20494
 Alpha virt. eigenvalues --    3.20619   3.22188   3.29280   3.34050   3.35864
 Alpha virt. eigenvalues --    3.37848   3.40547   3.45884   3.52537   3.63380
 Alpha virt. eigenvalues --    3.71008   3.73881   3.75017   3.81233   3.98053
 Alpha virt. eigenvalues --    4.02530   4.08642   4.09921   4.16721   4.80653
 Alpha virt. eigenvalues --    4.82679   9.64890   9.77109   9.78989   9.83931
 Alpha virt. eigenvalues --    9.98784  23.38095  23.45089  23.81929  23.87446
 Alpha virt. eigenvalues --   23.87815  23.91994  23.97919  24.01229  24.02401
 Alpha virt. eigenvalues --   24.03628  24.08100  24.13693  25.72047  25.81407
 Alpha virt. eigenvalues --   25.81887  25.83713  25.94681  26.08011  26.13243
 Alpha virt. eigenvalues --   26.21595  26.35817  26.55799  26.60243  26.72528
 Alpha virt. eigenvalues --   26.75908  26.89756  27.07357 215.64742 215.76357
 Alpha virt. eigenvalues --  215.78751 215.84460 216.03578
          Condensed to atoms (all electrons):
               1          2          3          4          5          6
     1  C   26.204118  -1.316772   0.911092  -3.335212  -9.084800  -3.221229
     2  C   -1.316772  17.731346  -2.901098  -4.331961   0.397395  -2.024080
     3  C    0.911092  -2.901098  22.029848  -0.300281  -8.201142  -2.344280
     4  C   -3.335212  -4.331961  -0.300281  21.823374   0.449061  -9.477048
     5  C   -9.084800   0.397395  -8.201142   0.449061  23.216806  -2.500661
     6  C   -3.221229  -2.024080  -2.344280  -9.477048  -2.500661  39.638386
     7  C    4.074775  -1.961648  -3.431825  -1.097906  -1.895768   0.071034
     8  C    2.492121   1.573108   1.195086   0.197880  -1.182335  -5.476614
     9  C   -0.963447   0.074182   0.439846   0.067935  -0.041384   0.082040
    10  C    0.155943   0.609563  -0.012423   0.080960   0.178946  -0.354366
    11  C   -2.578961   0.098192  -0.392706  -0.324791   0.165113   0.643946
    12  C   -2.783767  -0.763761  -0.323448  -1.439844  -1.464508  12.523362
    13  H    0.054840  -0.004184   0.238142   0.055809   0.004671  -0.001663
    14  H    0.083179  -0.008656   0.012641   0.107575   0.248833  -0.088027
    15  H    0.059766   0.034204   0.039584   0.022449  -0.006851   0.003628
    16  H    0.009605   0.002576  -0.000093  -0.000167  -0.000042  -0.003274
    17  H    0.004818   0.000262  -0.000066   0.000064   0.000309   0.001464
    18  Cl  -1.145747   0.403479  -0.397895   0.987129   1.268294  -6.101236
    19  Cl  -3.014100  -0.369305   0.021250   3.143732   4.916826 -14.885277
    20  Cl  -0.071437  -0.072005   0.007149  -0.028357  -0.111682   0.206359
    21  Cl  -0.054210  -0.114618   0.347745  -0.703549  -0.097651  -0.265981
    22  Cl  -0.368652  -0.724677  -0.385526  -0.482486   0.368665   0.507614
               7          8          9         10         11         12
     1  C    4.074775   2.492121  -0.963447   0.155943  -2.578961  -2.783767
     2  C   -1.961648   1.573108   0.074182   0.609563   0.098192  -0.763761
     3  C   -3.431825   1.195086   0.439846  -0.012423  -0.392706  -0.323448
     4  C   -1.097906   0.197880   0.067935   0.080960  -0.324791  -1.439844
     5  C   -1.895768  -1.182335  -0.041384   0.178946   0.165113  -1.464508
     6  C    0.071034  -5.476614   0.082040  -0.354366   0.643946  12.523362
     7  C   19.855638  -3.091462  -3.520716  -1.923457  -0.022777   2.693376
     8  C   -3.091462  17.706439  -1.227355  -0.917389   2.241671  -5.662533
     9  C   -3.520716  -1.227355  10.759833   2.004536  -3.444622   1.026915
    10  C   -1.923457  -0.917389   2.004536  15.497988  -5.392804  -6.450047
    11  C   -0.022777   2.241671  -3.444622  -5.392804  23.482870  -7.354587
    12  C    2.693376  -5.662533   1.026915  -6.450047  -7.354587  49.119749
    13  H    0.013502   0.001079  -0.000912   0.000101   0.000190   0.000442
    14  H    0.023689  -0.002046   0.000163  -0.000155  -0.000202   0.000015
    15  H   -0.189323   0.279159   0.032394   0.053378  -0.156596   0.131288
    16  H    0.022114   0.014759   0.382915  -0.009029  -0.027565  -0.039252
    17  H    0.034868  -0.032165  -0.053813   0.503047  -0.158870   0.052091
    18  Cl  -3.387591  -1.384101   1.209378   4.413300   0.113902 -26.896359
    19  Cl  -1.586022  -0.205425   0.088491   0.572600  -0.842693  -9.593240
    20  Cl   0.053118   0.467668  -0.189149  -2.425073  -0.676809   4.554508
    21  Cl  -0.055226   0.005288   0.000950   0.000683  -0.005292  -0.042148
    22  Cl   1.366879  -0.751997  -0.656552  -0.162949   0.346736   0.125815
              13         14         15         16         17         18
     1  C    0.054840   0.083179   0.059766   0.009605   0.004818  -1.145747
     2  C   -0.004184  -0.008656   0.034204   0.002576   0.000262   0.403479
     3  C    0.238142   0.012641   0.039584  -0.000093  -0.000066  -0.397895
     4  C    0.055809   0.107575   0.022449  -0.000167   0.000064   0.987129
     5  C    0.004671   0.248833  -0.006851  -0.000042   0.000309   1.268294
     6  C   -0.001663  -0.088027   0.003628  -0.003274   0.001464  -6.101236
     7  C    0.013502   0.023689  -0.189323   0.022114   0.034868  -3.387591
     8  C    0.001079  -0.002046   0.279159   0.014759  -0.032165  -1.384101
     9  C   -0.000912   0.000163   0.032394   0.382915  -0.053813   1.209378
    10  C    0.000101  -0.000155   0.053378  -0.009029   0.503047   4.413300
    11  C    0.000190  -0.000202  -0.156596  -0.027565  -0.158870   0.113902
    12  C    0.000442   0.000015   0.131288  -0.039252   0.052091 -26.896359
    13  H    0.496720  -0.000284   0.000071   0.000000   0.000000   0.000596
    14  H   -0.000284   0.507491   0.000000   0.000000  -0.000000   0.010617
    15  H    0.000071   0.000000   0.631394  -0.011270  -0.000102   0.057091
    16  H    0.000000   0.000000  -0.011270   0.534310  -0.007504  -0.002377
    17  H    0.000000  -0.000000  -0.000102  -0.007504   0.525650   0.029819
    18  Cl   0.000596   0.010617   0.057091  -0.002377   0.029819  43.344773
    19  Cl   0.003194  -0.033129   0.016535  -0.000602   0.002678   7.540685
    20  Cl  -0.000004   0.000033  -0.004599   0.001112  -0.041204  -3.679272
    21  Cl  -0.008967  -0.011163   0.000239  -0.000000   0.000000   0.012975
    22  Cl  -0.017924   0.000815  -0.121221   0.000307  -0.000162  -0.234237
              19         20         21         22
     1  C   -3.014100  -0.071437  -0.054210  -0.368652
     2  C   -0.369305  -0.072005  -0.114618  -0.724677
     3  C    0.021250   0.007149   0.347745  -0.385526
     4  C    3.143732  -0.028357  -0.703549  -0.482486
     5  C    4.916826  -0.111682  -0.097651   0.368665
     6  C  -14.885277   0.206359  -0.265981   0.507614
     7  C   -1.586022   0.053118  -0.055226   1.366879
     8  C   -0.205425   0.467668   0.005288  -0.751997
     9  C    0.088491  -0.189149   0.000950  -0.656552
    10  C    0.572600  -2.425073   0.000683  -0.162949
    11  C   -0.842693  -0.676809  -0.005292   0.346736
    12  C   -9.593240   4.554508  -0.042148   0.125815
    13  H    0.003194  -0.000004  -0.008967  -0.017924
    14  H   -0.033129   0.000033  -0.011163   0.000815
    15  H    0.016535  -0.004599   0.000239  -0.121221
    16  H   -0.000602   0.001112  -0.000000   0.000307
    17  H    0.002678  -0.041204   0.000000  -0.000162
    18  Cl   7.540685  -3.679272   0.012975  -0.234237
    19  Cl  31.216594  -0.741406   0.070690  -0.181159
    20  Cl  -0.741406  19.264099  -0.000231   0.012025
    21  Cl   0.070690  -0.000231  17.528725  -0.031496
    22  Cl  -0.181159   0.012025  -0.031496  17.818575
 Mulliken charges:
               1
     1  C   -0.111922
     2  C   -0.331542
     3  C   -0.551600
     4  C    0.585635
     5  C   -0.628095
     6  C   -0.934096
     7  C   -0.045273
     8  C   -0.240837
     9  C   -0.071629
    10  C   -0.423353
    11  C    0.286654
    12  C   -1.414067
    13  H    0.164582
    14  H    0.148612
    15  H    0.128779
    16  H    0.133476
    17  H    0.138815
    18  Cl   0.836779
    19  Cl   0.859083
    20  Cl   0.475159
    21  Cl   0.423235
    22  Cl   0.571606
 Sum of Mulliken charges =  -0.00000
 Mulliken charges with hydrogens summed into heavy atoms:
               1
     1  C   -0.111922
     2  C   -0.331542
     3  C   -0.387018
     4  C    0.585635
     5  C   -0.479483
     6  C   -0.934096
     7  C   -0.045273
     8  C   -0.112058
     9  C    0.061846
    10  C   -0.284538
    11  C    0.286654
    12  C   -1.414067
    18  Cl   0.836779
    19  Cl   0.859083
    20  Cl   0.475159
    21  Cl   0.423235
    22  Cl   0.571606
 Electronic spatial extent (au):  <R**2>=           7139.2156
 Charge=             -0.0000 electrons
 Dipole moment (field-independent basis, Debye):
    X=             -0.6192    Y=             -0.3755    Z=              0.0000  Tot=              0.7241
 Quadrupole moment (field-independent basis, Debye-Ang):
   XX=           -141.3751   YY=           -123.8771   ZZ=           -135.9198
   XY=             -3.5154   XZ=              0.0000   YZ=             -0.0000
 Traceless Quadrupole moment (field-independent basis, Debye-Ang):
   XX=             -7.6511   YY=              9.8469   ZZ=             -2.1958
   XY=             -3.5154   XZ=              0.0000   YZ=             -0.0000
 Octapole moment (field-independent basis, Debye-Ang**2):
  XXX=            -20.0113  YYY=             -8.4471  ZZZ=             -0.0001  XYY=            -15.0250
  XXY=             26.7673  XXZ=             -0.0000  XZZ=              0.8032  YZZ=            -12.6577
  YYZ=              0.0000  XYZ=             -0.0000
 Hexadecapole moment (field-independent basis, Debye-Ang**3):
 XXXX=          -7150.4764 YYYY=          -2307.3445 ZZZZ=           -161.7163 XXXY=              2.9441
 XXXZ=              0.0002 YYYX=            -22.1787 YYYZ=             -0.0001 ZZZX=              0.0001
 ZZZY=             -0.0001 XXYY=          -1490.4988 XXZZ=          -1236.2543 YYZZ=           -445.0718
 XXYZ=             -0.0000 YYXZ=              0.0001 ZZXY=             27.2450
 N-N= 1.769238912853D+03 E-N=-1.007337184558D+04  KE= 2.755087918449D+03
 Calling FoFJK, ICntrl=      2127 FMM=F ISym2X=0 I1Cent= 0 IOpClX= 0 NMat=1 NMatS=1 NMatT=0.
 ***** Axes restored to original set *****
 -------------------------------------------------------------------
 Center     Atomic                   Forces (Hartrees/Bohr)
 Number     Number              X              Y              Z
 -------------------------------------------------------------------
      1        6          -0.028657693   -0.067636246   -0.003261291
      2        6          -0.012828987    0.005663619    0.005290467
      3        6          -0.005595355    0.002066254    0.002231569
      4        6          -0.012902548   -0.016352613    0.001179392
      5        6           0.003593167   -0.014895195   -0.003981091
      6        6           0.133395287   -0.021488116   -0.047983749
      7        6           0.034157200    0.043020845   -0.003173534
      8        6          -0.009479453   -0.000437026    0.003040997
      9        6          -0.014262706    0.019030765    0.008273034
     10        6           0.003201791    0.009661792    0.000759735
     11        6           0.035733191    0.005457316   -0.010747651
     12        6           0.059819434   -0.109934508   -0.040354338
     13        1           0.008164452   -0.000558453   -0.002794680
     14        1          -0.006857196    0.011837422    0.004482324
     15        1          -0.006625745   -0.007209693    0.000828703
     16        1           0.003996818   -0.007719520   -0.002766540
     17        1          -0.006365083   -0.009359632    0.000339151
     18       17          -0.217852742   -0.158664378    0.041975894
     19       17           0.020337104    0.296415555    0.048967705
     20       17          -0.009354585    0.001204820    0.003308218
     21       17           0.001453652    0.000211125   -0.000439247
     22       17           0.026929998    0.019685866   -0.005175067
 -------------------------------------------------------------------
 Cartesian Forces:  Max     0.296415555 RMS     0.057260364

 GradGradGradGradGradGradGradGradGradGradGradGradGradGradGradGradGradGrad
 Berny optimization.
 FormGI is forming the generalized inverse of G from B-inverse, IUseBI=4.
 Internal  Forces:  Max     0.249682154 RMS     0.045511243
 Search for a local minimum.
 Step number   1 out of a maximum of  112
 All quantities printed in internal units (Hartrees-Bohrs-Radians)
 Mixed Optimization -- RFO/linear search
 Second derivative matrix not updated -- first step.
 ITU=  0
     Eigenvalues ---    0.00238   0.00238   0.01655   0.01655   0.02070
     Eigenvalues ---    0.02070   0.02070   0.02070   0.02070   0.02070
     Eigenvalues ---    0.02070   0.02070   0.02070   0.02070   0.02070
     Eigenvalues ---    0.02070   0.02070   0.02070   0.04920   0.16000
     Eigenvalues ---    0.16000   0.16000   0.16000   0.16000   0.22076
     Eigenvalues ---    0.23331   0.23478   0.23493   0.24905   0.25000
     Eigenvalues ---    0.25000   0.25000   0.25000   0.25000   0.25000
     Eigenvalues ---    0.25000   0.25000   0.29539   0.29539   0.29539
     Eigenvalues ---    0.29539   0.29539   0.37230   0.37230   0.37230
     Eigenvalues ---    0.37230   0.37230   0.41539   0.41554   0.41990
     Eigenvalues ---    0.42118   0.45389   0.45389   0.45389   0.45389
     Eigenvalues ---    0.45389   0.45389   0.45389   0.45389   1.70884
 RFO step:  Lambda=-2.96669610D-01 EMin= 2.37799066D-03
 Linear search not attempted -- first point.
 Maximum step size (   0.300) exceeded in Quadratic search.
    -- Step size scaled by   0.428
 Iteration  1 RMS(Cart)=  0.35498744 RMS(Int)=  0.01134403
 Iteration  2 RMS(Cart)=  0.15189386 RMS(Int)=  0.00132134
 Iteration  3 RMS(Cart)=  0.00218030 RMS(Int)=  0.00003714
 Iteration  4 RMS(Cart)=  0.00000073 RMS(Int)=  0.00003714
 Variable       Old X    -DE/DX   Delta X   Delta X   Delta X     New X
                                 (Linear)    (Quad)   (Total)
    R1        2.64826   0.03194   0.00000   0.01909   0.01916   2.66743
    R2        2.64826   0.05276   0.00000   0.03097   0.03103   2.67929
    R3        2.64826  -0.00466   0.00000  -0.00267  -0.00265   2.64561
    R4        3.32592  -0.00299   0.00000  -0.00216  -0.00216   3.32375
    R5        2.64826  -0.02264   0.00000  -0.01379  -0.01385   2.63441
    R6        2.02201   0.00861   0.00000   0.00551   0.00551   2.02752
    R7        2.64826  -0.02684   0.00000  -0.01618  -0.01625   2.63201
    R8        3.32592   0.00092   0.00000   0.00066   0.00066   3.32658
    R9        2.64826  -0.01674   0.00000  -0.00954  -0.00956   2.63870
   R10        2.02201   0.01439   0.00000   0.00921   0.00921   2.03121
   R11        3.32592   0.11530   0.00000   0.08339   0.08339   3.40930
   R12        2.64826   0.00000   0.00000   0.00031   0.00034   2.64860
   R13        2.64826   0.01991   0.00000   0.01162   0.01164   2.65990
   R14        2.64826  -0.00028   0.00000  -0.00012  -0.00011   2.64815
   R15        2.02201  -0.00671   0.00000  -0.00429  -0.00429   2.01771
   R16        2.64826  -0.01343   0.00000  -0.00792  -0.00795   2.64032
   R17        2.02201   0.00912   0.00000   0.00584   0.00584   2.02785
   R18        2.64826  -0.01969   0.00000  -0.01154  -0.01157   2.63669
   R19        2.02201   0.01129   0.00000   0.00723   0.00723   2.02924
   R20        2.64826  -0.02203   0.00000  -0.01262  -0.01262   2.63564
   R21        3.32592   0.00989   0.00000   0.00715   0.00715   3.33307
   R22        3.32592   0.10019   0.00000   0.07246   0.07246   3.39837
   R23        3.07288   0.24968   0.00000   0.05331   0.05331   3.12619
    A1        2.09440  -0.05745   0.00000  -0.04172  -0.04152   2.05287
    A2        2.09440   0.01603   0.00000   0.01351   0.01359   2.10798
    A3        2.09440   0.04790   0.00000   0.03704   0.03700   2.13140
    A4        2.09440  -0.06393   0.00000  -0.05055  -0.05059   2.04381
    A5        2.09440   0.01130   0.00000   0.00778   0.00773   2.10212
    A6        2.09440  -0.00641   0.00000  -0.00461  -0.00458   2.08982
    A7        2.09440  -0.00489   0.00000  -0.00318  -0.00315   2.09125
    A8        2.09440   0.00116   0.00000  -0.00179  -0.00194   2.09245
    A9        2.09440  -0.00262   0.00000  -0.00070  -0.00063   2.09377
   A10        2.09440   0.00146   0.00000   0.00249   0.00257   2.09696
   A11        2.09440   0.00212   0.00000   0.00021   0.00011   2.09450
   A12        2.09440  -0.00052   0.00000   0.00040   0.00045   2.09484
   A13        2.09440  -0.00160   0.00000  -0.00061  -0.00056   2.09384
   A14        2.09440   0.02685   0.00000   0.02201   0.02204   2.11644
   A15        2.09440   0.01666   0.00000   0.01256   0.01254   2.10693
   A16        2.09440  -0.04350   0.00000  -0.03456  -0.03458   2.05982
   A17        2.09440  -0.03657   0.00000  -0.02762  -0.02755   2.06685
   A18        2.09440   0.00995   0.00000   0.00865   0.00868   2.10307
   A19        2.09440   0.00228   0.00000   0.00248   0.00247   2.09686
   A20        2.09440  -0.01224   0.00000  -0.01113  -0.01115   2.08325
   A21        2.09440   0.01064   0.00000   0.00837   0.00835   2.10275
   A22        2.09440  -0.00524   0.00000  -0.00411  -0.00410   2.09030
   A23        2.09440  -0.00540   0.00000  -0.00426  -0.00425   2.09014
   A24        2.09440  -0.01114   0.00000  -0.01020  -0.01026   2.08414
   A25        2.09440   0.00640   0.00000   0.00588   0.00591   2.10030
   A26        2.09440   0.00474   0.00000   0.00433   0.00435   2.09875
   A27        2.09440   0.00512   0.00000   0.00339   0.00336   2.09775
   A28        2.09440  -0.00017   0.00000   0.00018   0.00020   2.09459
   A29        2.09440  -0.00495   0.00000  -0.00357  -0.00355   2.09084
   A30        2.09440   0.02199   0.00000   0.01741   0.01742   2.11182
   A31        2.09440  -0.03310   0.00000  -0.02602  -0.02603   2.06837
   A32        2.09440   0.01112   0.00000   0.00861   0.00861   2.10300
   A33        2.09440  -0.22692   0.00000  -0.17773  -0.17773   1.91666
   A34        2.09440  -0.22345   0.00000  -0.17501  -0.17501   1.91938
    D1        0.00000  -0.00000   0.00000  -0.00000  -0.00000   0.00000
    D2        3.14159  -0.00000   0.00000  -0.00000  -0.00000   3.14159
    D3       -0.00000   0.00000   0.00000   0.00000   0.00000  -0.00000
    D4        3.14159   0.00000   0.00000   0.00000   0.00000   3.14159
    D5        0.00000   0.00000   0.00000   0.00000   0.00000   0.00000
    D6        3.14159   0.00000   0.00000   0.00000   0.00000   3.14159
    D7       -3.14159  -0.00000   0.00000  -0.00000  -0.00000  -3.14159
    D8        0.00000  -0.00000   0.00000  -0.00000  -0.00000   0.00000
    D9       -0.00000   0.00000   0.00000   0.00000   0.00000  -0.00000
   D10        3.14159  -0.00000   0.00000  -0.00000  -0.00000   3.14159
   D11        3.14159   0.00000   0.00000   0.00000   0.00000   3.14159
   D12        0.00000  -0.00000   0.00000  -0.00000  -0.00000   0.00000
   D13        0.00000  -0.00000   0.00000  -0.00000  -0.00000   0.00000
   D14       -3.14159  -0.00000   0.00000  -0.00000  -0.00000  -3.14159
   D15       -3.14159  -0.00000   0.00000  -0.00000  -0.00000  -3.14159
   D16        0.00000  -0.00000   0.00000  -0.00000  -0.00000   0.00000
   D17       -0.00000   0.00000   0.00000   0.00000   0.00000  -0.00000
   D18        3.14159  -0.00000   0.00000  -0.00000  -0.00000   3.14159
   D19        3.14159   0.00000   0.00000   0.00000   0.00000   3.14159
   D20       -0.00000  -0.00000   0.00000  -0.00000  -0.00000  -0.00000
   D21        0.00001  -0.00000   0.00000  -0.00000  -0.00000   0.00001
   D22       -3.14158  -0.00000   0.00000  -0.00000  -0.00000  -3.14158
   D23        0.00000  -0.00000   0.00000  -0.00000  -0.00000   0.00000
   D24       -3.14159  -0.00000   0.00000  -0.00000  -0.00000  -3.14159
   D25       -0.00000   0.00000   0.00000   0.00000   0.00000  -0.00000
   D26        3.14159   0.00000   0.00000   0.00000   0.00000   3.14159
   D27       -0.00000  -0.00000   0.00000   0.00000   0.00000  -0.00000
   D28        3.14159  -0.00000   0.00000  -0.00000  -0.00000   3.14159
   D29        3.14159   0.00000   0.00000   0.00000   0.00000   3.14159
   D30       -0.00000   0.00000   0.00000   0.00000   0.00000  -0.00000
   D31       -0.00000   0.00000   0.00000   0.00000   0.00000  -0.00000
   D32       -3.14159  -0.00000   0.00000  -0.00000  -0.00000  -3.14159
   D33        3.14159   0.00000   0.00000   0.00000   0.00000   3.14159
   D34        0.00000  -0.00000   0.00000  -0.00000  -0.00000   0.00000
   D35        0.00000  -0.00000   0.00000  -0.00000  -0.00000   0.00000
   D36       -3.14159  -0.00000   0.00000  -0.00000  -0.00000  -3.14159
   D37        3.14159   0.00000   0.00000   0.00000   0.00000   3.14159
   D38        0.00000  -0.00000   0.00000  -0.00000  -0.00000   0.00000
   D39        0.00000   0.00000   0.00000   0.00000   0.00000   0.00000
   D40       -3.14159  -0.00000   0.00000  -0.00000  -0.00000  -3.14159
   D41        3.14159   0.00000   0.00000   0.00000   0.00000   3.14159
   D42       -0.00000  -0.00000   0.00000  -0.00000  -0.00000  -0.00000
   D43        0.00001  -0.00000   0.00000  -0.00000  -0.00000   0.00001
   D44       -3.14159   0.00000   0.00000   0.00000   0.00000  -3.14159
   D45       -0.00001   0.00000   0.00000   0.00000   0.00000  -0.00001
         Item               Value     Threshold  Converged?
 Maximum Force            0.249682     0.000450     NO 
 RMS     Force            0.045511     0.000300     NO 
 Maximum Displacement     1.600258     0.001800     NO 
 RMS     Displacement     0.505130     0.001200     NO 
 Predicted change in Energy=-1.131796D-01
 GradGradGradGradGradGradGradGradGradGradGradGradGradGradGradGradGradGrad

                          Input orientation:                          
 ---------------------------------------------------------------------
 Center     Atomic      Atomic             Coordinates (Angstroms)
 Number     Number       Type             X           Y           Z
 ---------------------------------------------------------------------
      1          6           0       -0.398879   -0.007303    0.098979
      2          6           0        0.925573   -0.157303   -0.365539
      3          6           0        1.786803    0.943766   -0.442485
      4          6           0        1.349088    2.210952   -0.060288
      5          6           0        0.046707    2.385341    0.401537
      6          6           0       -0.818233    1.292040    0.481163
      7          6           0       -0.974413   -0.881921    0.124329
      8          6           0       -0.162345   -1.925962   -0.339293
      9          6           0       -0.661437   -3.232905   -0.420319
     10          6           0       -1.976108   -3.514302   -0.040039
     11          6           0       -2.791635   -2.481060    0.422695
     12          6           0       -2.296682   -1.179656    0.504045
     13          1           0        2.790294    0.810693   -0.798081
     14          1           0       -0.293092    3.361409    0.696797
     15          1           0        0.845053   -1.731020   -0.634573
     16          1           0       -0.029399   -4.023363   -0.777004
     17          1           0       -2.356236   -4.516616   -0.103045
     18         17           0       -3.340693    0.158175    1.099261
     19         17           0       -2.493254    1.578890    1.086879
     20         17           0       -4.453742   -2.818501    0.906919
     21         17           0        2.442633    3.586674   -0.162188
     22         17           0        1.568949   -1.714603   -0.869974
 ---------------------------------------------------------------------
                    Distance matrix (angstroms):
                    1          2          3          4          5
     1  C    0.000000
     2  C    1.411541   0.000000
     3  C    2.444365   1.399996   0.000000
     4  C    2.828676   2.425113   1.394069   0.000000
     5  C    2.452517   2.797472   2.412145   1.392799   0.000000
     6  C    1.417821   2.420404   2.785791   2.415543   1.396342
     7  C    1.047300   2.091647   3.358381   3.872803   3.434317
     8  C    1.982241   2.076634   3.470614   4.413199   4.379483
     9  C    3.277668   3.461348   4.841378   5.814413   5.722028
    10  C    3.847858   4.449173   5.847720   6.620866   6.252404
    11  C    3.456812   4.454076   5.782738   6.276451   5.633693
    12  C    2.267189   3.490603   4.698903   5.010622   4.267457
    13  H    3.412428   2.145063   1.072918   2.140593   3.383175
    14  H    3.422982   3.872343   3.386580   2.143242   1.074872
    15  H    2.248703   1.598577   2.842230   4.015345   4.319179
    16  H    4.127056   4.003460   5.299326   6.424997   6.516613
    17  H    4.919955   5.462855   6.862635   7.680587   7.325692
    18  Cl   3.111627   4.521747   5.411594   5.249047   4.113584
    19  Cl   2.806843   4.100276   4.589251   4.059444   2.751629
    20  Cl   4.999752   6.134994   7.410799   7.739749   6.898510
    21  Cl   4.589017   4.044773   2.737452   1.760351   2.738877
    22  Cl   2.779584   1.758855   2.701320   4.014213   4.554504
                    6          7          8          9         10
     6  C    0.000000
     7  C    2.208581   0.000000
     8  C    3.385096   1.401578   0.000000
     9  C    4.616533   2.433458   1.401341   0.000000
    10  C    4.971242   2.821318   2.429427   1.397196   0.000000
    11  C    4.258406   2.438968   2.793193   2.411159   1.395277
    12  C    2.880211   1.407560   2.413211   2.782859   2.418546
    13  H    3.858708   4.229516   4.051894   5.329900   6.480648
    14  H    2.145824   4.335640   5.389515   6.698403   7.116943
    15  H    3.626331   2.146475   1.067727   2.138007   3.390061
    16  H    5.518945   3.402074   2.146708   1.073090   2.142880
    17  H    6.037155   3.895143   3.403008   2.149633   1.073825
    18  Cl   2.833814   2.762531   4.063861   4.581153   4.080097
    19  Cl   1.804126   3.047782   4.444221   5.364752   5.241945
    20  Cl   5.504066   4.058143   4.556947   4.039167   2.742178
    21  Cl   4.038873   5.632640   6.099707   7.497235   8.364452
    22  Cl   4.069903   2.854941   1.823095   2.735335   4.061421
                   11         12         13         14         15
    11  C    0.000000
    12  C    1.394722   0.000000
    13  H    6.594230   5.615545   0.000000
    14  H    6.360212   4.967172   4.271778   0.000000
    15  H    3.860813   3.386879   3.204841   5.385235   0.000000
    16  H    3.383478   3.855947   5.596357   7.535017   2.457598
    17  H    2.146966   3.392257   7.439763   8.182884   4.276718
    18  Cl   2.779347   1.798343   6.450946   4.439657   4.908738
    19  Cl   4.124726   2.826290   5.662075   2.858365   5.006316
    20  Cl   1.763785   2.738801   8.279743   7.452949   5.624592
    21  Cl   8.034740   6.754471   2.869024   2.876246   5.572547
    22  Cl   4.612282   4.137294   2.806060   5.629198   0.761387
                   16         17         18         19         20
    16  H    0.000000
    17  H    2.472183   0.000000
    18  Cl   5.654229   4.926294   0.000000
    19  Cl   6.397647   6.212076   1.654309   0.000000
    20  Cl   4.884885   2.881519   3.183783   4.817982   0.000000
    21  Cl   8.025061   9.417853   6.840521   5.473057   9.472553
    22  Cl   2.809579   4.883292   5.611575   5.583715   6.375638
                   21         22
    21  Cl   0.000000
    22  Cl   5.419208   0.000000
 Stoichiometry    C12H5Cl5
 Framework group  C1[X(C12H5Cl5)]
 Deg. of freedom    60
 Full point group                 C1      NOp   1
 Largest Abelian subgroup         C1      NOp   1
 Largest concise Abelian subgroup C1      NOp   1
                         Standard orientation:                         
 ---------------------------------------------------------------------
 Center     Atomic      Atomic             Coordinates (Angstroms)
 Number     Number       Type             X           Y           Z
 ---------------------------------------------------------------------
      1          6           0        0.490612    0.188618    0.000002
      2          6           0        1.421175    1.249986    0.000001
      3          6           0        2.797887    0.995714   -0.000001
      4          6           0        3.274192   -0.314462   -0.000002
      5          6           0        2.376448   -1.379330    0.000002
      6          6           0        1.001859   -1.133820    0.000004
      7          6           0       -0.518760    0.467913    0.000004
      8          6           0       -0.561100    1.868851    0.000005
      9          6           0       -1.789503    2.543227    0.000006
     10          6           0       -2.990196    1.828738    0.000003
     11          6           0       -2.957490    0.433845    0.000001
     12          6           0       -1.735863   -0.239115    0.000001
     13          1           0        3.490438    1.815180   -0.000003
     14          1           0        2.741279   -2.390393    0.000004
     15          1           0        0.345642    2.432643    0.000005
     16          1           0       -1.808213    3.616153    0.000007
     17          1           0       -3.930235    2.347802    0.000002
     18         17           0       -1.684268   -2.036717   -0.000004
     19         17           0       -0.112476   -2.552668    0.000007
     20         17           0       -4.463702   -0.483905   -0.000006
     21         17           0        5.007877   -0.619707   -0.000004
     22         17           0        0.917599    2.935211   -0.000002
 ---------------------------------------------------------------------
 Rotational constants (GHZ):           0.5238683           0.2136638           0.1517652
 Standard basis: 6-311+G(d,p) (5D, 7F)
 There are   461 symmetry adapted cartesian basis functions of A   symmetry.
 There are   444 symmetry adapted basis functions of A   symmetry.
   444 basis functions,   737 primitive gaussians,   461 cartesian basis functions
    81 alpha electrons       81 beta electrons
       nuclear repulsion energy      1871.5663311515 Hartrees.
 NAtoms=   22 NActive=   22 NUniq=   22 SFac= 1.00D+00 NAtFMM=   60 NAOKFM=F Big=F
 Integral buffers will be    131072 words long.
 Raffenetti 2 integral format.
 Two-electron integral symmetry is turned on.
 One-electron integrals computed using PRISM.
 NBasis=   444 RedAO= T EigKep=  1.96D-06  NBF=   444
 NBsUse=   436 1.00D-06 EigRej=  9.22D-07 NBFU=   436
 Initial guess from the checkpoint file:  "./Gau-420162.chk"
 B after Tr=    -0.000000   -0.000000   -0.000000
         Rot=    0.999891   -0.000000   -0.000000    0.014739 Ang=  -1.69 deg.
 ExpMin= 4.38D-02 ExpMax= 1.06D+05 ExpMxC= 3.62D+03 IAcc=3 IRadAn=         5 AccDes= 0.00D+00
 Harris functional with IExCor=  402 and IRadAn=       5 diagonalized for initial guess.
 HarFok:  IExCor=  402 AccDes= 0.00D+00 IRadAn=         5 IDoV= 1 UseB2=F ITyADJ=14
 ICtDFT=  3500011 ScaDFX=  1.000000  1.000000  1.000000  1.000000
 FoFCou: FMM=F IPFlag=           0 FMFlag=      100000 FMFlg1=           0
         NFxFlg=           0 DoJE=T BraDBF=F KetDBF=T FulRan=T
         wScrn=  0.000000 ICntrl=       500 IOpCl=  0 I1Cent=   200000004 NGrid=           0
         NMat0=    1 NMatS0=      1 NMatT0=    0 NMatD0=    1 NMtDS0=    0 NMtDT0=    0
 Petite list used in FoFCou.
 Requested convergence on RMS density matrix=1.00D-08 within  32 cycles.
 Requested convergence on MAX density matrix=1.00D-06.
 Requested convergence on             energy=1.00D-06.
 No special actions if energy rises.
 EnCoef did     3 forward-backward iterations
 EnCoef did     2 forward-backward iterations
 EnCoef did     5 forward-backward iterations
 EnCoef did     3 forward-backward iterations
 EnCoef did     3 forward-backward iterations
 Restarting incremental Fock formation.
 >>>>>>>>>> Convergence criterion not met.
 SCF Done:  E(RB3LYP) =  -2759.80176556     A.U. after   33 cycles
            NFock= 32  Conv=0.17D-05     -V/T= 1.9999
 SCF Done:  E(RB3LYP) =  -2759.80176556     a.u. after    1 cycles
            Convg  =    0.2661D-06                     1 Fock formations.
              S**2 =  0.0000                  -V/T =  1.9999
 Calling FoFJK, ICntrl=      2127 FMM=F ISym2X=0 I1Cent= 0 IOpClX= 0 NMat=1 NMatS=1 NMatT=0.
 ***** Axes restored to original set *****
 -------------------------------------------------------------------
 Center     Atomic                   Forces (Hartrees/Bohr)
 Number     Number              X              Y              Z
 -------------------------------------------------------------------
      1        6           0.465591026    0.724512919   -0.017316165
      2        6           0.061167389    0.183679182    0.014339385
      3        6          -0.010489083   -0.004682834    0.002578551
      4        6          -0.001561826   -0.013484406   -0.002016295
      5        6          -0.019211929   -0.013181401    0.003855315
      6        6           0.128174261   -0.014083022   -0.044876329
      7        6          -0.451520056   -0.738807628    0.009995971
      8        6          -0.352615940   -0.157422683    0.086611231
      9        6           0.000247261    0.024308406    0.004480477
     10        6           0.007117775   -0.002263915   -0.002769818
     11        6           0.017961901    0.025488107   -0.001129655
     12        6           0.060035935   -0.093159572   -0.037279417
     13        1           0.008897413   -0.003653393   -0.003617182
     14        1          -0.002987408    0.009754951    0.002816585
     15        1          -1.615805297   -0.091991134    0.515047045
     16        1           0.008671569   -0.009788880   -0.004695897
     17        1          -0.004433604   -0.008266562   -0.000090217
     18       17          -0.221132993   -0.155163495    0.043712288
     19       17           0.022070585    0.284783672    0.046215955
     20       17          -0.003762859    0.000063951    0.001251678
     21       17           0.001974972    0.003568631    0.000017306
     22       17           1.901610908    0.049789106   -0.617130814
 -------------------------------------------------------------------
 Cartesian Forces:  Max     1.901610908 RMS     0.364403035

 GradGradGradGradGradGradGradGradGradGradGradGradGradGradGradGradGradGrad
 Berny optimization.
 Using GEDIIS/GDIIS optimizer.
 FormGI is forming the generalized inverse of G from B-inverse, IUseBI=4.
 Internal  Forces:  Max    18.999681230 RMS     2.672593559
 Search for a local minimum.
 Step number   2 out of a maximum of  112
 All quantities printed in internal units (Hartrees-Bohrs-Radians)
 Mixed Optimization -- RFO/linear search
 Update second derivatives using D2CorX and points    2    1
 DE=  1.12D+00 DEPred=-1.13D-01 R=-9.93D+00
 Trust test=-9.93D+00 RLast= 3.00D-01 DXMaxT set to 1.50D-01
 ITU= -1  0
 Use linear search instead of GDIIS.
     Eigenvalues ---    0.00238   0.00238   0.01663   0.01666   0.02070
     Eigenvalues ---    0.02070   0.02070   0.02070   0.02070   0.02070
     Eigenvalues ---    0.02070   0.02070   0.02070   0.02070   0.02070
     Eigenvalues ---    0.02070   0.02070   0.02070   0.04920   0.09903
     Eigenvalues ---    0.16000   0.16000   0.16000   0.16000   0.16009
     Eigenvalues ---    0.22077   0.23405   0.23478   0.23513   0.24909
     Eigenvalues ---    0.25000   0.25000   0.25000   0.25000   0.25000
     Eigenvalues ---    0.25000   0.27996   0.29509   0.29539   0.29539
     Eigenvalues ---    0.29539   0.37065   0.37208   0.37230   0.37230
     Eigenvalues ---    0.37230   0.40515   0.41465   0.41486   0.42013
     Eigenvalues ---    0.45171   0.45245   0.45389   0.45389   0.45389
     Eigenvalues ---    0.45389   0.45389   0.45389   1.41588 150.39372
 RFO step:  Lambda=-3.77455164D+00 EMin= 2.37799066D-03
 Quartic linear search produced a step of -0.71537.
 Maximum step size (   0.150) exceeded in Quadratic search.
    -- Step size scaled by   0.156
 Iteration  1 RMS(Cart)=  0.25765009 RMS(Int)=  0.00545713
 Iteration  2 RMS(Cart)=  0.07126697 RMS(Int)=  0.00038958
 Iteration  3 RMS(Cart)=  0.00082076 RMS(Int)=  0.00002632
 Iteration  4 RMS(Cart)=  0.00000006 RMS(Int)=  0.00002632
 Variable       Old X    -DE/DX   Delta X   Delta X   Delta X     New X
                                 (Linear)    (Quad)   (Total)
    R1        2.66743   2.83569  -0.01371   0.02387   0.01010   2.67753
    R2        2.67929   1.29215  -0.02220   0.02492   0.00269   2.68198
    R3        2.64561  -0.45702   0.00190  -0.00355  -0.00167   2.64394
    R4        3.32375   0.82850   0.00155   0.00222   0.00377   3.32752
    R5        2.63441  -1.28218   0.00991  -0.01408  -0.00413   2.63028
    R6        2.02752   0.00997  -0.00394   0.00349  -0.00045   2.02707
    R7        2.63201  -0.83789   0.01163  -0.01376  -0.00208   2.62993
    R8        3.32658   0.00401  -0.00048   0.00043  -0.00004   3.32654
    R9        2.63870   0.41811   0.00684  -0.00429   0.00256   2.64127
   R10        2.03121   0.01058  -0.00659   0.00581  -0.00078   2.03043
   R11        3.40930   2.42730  -0.05965   0.06236   0.00271   3.41202
   R12        2.64860  -0.64096  -0.00024  -0.00245  -0.00271   2.64589
   R13        2.65990  -1.81095  -0.00833  -0.00019  -0.00853   2.65137
   R14        2.64815  -0.32011   0.00008  -0.00140  -0.00132   2.64683
   R15        2.01771  -1.68374   0.00307  -0.00980  -0.00673   2.01099
   R16        2.64032  -0.82634   0.00568  -0.00841  -0.00271   2.63760
   R17        2.02785   0.01388  -0.00418   0.00371  -0.00046   2.02738
   R18        2.63669  -0.51247   0.00828  -0.00939  -0.00109   2.63560
   R19        2.02924   0.00929  -0.00517   0.00456  -0.00061   2.02863
   R20        2.63564   0.28243   0.00903  -0.00676   0.00227   2.63791
   R21        3.33307   0.00388  -0.00512   0.00447  -0.00065   3.33242
   R22        3.39837  -0.76168  -0.05183   0.04184  -0.01000   3.38838
   R23        3.12619   2.35012  -0.03813   0.04296   0.00482   3.13101
    A1        2.05287  -0.94210   0.02970  -0.02968  -0.00011   2.05276
    A2        2.10798   0.38691  -0.00972   0.01019   0.00041   2.10839
    A3        2.13140   2.83145  -0.02647   0.03525   0.00882   2.14021
    A4        2.04381  -3.21836   0.03619  -0.04545  -0.00922   2.03458
    A5        2.10212   0.23744  -0.00553   0.00575   0.00026   2.10238
    A6        2.08982  -0.12123   0.00328  -0.00333  -0.00007   2.08975
    A7        2.09125  -0.11621   0.00225  -0.00242  -0.00019   2.09106
    A8        2.09245  -0.17109   0.00139  -0.00211  -0.00062   2.09183
    A9        2.09377   0.08674   0.00045   0.00007   0.00047   2.09423
   A10        2.09696   0.08435  -0.00184   0.00204   0.00015   2.09712
   A11        2.09450   1.55976  -0.00008   0.00679   0.00679   2.10130
   A12        2.09484  -0.78028  -0.00032  -0.00309  -0.00345   2.09140
   A13        2.09384  -0.77948   0.00040  -0.00371  -0.00335   2.09049
   A14        2.11644  -1.07092  -0.01577   0.00906  -0.00673   2.10971
   A15        2.10693   7.74002  -0.00897   0.04145   0.03249   2.13942
   A16        2.05982  -6.66910   0.02474  -0.05050  -0.02576   2.03406
   A17        2.06685  -0.83301   0.01971  -0.02075  -0.00109   2.06576
   A18        2.10307   1.14751  -0.00621   0.01040   0.00417   2.10724
   A19        2.09686  -0.79841  -0.00176  -0.00200  -0.00375   2.09311
   A20        2.08325  -0.34910   0.00797  -0.00840  -0.00042   2.08283
   A21        2.10275  -0.38617  -0.00597   0.00348  -0.00247   2.10027
   A22        2.09030   0.19241   0.00293  -0.00170   0.00123   2.09152
   A23        2.09014   0.19376   0.00304  -0.00179   0.00125   2.09139
   A24        2.08414  -0.62211   0.00734  -0.00907  -0.00169   2.08245
   A25        2.10030   0.31237  -0.00422   0.00502   0.00077   2.10107
   A26        2.09875   0.30974  -0.00311   0.00405   0.00092   2.09966
   A27        2.09775   0.53694  -0.00240   0.00443   0.00206   2.09981
   A28        2.09459  -0.26708  -0.00014  -0.00105  -0.00120   2.09339
   A29        2.09084  -0.26986   0.00254  -0.00339  -0.00086   2.08999
   A30        2.11182   0.15683  -0.01246   0.01150  -0.00098   2.11084
   A31        2.06837   2.52142   0.01862  -0.00519   0.01344   2.08181
   A32        2.10300  -2.67825  -0.00616  -0.00631  -0.01246   2.09054
   A33        1.91666  13.73005   0.12714  -0.05059   0.07655   1.99322
   A34        1.91938  18.99968   0.12520  -0.02597   0.09923   2.01861
    D1        0.00000  -0.00000   0.00000  -0.00000   0.00000   0.00000
    D2        3.14159  -0.00002   0.00000  -0.00000  -0.00000   3.14159
    D3       -0.00000  -0.00000  -0.00000   0.00000  -0.00000  -0.00000
    D4        3.14159   0.00002  -0.00000   0.00000   0.00000   3.14159
    D5        0.00000   0.00000  -0.00000   0.00000   0.00000   0.00000
    D6        3.14159  -0.00000  -0.00000   0.00000  -0.00000   3.14159
    D7       -3.14159   0.00001   0.00000  -0.00000   0.00000  -3.14159
    D8        0.00000   0.00001   0.00000  -0.00000   0.00000   0.00000
    D9       -0.00000   0.00000  -0.00000   0.00000   0.00000  -0.00000
   D10        3.14159   0.00000   0.00000  -0.00000   0.00000   3.14159
   D11        3.14159   0.00000  -0.00000   0.00000   0.00000   3.14159
   D12        0.00000   0.00000   0.00000  -0.00000   0.00000   0.00000
   D13        0.00000  -0.00000   0.00000  -0.00000  -0.00000   0.00000
   D14       -3.14159  -0.00000   0.00000  -0.00000  -0.00000  -3.14159
   D15       -3.14159  -0.00000   0.00000  -0.00000  -0.00000  -3.14159
   D16        0.00000  -0.00000   0.00000  -0.00000  -0.00000   0.00000
   D17       -0.00000   0.00000  -0.00000   0.00000   0.00000  -0.00000
   D18        3.14159  -0.00001   0.00000  -0.00000  -0.00000   3.14159
   D19        3.14159   0.00000  -0.00000   0.00000   0.00000   3.14159
   D20       -0.00000  -0.00001   0.00000  -0.00000  -0.00000  -0.00000
   D21        0.00001  -0.00004   0.00000  -0.00000  -0.00000   0.00001
   D22       -3.14158  -0.00002   0.00000  -0.00000  -0.00000  -3.14159
   D23        0.00000  -0.00000   0.00000  -0.00000  -0.00000   0.00000
   D24       -3.14159  -0.00001   0.00000  -0.00000  -0.00000  -3.14159
   D25       -0.00000   0.00000  -0.00000   0.00000   0.00000  -0.00000
   D26        3.14159   0.00002  -0.00000   0.00000   0.00000   3.14159
   D27       -0.00000   0.00000  -0.00000   0.00000   0.00000  -0.00000
   D28        3.14159  -0.00000   0.00000  -0.00000  -0.00000   3.14159
   D29        3.14159   0.00001  -0.00000   0.00000   0.00000   3.14159
   D30       -0.00000   0.00000  -0.00000   0.00000   0.00000  -0.00000
   D31       -0.00000   0.00000  -0.00000   0.00000   0.00000  -0.00000
   D32       -3.14159  -0.00000   0.00000  -0.00000   0.00000  -3.14159
   D33        3.14159   0.00000  -0.00000   0.00000   0.00000   3.14159
   D34        0.00000   0.00000   0.00000  -0.00000   0.00000   0.00000
   D35        0.00000  -0.00001   0.00000  -0.00000  -0.00000   0.00000
   D36       -3.14159  -0.00001   0.00000  -0.00000  -0.00000  -3.14159
   D37        3.14159  -0.00000  -0.00000   0.00000  -0.00000   3.14159
   D38        0.00000  -0.00000   0.00000  -0.00000  -0.00000   0.00000
   D39        0.00000   0.00000  -0.00000   0.00000   0.00000   0.00000
   D40       -3.14159  -0.00002   0.00000  -0.00000  -0.00000  -3.14159
   D41        3.14159   0.00001  -0.00000   0.00000   0.00000   3.14159
   D42       -0.00000  -0.00002   0.00000  -0.00000  -0.00000  -0.00000
   D43        0.00001  -0.00004   0.00000  -0.00000  -0.00000   0.00001
   D44       -3.14159  -0.00002  -0.00000  -0.00000  -0.00000  -3.14159
   D45       -0.00001  -0.00024  -0.00000  -0.00000  -0.00000  -0.00001
         Item               Value     Threshold  Converged?
 Maximum Force            ********     0.000450     NO 
 RMS     Force            2.672594     0.000300     NO 
 Maximum Displacement     0.970080     0.001800     NO 
 RMS     Displacement     0.327666     0.001200     NO 
 Predicted change in Energy=-1.138190D+00
 GradGradGradGradGradGradGradGradGradGradGradGradGradGradGradGradGradGrad

                          Input orientation:                          
 ---------------------------------------------------------------------
 Center     Atomic      Atomic             Coordinates (Angstroms)
 Number     Number       Type             X           Y           Z
 ---------------------------------------------------------------------
      1          6           0       -0.097305    0.122995    0.024095
      2          6           0        1.248861    0.131133   -0.417877
      3          6           0        1.988923    1.318312   -0.438731
      4          6           0        1.413349    2.515895   -0.024188
      5          6           0        0.092699    2.534511    0.414400
      6          6           0       -0.660183    1.357226    0.441336
      7          6           0       -0.991752   -1.194765    0.071286
      8          6           0       -0.300171   -2.329520   -0.369678
      9          6           0       -0.925476   -3.582490   -0.398986
     10          6           0       -2.252243   -3.718045    0.012670
     11          6           0       -2.948804   -2.593012    0.453450
     12          6           0       -2.324837   -1.344642    0.482334
     13          1           0        3.006896    1.304783   -0.776647
     14          1           0       -0.351211    3.459207    0.734312
     15          1           0        0.711966   -2.244364   -0.687139
     16          1           0       -0.381913   -4.442450   -0.739575
     17          1           0       -2.732221   -4.678013   -0.009486
     18         17           0       -3.233769    0.092282    1.051659
     19         17           0       -2.361466    1.500740    1.028784
     20         17           0       -4.625731   -2.745361    0.977319
     21         17           0        2.355789    4.002361   -0.055507
     22         17           0        2.077551   -1.323359   -0.964056
 ---------------------------------------------------------------------
                    Distance matrix (angstroms):
                    1          2          3          4          5
     1  C    0.000000
[...]
                 (A) (A) (A) (A) (A) (A) (A) (A) (A) (A) (A) (A)
                 (A) (A) (A) (A) (A) (A) (A) (A) (A) (A) (A) (A)
                 (A) (A) (A) (A) (A) (A) (A) (A) (A) (A) (A) (A)
                 (A) (A) (A) (A) (A) (A) (A) (A) (A) (A) (A) (A)
                 (A) (A) (A) (A) (A) (A) (A) (A) (A) (A) (A) (A)
                 (A) (A) (A) (A) (A) (A) (A) (A) (A) (A) (A) (A)
                 (A) (A) (A) (A) (A) (A) (A) (A) (A) (A) (A) (A)
                 (A) (A) (A) (A) (A) (A) (A) (A) (A) (A) (A) (A)
                 (A) (A) (A) (A) (A) (A) (A) (A) (A) (A) (A) (A)
                 (A) (A) (A) (A) (A) (A) (A) (A) (A) (A) (A) (A)
                 (A) (A) (A) (A) (A) (A) (A) (A) (A) (A) (A) (A)
                 (A) (A) (A) (A) (A) (A) (A) (A) (A) (A) (A) (A)
                 (A) (A) (A) (A) (A) (A) (A) (A) (A) (A) (A) (A)
                 (A) (A) (A) (A) (A) (A) (A) (A) (A) (A) (A) (A)
                 (A) (A) (A) (A) (A) (A) (A) (A) (A) (A) (A) (A)
                 (A) (A) (A) (A) (A) (A) (A) (A) (A) (A) (A) (A)
                 (A) (A) (A) (A) (A) (A) (A) (A) (A) (A) (A) (A)
                 (A) (A) (A) (A) (A) (A) (A) (A) (A) (A) (A) (A)
                 (A) (A) (A) (A) (A) (A) (A) (A) (A) (A) (A) (A)
                 (A) (A) (A) (A) (A) (A) (A) (A) (A) (A) (A) (A)
                 (A) (A) (A) (A) (A) (A) (A) (A) (A) (A) (A) (A)
                 (A) (A) (A) (A) (A) (A) (A) (A) (A) (A) (A) (A)
                 (A) (A) (A) (A) (A) (A) (A) (A) (A) (A) (A) (A)
                 (A) (A) (A) (A) (A) (A) (A) (A) (A) (A) (A) (A)
                 (A) (A) (A) (A) (A) (A) (A) (A) (A) (A) (A) (A)
                 (A) (A) (A) (A) (A) (A) (A) (A) (A) (A) (A) (A)
                 (A) (A) (A) (A) (A) (A) (A) (A) (A) (A) (A) (A)
                 (A) (A) (A) (A) (A) (A) (A) (A) (A) (A) (A) (A)
                 (A) (A) (A) (A) (A) (A) (A) (A) (A) (A) (A)
 The electronic state is 1-A.
 Alpha  occ. eigenvalues -- -101.57490-101.57332-101.57332-101.56847-101.56768
 Alpha  occ. eigenvalues --  -10.27207 -10.27205 -10.26998 -10.26486 -10.26230
 Alpha  occ. eigenvalues --  -10.23283 -10.22576 -10.21679 -10.21678 -10.20854
 Alpha  occ. eigenvalues --  -10.20546 -10.20424  -9.48943  -9.48803  -9.48802
 Alpha  occ. eigenvalues --   -9.48322  -9.48229  -7.25417  -7.25277  -7.25277
 Alpha  occ. eigenvalues --   -7.24801  -7.24710  -7.24421  -7.24382  -7.24284
 Alpha  occ. eigenvalues --   -7.24284  -7.24230  -7.24230  -7.23805  -7.23740
 Alpha  occ. eigenvalues --   -7.23710  -7.23653  -0.94741  -0.92981  -0.89822
 Alpha  occ. eigenvalues --   -0.89658  -0.87258  -0.85910  -0.83339  -0.79916
 Alpha  occ. eigenvalues --   -0.76529  -0.75128  -0.74684  -0.65701  -0.63642
 Alpha  occ. eigenvalues --   -0.62585  -0.61543  -0.55451  -0.53333  -0.52645
 Alpha  occ. eigenvalues --   -0.51347  -0.49167  -0.47935  -0.46498  -0.46007
 Alpha  occ. eigenvalues --   -0.45611  -0.44303  -0.43426  -0.42472  -0.41063
 Alpha  occ. eigenvalues --   -0.39800  -0.39289  -0.38595  -0.38175  -0.35918
 Alpha  occ. eigenvalues --   -0.35230  -0.34188  -0.34103  -0.33961  -0.32902
 Alpha  occ. eigenvalues --   -0.32650  -0.31944  -0.27624  -0.27445  -0.27335
 Alpha  occ. eigenvalues --   -0.26473
 Alpha virt. eigenvalues --   -0.05608  -0.05362  -0.04790  -0.04078  -0.03255
 Alpha virt. eigenvalues --   -0.01750  -0.00558   0.00726   0.01261   0.01334
 Alpha virt. eigenvalues --    0.02067   0.02167   0.02687   0.03273   0.04142
 Alpha virt. eigenvalues --    0.04425   0.05219   0.05570   0.06104   0.06493
 Alpha virt. eigenvalues --    0.06609   0.06904   0.08305   0.08375   0.08670
 Alpha virt. eigenvalues --    0.08997   0.09246   0.09563   0.09761   0.10682
 Alpha virt. eigenvalues --    0.10859   0.11295   0.11716   0.11855   0.12123
 Alpha virt. eigenvalues --    0.12226   0.12811   0.13174   0.13425   0.14092
 Alpha virt. eigenvalues --    0.14342   0.14486   0.15094   0.15318   0.15455
 Alpha virt. eigenvalues --    0.16908   0.16992   0.17227   0.17457   0.18069
 Alpha virt. eigenvalues --    0.18453   0.19019   0.19039   0.19155   0.19617
 Alpha virt. eigenvalues --    0.19662   0.20044   0.20425   0.20985   0.21438
 Alpha virt. eigenvalues --    0.21797   0.22310   0.22681   0.23014   0.23409
 Alpha virt. eigenvalues --    0.23631   0.23681   0.24703   0.24856   0.25340
 Alpha virt. eigenvalues --    0.26239   0.26639   0.26794   0.26973   0.27215
 Alpha virt. eigenvalues --    0.27587   0.27974   0.28362   0.28989   0.29281
 Alpha virt. eigenvalues --    0.29910   0.30273   0.30939   0.31317   0.32335
 Alpha virt. eigenvalues --    0.33025   0.33380   0.34350   0.36412   0.39397
 Alpha virt. eigenvalues --    0.40669   0.43035   0.43786   0.43917   0.44766
 Alpha virt. eigenvalues --    0.45741   0.46124   0.46147   0.46721   0.47657
 Alpha virt. eigenvalues --    0.47697   0.48838   0.49444   0.50283   0.50554
 Alpha virt. eigenvalues --    0.50970   0.51769   0.53239   0.54064   0.54208
 Alpha virt. eigenvalues --    0.54578   0.56174   0.56823   0.57121   0.57681
 Alpha virt. eigenvalues --    0.58303   0.58744   0.59726   0.60795   0.60834
 Alpha virt. eigenvalues --    0.61747   0.62508   0.63312   0.64130   0.64808
 Alpha virt. eigenvalues --    0.65036   0.65217   0.65864   0.66595   0.67509
 Alpha virt. eigenvalues --    0.68214   0.68814   0.69298   0.69338   0.70580
 Alpha virt. eigenvalues --    0.71730   0.73543   0.75872   0.79097   0.81063
 Alpha virt. eigenvalues --    0.81161   0.81380   0.81827   0.82942   0.83135
 Alpha virt. eigenvalues --    0.83486   0.83773   0.84332   0.84394   0.84729
 Alpha virt. eigenvalues --    0.84961   0.85460   0.85558   0.86882   0.86928
 Alpha virt. eigenvalues --    0.87401   0.89043   0.89059   0.89601   0.90020
 Alpha virt. eigenvalues --    0.90769   0.92129   0.92499   0.92693   0.94298
 Alpha virt. eigenvalues --    0.95036   0.95554   0.95589   0.96141   0.96582
 Alpha virt. eigenvalues --    0.97435   0.98093   0.98858   0.99521   1.00038
 Alpha virt. eigenvalues --    1.02195   1.02778   1.03600   1.04700   1.05552
 Alpha virt. eigenvalues --    1.05914   1.07324   1.11314   1.11458   1.16171
 Alpha virt. eigenvalues --    1.18359   1.20172   1.20831   1.23504   1.23723
 Alpha virt. eigenvalues --    1.24529   1.25084   1.26173   1.27525   1.27957
 Alpha virt. eigenvalues --    1.30589   1.30825   1.32447   1.32619   1.34794
 Alpha virt. eigenvalues --    1.36917   1.41156   1.42673   1.45651   1.48158
 Alpha virt. eigenvalues --    1.48963   1.50867   1.54327   1.54789   1.55109
 Alpha virt. eigenvalues --    1.56796   1.57488   1.58338   1.59838   1.62047
 Alpha virt. eigenvalues --    1.62409   1.65084   1.66764   1.69228   1.71599
 Alpha virt. eigenvalues --    1.76085   1.76682   1.76695   1.81164   1.81774
 Alpha virt. eigenvalues --    1.82023   1.84449   1.86264   1.86760   1.88199
 Alpha virt. eigenvalues --    1.90732   1.92488   1.93022   1.93081   1.93566
 Alpha virt. eigenvalues --    1.94957   1.96639   1.99780   2.01721   2.02448
 Alpha virt. eigenvalues --    2.04442   2.05114   2.05882   2.09615   2.16873
 Alpha virt. eigenvalues --    2.17822   2.19139   2.23231   2.24774   2.25831
 Alpha virt. eigenvalues --    2.26170   2.27622   2.29314   2.29735   2.32144
 Alpha virt. eigenvalues --    2.32415   2.34965   2.35608   2.38755   2.39480
 Alpha virt. eigenvalues --    2.41366   2.43001   2.45434   2.47106   2.48178
 Alpha virt. eigenvalues --    2.49334   2.52188   2.53383   2.53968   2.55213
 Alpha virt. eigenvalues --    2.56148   2.58249   2.63169   2.63479   2.67275
 Alpha virt. eigenvalues --    2.69009   2.69642   2.70207   2.70370   2.73049
 Alpha virt. eigenvalues --    2.73342   2.74328   2.75829   2.76102   2.77508
 Alpha virt. eigenvalues --    2.77648   2.78648   2.83028   2.83238   2.83511
 Alpha virt. eigenvalues --    2.86018   2.89800   2.96217   2.98247   3.09440
 Alpha virt. eigenvalues --    3.09515   3.09646   3.12724   3.13443   3.17018
 Alpha virt. eigenvalues --    3.20774   3.21705   3.21972   3.27437   3.32600
 Alpha virt. eigenvalues --    3.35501   3.39150   3.47325   3.51969   3.58791
 Alpha virt. eigenvalues --    3.69273   3.69998   3.72826   3.79019   3.92178
 Alpha virt. eigenvalues --    3.99405   4.04707   4.07425   4.10030   4.34776
 Alpha virt. eigenvalues --    4.80233   4.81888   9.76404   9.78412   9.79957
 Alpha virt. eigenvalues --    9.83496   9.84670  23.38833  23.53878  23.84620
 Alpha virt. eigenvalues --   23.85873  23.88927  23.89642  23.95122  24.02164
 Alpha virt. eigenvalues --   24.03498  24.08003  24.10955  24.15661  25.79431
 Alpha virt. eigenvalues --   25.81649  25.85148  25.93189  25.98188  26.09735
 Alpha virt. eigenvalues --   26.16470  26.20859  26.31915  26.34016  26.57540
 Alpha virt. eigenvalues --   26.59070  26.62965  26.74657  26.96470 215.75492
 Alpha virt. eigenvalues --  215.77778 215.79621 215.84437 215.84980
          Condensed to atoms (all electrons):
               1          2          3          4          5          6
     1  C   30.602186  -1.299574  -4.631338  -1.681612  -4.595873  -1.242855
     2  C   -1.299574  18.505975  -5.600545  -2.472806   6.501990  -2.998957
     3  C   -4.631338  -5.600545  28.900064  -1.446023 -10.476195   6.508705
     4  C   -1.681612  -2.472806  -1.446023  16.648632  -1.452498  -2.472656
     5  C   -4.595873   6.501990 -10.476195  -1.452498  28.883214  -5.598881
     6  C   -1.242855  -2.998957   6.508705  -2.472656  -5.598881  18.485440
     7  C    6.733933  -2.766335  -4.912317  -0.211219  -4.909236  -2.764830
     8  C   -1.991435  -1.128575  -0.273371  -0.192085  -0.273928  -1.127548
     9  C    2.507490  -0.387140   0.082491  -0.088293   0.083629  -0.377056
    10  C   -4.738006   0.600287   0.005010   0.089827   0.003003   0.585340
    11  C    1.001471  -0.597310  -0.041587   0.000682  -0.040424  -0.593041
    12  C  -14.045528  -0.667001  -1.787903   0.283544  -1.797392  -0.717123
    13  H    0.104159   0.065082   0.091106   0.045882   0.055714  -0.030274
    14  H    0.103833  -0.030219   0.055614   0.046039   0.091726   0.064691
    15  H    0.136681   0.048400   0.019249   0.003808   0.019239   0.048841
    16  H   -0.007278   0.001324  -0.000036   0.000094  -0.000034   0.001311
    17  H    0.019309  -0.000075   0.000037   0.000028   0.000039  -0.000038
    18  Cl  -1.666031  -0.155804  -0.339159   0.006880  -0.341126  -0.162701
    19  Cl   0.047124  -0.724588   0.641783  -0.341958  -0.785715  -0.019895
    20  Cl  -0.006843  -0.053754  -0.005238   0.000841  -0.005227  -0.053338
    21  Cl   0.016848  -0.152822   0.359024  -1.090253   0.358257  -0.152335
    22  Cl   0.050460  -0.025495  -0.785458  -0.341895   0.641088  -0.723285
               7          8          9         10         11         12
     1  C    6.733933  -1.991435   2.507490  -4.738006   1.001471 -14.045528
     2  C   -2.766335  -1.128575  -0.387140   0.600287  -0.597310  -0.667001
     3  C   -4.912317  -0.273371   0.082491   0.005010  -0.041587  -1.787903
     4  C   -0.211219  -0.192085  -0.088293   0.089827   0.000682   0.283544
     5  C   -4.909236  -0.273928   0.083629   0.003003  -0.040424  -1.797392
     6  C   -2.764830  -1.127548  -0.377056   0.585340  -0.593041  -0.717123
     7  C   27.084210  -4.959251  -1.935718  -5.719743   2.031354  -0.426141
     8  C   -4.959251  15.701057  -0.552894   3.186599  -1.429748  -1.446336
     9  C   -1.935718  -0.552894   9.870876  -0.357268  -0.284354  -2.609718
    10  C   -5.719743   3.186599  -0.357268  20.573468  -8.344533  -0.316904
    11  C    2.031354  -1.429748  -0.284354  -8.344533  18.994403  -5.171542
    12  C   -0.426141  -1.446336  -2.609718  -0.316904  -5.171542  35.716232
    13  H    0.026006   0.000040  -0.000271   0.000003  -0.000217   0.001659
    14  H    0.026031   0.000033  -0.000272   0.000004  -0.000219   0.001672
    15  H   -0.021771   0.298534  -0.042282  -0.034299   0.001496  -0.120781
    16  H    0.008092   0.022211   0.347089   0.019069  -0.032860  -0.009866
    17  H    0.084896  -0.066542  -0.022955   0.217299   0.114465   0.005760
    18  Cl  -1.126335  -0.011388   0.015324   1.455077   0.043359   0.485100
    19  Cl   0.076614   0.217450   0.170294  -0.213911   0.101975  -0.264485
    20  Cl  -0.276091   0.175530  -0.015592  -0.374772  -0.781708   0.899716
    21  Cl  -0.057675   0.001729   0.003372  -0.001274   0.001055  -0.056542
    22  Cl   0.079479   0.217186   0.169904  -0.214073   0.102852  -0.265769
              13         14         15         16         17         18
     1  C    0.104159   0.103833   0.136681  -0.007278   0.019309  -1.666031
     2  C    0.065082  -0.030219   0.048400   0.001324  -0.000075  -0.155804
     3  C    0.091106   0.055614   0.019249  -0.000036   0.000037  -0.339159
     4  C    0.045882   0.046039   0.003808   0.000094   0.000028   0.006880
     5  C    0.055714   0.091726   0.019239  -0.000034   0.000039  -0.341126
     6  C   -0.030274   0.064691   0.048841   0.001311  -0.000038  -0.162701
     7  C    0.026006   0.026031  -0.021771   0.008092   0.084896  -1.126335
     8  C    0.000040   0.000033   0.298534   0.022211  -0.066542  -0.011388
     9  C   -0.000271  -0.000272  -0.042282   0.347089  -0.022955   0.015324
    10  C    0.000003   0.000004  -0.034299   0.019069   0.217299   1.455077
    11  C   -0.000217  -0.000219   0.001496  -0.032860   0.114465   0.043359
    12  C    0.001659   0.001672  -0.120781  -0.009866   0.005760   0.485100
    13  H    0.493131  -0.000230  -0.000002   0.000000  -0.000000  -0.000409
    14  H   -0.000230   0.493120  -0.000002   0.000000  -0.000000  -0.000407
    15  H   -0.000002  -0.000002   0.533438  -0.007015  -0.000217  -0.004389
    16  H    0.000000   0.000000  -0.007015   0.526441  -0.007595   0.001044
    17  H   -0.000000  -0.000000  -0.000217  -0.007595   0.509255  -0.003104
    18  Cl  -0.000409  -0.000407  -0.004389   0.001044  -0.003104  18.458778
    19  Cl   0.000277  -0.007872  -0.005282  -0.000667  -0.000131   0.041302
    20  Cl  -0.000005  -0.000005  -0.000019  -0.000169  -0.004043  -0.300028
    21  Cl  -0.013245  -0.013240   0.000121  -0.000001   0.000000   0.003079
    22  Cl  -0.007865   0.000277  -0.005313  -0.000666  -0.000130   0.041278
              19         20         21         22
     1  C    0.047124  -0.006843   0.016848   0.050460
     2  C   -0.724588  -0.053754  -0.152822  -0.025495
     3  C    0.641783  -0.005238   0.359024  -0.785458
     4  C   -0.341958   0.000841  -1.090253  -0.341895
     5  C   -0.785715  -0.005227   0.358257   0.641088
     6  C   -0.019895  -0.053338  -0.152335  -0.723285
     7  C    0.076614  -0.276091  -0.057675   0.079479
     8  C    0.217450   0.175530   0.001729   0.217186
     9  C    0.170294  -0.015592   0.003372   0.169904
    10  C   -0.213911  -0.374772  -0.001274  -0.214073
    11  C    0.101975  -0.781708   0.001055   0.102852
    12  C   -0.264485   0.899716  -0.056542  -0.265769
    13  H    0.000277  -0.000005  -0.013245  -0.007865
    14  H   -0.007872  -0.000005  -0.013240   0.000277
    15  H   -0.005282  -0.000019   0.000121  -0.005313
    16  H   -0.000667  -0.000169  -0.000001  -0.000666
    17  H   -0.000131  -0.004043   0.000000  -0.000130
    18  Cl   0.041302  -0.300028   0.003079   0.041278
    19  Cl  17.744636   0.000695  -0.025504  -0.046368
    20  Cl   0.000695  17.346067   0.000031   0.000699
    21  Cl  -0.025504   0.000031  17.416553  -0.025517
    22  Cl  -0.046368   0.000699  -0.025517  17.744562
 Mulliken charges:
               1
     1  C    0.582878
     2  C   -0.662059
     3  C   -0.363912
     4  C    0.665043
     5  C   -0.361369
     6  C   -0.659516
     7  C   -0.063951
     8  C   -0.367266
     9  C   -0.576654
    10  C   -0.420204
    11  C    0.924430
    12  C   -1.690651
    13  H    0.169460
    14  H    0.169426
    15  H    0.131566
    16  H    0.139509
    17  H    0.153742
    18  Cl   0.559661
    19  Cl   0.394226
    20  Cl   0.453254
    21  Cl   0.428338
    22  Cl   0.394049
 Sum of Mulliken charges =  -0.00000
 Mulliken charges with hydrogens summed into heavy atoms:
               1
     1  C    0.582878
     2  C   -0.662059
     3  C   -0.194452
     4  C    0.665043
     5  C   -0.191943
     6  C   -0.659516
     7  C   -0.063951
     8  C   -0.235701
     9  C   -0.437145
    10  C   -0.266462
    11  C    0.924430
    12  C   -1.690651
    18  Cl   0.559661
    19  Cl   0.394226
    20  Cl   0.453254
    21  Cl   0.428338
    22  Cl   0.394049
 Electronic spatial extent (au):  <R**2>=           6523.6266
 Charge=             -0.0000 electrons
 Dipole moment (field-independent basis, Debye):
    X=              0.1882    Y=             -0.0033    Z=             -2.3812  Tot=              2.3886
 Quadrupole moment (field-independent basis, Debye-Ang):
   XX=           -130.1618   YY=           -133.6378   ZZ=           -127.9743
   XY=              0.0058   XZ=              6.8664   YZ=              0.0074
 Traceless Quadrupole moment (field-independent basis, Debye-Ang):
   XX=              0.4295   YY=             -3.0465   ZZ=              2.6170
   XY=              0.0058   XZ=              6.8664   YZ=              0.0074
 Octapole moment (field-independent basis, Debye-Ang**2):
  XXX=            -23.8194  YYY=              0.0384  ZZZ=             -1.5861  XYY=             13.2800
  XXY=             -0.0195  XXZ=            -17.5784  XZZ=            -16.5332  YZZ=             -0.0268
  YYZ=             10.1229  XYZ=             -0.0319
 Hexadecapole moment (field-independent basis, Debye-Ang**3):
 XXXX=          -6027.5612 YYYY=          -1471.6972 ZZZZ=           -999.1962 XXXY=              0.0499
 XXXZ=             66.7146 YYYX=             -0.0394 YYYZ=             -0.1008 ZZZX=             10.2886
 ZZZY=              0.1554 XXYY=          -1244.0990 XXZZ=          -1154.5154 YYZZ=           -452.9499
 XXYZ=              0.0162 YYXZ=             -9.3175 ZZXY=              0.0359
 N-N= 1.762186484985D+03 E-N=-1.006133310436D+04  KE= 2.754123201731D+03
 1\1\GINC-CN079\FOpt\RB3LYP\6-311+G(d,p)\C12H5Cl5\20CY91R06\03-Apr-2022
 \0\\# opt b3lyp/6-311+g(d,p) scf=xqc\\Title Card Required\\0,1\C,-0.13
 37921585,0.0887864537,-0.0028157926\C,0.6535169692,0.4069675907,-1.118
 4816885\C,1.361292715,1.5998455986,-1.2218162796\C,1.2815789827,2.5085
 1468,-0.1744510534\C,0.5188293074,2.2473101212,0.9563546853\C,-0.17470
 86641,1.0433991384,1.023065642\C,-0.8664658918,-1.2068430007,0.0989167
 222\C,-0.2348271461,-2.3120553861,0.6719183069\C,-0.8935693,-3.5317540
 4,0.7793382747\C,-2.1963604401,-3.6622314217,0.3136588969\C,-2.8408778
 811,-2.5696430477,-0.2605583097\C,-2.1811622677,-1.3404053576,-0.37040
 53534\H,1.956914295,1.8110745903,-2.0984376399\H,0.4617617019,2.959699
 5896,1.7669573951\H,0.7807380896,-2.2058559528,1.0337710073\H,-0.39418
 25288,-4.3831666755,1.2256185731\H,-2.7237910693,-4.6043570631,0.38935
 57623\Cl,-2.9799620338,0.0353327109,-1.0884585361\Cl,-1.1350758824,0.7
 360481492,2.4563765285\Cl,-4.4790389922,-2.7732764214,-0.8339826822\Cl
 ,2.1645684651,4.0182365804,-0.2817887093\Cl,0.7635655499,-0.7222013264
 ,-2.4543603496\\Version=EM64L-G16RevB.01\State=1-A\HF=-2761.5180733\RM
 SD=3.135e-09\RMSF=3.694e-05\Dipole=0.6826872,-0.4971081,0.4122538\Quad
 rupole=-3.7305334,5.295498,-1.5649646,-1.0895735,-0.2416989,-2.6683932
 \PG=C01 [X(C12H5Cl5)]\\@


 THE TRULY SUCCESSFUL PERFORMANCE OF RESEARCHES IN
 INORGANIC CHEMISTRY IS POSSIBLE ONLY TO ONE WHO IS NOT
 ONLY A THEORETICAL CHEMIST, BUT ALSO AN ACCOMPLISHED
 ANALYST AND, MOREOVER, NOT MERELY A PRACTICALLY TRAINED,
 MECHANICAL WORKER, BUT A THINKING CREATIVE ARTIST.
   --  CLEMENS WINKLER, BER. 33, 1697(1900)
 Job cpu time:       1 days  4 hours 57 minutes 12.7 seconds.
 Elapsed time:       0 days  1 hours 51 minutes 29.6 seconds.
 File lengths (MBytes):  RWF=    122 Int=      0 D2E=      0 Chk=     19 Scr=      1
 Normal termination of Gaussian 16 at Sun Apr  3 13:24:24 2022.
