 Entering Gaussian System, Link 0=g16
 Input=2,2prime,3,5,6-Pentachlorobiphenyl1.gjf
 Output=2,2prime,3,5,6-Pentachlorobiphenyl1.log
 Initial command:
 /home/apps/g16/l1.exe "./Gau-91005.inp" -scrdir="./"
 Entering Link 1 = /home/apps/g16/l1.exe PID=     91006.
  
 Copyright (c) 1988-2017, Gaussian, Inc.  All Rights Reserved.
  
 This is part of the Gaussian(R) 16 program.  It is based on
 the Gaussian(R) 09 system (copyright 2009, Gaussian, Inc.),
 the Gaussian(R) 03 system (copyright 2003, Gaussian, Inc.),
 the Gaussian(R) 98 system (copyright 1998, Gaussian, Inc.),
 the Gaussian(R) 94 system (copyright 1995, Gaussian, Inc.),
 the Gaussian 92(TM) system (copyright 1992, Gaussian, Inc.),
 the Gaussian 90(TM) system (copyright 1990, Gaussian, Inc.),
 the Gaussian 88(TM) system (copyright 1988, Gaussian, Inc.),
 the Gaussian 86(TM) system (copyright 1986, Carnegie Mellon
 University), and the Gaussian 82(TM) system (copyright 1983,
 Carnegie Mellon University). Gaussian is a federally registered
 trademark of Gaussian, Inc.
  
 This software contains proprietary and confidential information,
 including trade secrets, belonging to Gaussian, Inc.
  
 This software is provided under written license and may be
 used, copied, transmitted, or stored only in accord with that
 written license.
  
 The following legend is applicable only to US Government
 contracts under FAR:
  
                    RESTRICTED RIGHTS LEGEND
  
 Use, reproduction and disclosure by the US Government is
 subject to restrictions as set forth in subparagraphs (a)
 and (c) of the Commercial Computer Software - Restricted
 Rights clause in FAR 52.227-19.
  
 Gaussian, Inc.
 340 Quinnipiac St., Bldg. 40, Wallingford CT 06492
  
  
 ---------------------------------------------------------------
 Warning -- This program may not be used in any manner that
 competes with the business of Gaussian, Inc. or will provide
 assistance to any competitor of Gaussian, Inc.  The licensee
 of this program is prohibited from giving any competitor of
 Gaussian, Inc. access to this program.  By using this program,
 the user acknowledges that Gaussian, Inc. is engaged in the
 business of creating and licensing software in the field of
 computational chemistry and represents and warrants to the
 licensee that it is not a competitor of Gaussian, Inc. and that
 it will not use this program in any manner prohibited above.
 ---------------------------------------------------------------
  

 Cite this work as:
 Gaussian 16, Revision B.01,
 M. J. Frisch, G. W. Trucks, H. B. Schlegel, G. E. Scuseria, 
 M. A. Robb, J. R. Cheeseman, G. Scalmani, V. Barone, 
 G. A. Petersson, H. Nakatsuji, X. Li, M. Caricato, A. V. Marenich, 
 J. Bloino, B. G. Janesko, R. Gomperts, B. Mennucci, H. P. Hratchian, 
 J. V. Ortiz, A. F. Izmaylov, J. L. Sonnenberg, D. Williams-Young, 
 F. Ding, F. Lipparini, F. Egidi, J. Goings, B. Peng, A. Petrone, 
 T. Henderson, D. Ranasinghe, V. G. Zakrzewski, J. Gao, N. Rega, 
 G. Zheng, W. Liang, M. Hada, M. Ehara, K. Toyota, R. Fukuda, 
 J. Hasegawa, M. Ishida, T. Nakajima, Y. Honda, O. Kitao, H. Nakai, 
 T. Vreven, K. Throssell, J. A. Montgomery, Jr., J. E. Peralta, 
 F. Ogliaro, M. J. Bearpark, J. J. Heyd, E. N. Brothers, K. N. Kudin, 
 V. N. Staroverov, T. A. Keith, R. Kobayashi, J. Normand, 
 K. Raghavachari, A. P. Rendell, J. C. Burant, S. S. Iyengar, 
 J. Tomasi, M. Cossi, J. M. Millam, M. Klene, C. Adamo, R. Cammi, 
 J. W. Ochterski, R. L. Martin, K. Morokuma, O. Farkas, 
 J. B. Foresman, and D. J. Fox, Gaussian, Inc., Wallingford CT, 2016.
 
 ******************************************
 Gaussian 16:  EM64L-G16RevB.01 20-Dec-2017
                 6-Apr-2022 
 ******************************************
 %mem=16GB
 %nprocshared=8
 Will use up to    8 processors via shared memory.
 --------------------------------
 # opt b3lyp/6-311+g(d,p) scf=xqc
 --------------------------------
 1/18=20,19=15,26=3,38=1/1,3;
 2/9=110,12=2,17=6,18=5,40=1/2;
 3/5=4,6=6,7=111,11=2,25=1,30=1,71=1,74=-5/1,2,3;
 4//1;
 5/5=2,8=3,13=1,38=5/2,8;
 6/7=2,8=2,9=2,10=2,28=1/1;
 7//1,2,3,16;
 1/18=20,19=15,26=3/3(2);
 2/9=110/2;
 99//99;
 2/9=110/2;
 3/5=4,6=6,7=111,11=2,25=1,30=1,71=1,74=-5/1,2,3;
 4/5=5,16=3,69=1/1;
 5/5=2,8=3,13=1,38=5/2,8;
 7//1,2,3,16;
 1/18=20,19=15,26=3/3(-5);
 2/9=110/2;
 6/7=2,8=2,9=2,10=2,19=2,28=1/1;
 99/9=1/99;
 -------------------
 Title Card Required
 -------------------
 Symbolic Z-matrix:
 Charge =  0 Multiplicity = 1
 C                     0.02846   0.13349  -0.00393 
 C                     1.36084   0.16337  -0.43727 
 C                     2.06873   1.37282  -0.44334 
 C                     1.44425   2.55239  -0.01607 
 C                     0.11186   2.5225    0.41728 
 C                    -0.59603   1.31305   0.42335 
 C                    -0.99989  -1.62347   0.0049 
 C                    -0.3754   -2.80304  -0.42238 
 C                    -1.0833   -4.01249  -0.4163 
 C                    -2.41568  -4.04237   0.01705 
 C                    -3.04016  -2.86281   0.44432 
 C                    -2.33227  -1.65336   0.43825 
 H                     1.83765  -0.73725  -0.7635 
 H                     3.08604   1.39564  -0.77421 
 H                     1.98474   3.47583  -0.02071 
 H                    -0.36495   3.42313   0.74351 
 H                    -2.95617  -4.96582   0.02169 
 Cl                   -3.11656  -0.17196   0.97486 
 Cl                   -2.26935   1.27552   0.96758 
 Cl                   -4.71348  -2.90034   0.98856 
 Cl                   -0.29901  -5.49389  -0.95291 
 Cl                    1.29792  -2.7655   -0.96661 
 

 GradGradGradGradGradGradGradGradGradGradGradGradGradGradGradGradGradGrad
 Berny optimization.
 Initialization pass.
                           ----------------------------
                           !    Initial Parameters    !
                           ! (Angstroms and Degrees)  !
 --------------------------                            --------------------------
 ! Name  Definition              Value          Derivative Info.                !
 --------------------------------------------------------------------------------
 ! R1    R(1,2)                  1.4014         estimate D2E/DX2                !
 ! R2    R(1,6)                  1.4014         estimate D2E/DX2                !
 ! R3    R(2,3)                  1.4014         estimate D2E/DX2                !
 ! R4    R(2,13)                 1.07           estimate D2E/DX2                !
 ! R5    R(3,4)                  1.4014         estimate D2E/DX2                !
 ! R6    R(3,14)                 1.07           estimate D2E/DX2                !
 ! R7    R(4,5)                  1.4014         estimate D2E/DX2                !
 ! R8    R(4,15)                 1.07           estimate D2E/DX2                !
 ! R9    R(5,6)                  1.4014         estimate D2E/DX2                !
 ! R10   R(5,16)                 1.07           estimate D2E/DX2                !
 ! R11   R(6,19)                 1.76           estimate D2E/DX2                !
 ! R12   R(7,8)                  1.4014         estimate D2E/DX2                !
 ! R13   R(7,12)                 1.4014         estimate D2E/DX2                !
 ! R14   R(8,9)                  1.4014         estimate D2E/DX2                !
 ! R15   R(8,22)                 1.76           estimate D2E/DX2                !
 ! R16   R(9,10)                 1.4014         estimate D2E/DX2                !
 ! R17   R(9,21)                 1.76           estimate D2E/DX2                !
 ! R18   R(10,11)                1.4014         estimate D2E/DX2                !
 ! R19   R(10,17)                1.07           estimate D2E/DX2                !
 ! R20   R(11,12)                1.4014         estimate D2E/DX2                !
 ! R21   R(11,20)                1.76           estimate D2E/DX2                !
 ! R22   R(12,18)                1.76           estimate D2E/DX2                !
 ! R23   R(18,19)                1.6772         estimate D2E/DX2                !
 ! A1    A(2,1,6)              120.0            estimate D2E/DX2                !
 ! A2    A(1,2,3)              120.0            estimate D2E/DX2                !
 ! A3    A(1,2,13)             120.0            estimate D2E/DX2                !
 ! A4    A(3,2,13)             120.0            estimate D2E/DX2                !
 ! A5    A(2,3,4)              120.0            estimate D2E/DX2                !
 ! A6    A(2,3,14)             120.0            estimate D2E/DX2                !
 ! A7    A(4,3,14)             120.0            estimate D2E/DX2                !
 ! A8    A(3,4,5)              120.0            estimate D2E/DX2                !
 ! A9    A(3,4,15)             120.0            estimate D2E/DX2                !
 ! A10   A(5,4,15)             120.0            estimate D2E/DX2                !
 ! A11   A(4,5,6)              120.0            estimate D2E/DX2                !
 ! A12   A(4,5,16)             120.0            estimate D2E/DX2                !
 ! A13   A(6,5,16)             120.0            estimate D2E/DX2                !
 ! A14   A(1,6,5)              120.0            estimate D2E/DX2                !
 ! A15   A(1,6,19)             120.0            estimate D2E/DX2                !
 ! A16   A(5,6,19)             120.0            estimate D2E/DX2                !
 ! A17   A(8,7,12)             120.0            estimate D2E/DX2                !
 ! A18   A(7,8,9)              120.0            estimate D2E/DX2                !
 ! A19   A(7,8,22)             120.0            estimate D2E/DX2                !
 ! A20   A(9,8,22)             120.0            estimate D2E/DX2                !
 ! A21   A(8,9,10)             120.0            estimate D2E/DX2                !
 ! A22   A(8,9,21)             120.0            estimate D2E/DX2                !
 ! A23   A(10,9,21)            120.0            estimate D2E/DX2                !
 ! A24   A(9,10,11)            120.0            estimate D2E/DX2                !
 ! A25   A(9,10,17)            120.0            estimate D2E/DX2                !
 ! A26   A(11,10,17)           120.0            estimate D2E/DX2                !
 ! A27   A(10,11,12)           120.0            estimate D2E/DX2                !
 ! A28   A(10,11,20)           120.0            estimate D2E/DX2                !
 ! A29   A(12,11,20)           120.0            estimate D2E/DX2                !
 ! A30   A(7,12,11)            120.0            estimate D2E/DX2                !
 ! A31   A(7,12,18)            120.0            estimate D2E/DX2                !
 ! A32   A(11,12,18)           120.0            estimate D2E/DX2                !
 ! A33   A(12,18,19)           120.0            estimate D2E/DX2                !
 ! A34   A(6,19,18)            120.0            estimate D2E/DX2                !
 ! D1    D(6,1,2,3)              0.0001         estimate D2E/DX2                !
 ! D2    D(6,1,2,13)           180.0            estimate D2E/DX2                !
 ! D3    D(2,1,6,5)             -0.0001         estimate D2E/DX2                !
 ! D4    D(2,1,6,19)           180.0            estimate D2E/DX2                !
 ! D5    D(1,2,3,4)              0.0            estimate D2E/DX2                !
 ! D6    D(1,2,3,14)           180.0            estimate D2E/DX2                !
 ! D7    D(13,2,3,4)          -179.9999         estimate D2E/DX2                !
 ! D8    D(13,2,3,14)            0.0001         estimate D2E/DX2                !
 ! D9    D(2,3,4,5)             -0.0001         estimate D2E/DX2                !
 ! D10   D(2,3,4,15)           180.0            estimate D2E/DX2                !
 ! D11   D(14,3,4,5)           179.9999         estimate D2E/DX2                !
 ! D12   D(14,3,4,15)            0.0            estimate D2E/DX2                !
 ! D13   D(3,4,5,6)              0.0001         estimate D2E/DX2                !
 ! D14   D(3,4,5,16)          -179.9999         estimate D2E/DX2                !
 ! D15   D(15,4,5,6)          -180.0            estimate D2E/DX2                !
 ! D16   D(15,4,5,16)            0.0            estimate D2E/DX2                !
 ! D17   D(4,5,6,1)              0.0            estimate D2E/DX2                !
 ! D18   D(4,5,6,19)           179.9999         estimate D2E/DX2                !
 ! D19   D(16,5,6,1)           180.0            estimate D2E/DX2                !
 ! D20   D(16,5,6,19)           -0.0001         estimate D2E/DX2                !
 ! D21   D(1,6,19,18)            0.0004         estimate D2E/DX2                !
 ! D22   D(5,6,19,18)         -179.9996         estimate D2E/DX2                !
 ! D23   D(12,7,8,9)             0.0001         estimate D2E/DX2                !
 ! D24   D(12,7,8,22)         -179.9998         estimate D2E/DX2                !
 ! D25   D(8,7,12,11)           -0.0001         estimate D2E/DX2                !
 ! D26   D(8,7,12,18)          179.9999         estimate D2E/DX2                !
 ! D27   D(7,8,9,10)             0.0            estimate D2E/DX2                !
 ! D28   D(7,8,9,21)           180.0            estimate D2E/DX2                !
 ! D29   D(22,8,9,10)          179.9998         estimate D2E/DX2                !
 ! D30   D(22,8,9,21)           -0.0002         estimate D2E/DX2                !
 ! D31   D(8,9,10,11)            0.0            estimate D2E/DX2                !
 ! D32   D(8,9,10,17)         -179.9999         estimate D2E/DX2                !
 ! D33   D(21,9,10,11)         180.0            estimate D2E/DX2                !
 ! D34   D(21,9,10,17)           0.0001         estimate D2E/DX2                !
 ! D35   D(9,10,11,12)           0.0            estimate D2E/DX2                !
 ! D36   D(9,10,11,20)        -179.9998         estimate D2E/DX2                !
 ! D37   D(17,10,11,12)        179.9999         estimate D2E/DX2                !
 ! D38   D(17,10,11,20)          0.0001         estimate D2E/DX2                !
 ! D39   D(10,11,12,7)           0.0            estimate D2E/DX2                !
 ! D40   D(10,11,12,18)       -179.9999         estimate D2E/DX2                !
 ! D41   D(20,11,12,7)         179.9999         estimate D2E/DX2                !
 ! D42   D(20,11,12,18)         -0.0001         estimate D2E/DX2                !
 ! D43   D(7,12,18,19)           0.0004         estimate D2E/DX2                !
 ! D44   D(11,12,18,19)       -179.9997         estimate D2E/DX2                !
 ! D45   D(12,18,19,6)          -0.0006         estimate D2E/DX2                !
 --------------------------------------------------------------------------------
 Trust Radius=3.00D-01 FncErr=1.00D-07 GrdErr=1.00D-06 EigMax=2.50D+02 EigMin=1.00D-04
 Number of steps in this run=    112 maximum allowed number of steps=    132.
 GradGradGradGradGradGradGradGradGradGradGradGradGradGradGradGradGradGrad

                          Input orientation:                          
 ---------------------------------------------------------------------
 Center     Atomic      Atomic             Coordinates (Angstroms)
 Number     Number       Type             X           Y           Z
 ---------------------------------------------------------------------
      1          6           0        0.028458    0.133486   -0.003925
      2          6           0        1.360839    0.163372   -0.437272
      3          6           0        2.068733    1.372823   -0.443344
      4          6           0        1.444246    2.552388   -0.016069
      5          6           0        0.111864    2.522503    0.417275
      6          6           0       -0.596030    1.313052    0.423348
      7          6           0       -0.999892   -1.623472    0.004897
      8          6           0       -0.375404   -2.803037   -0.422378
      9          6           0       -1.083297   -4.012488   -0.416303
     10          6           0       -2.415677   -4.042375    0.017046
     11          6           0       -3.040164   -2.862810    0.444322
     12          6           0       -2.332271   -1.653358    0.438247
     13          1           0        1.837650   -0.737253   -0.763504
     14          1           0        3.086036    1.395641   -0.774214
     15          1           0        1.984738    3.475831   -0.020706
     16          1           0       -0.364947    3.423127    0.743507
     17          1           0       -2.956169   -4.965818    0.021686
     18         17           0       -3.116556   -0.171958    0.974859
     19         17           0       -2.269350    1.275518    0.967581
     20         17           0       -4.713482   -2.900344    0.988564
     21         17           0       -0.299012   -5.493888   -0.952913
     22         17           0        1.297916   -2.765504   -0.966612
 ---------------------------------------------------------------------
                    Distance matrix (angstroms):
                    1          2          3          4          5
     1  C    0.000000
     2  C    1.401400   0.000000
     3  C    2.427296   1.401400   0.000000
     4  C    2.802800   2.427296   1.401400   0.000000
     5  C    2.427296   2.802800   2.427296   1.401400   0.000000
     6  C    1.401400   2.427296   2.802800   2.427296   1.401400
     7  C    2.035800   2.993555   4.312210   4.838600   4.312210
     8  C    2.993555   3.437200   4.838600   5.670695   5.413300
     9  C    4.312210   4.838600   6.240000   7.046010   6.695474
    10  C    4.838600   5.670695   7.046010   7.641400   7.046010
    11  C    4.312210   5.413300   6.695474   7.046010   6.240000
    12  C    2.993555   4.207863   5.413300   5.670695   4.838600
    13  H    2.146700   1.070000   2.146700   3.396345   3.872800
    14  H    3.396345   2.146700   1.070000   2.146700   3.396345
    15  H    3.872800   3.396345   2.146700   1.070000   2.146700
    16  H    3.396345   3.872800   3.396345   2.146700   1.070000
    17  H    5.908600   6.719806   8.102114   8.711400   8.102114
    18  Cl   3.307934   4.706764   5.593288   5.404157   4.241900
    19  Cl   2.743718   4.048303   4.562800   4.048303   2.743718
    20  Cl   5.716219   6.951025   8.143019   8.286084   7.281319
    21  Cl   5.716219   5.918242   7.281319   8.286084   8.143019
    22  Cl   3.307934   2.976990   4.241900   5.404157   5.593288
                    6          7          8          9         10
     6  C    0.000000
     7  C    2.993555   0.000000
     8  C    4.207863   1.401400   0.000000
     9  C    5.413300   2.427296   1.401400   0.000000
    10  C    5.670695   2.802800   2.427296   1.401400   0.000000
    11  C    4.838600   2.427296   2.802800   2.427296   1.401400
    12  C    3.437200   1.401400   2.427296   2.802800   2.427296
    13  H    3.396345   3.070418   3.046546   4.402232   5.442783
    14  H    3.872800   5.139733   5.452912   6.838077   7.776050
    15  H    3.396345   5.908600   6.719806   8.102114   8.711400
    16  H    2.146700   5.139733   6.334391   7.559733   7.776050
    17  H    6.719806   3.872800   3.396345   2.146700   1.070000
    18  Cl   2.976990   2.743718   4.048303   4.562800   4.048303
    19  Cl   1.760000   3.307934   4.706764   5.593288   5.404157
    20  Cl   5.918242   4.048303   4.562800   4.048303   2.743718
    21  Cl   6.951025   4.048303   2.743718   1.760000   2.743718
    22  Cl   4.706764   2.743718   1.760000   2.743718   4.048303
                   11         12         13         14         15
    11  C    0.000000
    12  C    1.401400   0.000000
    13  H    5.456181   4.435279   0.000000
    14  H    7.559733   6.334391   2.471400   0.000000
    15  H    8.102114   6.719806   4.280590   2.471400   0.000000
    16  H    6.838077   5.452912   4.942800   4.280590   2.471400
    17  H    2.146700   3.396345   6.440340   8.809645   9.781400
    18  Cl   2.743718   1.760000   5.280684   6.632403   6.349860
    19  Cl   4.241900   2.976990   4.890332   5.632800   4.890332
    20  Cl   1.760000   2.743718   7.118008   9.077189   9.302708
    21  Cl   4.048303   4.562800   5.217929   7.678288   9.302708
    22  Cl   4.562800   4.048303   2.108641   4.533157   6.349860
                   16         17         18         19         20
    16  H    0.000000
    17  H    8.809645   0.000000
    18  Cl   4.533157   4.890332   0.000000
    19  Cl   2.879094   6.349860   1.677200   0.000000
    20  Cl   7.678288   2.879094   3.161400   4.838600   0.000000
    21  Cl   9.077189   2.879094   6.322800   7.307216   5.475705
    22  Cl   6.632403   4.890332   5.475705   5.726810   6.322800
                   21         22
    21  Cl   0.000000
    22  Cl   3.161400   0.000000
 Stoichiometry    C12H5Cl5
 Framework group  C1[X(C12H5Cl5)]
 Deg. of freedom    60
 Full point group                 C1      NOp   1
 Largest Abelian subgroup         C1      NOp   1
 Largest concise Abelian subgroup C1      NOp   1
                         Standard orientation:                         
 ---------------------------------------------------------------------
 Center     Atomic      Atomic             Coordinates (Angstroms)
 Number     Number       Type             X           Y           Z
 ---------------------------------------------------------------------
      1          6           0        1.785175   -0.686763   -0.000000
      2          6           0        2.199509   -2.025512    0.000002
      3          6           0        3.566067   -2.336063    0.000004
      4          6           0        4.518290   -1.307864    0.000004
      5          6           0        4.103956    0.030885   -0.000001
      6          6           0        2.737398    0.341435   -0.000002
      7          6           0       -0.200011   -0.235630   -0.000002
      8          6           0       -1.152234   -1.263828   -0.000002
      9          6           0       -2.518792   -0.953278   -0.000002
     10          6           0       -2.933126    0.385471   -0.000001
     11          6           0       -1.980903    1.413670   -0.000001
     12          6           0       -0.614345    1.103119   -0.000001
     13          1           0        1.472465   -2.810565    0.000004
     14          1           0        3.882421   -3.358227    0.000007
     15          1           0        5.561688   -1.544976    0.000006
     16          1           0        4.831000    0.815938   -0.000003
     17          1           0       -3.976524    0.622583    0.000001
     18         17           0        0.581540    2.394421    0.000002
     19         17           0        2.217041    2.022753   -0.000006
     20         17           0       -2.501260    3.094987    0.000005
     21         17           0       -3.714677   -2.244579   -0.000002
     22         17           0       -0.631877   -2.945146    0.000001
 ---------------------------------------------------------------------
 Rotational constants (GHZ):           0.3629767           0.2500352           0.1480509
 Standard basis: 6-311+G(d,p) (5D, 7F)
 There are   461 symmetry adapted cartesian basis functions of A   symmetry.
 There are   444 symmetry adapted basis functions of A   symmetry.
   444 basis functions,   737 primitive gaussians,   461 cartesian basis functions
    81 alpha electrons       81 beta electrons
       nuclear repulsion energy      1794.2413990742 Hartrees.
 NAtoms=   22 NActive=   22 NUniq=   22 SFac= 1.00D+00 NAtFMM=   60 NAOKFM=F Big=F
 Integral buffers will be    131072 words long.
 Raffenetti 2 integral format.
 Two-electron integral symmetry is turned on.
 One-electron integrals computed using PRISM.
 NBasis=   444 RedAO= T EigKep=  2.20D-06  NBF=   444
 NBsUse=   438 1.00D-06 EigRej=  8.67D-07 NBFU=   438
 ExpMin= 4.38D-02 ExpMax= 1.06D+05 ExpMxC= 3.62D+03 IAcc=3 IRadAn=         5 AccDes= 0.00D+00
 Harris functional with IExCor=  402 and IRadAn=       5 diagonalized for initial guess.
 HarFok:  IExCor=  402 AccDes= 0.00D+00 IRadAn=         5 IDoV= 1 UseB2=F ITyADJ=14
 ICtDFT=  3500011 ScaDFX=  1.000000  1.000000  1.000000  1.000000
 FoFCou: FMM=F IPFlag=           0 FMFlag=      100000 FMFlg1=           0
         NFxFlg=           0 DoJE=T BraDBF=F KetDBF=T FulRan=T
         wScrn=  0.000000 ICntrl=       500 IOpCl=  0 I1Cent=   200000004 NGrid=           0
         NMat0=    1 NMatS0=      1 NMatT0=    0 NMatD0=    1 NMtDS0=    0 NMtDT0=    0
 Petite list used in FoFCou.
 Requested convergence on RMS density matrix=1.00D-08 within  32 cycles.
 Requested convergence on MAX density matrix=1.00D-06.
 Requested convergence on             energy=1.00D-06.
 No special actions if energy rises.
 EnCoef did     4 forward-backward iterations
 EnCoef did     4 forward-backward iterations
 EnCoef did     6 forward-backward iterations
 EnCoef did     9 forward-backward iterations
 Restarting incremental Fock formation.
 SCF Done:  E(RB3LYP) =  -2760.95086744     A.U. after   28 cycles
            NFock= 28  Conv=0.14D-08     -V/T= 2.0020
 QCSCF skips out because SCF is already converged.

 **********************************************************************

            Population analysis using the SCF Density.

 **********************************************************************

 Orbital symmetries:
       Occupied  (A) (A) (A) (A) (A) (A) (A) (A) (A) (A) (A) (A)
                 (A) (A) (A) (A) (A) (A) (A) (A) (A) (A) (A) (A)
                 (A) (A) (A) (A) (A) (A) (A) (A) (A) (A) (A) (A)
                 (A) (A) (A) (A) (A) (A) (A) (A) (A) (A) (A) (A)
                 (A) (A) (A) (A) (A) (A) (A) (A) (A) (A) (A) (A)
                 (A) (A) (A) (A) (A) (A) (A) (A) (A) (A) (A) (A)
                 (A) (A) (A) (A) (A) (A) (A) (A) (A)
       Virtual   (A) (A) (A) (A) (A) (A) (A) (A) (A) (A) (A) (A)
                 (A) (A) (A) (A) (A) (A) (A) (A) (A) (A) (A) (A)
                 (A) (A) (A) (A) (A) (A) (A) (A) (A) (A) (A) (A)
                 (A) (A) (A) (A) (A) (A) (A) (A) (A) (A) (A) (A)
                 (A) (A) (A) (A) (A) (A) (A) (A) (A) (A) (A) (A)
                 (A) (A) (A) (A) (A) (A) (A) (A) (A) (A) (A) (A)
                 (A) (A) (A) (A) (A) (A) (A) (A) (A) (A) (A) (A)
                 (A) (A) (A) (A) (A) (A) (A) (A) (A) (A) (A) (A)
                 (A) (A) (A) (A) (A) (A) (A) (A) (A) (A) (A) (A)
                 (A) (A) (A) (A) (A) (A) (A) (A) (A) (A) (A) (A)
                 (A) (A) (A) (A) (A) (A) (A) (A) (A) (A) (A) (A)
                 (A) (A) (A) (A) (A) (A) (A) (A) (A) (A) (A) (A)
                 (A) (A) (A) (A) (A) (A) (A) (A) (A) (A) (A) (A)
                 (A) (A) (A) (A) (A) (A) (A) (A) (A) (A) (A) (A)
                 (A) (A) (A) (A) (A) (A) (A) (A) (A) (A) (A) (A)
                 (A) (A) (A) (A) (A) (A) (A) (A) (A) (A) (A) (A)
                 (A) (A) (A) (A) (A) (A) (A) (A) (A) (A) (A) (A)
                 (A) (A) (A) (A) (A) (A) (A) (A) (A) (A) (A) (A)
                 (A) (A) (A) (A) (A) (A) (A) (A) (A) (A) (A) (A)
                 (A) (A) (A) (A) (A) (A) (A) (A) (A) (A) (A) (A)
                 (A) (A) (A) (A) (A) (A) (A) (A) (A) (A) (A) (A)
                 (A) (A) (A) (A) (A) (A) (A) (A) (A) (A) (A) (A)
                 (A) (A) (A) (A) (A) (A) (A) (A) (A) (A) (A) (A)
                 (A) (A) (A) (A) (A) (A) (A) (A) (A) (A) (A) (A)
                 (A) (A) (A) (A) (A) (A) (A) (A) (A) (A) (A) (A)
                 (A) (A) (A) (A) (A) (A) (A) (A) (A) (A) (A) (A)
                 (A) (A) (A) (A) (A) (A) (A) (A) (A) (A) (A) (A)
                 (A) (A) (A) (A) (A) (A) (A) (A) (A) (A) (A) (A)
                 (A) (A) (A) (A) (A) (A) (A) (A) (A) (A) (A) (A)
                 (A) (A) (A) (A) (A) (A) (A) (A) (A)
 The electronic state is 1-A.
 Alpha  occ. eigenvalues -- -101.63786-101.62093-101.56282-101.56107-101.56002
 Alpha  occ. eigenvalues --  -10.27919 -10.26292 -10.26049 -10.25712 -10.23661
 Alpha  occ. eigenvalues --  -10.22965 -10.22055 -10.22021 -10.20762 -10.20693
 Alpha  occ. eigenvalues --  -10.20288 -10.19686  -9.56096  -9.54640  -9.47714
 Alpha  occ. eigenvalues --   -9.47674  -9.47515  -7.32485  -7.31699  -7.31451
 Alpha  occ. eigenvalues --   -7.31212  -7.29951  -7.29487  -7.24200  -7.24123
 Alpha  occ. eigenvalues --   -7.23943  -7.23196  -7.23158  -7.23140  -7.23097
 Alpha  occ. eigenvalues --   -7.22998  -7.22980  -1.11355  -0.92848  -0.90744
 Alpha  occ. eigenvalues --   -0.88982  -0.86571  -0.85161  -0.82701  -0.78336
 Alpha  occ. eigenvalues --   -0.77643  -0.74474  -0.72788  -0.66607  -0.64284
 Alpha  occ. eigenvalues --   -0.62059  -0.60370  -0.58044  -0.54281  -0.52597
 Alpha  occ. eigenvalues --   -0.51870  -0.50441  -0.50200  -0.48242  -0.47440
 Alpha  occ. eigenvalues --   -0.45926  -0.44384  -0.43729  -0.43255  -0.41781
 Alpha  occ. eigenvalues --   -0.41020  -0.40660  -0.39095  -0.38175  -0.35740
 Alpha  occ. eigenvalues --   -0.35155  -0.34212  -0.32709  -0.32331  -0.32127
 Alpha  occ. eigenvalues --   -0.30749  -0.28865  -0.28166  -0.25897  -0.24735
 Alpha  occ. eigenvalues --   -0.12111
 Alpha virt. eigenvalues --   -0.08051  -0.05970  -0.05275  -0.04879  -0.03720
 Alpha virt. eigenvalues --   -0.02285  -0.01020   0.00129   0.00418   0.01310
 Alpha virt. eigenvalues --    0.01576   0.02045   0.03235   0.03463   0.03900
 Alpha virt. eigenvalues --    0.04165   0.04876   0.05708   0.05729   0.06170
 Alpha virt. eigenvalues --    0.06856   0.07286   0.07506   0.08025   0.08293
 Alpha virt. eigenvalues --    0.08390   0.09070   0.09836   0.10359   0.10460
 Alpha virt. eigenvalues --    0.10778   0.10957   0.11426   0.11434   0.11617
 Alpha virt. eigenvalues --    0.12837   0.13359   0.13483   0.14123   0.14261
 Alpha virt. eigenvalues --    0.14970   0.15124   0.15663   0.15992   0.16105
 Alpha virt. eigenvalues --    0.16127   0.16280   0.16604   0.17388   0.17930
 Alpha virt. eigenvalues --    0.18202   0.18417   0.19232   0.19715   0.20032
 Alpha virt. eigenvalues --    0.20575   0.20728   0.20806   0.21364   0.21990
 Alpha virt. eigenvalues --    0.22321   0.22980   0.23341   0.24344   0.24709
 Alpha virt. eigenvalues --    0.24750   0.25068   0.25285   0.25526   0.26319
 Alpha virt. eigenvalues --    0.26406   0.27196   0.27476   0.28175   0.28369
 Alpha virt. eigenvalues --    0.28597   0.28993   0.29544   0.30599   0.31419
 Alpha virt. eigenvalues --    0.32847   0.33272   0.33416   0.34385   0.34753
 Alpha virt. eigenvalues --    0.36572   0.37721   0.39008   0.40807   0.41147
 Alpha virt. eigenvalues --    0.42709   0.43284   0.43590   0.44081   0.44545
 Alpha virt. eigenvalues --    0.44695   0.45885   0.46557   0.47210   0.47528
 Alpha virt. eigenvalues --    0.48643   0.48656   0.49034   0.50214   0.50888
 Alpha virt. eigenvalues --    0.51433   0.52395   0.52613   0.53112   0.53516
 Alpha virt. eigenvalues --    0.55298   0.55980   0.56625   0.57098   0.57855
 Alpha virt. eigenvalues --    0.59055   0.59099   0.59484   0.60108   0.60607
 Alpha virt. eigenvalues --    0.61387   0.62228   0.62261   0.63904   0.64563
 Alpha virt. eigenvalues --    0.64711   0.65371   0.66159   0.66258   0.67253
 Alpha virt. eigenvalues --    0.70156   0.70228   0.70732   0.71527   0.73851
 Alpha virt. eigenvalues --    0.76121   0.76527   0.79091   0.79821   0.80129
 Alpha virt. eigenvalues --    0.80376   0.81263   0.81568   0.82284   0.83843
 Alpha virt. eigenvalues --    0.84635   0.85131   0.85354   0.85721   0.85813
 Alpha virt. eigenvalues --    0.86475   0.86755   0.87533   0.88152   0.89097
 Alpha virt. eigenvalues --    0.89851   0.90196   0.90818   0.91776   0.92751
 Alpha virt. eigenvalues --    0.93864   0.94469   0.94628   0.95496   0.96013
 Alpha virt. eigenvalues --    0.96328   0.96575   0.97259   0.97596   0.97913
 Alpha virt. eigenvalues --    0.98449   1.00184   1.00659   1.01615   1.03434
 Alpha virt. eigenvalues --    1.05409   1.06071   1.06885   1.09166   1.09854
 Alpha virt. eigenvalues --    1.10582   1.10843   1.13932   1.16346   1.18656
 Alpha virt. eigenvalues --    1.20779   1.21052   1.22739   1.24398   1.24454
 Alpha virt. eigenvalues --    1.26151   1.26735   1.26936   1.29941   1.30019
 Alpha virt. eigenvalues --    1.30921   1.31456   1.32296   1.33437   1.39090
 Alpha virt. eigenvalues --    1.42973   1.47025   1.49033   1.50104   1.50175
 Alpha virt. eigenvalues --    1.51353   1.52310   1.54498   1.56027   1.56968
 Alpha virt. eigenvalues --    1.60074   1.60798   1.63419   1.64956   1.67439
 Alpha virt. eigenvalues --    1.68899   1.69245   1.73152   1.74036   1.76177
 Alpha virt. eigenvalues --    1.77229   1.78776   1.80108   1.83593   1.83964
 Alpha virt. eigenvalues --    1.85273   1.87431   1.87550   1.87725   1.88503
 Alpha virt. eigenvalues --    1.88943   1.89997   1.92237   1.93535   1.96229
 Alpha virt. eigenvalues --    1.98156   2.00181   2.02548   2.03020   2.03756
 Alpha virt. eigenvalues --    2.05559   2.09687   2.14213   2.17098   2.20957
 Alpha virt. eigenvalues --    2.23195   2.23291   2.24516   2.26193   2.28168
 Alpha virt. eigenvalues --    2.28339   2.29370   2.29517   2.30685   2.31102
 Alpha virt. eigenvalues --    2.31819   2.32181   2.35982   2.38561   2.40528
 Alpha virt. eigenvalues --    2.43152   2.44787   2.45638   2.47243   2.54115
 Alpha virt. eigenvalues --    2.54762   2.55476   2.57685   2.58294   2.60509
 Alpha virt. eigenvalues --    2.60850   2.62418   2.62666   2.64069   2.66289
 Alpha virt. eigenvalues --    2.67002   2.67961   2.71275   2.73211   2.74747
 Alpha virt. eigenvalues --    2.74893   2.75719   2.76170   2.77746   2.78693
 Alpha virt. eigenvalues --    2.78744   2.83088   2.84956   2.85378   2.86698
 Alpha virt. eigenvalues --    2.87403   2.88922   2.98676   3.05258   3.07500
 Alpha virt. eigenvalues --    3.09581   3.10554   3.13131   3.17763   3.19506
 Alpha virt. eigenvalues --    3.24363   3.28605   3.31213   3.34350   3.35994
 Alpha virt. eigenvalues --    3.39714   3.50824   3.53527   3.53677   3.64778
 Alpha virt. eigenvalues --    3.72662   3.77584   3.87659   3.92602   4.03405
 Alpha virt. eigenvalues --    4.03849   4.10825   4.16913   4.80818   4.81412
 Alpha virt. eigenvalues --    9.69242   9.77279   9.80078   9.84987   9.97190
 Alpha virt. eigenvalues --   23.31026  23.48164  23.80218  23.85259  23.88183
 Alpha virt. eigenvalues --   23.91804  23.95190  23.99045  24.00696  24.04346
 Alpha virt. eigenvalues --   24.06294  24.13699  25.74910  25.79227  25.82161
 Alpha virt. eigenvalues --   25.88534  25.96979  26.10372  26.16518  26.22280
 Alpha virt. eigenvalues --   26.34768  26.53951  26.63287  26.76518  26.85381
 Alpha virt. eigenvalues --   26.94670  27.01410 215.70233 215.76914 215.80170
 Alpha virt. eigenvalues --  215.85512 216.02895
          Condensed to atoms (all electrons):
               1          2          3          4          5          6
     1  C   18.542168  -0.005628  -3.646127   2.339093  -2.319297  -1.131738
     2  C   -0.005628  10.710446  -2.307367   1.423137   0.831431  -2.987130
     3  C   -3.646127  -2.307367  10.923119  -1.598310  -0.040371   3.315322
     4  C    2.339093   1.423137  -1.598310  10.543750  -0.827668  -4.218373
     5  C   -2.319297   0.831431  -0.040371  -0.827668  10.218394  -1.196525
     6  C   -1.131738  -2.987130   3.315322  -4.218373  -1.196525  14.191448
     7  C    2.081132   0.003157  -1.221157   0.445295  -1.264115  -1.269112
     8  C   -0.955985  -0.265484  -0.092683  -0.089966   0.198648  -0.083570
     9  C   -2.885958  -0.055170   0.035103   0.038407  -0.130179  -0.024326
    10  C    0.409935   0.663400   0.144719   0.017466   0.042237   0.145659
    11  C   -2.062244  -0.006517  -0.003890   0.007592   0.067892   0.511164
    12  C   -2.669946  -1.169776   0.141761  -0.868082  -0.568893  -3.186170
    13  H    0.010630   0.381851  -0.089885   0.005664  -0.009549   0.006902
    14  H    0.020100  -0.069118   0.446505  -0.077426  -0.022840   0.041179
    15  H    0.005267   0.005052  -0.016204   0.403070  -0.069760   0.015036
    16  H   -0.029225  -0.025010   0.011665  -0.147715   0.450587  -0.001033
    17  H   -0.001634  -0.001070  -0.000192   0.000052   0.000082   0.001610
    18  Cl   4.166796   1.290008  -1.764652   2.225848  -0.199861   5.479932
    19  Cl  -5.824607  -1.489584   2.164092  -3.304150   0.958259  -2.954909
    20  Cl   0.041122  -0.024395   0.007323  -0.010866  -0.006633  -0.094263
    21  Cl  -0.070837  -0.034354  -0.009114   0.002369  -0.003194  -0.016317
    22  Cl   0.120383  -0.413480  -0.285974  -0.054039   0.003193  -0.016170
               7          8          9         10         11         12
     1  C    2.081132  -0.955985  -2.885958   0.409935  -2.062244  -2.669946
     2  C    0.003157  -0.265484  -0.055170   0.663400  -0.006517  -1.169776
     3  C   -1.221157  -0.092683   0.035103   0.144719  -0.003890   0.141761
     4  C    0.445295  -0.089966   0.038407   0.017466   0.007592  -0.868082
     5  C   -1.264115   0.198648  -0.130179   0.042237   0.067892  -0.568893
     6  C   -1.269112  -0.083570  -0.024326   0.145659   0.511164  -3.186170
     7  C   20.359356  -1.056473  -6.263517   5.990516  -3.125064   0.552032
     8  C   -1.056473  10.592268   0.480701  -4.633113   2.540009   2.141301
     9  C   -6.263517   0.480701  21.331548  -5.995277  -6.116473   3.565673
    10  C    5.990516  -4.633113  -5.995277  20.541906  -2.872164  -6.676713
    11  C   -3.125064   2.540009  -6.116473  -2.872164  20.292702  -5.331689
    12  C    0.552032   2.141301   3.565673  -6.676713  -5.331689  38.319086
    13  H    0.016378   0.039772  -0.009867  -0.005607  -0.002579   0.011371
    14  H    0.004320  -0.000829   0.000519   0.000118   0.000169   0.000443
    15  H    0.002348   0.000197   0.000033  -0.000012   0.000032   0.000751
    16  H    0.007870   0.001361   0.000071   0.000132   0.000463   0.025347
    17  H   -0.045865   0.013306   0.093483   0.218100  -0.092719   0.116667
    18  Cl -11.762388  -3.451951   3.306260  -0.019749   3.669991 -36.877804
    19  Cl   3.459891   1.240048  -0.758277   0.207905  -1.526970  17.941678
    20  Cl   0.196828   0.350279  -0.697650  -0.754190  -0.319891   1.712152
    21  Cl  -0.582151   0.648882  -0.140472  -0.709656  -0.367556   0.538759
    22  Cl   0.054417  -0.998296  -0.105562   0.208468   0.580240  -0.162788
              13         14         15         16         17         18
     1  C    0.010630   0.020100   0.005267  -0.029225  -0.001634   4.166796
     2  C    0.381851  -0.069118   0.005052  -0.025010  -0.001070   1.290008
     3  C   -0.089885   0.446505  -0.016204   0.011665  -0.000192  -1.764652
     4  C    0.005664  -0.077426   0.403070  -0.147715   0.000052   2.225848
     5  C   -0.009549  -0.022840  -0.069760   0.450587   0.000082  -0.199861
     6  C    0.006902   0.041179   0.015036  -0.001033   0.001610   5.479932
     7  C    0.016378   0.004320   0.002348   0.007870  -0.045865 -11.762388
     8  C    0.039772  -0.000829   0.000197   0.001361   0.013306  -3.451951
     9  C   -0.009867   0.000519   0.000033   0.000071   0.093483   3.306260
    10  C   -0.005607   0.000118  -0.000012   0.000132   0.218100  -0.019749
    11  C   -0.002579   0.000169   0.000032   0.000463  -0.092719   3.669991
    12  C    0.011371   0.000443   0.000751   0.025347   0.116667 -36.877804
    13  H    0.575433  -0.009523  -0.000425   0.000067   0.000001   0.003376
    14  H   -0.009523   0.532294  -0.006057  -0.000106  -0.000000  -0.002938
    15  H   -0.000425  -0.006057   0.522385  -0.006723  -0.000000  -0.001409
    16  H    0.000067  -0.000106  -0.006723   0.516626  -0.000000  -0.063733
    17  H    0.000001  -0.000000  -0.000000  -0.000000   0.513083   0.052029
    18  Cl   0.003376  -0.002938  -0.001409  -0.063733   0.052029  93.407150
    19  Cl  -0.001169   0.007991   0.005704   0.098431  -0.005389 -41.739222
    20  Cl   0.000015   0.000001   0.000001   0.000041  -0.025553  -1.941845
    21  Cl   0.002321  -0.000016  -0.000000  -0.000002   0.006769   0.101430
    22  Cl  -0.067414   0.000566   0.000199  -0.000007  -0.000064  -0.158663
              19         20         21         22
     1  C   -5.824607   0.041122  -0.070837   0.120383
     2  C   -1.489584  -0.024395  -0.034354  -0.413480
     3  C    2.164092   0.007323  -0.009114  -0.285974
     4  C   -3.304150  -0.010866   0.002369  -0.054039
     5  C    0.958259  -0.006633  -0.003194   0.003193
     6  C   -2.954909  -0.094263  -0.016317  -0.016170
     7  C    3.459891   0.196828  -0.582151   0.054417
     8  C    1.240048   0.350279   0.648882  -0.998296
     9  C   -0.758277  -0.697650  -0.140472  -0.105562
    10  C    0.207905  -0.754190  -0.709656   0.208468
    11  C   -1.526970  -0.319891  -0.367556   0.580240
    12  C   17.941678   1.712152   0.538759  -0.162788
    13  H   -0.001169   0.000015   0.002321  -0.067414
    14  H    0.007991   0.000001  -0.000016   0.000566
    15  H    0.005704   0.000001  -0.000000   0.000199
    16  H    0.098431   0.000041  -0.000002  -0.000007
    17  H   -0.005389  -0.025553   0.006769  -0.000064
    18  Cl -41.739222  -1.941845   0.101430  -0.158663
    19  Cl  46.945649   0.253285  -0.021114   0.072804
    20  Cl   0.253285  17.979892  -0.043703   0.008353
    21  Cl  -0.021114  -0.043703  17.432743  -0.234319
    22  Cl   0.072804   0.008353  -0.234319  17.814006
 Mulliken charges:
               1
     1  C   -0.133396
     2  C   -0.454400
     3  C   -0.113685
     4  C   -0.255150
     5  C   -0.111840
     6  C   -0.528617
     7  C   -0.583698
     8  C   -0.618423
     9  C    0.330929
    10  C   -0.924081
    11  C    0.157500
    12  C   -1.555159
    13  H    0.142237
    14  H    0.134648
    15  H    0.140515
    16  H    0.160891
    17  H    0.157306
    18  Cl   1.281394
    19  Cl   1.269652
    20  Cl   0.369699
    21  Cl   0.499531
    22  Cl   0.634146
 Sum of Mulliken charges =  -0.00000
 Mulliken charges with hydrogens summed into heavy atoms:
               1
     1  C   -0.133396
     2  C   -0.312163
     3  C    0.020964
     4  C   -0.114634
     5  C    0.049051
     6  C   -0.528617
     7  C   -0.583698
     8  C   -0.618423
     9  C    0.330929
    10  C   -0.766775
    11  C    0.157500
    12  C   -1.555159
    18  Cl   1.281394
    19  Cl   1.269652
    20  Cl   0.369699
    21  Cl   0.499531
    22  Cl   0.634146
 Electronic spatial extent (au):  <R**2>=           6479.9824
 Charge=             -0.0000 electrons
 Dipole moment (field-independent basis, Debye):
    X=              4.1099    Y=              0.3467    Z=              0.0000  Tot=              4.1245
 Quadrupole moment (field-independent basis, Debye-Ang):
   XX=           -122.6498   YY=           -131.6940   ZZ=           -136.0279
   XY=             -4.1424   XZ=              0.0000   YZ=             -0.0000
 Traceless Quadrupole moment (field-independent basis, Debye-Ang):
   XX=              7.4741   YY=             -1.5701   ZZ=             -5.9041
   XY=             -4.1424   XZ=              0.0000   YZ=             -0.0000
 Octapole moment (field-independent basis, Debye-Ang**2):
  XXX=             54.5506  YYY=             -3.1945  ZZZ=             -0.0000  XYY=             31.1531
  XXY=            -16.6841  XXZ=              0.0002  XZZ=            -11.1310  YZZ=              9.7913
  YYZ=              0.0001  XYZ=             -0.0000
 Hexadecapole moment (field-independent basis, Debye-Ang**3):
 XXXX=          -4804.5947 YYYY=          -3248.0803 ZZZZ=           -161.0695 XXXY=            -82.7282
 XXXZ=              0.0006 YYYX=             -0.1099 YYYZ=             -0.0003 ZZZX=             -0.0001
 ZZZY=              0.0000 XXYY=          -1403.2841 XXZZ=           -953.8301 YYZZ=           -598.9697
 XXYZ=             -0.0001 YYXZ=              0.0003 ZZXY=             29.3492
 N-N= 1.794241399074D+03 E-N=-1.012468092790D+04  KE= 2.755411727525D+03
 Calling FoFJK, ICntrl=      2127 FMM=F ISym2X=0 I1Cent= 0 IOpClX= 0 NMat=1 NMatS=1 NMatT=0.
 ***** Axes restored to original set *****
 -------------------------------------------------------------------
 Center     Atomic                   Forces (Hartrees/Bohr)
 Number     Number              X              Y              Z
 -------------------------------------------------------------------
      1        6          -0.018828504   -0.039206640   -0.001159950
      2        6          -0.005494158    0.021194833    0.005790688
      3        6          -0.018232986    0.004087252    0.006774653
      4        6          -0.006238579   -0.020798333   -0.001851045
      5        6          -0.005820551   -0.000499561    0.001823923
      6        6           0.028510278   -0.029667535   -0.014964351
      7        6          -0.013251288    0.021364447    0.008378065
      8        6          -0.009375280    0.019494553    0.006750074
      9        6          -0.004959820    0.003839977    0.002355218
     10        6          -0.001623013    0.006773737    0.001806870
     11        6           0.040632766    0.004985664   -0.012450564
     12        6           0.031448587   -0.146081579   -0.037796090
     13        1           0.001219737    0.005259862    0.000585945
     14        1           0.009264238   -0.000173318   -0.003084667
     15        1           0.002466331    0.009195582    0.000914467
     16        1          -0.002764711    0.007029418    0.002231083
     17        1          -0.003137105   -0.010857431   -0.001005558
     18       17          -0.205514609   -0.342976310    0.003297137
     19       17           0.196898995    0.514585852    0.031770603
     20       17          -0.010310693   -0.005772735    0.002312750
     21       17          -0.005398585    0.000910882    0.001949642
     22       17           0.000508949   -0.022688614   -0.004428892
 -------------------------------------------------------------------
 Cartesian Forces:  Max     0.514585852 RMS     0.086839155

 GradGradGradGradGradGradGradGradGradGradGradGradGradGradGradGradGradGrad
 Berny optimization.
 FormGI is forming the generalized inverse of G from B-inverse, IUseBI=4.
 Internal  Forces:  Max     0.497787849 RMS     0.055585161
 Search for a local minimum.
 Step number   1 out of a maximum of  112
 All quantities printed in internal units (Hartrees-Bohrs-Radians)
 Mixed Optimization -- RFO/linear search
 Second derivative matrix not updated -- first step.
 ITU=  0
     Eigenvalues ---    0.00238   0.00238   0.01655   0.01655   0.02070
     Eigenvalues ---    0.02070   0.02070   0.02070   0.02070   0.02070
     Eigenvalues ---    0.02070   0.02070   0.02070   0.02070   0.02070
     Eigenvalues ---    0.02070   0.02070   0.02070   0.04244   0.16000
     Eigenvalues ---    0.16000   0.16000   0.16000   0.16000   0.22000
     Eigenvalues ---    0.22408   0.23454   0.24406   0.25000   0.25000
     Eigenvalues ---    0.25000   0.25000   0.25000   0.25000   0.25000
     Eigenvalues ---    0.25000   0.25000   0.29539   0.29539   0.29539
     Eigenvalues ---    0.29539   0.29539   0.37230   0.37230   0.37230
     Eigenvalues ---    0.37230   0.37230   0.41408   0.41797   0.41941
     Eigenvalues ---    0.42057   0.45389   0.45389   0.45389   0.45389
     Eigenvalues ---    0.45389   0.45389   0.45389   0.45389   1.29765
 RFO step:  Lambda=-2.80323830D-01 EMin= 2.37799039D-03
 Linear search not attempted -- first point.
 Maximum step size (   0.300) exceeded in Quadratic search.
    -- Step size scaled by   0.525
 Iteration  1 RMS(Cart)=  0.16120934 RMS(Int)=  0.00335191
 Iteration  2 RMS(Cart)=  0.00588717 RMS(Int)=  0.00002665
 Iteration  3 RMS(Cart)=  0.00003966 RMS(Int)=  0.00002346
 Iteration  4 RMS(Cart)=  0.00000000 RMS(Int)=  0.00002346
 Variable       Old X    -DE/DX   Delta X   Delta X   Delta X     New X
                                 (Linear)    (Quad)   (Total)
    R1        2.64826  -0.00158   0.00000  -0.00097  -0.00093   2.64733
    R2        2.64826   0.00558   0.00000   0.00428   0.00432   2.65259
    R3        2.64826  -0.00285   0.00000  -0.00216  -0.00216   2.64610
    R4        2.02201  -0.00406   0.00000  -0.00327  -0.00327   2.01874
    R5        2.64826  -0.01515   0.00000  -0.01113  -0.01117   2.63709
    R6        2.02201   0.00976   0.00000   0.00786   0.00786   2.02986
    R7        2.64826  -0.01702   0.00000  -0.01235  -0.01239   2.63588
    R8        2.02201   0.00918   0.00000   0.00739   0.00739   2.02940
    R9        2.64826  -0.00896   0.00000  -0.00629  -0.00628   2.64198
   R10        2.02201   0.00783   0.00000   0.00630   0.00630   2.02831
   R11        3.32592  -0.01516   0.00000  -0.01383  -0.01383   3.31208
   R12        2.64826   0.01337   0.00000   0.01004   0.01004   2.65830
   R13        2.64826  -0.00880   0.00000  -0.00605  -0.00602   2.64224
   R14        2.64826   0.00019   0.00000   0.00035   0.00033   2.64860
   R15        3.32592   0.00137   0.00000   0.00125   0.00125   3.32717
   R16        2.64826  -0.02623   0.00000  -0.01902  -0.01904   2.62922
   R17        3.32592  -0.00377   0.00000  -0.00344  -0.00344   3.32248
   R18        2.64826  -0.02419   0.00000  -0.01778  -0.01779   2.63047
   R19        2.02201   0.01095   0.00000   0.00882   0.00882   2.03082
   R20        2.64826  -0.00778   0.00000  -0.00579  -0.00577   2.64249
   R21        3.32592   0.01064   0.00000   0.00971   0.00971   3.33563
   R22        3.32592   0.12850   0.00000   0.11727   0.11727   3.44319
   R23        3.16945   0.49779   0.00000   0.16575   0.16575   3.33520
    A1        2.09440  -0.03846   0.00000  -0.03733  -0.03722   2.05718
    A2        2.09440   0.01468   0.00000   0.01536   0.01539   2.10978
    A3        2.09440  -0.00370   0.00000  -0.00333  -0.00335   2.09105
    A4        2.09440  -0.01099   0.00000  -0.01203  -0.01204   2.08235
    A5        2.09440   0.00602   0.00000   0.00559   0.00553   2.09993
    A6        2.09440  -0.00340   0.00000  -0.00326  -0.00323   2.09116
    A7        2.09440  -0.00262   0.00000  -0.00233  -0.00230   2.09210
    A8        2.09440  -0.00445   0.00000  -0.00548  -0.00557   2.08883
    A9        2.09440   0.00495   0.00000   0.00599   0.00603   2.10043
   A10        2.09440  -0.00049   0.00000  -0.00051  -0.00046   2.09393
   A11        2.09440  -0.00674   0.00000  -0.00727  -0.00731   2.08708
   A12        2.09440   0.00250   0.00000   0.00260   0.00262   2.09701
   A13        2.09440   0.00424   0.00000   0.00467   0.00469   2.09909
   A14        2.09440   0.02895   0.00000   0.02914   0.02918   2.12357
   A15        2.09440  -0.00215   0.00000  -0.00236  -0.00238   2.09201
   A16        2.09440  -0.02680   0.00000  -0.02678  -0.02680   2.06760
   A17        2.09440  -0.02765   0.00000  -0.02578  -0.02574   2.06866
   A18        2.09440   0.00868   0.00000   0.00963   0.00962   2.10401
   A19        2.09440   0.03404   0.00000   0.03321   0.03322   2.12762
   A20        2.09440  -0.04272   0.00000  -0.04284  -0.04284   2.05156
   A21        2.09440   0.00810   0.00000   0.00804   0.00799   2.10238
   A22        2.09440   0.00331   0.00000   0.00327   0.00330   2.09769
   A23        2.09440  -0.01141   0.00000  -0.01131  -0.01128   2.08311
   A24        2.09440  -0.01376   0.00000  -0.01548  -0.01551   2.07888
   A25        2.09440   0.00388   0.00000   0.00415   0.00417   2.09857
   A26        2.09440   0.00989   0.00000   0.01132   0.01134   2.10574
   A27        2.09440   0.01670   0.00000   0.01562   0.01563   2.11003
   A28        2.09440  -0.01772   0.00000  -0.01710  -0.01710   2.07729
   A29        2.09440   0.00102   0.00000   0.00147   0.00147   2.09586
   A30        2.09440   0.00794   0.00000   0.00797   0.00801   2.10241
   A31        2.09440   0.00906   0.00000   0.00893   0.00891   2.10330
   A32        2.09440  -0.01700   0.00000  -0.01689  -0.01692   2.07748
   A33        2.09440   0.15554   0.00000   0.15410   0.15410   2.24849
   A34        2.09440  -0.12151   0.00000  -0.12039  -0.12039   1.97401
    D1        0.00000   0.00000   0.00000   0.00000   0.00000   0.00000
    D2        3.14159   0.00000   0.00000   0.00000   0.00000   3.14159
    D3       -0.00000  -0.00000   0.00000  -0.00000  -0.00000  -0.00000
    D4        3.14159   0.00000   0.00000   0.00000   0.00000   3.14159
    D5        0.00000  -0.00000   0.00000  -0.00000  -0.00000   0.00000
    D6        3.14159  -0.00000   0.00000   0.00000   0.00000   3.14159
    D7       -3.14159  -0.00000   0.00000  -0.00000  -0.00000  -3.14159
    D8        0.00000  -0.00000   0.00000  -0.00000  -0.00000   0.00000
    D9       -0.00000   0.00000   0.00000   0.00000   0.00000  -0.00000
   D10        3.14159  -0.00000   0.00000  -0.00000  -0.00000   3.14159
   D11        3.14159   0.00000   0.00000   0.00000   0.00000   3.14159
   D12        0.00000  -0.00000   0.00000  -0.00000  -0.00000   0.00000
   D13        0.00000  -0.00000   0.00000  -0.00000  -0.00000   0.00000
   D14       -3.14159  -0.00000   0.00000  -0.00000  -0.00000  -3.14159
   D15       -3.14159  -0.00000   0.00000  -0.00000  -0.00000  -3.14159
   D16        0.00000  -0.00000   0.00000  -0.00000  -0.00000   0.00000
   D17       -0.00000   0.00000   0.00000   0.00000   0.00000  -0.00000
   D18        3.14159   0.00000   0.00000   0.00000   0.00000   3.14159
   D19        3.14159   0.00000   0.00000   0.00000   0.00000   3.14159
   D20       -0.00000  -0.00000   0.00000  -0.00000  -0.00000  -0.00000
   D21        0.00001  -0.00000   0.00000  -0.00000  -0.00000   0.00001
   D22       -3.14159  -0.00000   0.00000  -0.00000  -0.00000  -3.14159
   D23        0.00000   0.00000   0.00000   0.00000   0.00000   0.00000
   D24       -3.14159  -0.00000   0.00000  -0.00000  -0.00000  -3.14159
   D25       -0.00000  -0.00000   0.00000  -0.00000  -0.00000  -0.00000
   D26        3.14159   0.00000   0.00000   0.00000   0.00000   3.14159
   D27       -0.00000  -0.00000   0.00000  -0.00000  -0.00000  -0.00000
   D28        3.14159  -0.00000   0.00000  -0.00000  -0.00000   3.14159
   D29        3.14159   0.00000   0.00000   0.00000   0.00000   3.14159
   D30       -0.00000   0.00000   0.00000   0.00000   0.00000  -0.00000
   D31       -0.00000   0.00000   0.00000   0.00000   0.00000  -0.00000
   D32       -3.14159  -0.00000   0.00000  -0.00000  -0.00000  -3.14159
   D33        3.14159   0.00000   0.00000   0.00000   0.00000   3.14159
   D34        0.00000   0.00000   0.00000   0.00000   0.00000   0.00000
   D35        0.00000  -0.00000   0.00000  -0.00000  -0.00000   0.00000
   D36       -3.14159  -0.00000   0.00000  -0.00000  -0.00000  -3.14159
   D37        3.14159   0.00000   0.00000   0.00000   0.00000   3.14159
   D38        0.00000  -0.00000   0.00000  -0.00000  -0.00000   0.00000
   D39        0.00000   0.00000   0.00000   0.00000   0.00000   0.00000
   D40       -3.14159  -0.00000   0.00000  -0.00000  -0.00000  -3.14159
   D41        3.14159   0.00000   0.00000   0.00000   0.00000   3.14159
   D42       -0.00000  -0.00000   0.00000  -0.00000  -0.00000  -0.00000
   D43        0.00001  -0.00000   0.00000  -0.00000  -0.00000   0.00001
   D44       -3.14159   0.00000   0.00000   0.00000   0.00000  -3.14159
   D45       -0.00001  -0.00000   0.00000  -0.00000  -0.00000  -0.00001
         Item               Value     Threshold  Converged?
 Maximum Force            0.497788     0.000450     NO 
 RMS     Force            0.055585     0.000300     NO 
 Maximum Displacement     0.820469     0.001800     NO 
 RMS     Displacement     0.162692     0.001200     NO 
 Predicted change in Energy=-1.212071D-01
 GradGradGradGradGradGradGradGradGradGradGradGradGradGradGradGradGradGrad

                          Input orientation:                          
 ---------------------------------------------------------------------
 Center     Atomic      Atomic             Coordinates (Angstroms)
 Number     Number       Type             X           Y           Z
 ---------------------------------------------------------------------
      1          6           0        0.034959    0.248167    0.015472
      2          6           0        1.367610    0.308291   -0.412283
      3          6           0        2.067508    1.521078   -0.415095
      4          6           0        1.444453    2.694936    0.010634
      5          6           0        0.118014    2.656139    0.440346
      6          6           0       -0.572457    1.440466    0.439510
      7          6           0       -0.907267   -1.800626   -0.058893
      8          6           0       -0.378444   -3.039050   -0.465705
      9          6           0       -1.165481   -4.198039   -0.424077
     10          6           0       -2.482560   -4.140558    0.020643
     11          6           0       -3.008391   -2.916385    0.423793
     12          6           0       -2.231905   -1.754046    0.386270
     13          1           0        1.860268   -0.580577   -0.741526
     14          1           0        3.088881    1.547499   -0.746627
     15          1           0        1.980797    3.625320    0.008668
     16          1           0       -0.368574    3.554484    0.769369
     17          1           0       -3.082870   -5.031403    0.051114
     18         17           0       -2.971611   -0.178737    0.925832
     19         17           0       -2.237903    1.425331    0.985354
     20         17           0       -4.679602   -2.846219    0.987572
     21         17           0       -0.494834   -5.740957   -0.934801
     22         17           0        1.277639   -3.199677   -1.041480
 ---------------------------------------------------------------------
                    Distance matrix (angstroms):
                    1          2          3          4          5
     1  C    0.000000
     2  C    1.400909   0.000000
     3  C    2.436585   1.400256   0.000000
     4  C    2.823717   2.425044   1.395488   0.000000
     5  C    2.446578   2.793001   2.412606   1.394846   0.000000
     6  C    1.403688   2.402338   2.776016   2.413619   1.398074
     7  C    2.256296   3.122095   4.473241   5.074002   4.600347
     8  C    3.347869   3.775745   5.174940   6.035598   5.788140
     9  C    4.626338   5.169497   6.569673   7.383348   7.026688
    10  C    5.059529   5.899448   7.276476   7.883242   7.289322
    11  C    4.409432   5.499722   6.794083   7.175335   6.389656
    12  C    3.047133   4.224621   5.463842   5.783610   4.997476
    13  H    2.142805   1.068269   2.136927   3.386389   3.861165
    14  H    3.405216   2.147137   1.074157   2.143408   3.385858
    15  H    3.897627   3.399394   2.148238   1.073910   2.143739
    16  H    3.415104   3.866317   3.387062   2.145126   1.073335
    17  H    6.131556   6.966623   8.347380   8.955144   8.336393
    18  Cl   3.170247   4.566901   5.484540   5.347635   4.221138
    19  Cl   2.737204   4.025032   4.528464   4.015186   2.713350
    20  Cl   5.722525   6.962708   8.158692   8.316421   7.320692
    21  Cl   6.087142   6.350993   7.718344   8.707408   8.530992
    22  Cl   3.814319   3.565084   4.827192   5.990094   6.150700
                    6          7          8          9         10
     6  C    0.000000
     7  C    3.296237   0.000000
     8  C    4.574179   1.406714   0.000000
     9  C    5.734998   2.438775   1.401577   0.000000
    10  C    5.913693   2.821906   2.424285   1.391322   0.000000
    11  C    4.991610   2.427473   2.779007   2.399550   1.391987
    12  C    3.600209   1.398215   2.410895   2.786938   2.427334
    13  H    3.376035   3.100606   3.336465   4.726729   5.666968
    14  H    3.850165   5.258528   5.756534   7.156455   7.998978
    15  H    3.387966   6.147061   7.085539   8.443416   8.957151
    16  H    2.149290   5.445495   6.708219   7.884224   8.015186
    17  H    6.952561   3.896571   3.398602   2.143987   1.074665
    18  Cl   2.935007   2.803876   4.103935   4.608595   4.093233
    19  Cl   1.752679   3.642504   5.049144   5.895666   5.654170
    20  Cl   5.961936   4.052020   4.544135   4.021096   2.727133
    21  Cl   7.312153   4.057527   2.744795   1.758181   2.724923
    22  Cl   5.210289   2.774282   1.760662   2.710489   4.019013
                   11         12         13         14         15
    11  C    0.000000
    12  C    1.398346   0.000000
    13  H    5.524293   4.403956   0.000000
    14  H    7.646756   6.363522   2.457279   0.000000
    15  H    8.237610   6.843026   4.273977   2.472986   0.000000
    16  H    6.997157   5.639083   4.934498   4.275538   2.470470
    17  H    2.148893   3.402579   6.698712   9.055874  10.029026
    18  Cl   2.783542   1.822056   5.127242   6.519707   6.311765
    19  Cl   4.445166   3.235332   4.878605   5.602616   4.857086
    20  Cl   1.765139   2.746931   7.133921   9.091839   9.338093
    21  Cl   4.017705   4.545118   5.675683   8.124039   9.733756
    22  Cl   4.538429   4.055271   2.699836   5.089520   6.941024
                   16         17         18         19         20
    16  H    0.000000
    17  H    9.033313   0.000000
    18  Cl   4.553815   4.932127   0.000000
    19  Cl   2.841537   6.578464   1.764910   0.000000
    20  Cl   7.720206   2.863832   3.168045   4.920167   0.000000
    21  Cl   9.451209   2.858920   6.366684   7.621087   5.439421
    22  Cl   7.183863   4.854176   5.572479   6.152868   6.303230
                   21         22
    21  Cl   0.000000
    22  Cl   3.100185   0.000000
 Stoichiometry    C12H5Cl5
 Framework group  C1[X(C12H5Cl5)]
 Deg. of freedom    60
 Full point group                 C1      NOp   1
 Largest Abelian subgroup         C1      NOp   1
 Largest concise Abelian subgroup C1      NOp   1
                         Standard orientation:                         
 ---------------------------------------------------------------------
 Center     Atomic      Atomic             Coordinates (Angstroms)
 Number     Number       Type             X           Y           Z
 ---------------------------------------------------------------------
      1          6           0        1.885516   -0.790902    0.000002
      2          6           0        2.219739   -2.151358    0.000006
      3          6           0        3.558244   -2.562604    0.000008
      4          6           0        4.585395   -1.617963    0.000006
      5          6           0        4.273452   -0.258446   -0.000001
      6          6           0        2.934051    0.142326   -0.000003
      7          6           0       -0.326097   -0.344096   -0.000004
      8          6           0       -1.436265   -1.208025   -0.000004
      9          6           0       -2.739786   -0.692999   -0.000002
     10          6           0       -2.955004    0.681576    0.000000
     11          6           0       -1.858250    1.538756    0.000001
     12          6           0       -0.553609    1.035484   -0.000001
     13          1           0        1.446268   -2.888204    0.000010
     14          1           0        3.795044   -3.610334    0.000012
     15          1           0        5.612103   -1.932850    0.000007
     16          1           0        5.057508    0.474566   -0.000005
     17          1           0       -3.955985    1.072657    0.000003
     18         17           0        0.844721    2.203629    0.000001
     19         17           0        2.575443    1.857926   -0.000009
     20         17           0       -2.134064    3.282213    0.000008
     21         17           0       -4.120477   -1.781527   -0.000002
     22         17           0       -1.252638   -2.959084   -0.000002
 ---------------------------------------------------------------------
 Rotational constants (GHZ):           0.3730281           0.2245864           0.1401858
 Standard basis: 6-311+G(d,p) (5D, 7F)
 There are   461 symmetry adapted cartesian basis functions of A   symmetry.
 There are   444 symmetry adapted basis functions of A   symmetry.
   444 basis functions,   737 primitive gaussians,   461 cartesian basis functions
    81 alpha electrons       81 beta electrons
       nuclear repulsion energy      1760.9935117589 Hartrees.
 NAtoms=   22 NActive=   22 NUniq=   22 SFac= 1.00D+00 NAtFMM=   60 NAOKFM=F Big=F
 Integral buffers will be    131072 words long.
 Raffenetti 2 integral format.
 Two-electron integral symmetry is turned on.
 One-electron integrals computed using PRISM.
 NBasis=   444 RedAO= T EigKep=  2.12D-06  NBF=   444
 NBsUse=   438 1.00D-06 EigRej=  1.00D-06 NBFU=   438
 Initial guess from the checkpoint file:  "./Gau-91006.chk"
 B after Tr=     0.000000    0.000000   -0.000000
         Rot=    0.998677   -0.000000   -0.000000    0.051413 Ang=  -5.89 deg.
 ExpMin= 4.38D-02 ExpMax= 1.06D+05 ExpMxC= 3.62D+03 IAcc=3 IRadAn=         5 AccDes= 0.00D+00
 Harris functional with IExCor=  402 and IRadAn=       5 diagonalized for initial guess.
 HarFok:  IExCor=  402 AccDes= 0.00D+00 IRadAn=         5 IDoV= 1 UseB2=F ITyADJ=14
 ICtDFT=  3500011 ScaDFX=  1.000000  1.000000  1.000000  1.000000
 FoFCou: FMM=F IPFlag=           0 FMFlag=      100000 FMFlg1=           0
         NFxFlg=           0 DoJE=T BraDBF=F KetDBF=T FulRan=T
         wScrn=  0.000000 ICntrl=       500 IOpCl=  0 I1Cent=   200000004 NGrid=           0
         NMat0=    1 NMatS0=      1 NMatT0=    0 NMatD0=    1 NMtDS0=    0 NMtDT0=    0
 Petite list used in FoFCou.
 Requested convergence on RMS density matrix=1.00D-08 within  32 cycles.
 Requested convergence on MAX density matrix=1.00D-06.
 Requested convergence on             energy=1.00D-06.
 No special actions if energy rises.
 SCF Done:  E(RB3LYP) =  -2761.06224288     A.U. after   18 cycles
            NFock= 18  Conv=0.32D-08     -V/T= 2.0022
 QCSCF skips out because SCF is already converged.
 Calling FoFJK, ICntrl=      2127 FMM=F ISym2X=0 I1Cent= 0 IOpClX= 0 NMat=1 NMatS=1 NMatT=0.
 ***** Axes restored to original set *****
 -------------------------------------------------------------------
 Center     Atomic                   Forces (Hartrees/Bohr)
 Number     Number              X              Y              Z
 -------------------------------------------------------------------
      1        6          -0.005293676   -0.032040614   -0.004273594
      2        6          -0.009761205    0.009667743    0.005031633
      3        6          -0.010284253    0.000500901    0.003482402
      4        6          -0.004297403   -0.013919258   -0.001198626
      5        6          -0.004793238    0.000708632    0.001712339
      6        6           0.013056347   -0.030486138   -0.010026770
      7        6          -0.035201540    0.014382850    0.014298915
      8        6           0.003877838    0.023052756    0.003052070
      9        6          -0.001697949    0.000845943    0.000718203
     10        6          -0.002210643    0.001087583    0.000932602
     11        6           0.019360568    0.003731294   -0.005677774
     12        6           0.018183755   -0.097812740   -0.024360713
     13        1           0.002992767   -0.008262362   -0.002537794
     14        1           0.006440274   -0.000555908   -0.002226159
     15        1           0.001682907    0.006213569    0.000612518
     16        1          -0.002334101    0.005003136    0.001708672
     17        1          -0.002085011   -0.005550150   -0.000355462
     18       17          -0.082991197   -0.277869641   -0.024842289
     19       17           0.101439218    0.398442815    0.041408652
     20       17          -0.003561791   -0.003865539    0.000447436
     21       17          -0.005167051    0.001168430    0.001921763
     22       17           0.002645384    0.005556696    0.000171975
 -------------------------------------------------------------------
 Cartesian Forces:  Max     0.398442815 RMS     0.064172018

 GradGradGradGradGradGradGradGradGradGradGradGradGradGradGradGradGradGrad
 Berny optimization.
 Using GEDIIS/GDIIS optimizer.
 FormGI is forming the generalized inverse of G from B-inverse, IUseBI=4.
 Internal  Forces:  Max     0.342790196 RMS     0.046689897
 Search for a local minimum.
 Step number   2 out of a maximum of  112
 All quantities printed in internal units (Hartrees-Bohrs-Radians)
 Mixed Optimization -- RFO/linear search
 Update second derivatives using D2CorX and points    1    2
 DE= -1.11D-01 DEPred=-1.21D-01 R= 9.19D-01
 TightC=F SS=  1.41D+00  RLast= 3.00D-01 DXNew= 5.0454D-01 9.0000D-01
 Trust test= 9.19D-01 RLast= 3.00D-01 DXMaxT set to 5.05D-01
 ITU=  1  0
 Use linear search instead of GDIIS.
 Linear search step of   0.600 exceeds DXMaxT=   0.505 but not scaled.
 Quartic linear search produced a step of  2.00000.
 Iteration  1 RMS(Cart)=  0.18860089 RMS(Int)=  0.01890546
 Iteration  2 RMS(Cart)=  0.12406457 RMS(Int)=  0.00167364
 Iteration  3 RMS(Cart)=  0.00377586 RMS(Int)=  0.00013912
 Iteration  4 RMS(Cart)=  0.00000576 RMS(Int)=  0.00013911
 Iteration  5 RMS(Cart)=  0.00000000 RMS(Int)=  0.00013911
 Variable       Old X    -DE/DX   Delta X   Delta X   Delta X     New X
                                 (Linear)    (Quad)   (Total)
    R1        2.64733  -0.01065  -0.00186   0.00000  -0.00164   2.64569
    R2        2.65259   0.01712   0.00865   0.00000   0.00889   2.66148
    R3        2.64610   0.00070  -0.00432   0.00000  -0.00435   2.64175
    R4        2.01874   0.00904  -0.00654   0.00000  -0.00654   2.01219
    R5        2.63709   0.00220  -0.02235   0.00000  -0.02260   2.61449
    R6        2.02986   0.00680   0.01571   0.00000   0.01571   2.04557
    R7        2.63588  -0.00301  -0.02477   0.00000  -0.02499   2.61089
    R8        2.02940   0.00622   0.01478   0.00000   0.01478   2.04417
    R9        2.64198  -0.00922  -0.01257   0.00000  -0.01253   2.62944
   R10        2.02831   0.00577   0.01261   0.00000   0.01261   2.04092
   R11        3.31208  -0.01011  -0.02767   0.00000  -0.02767   3.28441
   R12        2.65830  -0.02530   0.02008   0.00000   0.02011   2.67842
   R13        2.64224  -0.04547  -0.01204   0.00000  -0.01188   2.63036
   R14        2.64860   0.00947   0.00067   0.00000   0.00054   2.64914
   R15        3.32717   0.00193   0.00250   0.00000   0.00250   3.32967
   R16        2.62922   0.00382  -0.03809   0.00000  -0.03825   2.59097
   R17        3.32248  -0.00355  -0.00687   0.00000  -0.00687   3.31561
   R18        2.63047  -0.00134  -0.03558   0.00000  -0.03560   2.59487
   R19        2.03082   0.00576   0.01763   0.00000   0.01763   2.04846
   R20        2.64249  -0.00989  -0.01154   0.00000  -0.01142   2.63107
   R21        3.33563   0.00336   0.01942   0.00000   0.01942   3.35505
   R22        3.44319   0.04987   0.23454   0.00000   0.23454   3.67773
   R23        3.33520   0.34279   0.33149   0.00000   0.33149   3.66669
    A1        2.05718  -0.01217  -0.07444   0.00000  -0.07374   1.98343
    A2        2.10978  -0.00084   0.03078   0.00000   0.03093   2.14072
    A3        2.09105  -0.00101  -0.00669   0.00000  -0.00677   2.08428
    A4        2.08235   0.00185  -0.02409   0.00000  -0.02417   2.05819
    A5        2.09993   0.00567   0.01106   0.00000   0.01074   2.11067
    A6        2.09116  -0.00358  -0.00647   0.00000  -0.00630   2.08486
    A7        2.09210  -0.00209  -0.00460   0.00000  -0.00444   2.08766
    A8        2.08883   0.00318  -0.01114   0.00000  -0.01166   2.07717
    A9        2.10043   0.00020   0.01206   0.00000   0.01233   2.11275
   A10        2.09393  -0.00337  -0.00093   0.00000  -0.00067   2.09327
   A11        2.08708  -0.01443  -0.01463   0.00000  -0.01487   2.07222
   A12        2.09701   0.00687   0.00524   0.00000   0.00536   2.10237
   A13        2.09909   0.00755   0.00939   0.00000   0.00951   2.10860
   A14        2.12357   0.01859   0.05836   0.00000   0.05860   2.18217
   A15        2.09201  -0.04054  -0.00476   0.00000  -0.00488   2.08714
   A16        2.06760   0.02195  -0.05360   0.00000  -0.05372   2.01388
   A17        2.06866   0.00944  -0.05147   0.00000  -0.05119   2.01746
   A18        2.10401  -0.01027   0.01923   0.00000   0.01912   2.12314
   A19        2.12762  -0.00459   0.06644   0.00000   0.06649   2.19411
   A20        2.05156   0.01486  -0.08567   0.00000  -0.08562   1.96594
   A21        2.10238   0.00130   0.01598   0.00000   0.01568   2.11806
   A22        2.09769   0.00662   0.00659   0.00000   0.00674   2.10443
   A23        2.08311  -0.00791  -0.02257   0.00000  -0.02242   2.06069
   A24        2.07888  -0.00556  -0.03103   0.00000  -0.03124   2.04764
   A25        2.09857   0.00129   0.00834   0.00000   0.00845   2.10702
   A26        2.10574   0.00427   0.02268   0.00000   0.02279   2.12852
   A27        2.11003  -0.01189   0.03127   0.00000   0.03134   2.14137
   A28        2.07729  -0.00083  -0.03420   0.00000  -0.03424   2.04305
   A29        2.09586   0.01273   0.00293   0.00000   0.00290   2.09876
   A30        2.10241   0.01699   0.01602   0.00000   0.01629   2.11869
   A31        2.10330  -0.09353   0.01781   0.00000   0.01768   2.12098
   A32        2.07748   0.07654  -0.03383   0.00000  -0.03397   2.04351
   A33        2.24849  -0.06561   0.30820   0.00000   0.30820   2.55669
   A34        1.97401  -0.27473  -0.24077   0.00000  -0.24077   1.73323
    D1        0.00000  -0.00000   0.00000   0.00000   0.00000   0.00000
    D2        3.14159   0.00000   0.00000   0.00000   0.00000   3.14159
    D3       -0.00000   0.00000  -0.00000   0.00000  -0.00000  -0.00000
    D4        3.14159  -0.00000   0.00000   0.00000   0.00000   3.14159
    D5        0.00000  -0.00000  -0.00000   0.00000  -0.00000   0.00000
    D6        3.14159   0.00000   0.00000   0.00000   0.00000   3.14159
    D7       -3.14159  -0.00000  -0.00000   0.00000  -0.00000  -3.14159
    D8        0.00000  -0.00000  -0.00000   0.00000  -0.00000   0.00000
    D9       -0.00000   0.00000   0.00000   0.00000   0.00000  -0.00000
   D10        3.14159   0.00000  -0.00000   0.00000  -0.00000   3.14159
   D11        3.14159   0.00000   0.00000   0.00000   0.00000   3.14159
   D12        0.00000  -0.00000  -0.00000   0.00000  -0.00000   0.00000
   D13        0.00000  -0.00000  -0.00000   0.00000  -0.00000   0.00000
   D14       -3.14159  -0.00000  -0.00000   0.00000  -0.00000  -3.14159
   D15       -3.14159  -0.00000  -0.00000   0.00000  -0.00000  -3.14159
   D16        0.00000  -0.00000  -0.00000   0.00000   0.00000   0.00000
   D17       -0.00000   0.00000   0.00000   0.00000   0.00000   0.00000
   D18        3.14159   0.00000   0.00000   0.00000   0.00000   3.14159
   D19        3.14159   0.00000   0.00000   0.00000   0.00000   3.14159
   D20       -0.00000   0.00000  -0.00000   0.00000  -0.00000  -0.00000
   D21        0.00001   0.00000  -0.00000   0.00000  -0.00000   0.00001
   D22       -3.14159   0.00000  -0.00000   0.00000  -0.00000  -3.14159
   D23        0.00000   0.00000   0.00000   0.00000   0.00000   0.00000
   D24       -3.14159  -0.00000  -0.00000   0.00000  -0.00000  -3.14159
   D25       -0.00000   0.00000  -0.00000   0.00000  -0.00000  -0.00000
   D26        3.14159   0.00000   0.00000   0.00000   0.00000   3.14159
   D27       -0.00000  -0.00000  -0.00000   0.00000  -0.00000  -0.00000
   D28        3.14159  -0.00000  -0.00000   0.00000  -0.00000   3.14159
   D29        3.14159   0.00000   0.00000   0.00000   0.00000   3.14159
   D30       -0.00000   0.00000   0.00000   0.00000   0.00000  -0.00000
   D31       -0.00000   0.00000   0.00000   0.00000   0.00000   0.00000
   D32       -3.14159  -0.00000  -0.00000   0.00000  -0.00000  -3.14159
   D33        3.14159   0.00000   0.00000   0.00000   0.00000  -3.14159
   D34        0.00000  -0.00000   0.00000   0.00000   0.00000   0.00000
   D35        0.00000   0.00000  -0.00000   0.00000  -0.00000  -0.00000
   D36       -3.14159  -0.00000  -0.00000   0.00000  -0.00000  -3.14159
   D37        3.14159   0.00000   0.00000   0.00000   0.00000   3.14159
   D38        0.00000  -0.00000  -0.00000   0.00000  -0.00000   0.00000
   D39        0.00000  -0.00000   0.00000   0.00000   0.00000   0.00000
   D40       -3.14159  -0.00000  -0.00000   0.00000  -0.00000   3.14159
   D41        3.14159   0.00000   0.00000   0.00000   0.00000   3.14159
   D42       -0.00000   0.00000  -0.00000   0.00000  -0.00000  -0.00000
   D43        0.00001   0.00000  -0.00000   0.00000  -0.00000   0.00001
   D44       -3.14159   0.00000   0.00000   0.00000   0.00000  -3.14159
   D45       -0.00001   0.00000  -0.00000   0.00000  -0.00000  -0.00002
         Item               Value     Threshold  Converged?
 Maximum Force            0.342790     0.000450     NO 
 RMS     Force            0.046690     0.000300     NO 
 Maximum Displacement     1.563847     0.001800     NO 
 RMS     Displacement     0.303033     0.001200     NO 
 Predicted change in Energy=-4.065846D-02
 GradGradGradGradGradGradGradGradGradGradGradGradGradGradGradGradGradGrad

                          Input orientation:                          
 ---------------------------------------------------------------------
 Center     Atomic      Atomic             Coordinates (Angstroms)
 Number     Number       Type             X           Y           Z
 ---------------------------------------------------------------------
      1          6           0        0.024987    0.445152    0.055753
      2          6           0        1.356412    0.563687   -0.360625
      3          6           0        2.042027    1.781964   -0.357699
      4          6           0        1.423351    2.945180    0.064587
      5          6           0        0.109106    2.889779    0.487160
      6          6           0       -0.546891    1.662761    0.472835
      7          6           0       -0.703772   -2.145900   -0.190788
      8          6           0       -0.378583   -3.478353   -0.548170
      9          6           0       -1.311688   -4.518535   -0.436101
     10          6           0       -2.582443   -4.290391    0.025413
     11          6           0       -2.904654   -3.001790    0.373579
     12          6           0       -2.000789   -1.947476    0.273798
     13          1           0        1.878813   -0.301721   -0.695260
     14          1           0        3.071469    1.814194   -0.690797
     15          1           0        1.952036    3.888909    0.067651
     16          1           0       -0.396545    3.783578    0.821609
     17          1           0       -3.295788   -5.102411    0.107931
     18         17           0       -2.630592   -0.186446    0.812030
     19         17           0       -2.195714    1.692862    1.021695
     20         17           0       -4.551890   -2.714279    0.970282
     21         17           0       -0.878913   -6.158099   -0.886608
     22         17           0        1.178290   -4.027229   -1.164181
 ---------------------------------------------------------------------
                    Distance matrix (angstroms):
                    1          2          3          4          5
     1  C    0.000000
     2  C    1.400041   0.000000
     3  C    2.454884   1.397954   0.000000
     4  C    2.864548   2.420082   1.383531   0.000000
     5  C    2.483825   2.772222   2.382692   1.381621   0.000000
     6  C    1.408393   2.350570   2.721487   2.386026   1.391442
     7  C    2.702855   3.408088   4.795350   5.523492   5.145721
     8  C    3.990173   4.402666   5.793666   6.699568   6.470151
     9  C    5.163992   5.740508   7.137915   7.964808   7.599617
    10  C    5.406014   6.263041   7.642381   8.270514   7.681959
    11  C    4.534890   5.604317   6.920168   7.361628   6.618628
    12  C    3.142608   4.240193   5.536413   5.975499   5.281688
    13  H    2.135067   1.064807   2.117152   3.365588   3.836099
    14  H    3.422377   2.148069   1.082471   2.136826   3.364530
    15  H    3.946278   3.405185   2.151334   1.081730   2.137905
    16  H    3.450986   3.852042   3.368064   2.141965   1.080007
    17  H    6.465735   7.346236   8.723743   9.329302   8.695529
    18  Cl   2.832485   4.223035   5.203486   5.176892   4.132148
    19  Cl   2.724214   3.975355   4.457479   3.947403   2.651516
    20  Cl   5.636149   6.886539   8.090703   8.279690   7.305051
    21  Cl   6.731123   7.103221   8.476806   9.437949   9.204756
    22  Cl   4.777085   4.664112   5.928168   7.084096   7.191320
[...]
                 (A) (A) (A) (A) (A) (A) (A) (A) (A) (A) (A) (A)
                 (A) (A) (A) (A) (A) (A) (A) (A) (A)
       Virtual   (A) (A) (A) (A) (A) (A) (A) (A) (A) (A) (A) (A)
                 (A) (A) (A) (A) (A) (A) (A) (A) (A) (A) (A) (A)
                 (A) (A) (A) (A) (A) (A) (A) (A) (A) (A) (A) (A)
                 (A) (A) (A) (A) (A) (A) (A) (A) (A) (A) (A) (A)
                 (A) (A) (A) (A) (A) (A) (A) (A) (A) (A) (A) (A)
                 (A) (A) (A) (A) (A) (A) (A) (A) (A) (A) (A) (A)
                 (A) (A) (A) (A) (A) (A) (A) (A) (A) (A) (A) (A)
                 (A) (A) (A) (A) (A) (A) (A) (A) (A) (A) (A) (A)
                 (A) (A) (A) (A) (A) (A) (A) (A) (A) (A) (A) (A)
                 (A) (A) (A) (A) (A) (A) (A) (A) (A) (A) (A) (A)
                 (A) (A) (A) (A) (A) (A) (A) (A) (A) (A) (A) (A)
                 (A) (A) (A) (A) (A) (A) (A) (A) (A) (A) (A) (A)
                 (A) (A) (A) (A) (A) (A) (A) (A) (A) (A) (A) (A)
                 (A) (A) (A) (A) (A) (A) (A) (A) (A) (A) (A) (A)
                 (A) (A) (A) (A) (A) (A) (A) (A) (A) (A) (A) (A)
                 (A) (A) (A) (A) (A) (A) (A) (A) (A) (A) (A) (A)
                 (A) (A) (A) (A) (A) (A) (A) (A) (A) (A) (A) (A)
                 (A) (A) (A) (A) (A) (A) (A) (A) (A) (A) (A) (A)
                 (A) (A) (A) (A) (A) (A) (A) (A) (A) (A) (A) (A)
                 (A) (A) (A) (A) (A) (A) (A) (A) (A) (A) (A) (A)
                 (A) (A) (A) (A) (A) (A) (A) (A) (A) (A) (A) (A)
                 (A) (A) (A) (A) (A) (A) (A) (A) (A) (A) (A) (A)
                 (A) (A) (A) (A) (A) (A) (A) (A) (A) (A) (A) (A)
                 (A) (A) (A) (A) (A) (A) (A) (A) (A) (A) (A) (A)
                 (A) (A) (A) (A) (A) (A) (A) (A) (A) (A) (A) (A)
                 (A) (A) (A) (A) (A) (A) (A) (A) (A) (A) (A) (A)
                 (A) (A) (A) (A) (A) (A) (A) (A) (A) (A) (A) (A)
                 (A) (A) (A) (A) (A) (A) (A) (A) (A) (A) (A) (A)
                 (A) (A) (A) (A) (A) (A) (A) (A) (A) (A) (A) (A)
                 (A) (A) (A) (A) (A) (A) (A) (A) (A) (A) (A)
 The electronic state is 1-A.
 Alpha  occ. eigenvalues -- -101.57592-101.57591-101.57388-101.57387-101.56324
 Alpha  occ. eigenvalues --  -10.27371 -10.27370 -10.27241 -10.27241 -10.25521
 Alpha  occ. eigenvalues --  -10.23848 -10.22275 -10.21990 -10.20240 -10.20166
 Alpha  occ. eigenvalues --  -10.20051 -10.19701  -9.49049  -9.49048  -9.48862
 Alpha  occ. eigenvalues --   -9.48860  -9.47798  -7.25539  -7.25538  -7.25352
 Alpha  occ. eigenvalues --   -7.25350  -7.24525  -7.24524  -7.24467  -7.24467
 Alpha  occ. eigenvalues --   -7.24344  -7.24343  -7.24269  -7.24268  -7.24256
 Alpha  occ. eigenvalues --   -7.23281  -7.23241  -0.95625  -0.91703  -0.91379
 Alpha  occ. eigenvalues --   -0.88545  -0.87390  -0.85394  -0.83869  -0.80122
 Alpha  occ. eigenvalues --   -0.76146  -0.74802  -0.73876  -0.66988  -0.63190
 Alpha  occ. eigenvalues --   -0.62018  -0.61065  -0.54694  -0.54538  -0.52750
 Alpha  occ. eigenvalues --   -0.49882  -0.49267  -0.47655  -0.46628  -0.45839
 Alpha  occ. eigenvalues --   -0.45230  -0.44825  -0.42804  -0.42802  -0.40815
 Alpha  occ. eigenvalues --   -0.40402  -0.38606  -0.38403  -0.37066  -0.36034
 Alpha  occ. eigenvalues --   -0.35205  -0.34678  -0.34321  -0.32912  -0.32810
 Alpha  occ. eigenvalues --   -0.32536  -0.32465  -0.27917  -0.27876  -0.26482
 Alpha  occ. eigenvalues --   -0.26138
 Alpha virt. eigenvalues --   -0.05860  -0.05439  -0.04202  -0.03867  -0.03618
 Alpha virt. eigenvalues --   -0.00600  -0.00531   0.00035   0.01040   0.01556
 Alpha virt. eigenvalues --    0.01887   0.02972   0.02992   0.03343   0.04399
 Alpha virt. eigenvalues --    0.04735   0.04921   0.05614   0.05687   0.06340
 Alpha virt. eigenvalues --    0.06524   0.07613   0.08051   0.08222   0.08460
 Alpha virt. eigenvalues --    0.08798   0.09870   0.09904   0.10237   0.10764
 Alpha virt. eigenvalues --    0.10853   0.11422   0.11809   0.12097   0.12380
 Alpha virt. eigenvalues --    0.12993   0.13176   0.13327   0.13523   0.14200
 Alpha virt. eigenvalues --    0.14813   0.14942   0.15182   0.15785   0.15903
 Alpha virt. eigenvalues --    0.16386   0.16543   0.17136   0.17916   0.18185
 Alpha virt. eigenvalues --    0.18876   0.18913   0.19173   0.19592   0.19772
 Alpha virt. eigenvalues --    0.20217   0.20493   0.20695   0.21392   0.21618
 Alpha virt. eigenvalues --    0.21742   0.22009   0.22720   0.22764   0.22941
 Alpha virt. eigenvalues --    0.23490   0.23509   0.23969   0.25632   0.25702
 Alpha virt. eigenvalues --    0.26104   0.26176   0.26515   0.27429   0.27668
 Alpha virt. eigenvalues --    0.27925   0.28703   0.28896   0.29119   0.29661
 Alpha virt. eigenvalues --    0.30097   0.30342   0.30700   0.31832   0.32188
 Alpha virt. eigenvalues --    0.32313   0.33139   0.34326   0.35386   0.40036
 Alpha virt. eigenvalues --    0.41536   0.42370   0.44120   0.44391   0.44718
 Alpha virt. eigenvalues --    0.45561   0.46137   0.46363   0.46618   0.47939
 Alpha virt. eigenvalues --    0.48281   0.49043   0.50071   0.50727   0.51048
 Alpha virt. eigenvalues --    0.51323   0.51846   0.51912   0.53455   0.53857
 Alpha virt. eigenvalues --    0.55110   0.56969   0.57623   0.57799   0.58106
 Alpha virt. eigenvalues --    0.58483   0.58831   0.59235   0.60052   0.60930
 Alpha virt. eigenvalues --    0.61657   0.61953   0.62810   0.63781   0.64010
 Alpha virt. eigenvalues --    0.65558   0.65829   0.66597   0.67180   0.68347
 Alpha virt. eigenvalues --    0.69005   0.69070   0.69925   0.70061   0.71202
 Alpha virt. eigenvalues --    0.71600   0.73385   0.76537   0.78582   0.79958
 Alpha virt. eigenvalues --    0.80044   0.80359   0.81934   0.82970   0.83407
 Alpha virt. eigenvalues --    0.83718   0.84102   0.84310   0.84549   0.84785
 Alpha virt. eigenvalues --    0.84811   0.85554   0.85984   0.87141   0.87341
 Alpha virt. eigenvalues --    0.87908   0.88810   0.89732   0.90137   0.90225
 Alpha virt. eigenvalues --    0.90397   0.90733   0.93537   0.94344   0.94723
 Alpha virt. eigenvalues --    0.95178   0.95526   0.96429   0.96709   0.97357
 Alpha virt. eigenvalues --    0.98201   0.99426   0.99552   0.99945   1.00185
 Alpha virt. eigenvalues --    1.01462   1.01729   1.04029   1.04934   1.06379
 Alpha virt. eigenvalues --    1.06397   1.09118   1.11572   1.12823   1.16736
 Alpha virt. eigenvalues --    1.17128   1.18321   1.20151   1.22854   1.23177
 Alpha virt. eigenvalues --    1.25763   1.26832   1.27658   1.28742   1.30252
 Alpha virt. eigenvalues --    1.30483   1.30721   1.31595   1.35037   1.36849
 Alpha virt. eigenvalues --    1.38250   1.40323   1.44039   1.44629   1.48013
 Alpha virt. eigenvalues --    1.49120   1.49864   1.53072   1.55614   1.55639
 Alpha virt. eigenvalues --    1.57242   1.58246   1.59090   1.62168   1.64754
 Alpha virt. eigenvalues --    1.64986   1.66509   1.69831   1.69961   1.72852
 Alpha virt. eigenvalues --    1.74090   1.74246   1.75450   1.77326   1.80600
 Alpha virt. eigenvalues --    1.81509   1.82763   1.84363   1.86395   1.87979
 Alpha virt. eigenvalues --    1.89528   1.90088   1.93915   1.94251   1.95258
 Alpha virt. eigenvalues --    1.96169   1.98635   1.98981   2.01259   2.01942
 Alpha virt. eigenvalues --    2.03193   2.04555   2.06401   2.12437   2.14145
 Alpha virt. eigenvalues --    2.20078   2.21440   2.23708   2.24479   2.25645
 Alpha virt. eigenvalues --    2.25694   2.27830   2.30395   2.31097   2.32050
 Alpha virt. eigenvalues --    2.34413   2.35833   2.36432   2.38170   2.38962
 Alpha virt. eigenvalues --    2.40155   2.42153   2.44169   2.47118   2.47138
 Alpha virt. eigenvalues --    2.49885   2.50742   2.53491   2.54587   2.54882
 Alpha virt. eigenvalues --    2.58202   2.60790   2.61258   2.62190   2.65279
 Alpha virt. eigenvalues --    2.67716   2.68717   2.69246   2.71393   2.71936
 Alpha virt. eigenvalues --    2.74196   2.74741   2.75028   2.77554   2.78723
 Alpha virt. eigenvalues --    2.79854   2.82037   2.83637   2.84200   2.84381
 Alpha virt. eigenvalues --    2.86850   2.90214   2.97595   2.98444   3.05893
 Alpha virt. eigenvalues --    3.08796   3.09850   3.12284   3.12805   3.14867
 Alpha virt. eigenvalues --    3.20566   3.23258   3.25568   3.27993   3.33353
 Alpha virt. eigenvalues --    3.37191   3.39256   3.52207   3.52318   3.55756
 Alpha virt. eigenvalues --    3.58786   3.71694   3.78898   3.84326   3.89774
 Alpha virt. eigenvalues --    3.99554   4.02682   4.06972   4.13238   4.34035
 Alpha virt. eigenvalues --    4.80708   4.82523   9.76544   9.78502   9.81480
 Alpha virt. eigenvalues --    9.83549   9.85466  23.34798  23.58203  23.79178
 Alpha virt. eigenvalues --   23.86605  23.90577  23.93098  23.94045  23.98755
 Alpha virt. eigenvalues --   24.05819  24.07305  24.09999  24.16904  25.79010
 Alpha virt. eigenvalues --   25.80497  25.85447  25.94981  25.98045  26.11606
 Alpha virt. eigenvalues --   26.16135  26.21293  26.31167  26.36776  26.53044
 Alpha virt. eigenvalues --   26.60074  26.72234  26.76799  27.03508 215.75769
 Alpha virt. eigenvalues --  215.77917 215.81441 215.84170 215.86298
          Condensed to atoms (all electrons):
               1          2          3          4          5          6
     1  C   23.133558  -0.045046  -2.044991  -2.330678  -1.859082  -3.708056
     2  C   -0.045046  11.224393  -1.584556   0.675119  -0.598969   2.014699
     3  C   -2.044991  -1.584556  10.250994  -0.815613   0.501674  -2.731243
     4  C   -2.330678   0.675119  -0.815613   8.843687   0.842176   0.964943
     5  C   -1.859082  -0.598969   0.501674   0.842176  11.815373  -5.267463
     6  C   -3.708056   2.014699  -2.731243   0.964943  -5.267463  32.116833
     7  C    5.670649  -1.985122   1.265279  -1.803269  -0.099419  -6.146606
     8  C   -0.180414  -0.670387   0.370683  -0.189938  -0.028844  -5.040982
     9  C   -5.166064  -1.095874   0.164299  -0.046531   0.603944  -1.303661
    10  C   -3.183040  -0.745972  -0.253641   0.120062   0.587167   2.201882
    11  C   -5.171377  -1.088209   0.163809  -0.045888   0.601509  -1.307829
    12  C   -0.175739  -0.682243   0.371007  -0.190194  -0.022634  -5.030039
    13  H   -0.036177   0.324370  -0.062802  -0.010581  -0.001535  -0.120282
    14  H    0.036162  -0.033624   0.368503  -0.010547  -0.009851   0.001231
    15  H    0.032742  -0.017684  -0.011230   0.379335  -0.030470  -0.015504
    16  H    0.083710  -0.010131  -0.013751  -0.042887   0.391959  -0.047130
    17  H    0.017003   0.001430  -0.000044   0.000019  -0.000253  -0.002035
    18  Cl   0.298981   0.183642   0.165979  -0.125071  -0.134209  -0.098581
    19  Cl   0.567264   0.248513   0.061153  -0.069944  -0.739726   0.451723
    20  Cl  -0.157215  -0.000222   0.008375  -0.002840   0.001356  -0.075608
    21  Cl  -0.156998  -0.000388   0.008378  -0.002852   0.001350  -0.075614
    22  Cl   0.295512   0.186031   0.165989  -0.124502  -0.134345  -0.097468
               7          8          9         10         11         12
     1  C    5.670649  -0.180414  -5.166064  -3.183040  -5.171377  -0.175739
     2  C   -1.985122  -0.670387  -1.095874  -0.745972  -1.088209  -0.682243
     3  C    1.265279   0.370683   0.164299  -0.253641   0.163809   0.371007
     4  C   -1.803269  -0.189938  -0.046531   0.120062  -0.045888  -0.190194
     5  C   -0.099419  -0.028844   0.603944   0.587167   0.601509  -0.022634
     6  C   -6.146606  -5.040982  -1.303661   2.201882  -1.307829  -5.030039
     7  C   18.032369  -0.981337  -3.988389   2.628230  -3.985507  -0.977190
     8  C   -0.981337  40.256283 -12.059075 -11.679470   9.759151 -12.280623
     9  C   -3.988389 -12.059075  27.498271  -0.022990  -7.543002   9.765178
    10  C    2.628230 -11.679470  -0.022990  29.132003  -0.007852 -11.688266
    11  C   -3.985507   9.759151  -7.543002  -0.007852  27.495433 -12.061801
    12  C   -0.977190 -12.280623   9.765178 -11.688266 -12.061801  40.248799
    13  H    0.077271   0.073378   0.019255   0.004356   0.019318   0.073244
    14  H   -0.002683   0.000893  -0.000226   0.000033  -0.000227   0.000893
    15  H    0.010017   0.001920   0.000261   0.000013   0.000260   0.001920
    16  H    0.003559  -0.000019  -0.000896   0.000012  -0.000890  -0.000023
    17  H    0.043838   0.095257  -0.014548   0.124397  -0.014545   0.095365
    18  Cl  -0.282703  -1.495922   0.962826   0.153271  -1.596563   0.613765
    19  Cl  -0.246679  -0.044664  -0.452868  -0.646572  -0.454218  -0.045639
    20  Cl  -0.490687   0.455519  -0.240055  -0.092819  -0.025890   0.013591
    21  Cl  -0.490807   0.014714  -0.026014  -0.094103  -0.239811   0.455729
    22  Cl  -0.283307   0.612207  -1.595438   0.155808   0.962598  -1.496521
              13         14         15         16         17         18
     1  C   -0.036177   0.036162   0.032742   0.083710   0.017003   0.298981
     2  C    0.324370  -0.033624  -0.017684  -0.010131   0.001430   0.183642
     3  C   -0.062802   0.368503  -0.011230  -0.013751  -0.000044   0.165979
     4  C   -0.010581  -0.010547   0.379335  -0.042887   0.000019  -0.125071
     5  C   -0.001535  -0.009851  -0.030470   0.391959  -0.000253  -0.134209
     6  C   -0.120282   0.001231  -0.015504  -0.047130  -0.002035  -0.098581
     7  C    0.077271  -0.002683   0.010017   0.003559   0.043838  -0.282703
     8  C    0.073378   0.000893   0.001920  -0.000019   0.095257  -1.495922
     9  C    0.019255  -0.000226   0.000261  -0.000896  -0.014548   0.962826
    10  C    0.004356   0.000033   0.000013   0.000012   0.124397   0.153271
    11  C    0.019318  -0.000227   0.000260  -0.000890  -0.014545  -1.596563
    12  C    0.073244   0.000893   0.001920  -0.000023   0.095365   0.613765
    13  H    0.539292  -0.007151  -0.000259   0.000055  -0.000002  -0.008244
    14  H   -0.007151   0.530371  -0.007359  -0.000217  -0.000000  -0.000622
    15  H   -0.000259  -0.007359   0.528006  -0.007475  -0.000000  -0.000371
    16  H    0.000055  -0.000217  -0.007475   0.511248   0.000000  -0.000796
    17  H   -0.000002  -0.000000  -0.000000   0.000000   0.487959  -0.001307
    18  Cl  -0.008244  -0.000622  -0.000371  -0.000796  -0.001307  18.045913
    19  Cl  -0.004073   0.000735  -0.000487  -0.013866   0.000138   0.130349
    20  Cl   0.000437   0.000001   0.000001  -0.000004  -0.002649  -0.245836
    21  Cl   0.000437   0.000001   0.000001  -0.000004  -0.002642   0.005939
    22  Cl  -0.008227  -0.000622  -0.000373  -0.000792  -0.001312  -0.132992
              19         20         21         22
     1  C    0.567264  -0.157215  -0.156998   0.295512
     2  C    0.248513  -0.000222  -0.000388   0.186031
     3  C    0.061153   0.008375   0.008378   0.165989
     4  C   -0.069944  -0.002840  -0.002852  -0.124502
     5  C   -0.739726   0.001356   0.001350  -0.134345
     6  C    0.451723  -0.075608  -0.075614  -0.097468
     7  C   -0.246679  -0.490687  -0.490807  -0.283307
     8  C   -0.044664   0.455519   0.014714   0.612207
     9  C   -0.452868  -0.240055  -0.026014  -1.595438
    10  C   -0.646572  -0.092819  -0.094103   0.155808
    11  C   -0.454218  -0.025890  -0.239811   0.962598
    12  C   -0.045639   0.013591   0.455729  -1.496521
    13  H   -0.004073   0.000437   0.000437  -0.008227
    14  H    0.000735   0.000001   0.000001  -0.000622
    15  H   -0.000487   0.000001   0.000001  -0.000373
    16  H   -0.013866  -0.000004  -0.000004  -0.000792
    17  H    0.000138  -0.002649  -0.002642  -0.001312
    18  Cl   0.130349  -0.245836   0.005939  -0.132992
    19  Cl  17.738111  -0.004199  -0.004147   0.129590
    20  Cl  -0.004199  17.383253  -0.027149   0.005937
    21  Cl  -0.004147  -0.027149  17.383208  -0.245864
    22  Cl   0.129590   0.005937  -0.245864  18.045261
 Mulliken charges:
               1
     1  C    0.079295
     2  C   -0.299771
     3  C   -0.348250
     4  C   -0.014007
     5  C   -0.419713
     6  C   -0.683211
     7  C    0.032493
     8  C   -0.988329
     9  C    0.541597
    10  C   -0.692507
    11  C    0.541531
    12  C   -0.988579
    13  H    0.127919
    14  H    0.134304
    15  H    0.136735
    16  H    0.148337
    17  H    0.173934
    18  Cl   0.562551
    19  Cl   0.399504
    20  Cl   0.496704
    21  Cl   0.496636
    22  Cl   0.562829
 Sum of Mulliken charges =  -0.00000
 Mulliken charges with hydrogens summed into heavy atoms:
               1
     1  C    0.079295
     2  C   -0.171851
     3  C   -0.213947
     4  C    0.122727
     5  C   -0.271377
     6  C   -0.683211
     7  C    0.032493
     8  C   -0.988329
     9  C    0.541597
    10  C   -0.518574
    11  C    0.541531
    12  C   -0.988579
    18  Cl   0.562551
    19  Cl   0.399504
    20  Cl   0.496704
    21  Cl   0.496636
    22  Cl   0.562829
 Electronic spatial extent (au):  <R**2>=           5893.9410
 Charge=             -0.0000 electrons
 Dipole moment (field-independent basis, Debye):
    X=              1.4063    Y=             -0.0011    Z=             -1.4839  Tot=              2.0444
 Quadrupole moment (field-independent basis, Debye-Ang):
   XX=           -117.2228   YY=           -138.8194   ZZ=           -130.0036
   XY=             -0.0054   XZ=             -3.5875   YZ=              0.0055
 Traceless Quadrupole moment (field-independent basis, Debye-Ang):
   XX=             11.4591   YY=            -10.1375   ZZ=             -1.3217
   XY=             -0.0054   XZ=             -3.5875   YZ=              0.0055
 Octapole moment (field-independent basis, Debye-Ang**2):
  XXX=             34.2939  YYY=              0.0168  ZZZ=             -3.0786  XYY=             -7.6378
  XXY=             -0.0029  XXZ=             -3.4805  XZZ=              6.0224  YZZ=             -0.0078
  YYZ=              6.2101  XYZ=              0.0131
 Hexadecapole moment (field-independent basis, Debye-Ang**3):
 XXXX=          -3977.2023 YYYY=          -2491.1079 ZZZZ=           -847.9890 XXXY=             -0.0523
 XXXZ=            -18.0011 YYYX=              0.0194 YYYZ=             -0.0406 ZZZX=            -23.1664
 ZZZY=              0.0636 XXYY=          -1187.1749 XXZZ=           -853.1204 YYZZ=           -594.1513
 XXYZ=              0.0512 YYXZ=              7.9981 ZZXY=             -0.0333
 N-N= 1.795024618863D+03 E-N=-1.012707772713D+04  KE= 2.754118747655D+03
 1\1\GINC-CN041\FOpt\RB3LYP\6-311+G(d,p)\C12H5Cl5\20CY91R06\07-Apr-2022
 \0\\# opt b3lyp/6-311+g(d,p) scf=xqc\\Title Card Required\\0,1\C,-0.14
 06537149,-0.079600168,-0.0273277989\C,0.5027930112,0.2979605402,-1.210
 6988499\C,1.1899580909,1.5035340207,-1.3013823792\C,1.2428703691,2.354
 7646311,-0.1995951806\C,0.6101842278,2.0000450241,0.9879091144\C,-0.07
 40632545,0.7904772894,1.0649535742\C,-0.870517966,-1.3803852885,0.0394
 86601\C,-0.2074421277,-2.5519352927,0.4361676294\C,-0.8905658335,-3.77
 14694499,0.4814662253\C,-2.2329920452,-3.8313864739,0.1317095088\C,-2.
 9026569315,-2.6810443293,-0.2636862937\C,-2.2270419593,-1.457436971,-0
 .3116773654\H,0.4582414725,-0.368230601,-2.0645392454\H,1.6812526172,1
 .7761686458,-2.2277535132\H,1.7757229114,3.2966049049,-0.2597348896\H,
 0.6426300315,2.651168604,1.8519605874\H,-2.7581069474,-4.7756525741,0.
 1678156414\Cl,-3.0669345829,-0.0115777897,-0.8024868837\Cl,-0.86419777
 25,0.3678451873,2.5762558223\Cl,-4.587916966,-2.8137904803,-0.69329243
 03\Cl,-0.0983879288,-5.2469181165,0.9693223003\Cl,1.4760535186,-2.4737
 048725,0.8792202554\\Version=EM64L-G16RevB.01\State=1-A\HF=-2761.51269
 73\RMSD=4.170e-09\RMSF=1.887e-05\Dipole=0.428211,0.4273419,-0.5300503\
 Quadrupole=-2.7933533,4.6101692,-1.8168159,6.9427309,-2.6425374,-0.963
 2326\PG=C01 [X(C12H5Cl5)]\\@


 YOU KNOW YOU'RE A TEACHER WHEN YOU SAY 2, WRITE 3, AND MEAN 4.
 -- RONALD ANSTROM, HIGH SCHOOL TEACHER, UNDERWOOD, N.D. 1974
 Job cpu time:       1 days  0 hours 18 minutes 23.8 seconds.
 Elapsed time:       0 days  6 hours  5 minutes 49.9 seconds.
 File lengths (MBytes):  RWF=    134 Int=      0 D2E=      0 Chk=     19 Scr=      1
 Normal termination of Gaussian 16 at Thu Apr  7 04:22:40 2022.
