 Entering Gaussian System, Link 0=g16
 Input=2,2prime,3,3prime,4,5prime-Hexachlorobiphenyl.gjf
 Output=2,2prime,3,3prime,4,5prime-Hexachlorobiphenyl.log
 Initial command:
 /home/apps/g16/l1.exe "./Gau-401992.inp" -scrdir="./"
 Entering Link 1 = /home/apps/g16/l1.exe PID=    401993.
  
 Copyright (c) 1988-2017, Gaussian, Inc.  All Rights Reserved.
  
 This is part of the Gaussian(R) 16 program.  It is based on
 the Gaussian(R) 09 system (copyright 2009, Gaussian, Inc.),
 the Gaussian(R) 03 system (copyright 2003, Gaussian, Inc.),
 the Gaussian(R) 98 system (copyright 1998, Gaussian, Inc.),
 the Gaussian(R) 94 system (copyright 1995, Gaussian, Inc.),
 the Gaussian 92(TM) system (copyright 1992, Gaussian, Inc.),
 the Gaussian 90(TM) system (copyright 1990, Gaussian, Inc.),
 the Gaussian 88(TM) system (copyright 1988, Gaussian, Inc.),
 the Gaussian 86(TM) system (copyright 1986, Carnegie Mellon
 University), and the Gaussian 82(TM) system (copyright 1983,
 Carnegie Mellon University). Gaussian is a federally registered
 trademark of Gaussian, Inc.
  
 This software contains proprietary and confidential information,
 including trade secrets, belonging to Gaussian, Inc.
  
 This software is provided under written license and may be
 used, copied, transmitted, or stored only in accord with that
 written license.
  
 The following legend is applicable only to US Government
 contracts under FAR:
  
                    RESTRICTED RIGHTS LEGEND
  
 Use, reproduction and disclosure by the US Government is
 subject to restrictions as set forth in subparagraphs (a)
 and (c) of the Commercial Computer Software - Restricted
 Rights clause in FAR 52.227-19.
  
 Gaussian, Inc.
 340 Quinnipiac St., Bldg. 40, Wallingford CT 06492
  
  
 ---------------------------------------------------------------
 Warning -- This program may not be used in any manner that
 competes with the business of Gaussian, Inc. or will provide
 assistance to any competitor of Gaussian, Inc.  The licensee
 of this program is prohibited from giving any competitor of
 Gaussian, Inc. access to this program.  By using this program,
 the user acknowledges that Gaussian, Inc. is engaged in the
 business of creating and licensing software in the field of
 computational chemistry and represents and warrants to the
 licensee that it is not a competitor of Gaussian, Inc. and that
 it will not use this program in any manner prohibited above.
 ---------------------------------------------------------------
  

 Cite this work as:
 Gaussian 16, Revision B.01,
 M. J. Frisch, G. W. Trucks, H. B. Schlegel, G. E. Scuseria, 
 M. A. Robb, J. R. Cheeseman, G. Scalmani, V. Barone, 
 G. A. Petersson, H. Nakatsuji, X. Li, M. Caricato, A. V. Marenich, 
 J. Bloino, B. G. Janesko, R. Gomperts, B. Mennucci, H. P. Hratchian, 
 J. V. Ortiz, A. F. Izmaylov, J. L. Sonnenberg, D. Williams-Young, 
 F. Ding, F. Lipparini, F. Egidi, J. Goings, B. Peng, A. Petrone, 
 T. Henderson, D. Ranasinghe, V. G. Zakrzewski, J. Gao, N. Rega, 
 G. Zheng, W. Liang, M. Hada, M. Ehara, K. Toyota, R. Fukuda, 
 J. Hasegawa, M. Ishida, T. Nakajima, Y. Honda, O. Kitao, H. Nakai, 
 T. Vreven, K. Throssell, J. A. Montgomery, Jr., J. E. Peralta, 
 F. Ogliaro, M. J. Bearpark, J. J. Heyd, E. N. Brothers, K. N. Kudin, 
 V. N. Staroverov, T. A. Keith, R. Kobayashi, J. Normand, 
 K. Raghavachari, A. P. Rendell, J. C. Burant, S. S. Iyengar, 
 J. Tomasi, M. Cossi, J. M. Millam, M. Klene, C. Adamo, R. Cammi, 
 J. W. Ochterski, R. L. Martin, K. Morokuma, O. Farkas, 
 J. B. Foresman, and D. J. Fox, Gaussian, Inc., Wallingford CT, 2016.
 
 ******************************************
 Gaussian 16:  EM64L-G16RevB.01 20-Dec-2017
                 3-Apr-2022 
 ******************************************
 %mem=32GB
 %nprocshared=16
 Will use up to   16 processors via shared memory.
 --------------------------------
 # opt b3lyp/6-311+g(d,p) scf=xqc
 --------------------------------
 1/18=20,19=15,26=3,38=1/1,3;
 2/9=110,12=2,17=6,18=5,40=1/2;
 3/5=4,6=6,7=111,11=2,25=1,30=1,71=1,74=-5/1,2,3;
 4//1;
 5/5=2,8=3,13=1,38=5/2,8;
 6/7=2,8=2,9=2,10=2,28=1/1;
 7//1,2,3,16;
 1/18=20,19=15,26=3/3(2);
 2/9=110/2;
 99//99;
 2/9=110/2;
 3/5=4,6=6,7=111,11=2,25=1,30=1,71=1,74=-5/1,2,3;
 4/5=5,16=3,69=1/1;
 5/5=2,8=3,13=1,38=5/2,8;
 7//1,2,3,16;
 1/18=20,19=15,26=3/3(-5);
 2/9=110/2;
 6/7=2,8=2,9=2,10=2,19=2,28=1/1;
 99/9=1/99;
 -------------------
 Title Card Required
 -------------------
 Symbolic Z-matrix:
 Charge =  0 Multiplicity = 1
 C                     0.83065   0.18081  -0.00392 
 C                     2.16303   0.2107   -0.43726 
 C                     2.87093   1.42015  -0.44333 
 C                     2.24644   2.59971  -0.01606 
 C                     0.91406   2.56983   0.41728 
 C                     0.20616   1.36038   0.42336 
 C                    -0.19553  -1.57244   0.00489 
 C                     0.42896  -2.752    -0.42239 
 C                    -0.27893  -3.96145  -0.41631 
 C                    -1.61131  -3.99134   0.01704 
 C                    -2.2358   -2.81177   0.44431 
 C                    -1.52791  -1.60232   0.43824 
 H                     2.63984  -0.68993  -0.76349 
 H                     2.78693   3.52316  -0.0207 
 H                     1.44626  -2.72918  -0.75326 
 H                     0.19788  -4.86208  -0.74255 
 Cl                   -2.31219  -0.12092   0.97485 
 Cl                   -1.46716   1.32284   0.96759 
 Cl                   -3.90912  -2.84931   0.98855 
 Cl                    0.12977   4.05123   0.95389 
 Cl                   -2.50035  -5.51027   0.02467 
 Cl                    4.54425   1.45768  -0.98757 
 

 GradGradGradGradGradGradGradGradGradGradGradGradGradGradGradGradGradGrad
 Berny optimization.
 Initialization pass.
                           ----------------------------
                           !    Initial Parameters    !
                           ! (Angstroms and Degrees)  !
 --------------------------                            --------------------------
 ! Name  Definition              Value          Derivative Info.                !
 --------------------------------------------------------------------------------
 ! R1    R(1,2)                  1.4014         estimate D2E/DX2                !
 ! R2    R(1,6)                  1.4014         estimate D2E/DX2                !
 ! R3    R(2,3)                  1.4014         estimate D2E/DX2                !
 ! R4    R(2,13)                 1.07           estimate D2E/DX2                !
 ! R5    R(3,4)                  1.4014         estimate D2E/DX2                !
 ! R6    R(3,22)                 1.76           estimate D2E/DX2                !
 ! R7    R(4,5)                  1.4014         estimate D2E/DX2                !
 ! R8    R(4,14)                 1.07           estimate D2E/DX2                !
 ! R9    R(5,6)                  1.4014         estimate D2E/DX2                !
 ! R10   R(5,20)                 1.76           estimate D2E/DX2                !
 ! R11   R(6,18)                 1.76           estimate D2E/DX2                !
 ! R12   R(7,8)                  1.4014         estimate D2E/DX2                !
 ! R13   R(7,12)                 1.4014         estimate D2E/DX2                !
 ! R14   R(8,9)                  1.4014         estimate D2E/DX2                !
 ! R15   R(8,15)                 1.07           estimate D2E/DX2                !
 ! R16   R(9,10)                 1.4014         estimate D2E/DX2                !
 ! R17   R(9,16)                 1.07           estimate D2E/DX2                !
 ! R18   R(10,11)                1.4014         estimate D2E/DX2                !
 ! R19   R(10,21)                1.76           estimate D2E/DX2                !
 ! R20   R(11,12)                1.4014         estimate D2E/DX2                !
 ! R21   R(11,19)                1.76           estimate D2E/DX2                !
 ! R22   R(12,17)                1.76           estimate D2E/DX2                !
 ! R23   R(17,18)                1.6729         estimate D2E/DX2                !
 ! A1    A(2,1,6)              120.0            estimate D2E/DX2                !
 ! A2    A(1,2,3)              120.0            estimate D2E/DX2                !
 ! A3    A(1,2,13)             120.0            estimate D2E/DX2                !
 ! A4    A(3,2,13)             120.0            estimate D2E/DX2                !
 ! A5    A(2,3,4)              120.0            estimate D2E/DX2                !
 ! A6    A(2,3,22)             120.0            estimate D2E/DX2                !
 ! A7    A(4,3,22)             120.0            estimate D2E/DX2                !
 ! A8    A(3,4,5)              120.0            estimate D2E/DX2                !
 ! A9    A(3,4,14)             120.0            estimate D2E/DX2                !
 ! A10   A(5,4,14)             120.0            estimate D2E/DX2                !
 ! A11   A(4,5,6)              120.0            estimate D2E/DX2                !
 ! A12   A(4,5,20)             120.0            estimate D2E/DX2                !
 ! A13   A(6,5,20)             120.0            estimate D2E/DX2                !
 ! A14   A(1,6,5)              120.0            estimate D2E/DX2                !
 ! A15   A(1,6,18)             120.0            estimate D2E/DX2                !
 ! A16   A(5,6,18)             120.0            estimate D2E/DX2                !
 ! A17   A(8,7,12)             120.0            estimate D2E/DX2                !
 ! A18   A(7,8,9)              120.0            estimate D2E/DX2                !
 ! A19   A(7,8,15)             120.0            estimate D2E/DX2                !
 ! A20   A(9,8,15)             120.0            estimate D2E/DX2                !
 ! A21   A(8,9,10)             120.0            estimate D2E/DX2                !
 ! A22   A(8,9,16)             120.0            estimate D2E/DX2                !
 ! A23   A(10,9,16)            120.0            estimate D2E/DX2                !
 ! A24   A(9,10,11)            120.0            estimate D2E/DX2                !
 ! A25   A(9,10,21)            120.0            estimate D2E/DX2                !
 ! A26   A(11,10,21)           120.0            estimate D2E/DX2                !
 ! A27   A(10,11,12)           120.0            estimate D2E/DX2                !
 ! A28   A(10,11,19)           120.0            estimate D2E/DX2                !
 ! A29   A(12,11,19)           120.0            estimate D2E/DX2                !
 ! A30   A(7,12,11)            120.0            estimate D2E/DX2                !
 ! A31   A(7,12,17)            120.0            estimate D2E/DX2                !
 ! A32   A(11,12,17)           120.0            estimate D2E/DX2                !
 ! A33   A(12,17,18)           120.0            estimate D2E/DX2                !
 ! A34   A(6,18,17)            120.0            estimate D2E/DX2                !
 ! D1    D(6,1,2,3)              0.0001         estimate D2E/DX2                !
 ! D2    D(6,1,2,13)           180.0            estimate D2E/DX2                !
 ! D3    D(2,1,6,5)             -0.0001         estimate D2E/DX2                !
 ! D4    D(2,1,6,18)           180.0            estimate D2E/DX2                !
 ! D5    D(1,2,3,4)              0.0            estimate D2E/DX2                !
 ! D6    D(1,2,3,22)           180.0            estimate D2E/DX2                !
 ! D7    D(13,2,3,4)          -179.9999         estimate D2E/DX2                !
 ! D8    D(13,2,3,22)            0.0001         estimate D2E/DX2                !
 ! D9    D(2,3,4,5)             -0.0001         estimate D2E/DX2                !
 ! D10   D(2,3,4,14)           180.0            estimate D2E/DX2                !
 ! D11   D(22,3,4,5)           179.9999         estimate D2E/DX2                !
 ! D12   D(22,3,4,14)            0.0            estimate D2E/DX2                !
 ! D13   D(3,4,5,6)              0.0001         estimate D2E/DX2                !
 ! D14   D(3,4,5,20)          -179.9999         estimate D2E/DX2                !
 ! D15   D(14,4,5,6)          -180.0            estimate D2E/DX2                !
 ! D16   D(14,4,5,20)            0.0            estimate D2E/DX2                !
 ! D17   D(4,5,6,1)              0.0            estimate D2E/DX2                !
 ! D18   D(4,5,6,18)           179.9999         estimate D2E/DX2                !
 ! D19   D(20,5,6,1)           180.0            estimate D2E/DX2                !
 ! D20   D(20,5,6,18)           -0.0001         estimate D2E/DX2                !
 ! D21   D(1,6,18,17)            0.0004         estimate D2E/DX2                !
 ! D22   D(5,6,18,17)         -179.9996         estimate D2E/DX2                !
 ! D23   D(12,7,8,9)             0.0001         estimate D2E/DX2                !
 ! D24   D(12,7,8,15)         -179.9998         estimate D2E/DX2                !
 ! D25   D(8,7,12,11)           -0.0001         estimate D2E/DX2                !
 ! D26   D(8,7,12,17)          179.9999         estimate D2E/DX2                !
 ! D27   D(7,8,9,10)             0.0            estimate D2E/DX2                !
 ! D28   D(7,8,9,16)           180.0            estimate D2E/DX2                !
 ! D29   D(15,8,9,10)          179.9998         estimate D2E/DX2                !
 ! D30   D(15,8,9,16)           -0.0002         estimate D2E/DX2                !
 ! D31   D(8,9,10,11)            0.0            estimate D2E/DX2                !
 ! D32   D(8,9,10,21)         -179.9999         estimate D2E/DX2                !
 ! D33   D(16,9,10,11)         180.0            estimate D2E/DX2                !
 ! D34   D(16,9,10,21)           0.0001         estimate D2E/DX2                !
 ! D35   D(9,10,11,12)           0.0            estimate D2E/DX2                !
 ! D36   D(9,10,11,19)        -179.9998         estimate D2E/DX2                !
 ! D37   D(21,10,11,12)        179.9999         estimate D2E/DX2                !
 ! D38   D(21,10,11,19)          0.0001         estimate D2E/DX2                !
 ! D39   D(10,11,12,7)           0.0            estimate D2E/DX2                !
 ! D40   D(10,11,12,17)       -179.9999         estimate D2E/DX2                !
 ! D41   D(19,11,12,7)         179.9999         estimate D2E/DX2                !
 ! D42   D(19,11,12,17)         -0.0001         estimate D2E/DX2                !
 ! D43   D(7,12,17,18)           0.0004         estimate D2E/DX2                !
 ! D44   D(11,12,17,18)       -179.9997         estimate D2E/DX2                !
 ! D45   D(12,17,18,6)          -0.0006         estimate D2E/DX2                !
 --------------------------------------------------------------------------------
 Trust Radius=3.00D-01 FncErr=1.00D-07 GrdErr=1.00D-06 EigMax=2.50D+02 EigMin=1.00D-04
 Number of steps in this run=    112 maximum allowed number of steps=    132.
 GradGradGradGradGradGradGradGradGradGradGradGradGradGradGradGradGradGrad

                          Input orientation:                          
 ---------------------------------------------------------------------
 Center     Atomic      Atomic             Coordinates (Angstroms)
 Number     Number       Type             X           Y           Z
 ---------------------------------------------------------------------
      1          6           0        0.830651    0.180811   -0.003916
      2          6           0        2.163032    0.210697   -0.437263
      3          6           0        2.870926    1.420148   -0.443335
      4          6           0        2.246438    2.599713   -0.016060
      5          6           0        0.914056    2.569827    0.417284
      6          6           0        0.206163    1.360376    0.423357
      7          6           0       -0.195527   -1.572436    0.004888
      8          6           0        0.428961   -2.752001   -0.422387
      9          6           0       -0.278932   -3.961452   -0.416313
     10          6           0       -1.611312   -3.991339    0.017037
     11          6           0       -2.235800   -2.811774    0.444312
     12          6           0       -1.527907   -1.602322    0.438238
     13          1           0        2.639843   -0.689928   -0.763495
     14          1           0        2.786931    3.523155   -0.020696
     15          1           0        1.446263   -2.729182   -0.753257
     16          1           0        0.197878   -4.862076   -0.742547
     17         17           0       -2.312191   -0.120923    0.974850
     18         17           0       -1.467158    1.322843    0.967591
     19         17           0       -3.909117   -2.849309    0.988555
     20         17           0        0.129770    4.051228    0.953890
     21         17           0       -2.500345   -5.510273    0.024668
     22         17           0        4.544246    1.457681   -0.987568
 ---------------------------------------------------------------------
                    Distance matrix (angstroms):
                    1          2          3          4          5
     1  C    0.000000
     2  C    1.401400   0.000000
     3  C    2.427296   1.401400   0.000000
     4  C    2.802800   2.427296   1.401400   0.000000
     5  C    2.427296   2.802800   2.427296   1.401400   0.000000
     6  C    1.401400   2.427296   2.802800   2.427296   1.401400
     7  C    2.031500   2.989625   4.308084   4.834300   4.308084
     8  C    2.989625   3.432900   4.834300   5.666495   5.409457
     9  C    4.308084   4.834300   6.235700   7.041774   6.691466
    10  C    4.834300   5.666495   7.041774   7.637100   7.041774
    11  C    4.308084   5.409457   6.691466   7.041774   6.235700
    12  C    2.989625   4.204351   5.409457   5.666495   4.834300
    13  H    2.146700   1.070000   2.146700   3.396345   3.872800
    14  H    3.872800   3.396345   2.146700   1.070000   2.146700
    15  H    3.067336   3.042450   4.398029   5.438829   5.452790
    16  H    5.135824   5.448675   6.833817   7.771916   7.555879
    17  Cl   3.305523   4.704429   5.590246   5.400450   4.237887
    18  Cl   2.743718   4.048303   4.562800   4.048303   2.743718
    19  Cl   5.712445   6.947487   8.139259   8.282025   7.277114
    20  Cl   4.048303   4.562800   4.048303   2.743718   1.760000
    21  Cl   6.594300   7.395266   8.780678   9.397100   8.780678
    22  Cl   4.048303   2.743718   1.760000   2.743718   4.048303
                    6          7          8          9         10
     6  C    0.000000
     7  C    2.989625   0.000000
     8  C    4.204351   1.401400   0.000000
     9  C    5.409457   2.427296   1.401400   0.000000
    10  C    5.666495   2.802800   2.427296   1.401400   0.000000
    11  C    4.834300   2.427296   2.802800   2.427296   1.401400
    12  C    3.432900   1.401400   2.427296   2.802800   2.427296
    13  H    3.396345   3.067336   3.042450   4.398029   5.438829
    14  H    3.396345   5.904300   6.715576   8.097863   8.707100
    15  H    4.432467   2.146700   1.070000   2.146700   3.396345
    16  H    6.330744   3.396345   2.146700   1.070000   2.146700
    17  Cl   2.973298   2.743718   4.048303   4.562800   4.048303
    18  Cl   1.760000   3.305523   4.704429   5.590246   5.400450
    19  Cl   5.914087   4.048303   4.562800   4.048303   2.743718
    20  Cl   2.743718   5.712445   6.947487   8.139259   8.282025
    21  Cl   7.395266   4.562800   4.048303   2.743718   1.760000
    22  Cl   4.562800   5.712445   5.914087   7.277114   8.282025
                   11         12         13         14         15
    11  C    0.000000
    12  C    1.401400   0.000000
    13  H    5.452790   4.432466   0.000000
    14  H    8.097863   6.715576   4.280590   0.000000
    15  H    3.872800   3.396345   2.362900   6.436285   0.000000
    16  H    3.396345   3.872800   4.834300   8.805474   2.471400
    17  Cl   2.743718   1.760000   5.279038   6.345980   4.890332
    18  Cl   4.237887   2.973298   4.890332   4.890332   5.279038
    19  Cl   1.760000   2.743718   7.114877   9.298599   5.632800
    20  Cl   7.277114   5.914087   5.632800   2.879094   7.114877
    21  Cl   2.743718   4.048303   7.090731  10.467100   4.890332
    22  Cl   8.139259   6.947487   2.879094   2.879094   5.213657
                   16         17         18         19         20
    16  H    0.000000
    17  Cl   5.632800   0.000000
    18  Cl   6.629490   1.672900   0.000000
    19  Cl   4.890332   3.161400   4.834300   0.000000
    20  Cl   9.073563   4.834300   3.161400   7.995700   0.000000
    21  Cl   2.879094   5.475705   6.974816   3.161400   9.960084
    22  Cl   7.674001   7.304369   6.322800   9.690953   5.475705
                   21         22
    21  Cl   0.000000
    22  Cl   9.960084   0.000000
 Stoichiometry    C12H4Cl6
 Framework group  C1[X(C12H4Cl6)]
 Deg. of freedom    60
 Full point group                 C1      NOp   1
 Largest Abelian subgroup         C1      NOp   1
 Largest concise Abelian subgroup C1      NOp   1
                         Standard orientation:                         
 ---------------------------------------------------------------------
 Center     Atomic      Atomic             Coordinates (Angstroms)
 Number     Number       Type             X           Y           Z
 ---------------------------------------------------------------------
      1          6           0        1.242455    0.601194    0.000002
      2          6           0        2.086069    1.720229    0.000001
      3          6           0        3.476988    1.549156   -0.000002
      4          6           0        4.024294    0.259048   -0.000003
      5          6           0        3.180680   -0.859987    0.000000
      6          6           0        1.789761   -0.688913    0.000002
      7          6           0       -0.773851    0.849186    0.000004
      8          6           0       -1.321157    2.139294    0.000005
      9          6           0       -2.712076    2.310367    0.000005
     10          6           0       -3.555689    1.191332    0.000003
     11          6           0       -3.008384   -0.098775    0.000001
     12          6           0       -1.617465   -0.269849    0.000001
     13          1           0        1.668189    2.705255   -0.000000
     14          1           0        5.086291    0.128430   -0.000005
     15          1           0       -0.677039    2.993702    0.000004
     16          1           0       -3.129956    3.295393    0.000006
     17         17           0       -0.930110   -1.890078   -0.000004
     18         17           0        0.730278   -2.094294    0.000005
     19         17           0       -4.067867   -1.504156   -0.000006
     20         17           0        3.868034   -2.480216    0.000002
     21         17           0       -5.302526    1.406181    0.000000
     22         17           0        4.536471    2.954537   -0.000004
 ---------------------------------------------------------------------
 Rotational constants (GHZ):           0.4199286           0.1305583           0.0995940
 Standard basis: 6-311+G(d,p) (5D, 7F)
 There are   486 symmetry adapted cartesian basis functions of A   symmetry.
 There are   468 symmetry adapted basis functions of A   symmetry.
   468 basis functions,   782 primitive gaussians,   486 cartesian basis functions
    89 alpha electrons       89 beta electrons
       nuclear repulsion energy      2017.1834065234 Hartrees.
 NAtoms=   22 NActive=   22 NUniq=   22 SFac= 1.00D+00 NAtFMM=   60 NAOKFM=F Big=F
 Integral buffers will be    131072 words long.
 Raffenetti 2 integral format.
 Two-electron integral symmetry is turned on.
 One-electron integrals computed using PRISM.
 NBasis=   468 RedAO= T EigKep=  1.57D-06  NBF=   468
 NBsUse=   462 1.00D-06 EigRej=  7.48D-07 NBFU=   462
 ExpMin= 4.38D-02 ExpMax= 1.06D+05 ExpMxC= 3.62D+03 IAcc=3 IRadAn=         5 AccDes= 0.00D+00
 Harris functional with IExCor=  402 and IRadAn=       5 diagonalized for initial guess.
 HarFok:  IExCor=  402 AccDes= 0.00D+00 IRadAn=         5 IDoV= 1 UseB2=F ITyADJ=14
 ICtDFT=  3500011 ScaDFX=  1.000000  1.000000  1.000000  1.000000
 FoFCou: FMM=F IPFlag=           0 FMFlag=      100000 FMFlg1=           0
         NFxFlg=           0 DoJE=T BraDBF=F KetDBF=T FulRan=T
         wScrn=  0.000000 ICntrl=       500 IOpCl=  0 I1Cent=   200000004 NGrid=           0
         NMat0=    1 NMatS0=      1 NMatT0=    0 NMatD0=    1 NMtDS0=    0 NMtDT0=    0
 Petite list used in FoFCou.
 Requested convergence on RMS density matrix=1.00D-08 within  32 cycles.
 Requested convergence on MAX density matrix=1.00D-06.
 Requested convergence on             energy=1.00D-06.
 No special actions if energy rises.
 EnCoef did     4 forward-backward iterations
 EnCoef did     3 forward-backward iterations
 EnCoef did     2 forward-backward iterations
 EnCoef did     2 forward-backward iterations
 EnCoef did     2 forward-backward iterations
 EnCoef did     2 forward-backward iterations
 Restarting incremental Fock formation.
 SCF Done:  E(RB3LYP) =  -3220.57512806     A.U. after   28 cycles
            NFock= 28  Conv=0.41D-08     -V/T= 2.0021
 QCSCF skips out because SCF is already converged.

 **********************************************************************

            Population analysis using the SCF Density.

 **********************************************************************

 Orbital symmetries:
       Occupied  (A) (A) (A) (A) (A) (A) (A) (A) (A) (A) (A) (A)
                 (A) (A) (A) (A) (A) (A) (A) (A) (A) (A) (A) (A)
                 (A) (A) (A) (A) (A) (A) (A) (A) (A) (A) (A) (A)
                 (A) (A) (A) (A) (A) (A) (A) (A) (A) (A) (A) (A)
                 (A) (A) (A) (A) (A) (A) (A) (A) (A) (A) (A) (A)
                 (A) (A) (A) (A) (A) (A) (A) (A) (A) (A) (A) (A)
                 (A) (A) (A) (A) (A) (A) (A) (A) (A) (A) (A) (A)
                 (A) (A) (A) (A) (A)
       Virtual   (A) (A) (A) (A) (A) (A) (A) (A) (A) (A) (A) (A)
                 (A) (A) (A) (A) (A) (A) (A) (A) (A) (A) (A) (A)
                 (A) (A) (A) (A) (A) (A) (A) (A) (A) (A) (A) (A)
                 (A) (A) (A) (A) (A) (A) (A) (A) (A) (A) (A) (A)
                 (A) (A) (A) (A) (A) (A) (A) (A) (A) (A) (A) (A)
                 (A) (A) (A) (A) (A) (A) (A) (A) (A) (A) (A) (A)
                 (A) (A) (A) (A) (A) (A) (A) (A) (A) (A) (A) (A)
                 (A) (A) (A) (A) (A) (A) (A) (A) (A) (A) (A) (A)
                 (A) (A) (A) (A) (A) (A) (A) (A) (A) (A) (A) (A)
                 (A) (A) (A) (A) (A) (A) (A) (A) (A) (A) (A) (A)
                 (A) (A) (A) (A) (A) (A) (A) (A) (A) (A) (A) (A)
                 (A) (A) (A) (A) (A) (A) (A) (A) (A) (A) (A) (A)
                 (A) (A) (A) (A) (A) (A) (A) (A) (A) (A) (A) (A)
                 (A) (A) (A) (A) (A) (A) (A) (A) (A) (A) (A) (A)
                 (A) (A) (A) (A) (A) (A) (A) (A) (A) (A) (A) (A)
                 (A) (A) (A) (A) (A) (A) (A) (A) (A) (A) (A) (A)
                 (A) (A) (A) (A) (A) (A) (A) (A) (A) (A) (A) (A)
                 (A) (A) (A) (A) (A) (A) (A) (A) (A) (A) (A) (A)
                 (A) (A) (A) (A) (A) (A) (A) (A) (A) (A) (A) (A)
                 (A) (A) (A) (A) (A) (A) (A) (A) (A) (A) (A) (A)
                 (A) (A) (A) (A) (A) (A) (A) (A) (A) (A) (A) (A)
                 (A) (A) (A) (A) (A) (A) (A) (A) (A) (A) (A) (A)
                 (A) (A) (A) (A) (A) (A) (A) (A) (A) (A) (A) (A)
                 (A) (A) (A) (A) (A) (A) (A) (A) (A) (A) (A) (A)
                 (A) (A) (A) (A) (A) (A) (A) (A) (A) (A) (A) (A)
                 (A) (A) (A) (A) (A) (A) (A) (A) (A) (A) (A) (A)
                 (A) (A) (A) (A) (A) (A) (A) (A) (A) (A) (A) (A)
                 (A) (A) (A) (A) (A) (A) (A) (A) (A) (A) (A) (A)
                 (A) (A) (A) (A) (A) (A) (A) (A) (A) (A) (A) (A)
                 (A) (A) (A) (A) (A) (A) (A) (A) (A) (A) (A) (A)
                 (A) (A) (A) (A) (A) (A) (A) (A) (A) (A) (A) (A)
                 (A)
 The electronic state is 1-A.
 Alpha  occ. eigenvalues -- -101.62839-101.61793-101.57776-101.57587-101.56167
 Alpha  occ. eigenvalues -- -101.56038 -10.28586 -10.28169 -10.27447 -10.26881
 Alpha  occ. eigenvalues --  -10.26201 -10.25171 -10.24280 -10.23618 -10.22403
 Alpha  occ. eigenvalues --  -10.22165 -10.21365 -10.21141  -9.55478  -9.54542
 Alpha  occ. eigenvalues --   -9.49199  -9.49059  -9.47619  -9.47553  -7.32059
 Alpha  occ. eigenvalues --   -7.31285  -7.30889  -7.30505  -7.29835  -7.29449
 Alpha  occ. eigenvalues --   -7.25677  -7.25538  -7.24680  -7.24640  -7.24537
 Alpha  occ. eigenvalues --   -7.24482  -7.24093  -7.24008  -7.23108  -7.23045
 Alpha  occ. eigenvalues --   -7.23043  -7.22977  -1.11626  -0.93930  -0.92887
 Alpha  occ. eigenvalues --   -0.90063  -0.87652  -0.85982  -0.85780  -0.83622
 Alpha  occ. eigenvalues --   -0.78726  -0.77453  -0.74652  -0.73982  -0.67365
 Alpha  occ. eigenvalues --   -0.64942  -0.62233  -0.61109  -0.59172  -0.55064
 Alpha  occ. eigenvalues --   -0.52308  -0.52165  -0.51774  -0.50784  -0.49503
 Alpha  occ. eigenvalues --   -0.48007  -0.46926  -0.45265  -0.44717  -0.44215
 Alpha  occ. eigenvalues --   -0.43144  -0.42608  -0.42046  -0.39580  -0.38980
 Alpha  occ. eigenvalues --   -0.36458  -0.35782  -0.35686  -0.35029  -0.34040
 Alpha  occ. eigenvalues --   -0.33788  -0.33510  -0.32756  -0.31348  -0.29072
 Alpha  occ. eigenvalues --   -0.28116  -0.26304  -0.25691  -0.12387
 Alpha virt. eigenvalues --   -0.09098  -0.06832  -0.06273  -0.04917  -0.04363
 Alpha virt. eigenvalues --   -0.03017  -0.01461  -0.01102   0.00038   0.00123
 Alpha virt. eigenvalues --    0.00814   0.00918   0.02380   0.02764   0.03431
 Alpha virt. eigenvalues --    0.03471   0.03866   0.04929   0.05110   0.05484
 Alpha virt. eigenvalues --    0.05757   0.06976   0.07113   0.07197   0.07583
 Alpha virt. eigenvalues --    0.07703   0.07707   0.08628   0.09217   0.09341
 Alpha virt. eigenvalues --    0.09732   0.09779   0.10122   0.10576   0.10784
 Alpha virt. eigenvalues --    0.11262   0.12077   0.12194   0.12328   0.12558
 Alpha virt. eigenvalues --    0.13199   0.13562   0.13942   0.14251   0.14678
 Alpha virt. eigenvalues --    0.14891   0.15552   0.15661   0.15861   0.16454
 Alpha virt. eigenvalues --    0.16829   0.17394   0.18030   0.18407   0.18840
 Alpha virt. eigenvalues --    0.18934   0.19305   0.19472   0.20078   0.20086
 Alpha virt. eigenvalues --    0.20836   0.21219   0.21417   0.21611   0.22538
 Alpha virt. eigenvalues --    0.22602   0.22742   0.23370   0.24114   0.24479
 Alpha virt. eigenvalues --    0.25083   0.25876   0.26078   0.26104   0.26594
 Alpha virt. eigenvalues --    0.26858   0.27314   0.27733   0.28055   0.28868
 Alpha virt. eigenvalues --    0.30203   0.30572   0.30777   0.31772   0.32199
 Alpha virt. eigenvalues --    0.32651   0.33611   0.35004   0.35382   0.35556
 Alpha virt. eigenvalues --    0.37303   0.38857   0.40170   0.41047   0.41687
 Alpha virt. eigenvalues --    0.42656   0.43023   0.43074   0.43621   0.44590
 Alpha virt. eigenvalues --    0.44757   0.45525   0.45599   0.45691   0.47044
 Alpha virt. eigenvalues --    0.47615   0.48069   0.48935   0.49297   0.49542
 Alpha virt. eigenvalues --    0.50210   0.50515   0.51320   0.52162   0.52576
 Alpha virt. eigenvalues --    0.52997   0.54179   0.56295   0.56818   0.57071
 Alpha virt. eigenvalues --    0.57579   0.57810   0.58173   0.58581   0.59872
 Alpha virt. eigenvalues --    0.60141   0.60252   0.61389   0.61514   0.61724
 Alpha virt. eigenvalues --    0.62632   0.63493   0.64749   0.64827   0.66476
 Alpha virt. eigenvalues --    0.67464   0.68206   0.68603   0.70210   0.70473
 Alpha virt. eigenvalues --    0.72200   0.74028   0.76068   0.77397   0.77833
 Alpha virt. eigenvalues --    0.80791   0.81876   0.81981   0.82507   0.82873
 Alpha virt. eigenvalues --    0.82957   0.83469   0.84139   0.84389   0.84911
 Alpha virt. eigenvalues --    0.84996   0.85223   0.85894   0.85938   0.86465
 Alpha virt. eigenvalues --    0.86996   0.87805   0.88140   0.88401   0.89235
 Alpha virt. eigenvalues --    0.89267   0.90337   0.91078   0.92309   0.93404
 Alpha virt. eigenvalues --    0.93872   0.94399   0.94880   0.94999   0.95476
 Alpha virt. eigenvalues --    0.95812   0.95908   0.96721   0.97071   0.97336
 Alpha virt. eigenvalues --    0.99307   0.99495   1.01582   1.01622   1.02257
 Alpha virt. eigenvalues --    1.04342   1.05323   1.05989   1.06795   1.07742
 Alpha virt. eigenvalues --    1.08236   1.13209   1.14541   1.17981   1.19143
 Alpha virt. eigenvalues --    1.20058   1.21281   1.22277   1.22447   1.22881
 Alpha virt. eigenvalues --    1.24877   1.25413   1.26015   1.26596   1.26934
 Alpha virt. eigenvalues --    1.27571   1.28817   1.29660   1.30143   1.31435
 Alpha virt. eigenvalues --    1.34709   1.39555   1.44256   1.46480   1.48805
 Alpha virt. eigenvalues --    1.49565   1.50469   1.51954   1.55229   1.56405
 Alpha virt. eigenvalues --    1.56707   1.58878   1.59937   1.61471   1.62951
 Alpha virt. eigenvalues --    1.65796   1.67142   1.68304   1.70780   1.72012
 Alpha virt. eigenvalues --    1.74309   1.78730   1.80598   1.82606   1.83313
 Alpha virt. eigenvalues --    1.84802   1.85131   1.85788   1.86142   1.87026
 Alpha virt. eigenvalues --    1.87894   1.88983   1.91082   1.93619   1.94771
 Alpha virt. eigenvalues --    1.95153   1.95943   1.99787   2.04439   2.07029
 Alpha virt. eigenvalues --    2.07857   2.09758   2.14540   2.15223   2.17429
 Alpha virt. eigenvalues --    2.19126   2.20539   2.22164   2.23400   2.24989
 Alpha virt. eigenvalues --    2.26198   2.26864   2.27107   2.28702   2.29732
 Alpha virt. eigenvalues --    2.31647   2.32544   2.32854   2.35406   2.36493
 Alpha virt. eigenvalues --    2.39873   2.41641   2.43118   2.43294   2.44837
 Alpha virt. eigenvalues --    2.51388   2.52222   2.52748   2.53730   2.54117
 Alpha virt. eigenvalues --    2.57109   2.59239   2.59416   2.60613   2.61550
 Alpha virt. eigenvalues --    2.61698   2.64679   2.66868   2.69772   2.70161
 Alpha virt. eigenvalues --    2.71230   2.73049   2.73896   2.74111   2.74726
 Alpha virt. eigenvalues --    2.76844   2.77893   2.78285   2.80434   2.83918
 Alpha virt. eigenvalues --    2.84820   2.86834   2.88355   2.92171   3.03879
 Alpha virt. eigenvalues --    3.06879   3.07031   3.09678   3.12726   3.15537
 Alpha virt. eigenvalues --    3.18975   3.19404   3.21787   3.27480   3.30480
 Alpha virt. eigenvalues --    3.34262   3.37384   3.42718   3.43027   3.58768
 Alpha virt. eigenvalues --    3.63278   3.69587   3.70790   3.78920   3.84787
 Alpha virt. eigenvalues --    3.98534   4.04589   4.05773   4.13834   4.78856
 Alpha virt. eigenvalues --    4.80977   9.68167   9.75925   9.77138   9.78807
 Alpha virt. eigenvalues --    9.81258   9.98914  23.33952  23.38426  23.79776
 Alpha virt. eigenvalues --   23.82562  23.85042  23.87234  23.94324  23.96751
 Alpha virt. eigenvalues --   23.98580  24.00863  24.06839  24.09961  25.74356
 Alpha virt. eigenvalues --   25.78272  25.80728  25.81556  25.87093  25.99186
 Alpha virt. eigenvalues --   26.07997  26.11156  26.13624  26.21888  26.26757
 Alpha virt. eigenvalues --   26.48284  26.56340  26.59295  26.72414  26.94721
 Alpha virt. eigenvalues --   26.95940  27.01833 215.68755 215.75170 215.76824
 Alpha virt. eigenvalues --  215.79167 215.81424 216.05313
          Condensed to atoms (all electrons):
               1          2          3          4          5          6
     1  C   24.977852  -0.273993  -6.522613   6.014013  -5.633768  -2.176823
     2  C   -0.273993  12.880863   0.599477  -5.382987   0.493743  -1.638131
     3  C   -6.522613   0.599477  19.260947  -7.486884  -1.510824   3.945848
     4  C    6.014013  -5.382987  -7.486884  26.505000  -4.608503  -6.886630
     5  C   -5.633768   0.493743  -1.510824  -4.608503  15.863418  -1.070264
     6  C   -2.176823  -1.638131   3.945848  -6.886630  -1.070264  23.384265
     7  C    5.107385  -0.367993  -2.523705   0.091925  -1.149962  -1.558363
     8  C   -0.764091   1.286879  -1.354165   0.700157  -0.003555  -2.350233
     9  C    0.249885  -0.576883   0.410970   0.272743  -0.328053  -0.503560
    10  C   -1.217892   0.176139  -0.284369   0.074888   0.081286  -0.635162
    11  C   -1.825066  -0.021869  -0.277254  -0.112033   0.094324   0.219024
    12  C   -4.847057  -1.336841   0.090075  -0.158702   1.486451  -2.816360
    13  H    0.077684   0.239813  -0.072860   0.026573   0.009102   0.014713
    14  H   -0.029807   0.039036   0.069396   0.131360   0.050254   0.059825
    15  H    0.005124   0.011466   0.009167   0.003110  -0.004739  -0.030111
    16  H   -0.015588   0.004511   0.000100   0.000395  -0.000101  -0.000786
    17  Cl   7.572193   0.566406  -1.135080   2.258633  -5.410332  10.927300
    18  Cl -13.066947  -0.642359   2.574863  -3.144748   7.574444 -12.432947
    19  Cl   0.128701  -0.048924   0.009615  -0.008140  -0.017326  -0.081127
    20  Cl  -0.379982   0.300915  -0.142445  -1.053723  -0.273758   0.623580
    21  Cl  -0.142591  -0.002762  -0.004955   0.001639  -0.002962  -0.001253
    22  Cl  -0.637164   0.335832  -0.566429  -0.393673   0.190119   0.406194
               7          8          9         10         11         12
     1  C    5.107385  -0.764091   0.249885  -1.217892  -1.825066  -4.847057
     2  C   -0.367993   1.286879  -0.576883   0.176139  -0.021869  -1.336841
     3  C   -2.523705  -1.354165   0.410970  -0.284369  -0.277254   0.090075
     4  C    0.091925   0.700157   0.272743   0.074888  -0.112033  -0.158702
     5  C   -1.149962  -0.003555  -0.328053   0.081286   0.094324   1.486451
     6  C   -1.558363  -2.350233  -0.503560  -0.635162   0.219024  -2.816360
     7  C   19.161381  -2.021492   0.682759  -0.575814  -2.627538  -0.120522
     8  C   -2.021492  20.148507  -2.861474   1.158968   0.034228  -7.194017
     9  C    0.682759  -2.861474  18.636796  -4.727307  -6.803143   0.966377
    10  C   -0.575814   1.158968  -4.727307  19.679946  -2.002226  -3.842402
    11  C   -2.627538   0.034228  -6.803143  -2.002226  19.633761  -1.687268
    12  C   -0.120522  -7.194017   0.966377  -3.842402  -1.687268  33.719344
    13  H    0.030655   0.006856   0.016628  -0.002996  -0.002233  -0.013834
    14  H    0.000363  -0.000933  -0.000152   0.000010   0.000148   0.002403
    15  H    0.022453   0.258919   0.040530  -0.033362  -0.037703   0.056832
    16  H   -0.059115  -0.115538   0.320451   0.091010  -0.011180   0.103550
    17  Cl  -9.351344  -0.751565   1.564944  -2.481802   3.756641 -26.250592
    18  Cl   2.501380   0.160544  -1.091661   1.384377  -0.851966  18.413860
    19  Cl  -0.212708   0.180287   0.696126  -0.539290  -1.829230   1.025985
    20  Cl   0.044869  -0.024170  -0.005551   0.006642   0.020854  -0.026906
    21  Cl  -0.651974  -0.209077  -0.365524  -0.828575   1.129875   0.068937
    22  Cl  -0.098261  -0.072680  -0.006483  -0.006257  -0.002690  -0.015731
              13         14         15         16         17         18
     1  C    0.077684  -0.029807   0.005124  -0.015588   7.572193 -13.066947
     2  C    0.239813   0.039036   0.011466   0.004511   0.566406  -0.642359
     3  C   -0.072860   0.069396   0.009167   0.000100  -1.135080   2.574863
     4  C    0.026573   0.131360   0.003110   0.000395   2.258633  -3.144748
     5  C    0.009102   0.050254  -0.004739  -0.000101  -5.410332   7.574444
     6  C    0.014713   0.059825  -0.030111  -0.000786  10.927300 -12.432947
     7  C    0.030655   0.000363   0.022453  -0.059115  -9.351344   2.501380
     8  C    0.006856  -0.000933   0.258919  -0.115538  -0.751565   0.160544
     9  C    0.016628  -0.000152   0.040530   0.320451   1.564944  -1.091661
    10  C   -0.002996   0.000010  -0.033362   0.091010  -2.481802   1.384377
    11  C   -0.002233   0.000148  -0.037703  -0.011180   3.756641  -0.851966
    12  C   -0.013834   0.002403   0.056832   0.103550 -26.250592  18.413860
    13  H    0.528493  -0.000235   0.001725  -0.000028  -0.017850   0.022664
    14  H   -0.000235   0.492167  -0.000001  -0.000000  -0.005638   0.021762
    15  H    0.001725  -0.000001   0.551139  -0.004883   0.043031  -0.024883
    16  H   -0.000028  -0.000000  -0.004883   0.518560   0.019992  -0.004257
    17  Cl  -0.017850  -0.005638   0.043031   0.019992  94.805332 -59.579662
    18  Cl   0.022664   0.021762  -0.024883  -0.004257 -59.579662  74.067616
    19  Cl   0.000081   0.000000   0.000713  -0.003598  -0.513749  -0.365344
    20  Cl   0.000849   0.001110  -0.000006  -0.000002  -0.708440   0.230830
    21  Cl   0.000009  -0.000000   0.000392   0.005561   0.317434  -0.076917
    22  Cl  -0.016250  -0.000831  -0.000434  -0.000015  -0.019433   0.039238
              19         20         21         22
     1  C    0.128701  -0.379982  -0.142591  -0.637164
     2  C   -0.048924   0.300915  -0.002762   0.335832
     3  C    0.009615  -0.142445  -0.004955  -0.566429
     4  C   -0.008140  -1.053723   0.001639  -0.393673
     5  C   -0.017326  -0.273758  -0.002962   0.190119
     6  C   -0.081127   0.623580  -0.001253   0.406194
     7  C   -0.212708   0.044869  -0.651974  -0.098261
     8  C    0.180287  -0.024170  -0.209077  -0.072680
     9  C    0.696126  -0.005551  -0.365524  -0.006483
    10  C   -0.539290   0.006642  -0.828575  -0.006257
    11  C   -1.829230   0.020854   1.129875  -0.002690
    12  C    1.025985  -0.026906   0.068937  -0.015731
    13  H    0.000081   0.000849   0.000009  -0.016250
    14  H    0.000000   0.001110  -0.000000  -0.000831
    15  H    0.000713  -0.000006   0.000392  -0.000434
    16  H   -0.003598  -0.000002   0.005561  -0.000015
    17  Cl  -0.513749  -0.708440   0.317434  -0.019433
    18  Cl  -0.365344   0.230830  -0.076917   0.039238
    19  Cl  18.202467  -0.003167  -0.285001   0.000001
    20  Cl  -0.003167  17.839097  -0.000111  -0.015992
    21  Cl  -0.285001  -0.000111  17.566670  -0.000052
    22  Cl   0.000001  -0.015992  -0.000052  17.452657
 Mulliken charges:
               1
     1  C   -0.599454
     2  C   -0.642338
     3  C    0.911124
     4  C   -0.844412
     5  C    0.171006
     6  C   -1.398999
     7  C   -0.324381
     8  C   -0.212354
     9  C   -0.588419
    10  C    0.524186
    11  C   -0.797456
    12  C   -1.623582
    13  H    0.150439
    14  H    0.169762
    15  H    0.131519
    16  H    0.150961
    17  Cl   1.393579
    18  Cl   1.290112
    19  Cl   0.663627
    20  Cl   0.565508
    21  Cl   0.481238
    22  Cl   0.428334
 Sum of Mulliken charges =  -0.00000
 Mulliken charges with hydrogens summed into heavy atoms:
               1
     1  C   -0.599454
     2  C   -0.491899
     3  C    0.911124
     4  C   -0.674650
     5  C    0.171006
     6  C   -1.398999
     7  C   -0.324381
     8  C   -0.080835
     9  C   -0.437458
    10  C    0.524186
    11  C   -0.797456
    12  C   -1.623582
    17  Cl   1.393579
    18  Cl   1.290112
    19  Cl   0.663627
    20  Cl   0.565508
    21  Cl   0.481238
    22  Cl   0.428334
 Electronic spatial extent (au):  <R**2>=           9322.8769
 Charge=             -0.0000 electrons
 Dipole moment (field-independent basis, Debye):
    X=              2.0288    Y=              0.5988    Z=              0.0000  Tot=              2.1153
 Quadrupole moment (field-independent basis, Debye-Ang):
   XX=           -161.2071   YY=           -138.4213   ZZ=           -147.5808
   XY=             -1.6724   XZ=             -0.0000   YZ=              0.0000
 Traceless Quadrupole moment (field-independent basis, Debye-Ang):
   XX=            -12.1374   YY=             10.6484   ZZ=              1.4890
   XY=             -1.6724   XZ=             -0.0000   YZ=              0.0000
 Octapole moment (field-independent basis, Debye-Ang**2):
  XXX=             65.3179  YYY=             -9.3892  ZZZ=             -0.0001  XYY=            -21.8705
  XXY=             -5.9182  XXZ=             -0.0000  XZZ=             -2.5215  YZZ=            -13.7199
  YYZ=             -0.0000  XYZ=              0.0000
 Hexadecapole moment (field-independent basis, Debye-Ang**3):
 XXXX=          -9444.0331 YYYY=          -2810.8898 ZZZZ=           -173.4682 XXXY=             18.3490
 XXXZ=             -0.0001 YYYX=            -10.2265 YYYZ=              0.0001 ZZZX=              0.0001
 ZZZY=             -0.0001 XXYY=          -2075.1863 XXZZ=          -1611.6484 YYZZ=           -535.8952
 XXYZ=              0.0001 YYXZ=             -0.0001 ZZXY=              8.5861
 N-N= 2.017183406523D+03 E-N=-1.166259465038D+04  KE= 3.213983643910D+03
 Calling FoFJK, ICntrl=      2127 FMM=F ISym2X=0 I1Cent= 0 IOpClX= 0 NMat=1 NMatS=1 NMatT=0.
 ***** Axes restored to original set *****
 -------------------------------------------------------------------
 Center     Atomic                   Forces (Hartrees/Bohr)
 Number     Number              X              Y              Z
 -------------------------------------------------------------------
      1        6          -0.018879604   -0.017121262    0.003004758
      2        6          -0.013173155    0.006597420    0.005579047
      3        6          -0.013610198    0.000814011    0.004636884
      4        6          -0.002741940   -0.007092114   -0.000428795
      5        6          -0.002338357   -0.010291352   -0.001162188
      6        6           0.046257554   -0.000499076   -0.015333477
      7        6          -0.010282958    0.023744032    0.007846904
      8        6          -0.017618186    0.009721803    0.007630438
      9        6          -0.006208119    0.012926957    0.004473086
     10        6           0.002172479    0.005037124    0.000230230
     11        6           0.016568426    0.010527272   -0.003481543
     12        6           0.023521219   -0.104960821   -0.027461656
     13        1           0.004584484   -0.007289870   -0.002879539
     14        1           0.004136045    0.007800859    0.000102385
     15        1           0.009673377   -0.001109264   -0.003395399
     16        1           0.003157352   -0.008578904   -0.002651428
     17       17          -0.266446613   -0.421863832    0.008556428
     18       17           0.240894497    0.503480544    0.015189971
     19       17          -0.007828127   -0.004561050    0.001722395
     20       17           0.007982613    0.005682085   -0.001562729
     21       17           0.004071194   -0.003549866   -0.002007972
     22       17          -0.003891983    0.000585305    0.001392201
 -------------------------------------------------------------------
 Cartesian Forces:  Max     0.503480544 RMS     0.093680052

 GradGradGradGradGradGradGradGradGradGradGradGradGradGradGradGradGradGrad
 Berny optimization.
 FormGI is forming the generalized inverse of G from B-inverse, IUseBI=4.
 Internal  Forces:  Max     0.542408274 RMS     0.060461189
 Search for a local minimum.
 Step number   1 out of a maximum of  112
 All quantities printed in internal units (Hartrees-Bohrs-Radians)
 Mixed Optimization -- RFO/linear search
 Second derivative matrix not updated -- first step.
 ITU=  0
     Eigenvalues ---    0.00238   0.00238   0.01655   0.01655   0.02070
     Eigenvalues ---    0.02070   0.02070   0.02070   0.02070   0.02070
     Eigenvalues ---    0.02070   0.02070   0.02070   0.02070   0.02070
     Eigenvalues ---    0.02070   0.02070   0.02070   0.04301   0.16000
     Eigenvalues ---    0.16000   0.16000   0.16000   0.22422   0.23315
     Eigenvalues ---    0.23491   0.24427   0.25000   0.25000   0.25000
     Eigenvalues ---    0.25000   0.25000   0.25000   0.25000   0.25000
     Eigenvalues ---    0.25000   0.25000   0.29539   0.29539   0.29539
     Eigenvalues ---    0.29539   0.29539   0.29539   0.37230   0.37230
     Eigenvalues ---    0.37230   0.37230   0.41541   0.41669   0.42042
     Eigenvalues ---    0.42141   0.45389   0.45389   0.45389   0.45389
     Eigenvalues ---    0.45389   0.45389   0.45389   0.45389   1.32680
 RFO step:  Lambda=-3.16594032D-01 EMin= 2.37799121D-03
 Linear search not attempted -- first point.
 Maximum step size (   0.300) exceeded in Quadratic search.
    -- Step size scaled by   0.507
 Iteration  1 RMS(Cart)=  0.30519208 RMS(Int)=  0.01488727
 Iteration  2 RMS(Cart)=  0.22182328 RMS(Int)=  0.00411630
 Iteration  3 RMS(Cart)=  0.00672814 RMS(Int)=  0.00000618
 Iteration  4 RMS(Cart)=  0.00000318 RMS(Int)=  0.00000616
 Iteration  5 RMS(Cart)=  0.00000000 RMS(Int)=  0.00000616
 Variable       Old X    -DE/DX   Delta X   Delta X   Delta X     New X
                                 (Linear)    (Quad)   (Total)
    R1        2.64826  -0.01708   0.00000  -0.01131  -0.01131   2.63695
    R2        2.64826  -0.00460   0.00000  -0.00309  -0.00308   2.64518
    R3        2.64826  -0.00246   0.00000  -0.00162  -0.00162   2.64664
    R4        2.02201   0.00906   0.00000   0.00667   0.00667   2.02867
    R5        2.64826  -0.00520   0.00000  -0.00336  -0.00337   2.64489
    R6        3.32592  -0.00412   0.00000  -0.00341  -0.00341   3.32250
    R7        2.64826  -0.00897   0.00000  -0.00584  -0.00584   2.64242
    R8        2.02201   0.00882   0.00000   0.00649   0.00649   2.02850
    R9        2.64826  -0.00500   0.00000  -0.00329  -0.00329   2.64498
   R10        3.32592   0.00075   0.00000   0.00062   0.00062   3.32654
   R11        3.32592   0.00953   0.00000   0.00789   0.00789   3.33381
   R12        2.64826  -0.01656   0.00000  -0.01110  -0.01110   2.63716
   R13        2.64826  -0.01943   0.00000  -0.01303  -0.01302   2.63524
   R14        2.64826  -0.00542   0.00000  -0.00353  -0.00354   2.64472
   R15        2.02201   0.01022   0.00000   0.00753   0.00753   2.02953
   R16        2.64826  -0.00431   0.00000  -0.00260  -0.00261   2.64565
   R17        2.02201   0.00944   0.00000   0.00695   0.00695   2.02895
   R18        2.64826   0.00098   0.00000   0.00084   0.00084   2.64911
   R19        3.32592   0.00100   0.00000   0.00083   0.00083   3.32675
   R20        2.64826  -0.01080   0.00000  -0.00715  -0.00713   2.64113
   R21        3.32592   0.00807   0.00000   0.00669   0.00669   3.33261
   R22        3.32592   0.06407   0.00000   0.05310   0.05310   3.37901
   R23        3.16132   0.54241   0.00000   0.16739   0.16739   3.32872
    A1        2.09440  -0.01005   0.00000  -0.00915  -0.00915   2.08525
    A2        2.09440  -0.00394   0.00000  -0.00374  -0.00375   2.09065
    A3        2.09440   0.00263   0.00000   0.00257   0.00258   2.09697
    A4        2.09440   0.00131   0.00000   0.00117   0.00117   2.09557
    A5        2.09440   0.01120   0.00000   0.01019   0.01018   2.10457
    A6        2.09440  -0.00446   0.00000  -0.00407  -0.00407   2.09033
    A7        2.09440  -0.00674   0.00000  -0.00611  -0.00611   2.08829
    A8        2.09440  -0.00368   0.00000  -0.00322  -0.00323   2.09117
    A9        2.09440   0.00224   0.00000   0.00204   0.00204   2.09644
   A10        2.09440   0.00144   0.00000   0.00118   0.00119   2.09558
   A11        2.09440  -0.01316   0.00000  -0.01163  -0.01162   2.08277
   A12        2.09440  -0.00987   0.00000  -0.00891  -0.00892   2.08548
   A13        2.09440   0.02303   0.00000   0.02054   0.02054   2.11493
   A14        2.09440   0.01963   0.00000   0.01756   0.01757   2.11196
   A15        2.09440  -0.07437   0.00000  -0.06656  -0.06657   2.02783
   A16        2.09440   0.05474   0.00000   0.04901   0.04900   2.14340
   A17        2.09440  -0.00314   0.00000  -0.00365  -0.00365   2.09075
   A18        2.09440  -0.00229   0.00000  -0.00236  -0.00237   2.09202
   A19        2.09440   0.00251   0.00000   0.00263   0.00264   2.09703
   A20        2.09440  -0.00022   0.00000  -0.00027  -0.00026   2.09413
   A21        2.09440   0.00306   0.00000   0.00334   0.00332   2.09771
   A22        2.09440  -0.00027   0.00000  -0.00033  -0.00032   2.09408
   A23        2.09440  -0.00279   0.00000  -0.00301  -0.00300   2.09140
   A24        2.09440  -0.00023   0.00000   0.00044   0.00043   2.09483
   A25        2.09440  -0.00932   0.00000  -0.00867  -0.00866   2.08573
   A26        2.09440   0.00955   0.00000   0.00823   0.00823   2.10263
   A27        2.09440  -0.01497   0.00000  -0.01314  -0.01312   2.08127
   A28        2.09440   0.00007   0.00000  -0.00007  -0.00008   2.09432
   A29        2.09440   0.01490   0.00000   0.01321   0.01320   2.10759
   A30        2.09440   0.01756   0.00000   0.01537   0.01539   2.10979
   A31        2.09440  -0.08267   0.00000  -0.07383  -0.07384   2.02055
   A32        2.09440   0.06512   0.00000   0.05846   0.05845   2.15284
   A33        2.09440  -0.10300   0.00000  -0.09220  -0.09220   2.00220
   A34        2.09440  -0.20013   0.00000  -0.17914  -0.17914   1.91526
    D1        0.00000   0.00000   0.00000   0.00000   0.00000   0.00000
    D2        3.14159   0.00000   0.00000   0.00000   0.00000   3.14159
    D3       -0.00000  -0.00000   0.00000  -0.00000  -0.00000  -0.00000
    D4        3.14159   0.00000   0.00000   0.00000   0.00000   3.14159
    D5        0.00000   0.00000   0.00000   0.00000   0.00000   0.00000
    D6        3.14159  -0.00000   0.00000  -0.00000  -0.00000   3.14159
    D7       -3.14159  -0.00000   0.00000  -0.00000  -0.00000  -3.14159
    D8        0.00000  -0.00000   0.00000  -0.00000  -0.00000   0.00000
    D9       -0.00000   0.00000   0.00000   0.00000   0.00000  -0.00000
   D10        3.14159  -0.00000   0.00000  -0.00000  -0.00000   3.14159
   D11        3.14159   0.00000   0.00000   0.00000   0.00000   3.14159
   D12        0.00000   0.00000   0.00000   0.00000   0.00000   0.00000
   D13        0.00000  -0.00000   0.00000  -0.00000  -0.00000   0.00000
   D14       -3.14159  -0.00000   0.00000  -0.00000  -0.00000  -3.14159
   D15       -3.14159  -0.00000   0.00000  -0.00000  -0.00000  -3.14159
   D16        0.00000  -0.00000   0.00000  -0.00000  -0.00000   0.00000
   D17       -0.00000   0.00000   0.00000   0.00000   0.00000  -0.00000
   D18        3.14159  -0.00000   0.00000  -0.00000  -0.00000   3.14159
   D19        3.14159   0.00000   0.00000   0.00000   0.00000   3.14159
   D20       -0.00000  -0.00000   0.00000  -0.00000  -0.00000  -0.00000
   D21        0.00001  -0.00000   0.00000  -0.00000  -0.00000   0.00001
   D22       -3.14159  -0.00000   0.00000  -0.00000  -0.00000  -3.14159
   D23        0.00000   0.00000   0.00000   0.00000   0.00000   0.00000
   D24       -3.14159  -0.00000   0.00000  -0.00000  -0.00000  -3.14159
   D25       -0.00000  -0.00000   0.00000  -0.00000  -0.00000  -0.00000
   D26        3.14159   0.00000   0.00000   0.00000   0.00000   3.14159
   D27       -0.00000  -0.00000   0.00000  -0.00000  -0.00000  -0.00000
   D28        3.14159  -0.00000   0.00000  -0.00000  -0.00000   3.14159
   D29        3.14159   0.00000   0.00000   0.00000   0.00000   3.14159
   D30       -0.00000   0.00000   0.00000   0.00000   0.00000  -0.00000
   D31       -0.00000  -0.00000   0.00000  -0.00000  -0.00000  -0.00000
   D32       -3.14159  -0.00000   0.00000  -0.00000  -0.00000  -3.14159
   D33        3.14159   0.00000   0.00000   0.00000   0.00000   3.14159
   D34        0.00000  -0.00000   0.00000   0.00000   0.00000   0.00000
   D35        0.00000  -0.00000   0.00000  -0.00000  -0.00000   0.00000
   D36       -3.14159  -0.00000   0.00000  -0.00000  -0.00000  -3.14159
   D37        3.14159  -0.00000   0.00000  -0.00000  -0.00000   3.14159
   D38        0.00000  -0.00000   0.00000  -0.00000  -0.00000   0.00000
   D39        0.00000   0.00000   0.00000   0.00000   0.00000   0.00000
   D40       -3.14159  -0.00000   0.00000  -0.00000  -0.00000  -3.14159
   D41        3.14159   0.00000   0.00000   0.00000   0.00000   3.14159
   D42       -0.00000  -0.00000   0.00000  -0.00000  -0.00000  -0.00000
   D43        0.00001  -0.00000   0.00000  -0.00000  -0.00000   0.00001
   D44       -3.14159  -0.00000   0.00000  -0.00000  -0.00000  -3.14159
   D45       -0.00001  -0.00000   0.00000  -0.00000  -0.00000  -0.00001
         Item               Value     Threshold  Converged?
 Maximum Force            0.542408     0.000450     NO 
 RMS     Force            0.060461     0.000300     NO 
 Maximum Displacement     1.825783     0.001800     NO 
 RMS     Displacement     0.526132     0.001200     NO 
 Predicted change in Energy=-1.340961D-01
 GradGradGradGradGradGradGradGradGradGradGradGradGradGradGradGradGradGrad

                          Input orientation:                          
 ---------------------------------------------------------------------
 Center     Atomic      Atomic             Coordinates (Angstroms)
 Number     Number       Type             X           Y           Z
 ---------------------------------------------------------------------
      1          6           0        0.335226    0.017412    0.128619
      2          6           0        1.623484   -0.236818   -0.343549
      3          6           0        2.545071    0.812390   -0.450120
      4          6           0        2.185744    2.115451   -0.087013
      5          6           0        0.895848    2.374539    0.386604
      6          6           0       -0.020655    1.321825    0.490842
      7          6           0       -0.236145   -1.087860    0.109275
      8          6           0        0.597258   -2.105712   -0.356459
      9          6           0        0.114606   -3.416483   -0.443618
     10          6           0       -1.201161   -3.708862   -0.065038
     11          6           0       -2.039765   -2.687674    0.403037
     12          6           0       -1.546174   -1.382714    0.485501
     13          1           0        1.907938   -1.233152   -0.624381
     14          1           0        2.898064    2.914007   -0.171715
     15          1           0        1.607173   -1.885123   -0.647754
     16          1           0        0.754166   -4.201046   -0.801675
     17         17           0       -2.518510    0.001179    1.065756
     18         17           0       -1.669936    1.544756    1.076072
     19         17           0       -3.697043   -3.056835    0.879716
     20         17           0        0.453095    4.016604    0.840860
     21         17           0       -1.789535   -5.363936   -0.182026
     22         17           0        4.168119    0.491518   -1.045101
 ---------------------------------------------------------------------
                    Distance matrix (angstroms):
                    1          2          3          4          5
     1  C    0.000000
     2  C    1.395416   0.000000
     3  C    2.418749   1.400542   0.000000
     4  C    2.805830   2.432101   1.399618   0.000000
     5  C    2.436576   2.807448   2.420816   1.398310   0.000000
     6  C    1.399768   2.414284   2.779907   2.414944   1.399661
     7  C    1.244374   2.094647   3.414533   4.020607   3.653290
     8  C    2.193540   2.132152   3.509710   4.518197   4.551258
     9  C    3.488232   3.520937   4.877558   5.917692   5.902165
    10  C    4.035233   4.484560   5.884239   6.737524   6.450519
    11  C    3.610177   4.470289   5.830870   6.416003   5.851846
    12  C    2.372210   3.470898   4.736260   5.147052   4.482210
    13  H    2.145774   1.073528   2.149546   3.402806   3.880961
    14  H    3.879253   3.403201   2.149164   1.073437   2.147468
    15  H    2.416660   1.676221   2.862742   4.080903   4.440789
    16  H    4.340086   4.084201   5.335304   6.516003   6.683592
    17  Cl   3.003714   4.381655   5.347503   5.284792   4.213303
    18  Cl   2.692791   4.004491   4.542236   4.067521   2.783371
    19  Cl   5.125850   6.144663   7.463468   7.892673   7.130051
    20  Cl   4.063831   4.567739   4.038561   2.734484   1.760329
    21  Cl   5.793964   6.161342   7.550344   8.470721   8.210885
    22  Cl   4.036516   2.738213   1.758194   2.735855   4.037735
                    6          7          8          9         10
     6  C    0.000000
     7  C    2.449206   0.000000
     8  C    3.584375   1.395525   0.000000
     9  C    4.831467   2.418926   1.399526   0.000000
    10  C    5.197154   2.798444   2.426794   1.400018   0.000000
    11  C    4.490056   2.428733   2.805246   2.426788   1.401847
    12  C    3.105120   1.394511   2.413695   2.785260   2.415180
    13  H    3.389853   2.270783   1.597193   2.831192   4.013540
    14  H    3.390125   5.090891   5.524981   6.920743   7.789571
    15  H    3.772365   2.146286   1.073983   2.148136   3.398870
    16  H    5.724775   3.391530   2.147851   1.073676   2.146668
    17  Cl   2.883385   2.703710   4.021156   4.570768   4.096157
    18  Cl   1.764177   3.149781   4.529705   5.487071   5.396516
    19  Cl   5.730595   4.055645   4.568784   4.050831   2.747204
    20  Cl   2.758403   5.202483   6.239961   7.550844   7.952361
    21  Cl   6.948460   4.558805   4.042677   2.736194   1.760438
    22  Cl   4.538100   4.819187   4.468879   5.662616   6.887153
                   11         12         13         14         15
    11  C    0.000000
    12  C    1.397625   0.000000
    13  H    4.330772   3.631129   0.000000
    14  H    7.489415   6.216510   4.287678   0.000000
    15  H    3.879227   3.388256   0.718382   4.992461   0.000000
    16  H    3.398187   3.858936   3.189203   7.457689   2.472814
    17  Cl   2.810396   1.788097   4.896282   6.273371   4.849279
    18  Cl   4.301537   2.989008   4.838337   4.929346   5.047285
    19  Cl   1.763540   2.753965   6.083087   8.958343   5.642763
    20  Cl   7.166128   5.768535   5.641227   2.866863   6.195019
    21  Cl   2.750871   4.044125   5.561507   9.513046   4.884329
    22  Cl   7.123355   6.205532   2.874006   2.871288   3.516355
                   16         17         18         19         20
    16  H    0.000000
    17  Cl   5.644147   0.000000
    18  Cl   6.512791   1.761481   0.000000
    19  Cl   4.893829   3.282530   5.032133   0.000000
    20  Cl   8.385603   5.000466   3.266898   8.201140   0.000000
    21  Cl   2.864733   5.556332   7.023329   3.176256   9.698981
    22  Cl   5.808139   7.029022   6.300125   8.840617   5.457516
                   21         22
    21  Cl   0.000000
    22  Cl   8.397909   0.000000
 Stoichiometry    C12H4Cl6
 Framework group  C1[X(C12H4Cl6)]
 Deg. of freedom    60
 Full point group                 C1      NOp   1
 Largest Abelian subgroup         C1      NOp   1
 Largest concise Abelian subgroup C1      NOp   1
                         Standard orientation:                         
 ---------------------------------------------------------------------
 Center     Atomic      Atomic             Coordinates (Angstroms)
 Number     Number       Type             X           Y           Z
 ---------------------------------------------------------------------
      1          6           0        0.821296    0.273084   -0.000000
      2          6           0        1.340551    1.568291   -0.000002
      3          6           0        2.727668    1.761738   -0.000004
      4          6           0        3.599377    0.666724   -0.000004
      5          6           0        3.083204   -0.632828    0.000001
      6          6           0        1.696071   -0.819674    0.000002
      7          6           0       -0.413895    0.423972    0.000007
      8          6           0       -0.782032    1.770065    0.000010
      9          6           0       -2.136560    2.122098    0.000010
     10          6           0       -3.122341    1.127971    0.000005
     11          6           0       -2.754394   -0.224726    0.000001
     12          6           0       -1.398471   -0.563586    0.000001
     13          1           0        0.679527    2.414169   -0.000004
     14          1           0        4.661283    0.823634   -0.000005
     15          1           0       -0.028555    2.535383    0.000011
     16          1           0       -2.421922    3.157158    0.000013
     17         17           0       -0.806964   -2.251013   -0.000006
     18         17           0        0.946699   -2.416785    0.000005
     19         17           0       -3.996775   -1.476350   -0.000009
     20         17           0        4.187387   -2.003790    0.000004
     21         17           0       -4.820749    1.591168    0.000002
     22         17           0        3.381391    3.393881   -0.000007
 ---------------------------------------------------------------------
 Rotational constants (GHZ):           0.3853742           0.1586617           0.1123899
 Standard basis: 6-311+G(d,p) (5D, 7F)
 There are   486 symmetry adapted cartesian basis functions of A   symmetry.
 There are   468 symmetry adapted basis functions of A   symmetry.
   468 basis functions,   782 primitive gaussians,   486 cartesian basis functions
    89 alpha electrons       89 beta electrons
       nuclear repulsion energy      2083.3916593984 Hartrees.
 NAtoms=   22 NActive=   22 NUniq=   22 SFac= 1.00D+00 NAtFMM=   60 NAOKFM=F Big=F
 Integral buffers will be    131072 words long.
 Raffenetti 2 integral format.
 Two-electron integral symmetry is turned on.
 One-electron integrals computed using PRISM.
 NBasis=   468 RedAO= T EigKep=  1.11D-06  NBF=   468
 NBsUse=   461 1.00D-06 EigRej=  8.20D-07 NBFU=   461
 Initial guess from the checkpoint file:  "./Gau-401993.chk"
 B after Tr=    -0.000000   -0.000000   -0.000000
         Rot=    0.999501   -0.000000   -0.000000   -0.031577 Ang=  -3.62 deg.
 ExpMin= 4.38D-02 ExpMax= 1.06D+05 ExpMxC= 3.62D+03 IAcc=3 IRadAn=         5 AccDes= 0.00D+00
 Harris functional with IExCor=  402 and IRadAn=       5 diagonalized for initial guess.
 HarFok:  IExCor=  402 AccDes= 0.00D+00 IRadAn=         5 IDoV= 1 UseB2=F ITyADJ=14
 ICtDFT=  3500011 ScaDFX=  1.000000  1.000000  1.000000  1.000000
 FoFCou: FMM=F IPFlag=           0 FMFlag=      100000 FMFlg1=           0
         NFxFlg=           0 DoJE=T BraDBF=F KetDBF=T FulRan=T
         wScrn=  0.000000 ICntrl=       500 IOpCl=  0 I1Cent=   200000004 NGrid=           0
         NMat0=    1 NMatS0=      1 NMatT0=    0 NMatD0=    1 NMtDS0=    0 NMtDT0=    0
 Petite list used in FoFCou.
 Requested convergence on RMS density matrix=1.00D-08 within  32 cycles.
 Requested convergence on MAX density matrix=1.00D-06.
 Requested convergence on             energy=1.00D-06.
 No special actions if energy rises.
 EnCoef did     5 forward-backward iterations
 Restarting incremental Fock formation.
 SCF Done:  E(RB3LYP) =  -3220.47901760     A.U. after   28 cycles
            NFock= 28  Conv=0.22D-08     -V/T= 2.0016
 QCSCF skips out because SCF is already converged.
 Calling FoFJK, ICntrl=      2127 FMM=F ISym2X=0 I1Cent= 0 IOpClX= 0 NMat=1 NMatS=1 NMatT=0.
 ***** Axes restored to original set *****
 -------------------------------------------------------------------
 Center     Atomic                   Forces (Hartrees/Bohr)
 Number     Number              X              Y              Z
 -------------------------------------------------------------------
      1        6           0.145343048    0.202451449   -0.009861913
      2        6           0.099750498    0.161168193   -0.002593070
      3        6          -0.019334683   -0.001802345    0.006031522
      4        6          -0.000500613   -0.001965795   -0.000204536
      5        6          -0.007134765    0.003043336    0.002922144
      6        6          -0.001997359   -0.043384288   -0.007489474
      7        6          -0.131401523   -0.204148885    0.004949568
      8        6          -0.087238782   -0.152605560    0.000079492
      9        6          -0.005388852    0.015073454    0.004606281
     10        6          -0.007838468    0.000394299    0.002656729
     11        6           0.019067305   -0.003093754   -0.006862555
     12        6          -0.013496359   -0.131018086   -0.020160079
     13        1           0.092261464    0.190464253    0.005379201
     14        1           0.002038628    0.006366137    0.000523988
     15        1          -0.091124261   -0.193413021   -0.006307461
     16        1           0.002901326   -0.005834709   -0.002051698
     17       17          -0.134585769   -0.294322458   -0.010933814
     18       17           0.132257671    0.461197472    0.043040894
     19       17           0.001863055    0.002264962   -0.000188297
     20       17           0.003881342   -0.007458384   -0.002679442
     21       17           0.003148399   -0.004780739   -0.001935430
     22       17          -0.002471303    0.001404470    0.001077951
 -------------------------------------------------------------------
 Cartesian Forces:  Max     0.461197472 RMS     0.098215628

 GradGradGradGradGradGradGradGradGradGradGradGradGradGradGradGradGradGrad
 Berny optimization.
 Using GEDIIS/GDIIS optimizer.
 FormGI is forming the generalized inverse of G from B-inverse, IUseBI=4.
 Internal  Forces:  Max     4.713528088 RMS     0.706491342
 Search for a local minimum.
 Step number   2 out of a maximum of  112
 All quantities printed in internal units (Hartrees-Bohrs-Radians)
 Mixed Optimization -- RFO/linear search
 Update second derivatives using D2CorX and points    2    1
 DE=  9.61D-02 DEPred=-1.34D-01 R=-7.17D-01
 Trust test=-7.17D-01 RLast= 3.00D-01 DXMaxT set to 1.50D-01
 ITU= -1  0
 Use linear search instead of GDIIS.
     Eigenvalues ---    0.00238   0.00238   0.01671   0.01671   0.02070
     Eigenvalues ---    0.02070   0.02070   0.02070   0.02070   0.02070
     Eigenvalues ---    0.02070   0.02070   0.02070   0.02070   0.02070
     Eigenvalues ---    0.02070   0.02070   0.02070   0.04301   0.15391
     Eigenvalues ---    0.16000   0.16000   0.16000   0.17016   0.22432
     Eigenvalues ---    0.23346   0.23507   0.24439   0.25000   0.25000
     Eigenvalues ---    0.25000   0.25000   0.25000   0.25000   0.25000
     Eigenvalues ---    0.25000   0.27828   0.29537   0.29539   0.29539
     Eigenvalues ---    0.29539   0.29539   0.36974   0.37222   0.37230
     Eigenvalues ---    0.37230   0.41025   0.41533   0.41671   0.42013
     Eigenvalues ---    0.42483   0.45310   0.45389   0.45389   0.45389
     Eigenvalues ---    0.45389   0.45389   0.45389   0.48495  35.31039
 RFO step:  Lambda=-2.27329775D+00 EMin= 2.37799121D-03
 Quartic linear search produced a step of -0.41228.
 Maximum step size (   0.150) exceeded in Quadratic search.
    -- Step size scaled by   0.162
 Iteration  1 RMS(Cart)=  0.21871436 RMS(Int)=  0.00301927
 Iteration  2 RMS(Cart)=  0.01799444 RMS(Int)=  0.00002375
 Iteration  3 RMS(Cart)=  0.00006768 RMS(Int)=  0.00000202
 Iteration  4 RMS(Cart)=  0.00000000 RMS(Int)=  0.00000202
 Variable       Old X    -DE/DX   Delta X   Delta X   Delta X     New X
                                 (Linear)    (Quad)   (Total)
    R1        2.63695   0.24683   0.00466  -0.00276   0.00191   2.63886
    R2        2.64518  -0.16752   0.00127  -0.00505  -0.00378   2.64140
    R3        2.64664  -0.12755   0.00067  -0.00342  -0.00275   2.64389
    R4        2.02867  -0.15373  -0.00275   0.00136  -0.00139   2.02729
    R5        2.64489  -0.26830   0.00139  -0.00716  -0.00577   2.63912
    R6        3.32250  -0.00290   0.00141  -0.00223  -0.00083   3.32168
    R7        2.64242  -0.15724   0.00241  -0.00670  -0.00429   2.63813
    R8        2.02850   0.00605  -0.00268   0.00429   0.00161   2.03011
    R9        2.64498   0.11233   0.00136  -0.00004   0.00131   2.64629
   R10        3.32654  -0.00862  -0.00026   0.00023  -0.00003   3.32651
   R11        3.33381   0.22933  -0.00325   0.00952   0.00627   3.34008
   R12        2.63716   0.28734   0.00458  -0.00186   0.00272   2.63988
   R13        2.63524  -0.14547   0.00537  -0.01106  -0.00570   2.62954
   R14        2.64472  -0.12269   0.00146  -0.00458  -0.00311   2.64161
   R15        2.02953  -0.12370  -0.00310   0.00249  -0.00062   2.02892
   R16        2.64565  -0.26264   0.00108  -0.00658  -0.00550   2.64015
   R17        2.02895   0.00668  -0.00286   0.00459   0.00173   2.03068
   R18        2.64911  -0.14864  -0.00035  -0.00222  -0.00257   2.64654
   R19        3.32675   0.00357  -0.00034   0.00060   0.00026   3.32700
   R20        2.64113   0.11646   0.00294  -0.00245   0.00049   2.64161
   R21        3.33261  -0.00228  -0.00276   0.00422   0.00146   3.33407
   R22        3.37901   0.36396  -0.02189   0.04098   0.01909   3.39810
   R23        3.32872   1.06546  -0.06901   0.12984   0.06083   3.38954
    A1        2.08525  -0.20949   0.00377  -0.00991  -0.00614   2.07911
    A2        2.09065   0.24112   0.00154   0.00248   0.00403   2.09468
    A3        2.09697   0.02708  -0.00106   0.00225   0.00119   2.09816
    A4        2.09557  -0.26820  -0.00048  -0.00473  -0.00522   2.09035
    A5        2.10457  -0.06185  -0.00420   0.00515   0.00096   2.10553
    A6        2.09033   0.03243   0.00168  -0.00190  -0.00022   2.09010
    A7        2.08829   0.02942   0.00252  -0.00325  -0.00074   2.08755
    A8        2.09117  -0.10835   0.00133  -0.00429  -0.00296   2.08820
    A9        2.09644   0.05711  -0.00084   0.00248   0.00164   2.09807
   A10        2.09558   0.05124  -0.00049   0.00182   0.00133   2.09691
   A11        2.08277   0.28524   0.00479  -0.00170   0.00309   2.08586
   A12        2.08548  -0.14573   0.00368  -0.00856  -0.00488   2.08060
   A13        2.11493  -0.13952  -0.00847   0.01026   0.00179   2.11672
   A14        2.11196  -0.14668  -0.00724   0.00827   0.00103   2.11299
   A15        2.02783   1.36904   0.02745  -0.01498   0.01246   2.04029
   A16        2.14340  -1.22236  -0.02020   0.00671  -0.01349   2.12991
   A17        2.09075  -0.19968   0.00150  -0.00618  -0.00468   2.08607
   A18        2.09202   0.22862   0.00098   0.00310   0.00409   2.09611
   A19        2.09703   0.06276  -0.00109   0.00302   0.00193   2.09896
   A20        2.09413  -0.29139   0.00011  -0.00612  -0.00602   2.08811
   A21        2.09771  -0.06000  -0.00137   0.00080  -0.00056   2.09715
   A22        2.09408   0.03147   0.00013   0.00047   0.00060   2.09468
   A23        2.09140   0.02853   0.00124  -0.00127  -0.00004   2.09136
   A24        2.09483  -0.09980  -0.00018  -0.00181  -0.00199   2.09284
   A25        2.08573   0.04179   0.00357  -0.00462  -0.00104   2.08469
   A26        2.10263   0.05801  -0.00339   0.00643   0.00303   2.10566
   A27        2.08127   0.29214   0.00541  -0.00252   0.00288   2.08415
   A28        2.09432  -0.14297   0.00003  -0.00289  -0.00285   2.09146
   A29        2.10759  -0.14917  -0.00544   0.00541  -0.00003   2.10757
   A30        2.10979  -0.16129  -0.00635   0.00662   0.00026   2.11005
   A31        2.02055   1.33922   0.03044  -0.02020   0.01025   2.03080
   A32        2.15284  -1.17793  -0.02410   0.01358  -0.01051   2.14233
   A33        2.00220   4.71353   0.03801   0.03542   0.07343   2.07563
   A34        1.91526   4.43282   0.07386  -0.02534   0.04852   1.96378
    D1        0.00000  -0.00000  -0.00000  -0.00000  -0.00000   0.00000
    D2        3.14159  -0.00000  -0.00000  -0.00000  -0.00000   3.14159
    D3       -0.00000   0.00000   0.00000  -0.00000  -0.00000  -0.00000
    D4        3.14159   0.00001  -0.00000   0.00000   0.00000   3.14159
    D5        0.00000   0.00000  -0.00000   0.00000   0.00000   0.00000
    D6        3.14159   0.00000   0.00000  -0.00000  -0.00000   3.14159
    D7       -3.14159   0.00000   0.00000   0.00000   0.00000  -3.14159
    D8        0.00000   0.00000   0.00000  -0.00000   0.00000   0.00000
    D9       -0.00000   0.00000  -0.00000   0.00000   0.00000  -0.00000
   D10        3.14159  -0.00000   0.00000  -0.00000  -0.00000   3.14159
   D11        3.14159   0.00000  -0.00000   0.00000   0.00000   3.14159
   D12        0.00000   0.00000  -0.00000   0.00000   0.00000   0.00000
   D13        0.00000  -0.00000   0.00000  -0.00000  -0.00000   0.00000
   D14       -3.14159  -0.00000   0.00000  -0.00000  -0.00000  -3.14159
   D15       -3.14159  -0.00000   0.00000  -0.00000  -0.00000  -3.14159
   D16        0.00000  -0.00000   0.00000  -0.00000  -0.00000   0.00000
   D17       -0.00000   0.00000  -0.00000   0.00000   0.00000  -0.00000
   D18        3.14159  -0.00001   0.00000  -0.00000  -0.00000   3.14159
   D19        3.14159   0.00000  -0.00000   0.00000   0.00000   3.14159
   D20       -0.00000  -0.00001   0.00000  -0.00000  -0.00000  -0.00000
   D21        0.00001  -0.00002   0.00000  -0.00000  -0.00000   0.00001
   D22       -3.14159  -0.00001   0.00000  -0.00000  -0.00000  -3.14159
   D23        0.00000  -0.00000  -0.00000   0.00000  -0.00000   0.00000
   D24       -3.14159  -0.00000   0.00000  -0.00000  -0.00000  -3.14159
   D25       -0.00000   0.00000   0.00000  -0.00000  -0.00000  -0.00000
   D26        3.14159   0.00001  -0.00000   0.00000   0.00000   3.14159
   D27       -0.00000   0.00000   0.00000   0.00000   0.00000  -0.00000
   D28        3.14159  -0.00000   0.00000  -0.00000  -0.00000   3.14159
   D29        3.14159   0.00000  -0.00000   0.00000   0.00000   3.14159
   D30       -0.00000   0.00000  -0.00000   0.00000   0.00000  -0.00000
   D31       -0.00000   0.00000   0.00000   0.00000   0.00000  -0.00000
   D32       -3.14159  -0.00000   0.00000  -0.00000  -0.00000  -3.14159
   D33        3.14159   0.00000  -0.00000   0.00000   0.00000   3.14159
   D34        0.00000  -0.00000  -0.00000  -0.00000  -0.00000   0.00000
   D35        0.00000  -0.00000   0.00000  -0.00000  -0.00000   0.00000
   D36       -3.14159  -0.00000   0.00000  -0.00000  -0.00000  -3.14159
   D37        3.14159   0.00000   0.00000   0.00000   0.00000   3.14159
   D38        0.00000  -0.00000   0.00000  -0.00000  -0.00000   0.00000
   D39        0.00000   0.00000  -0.00000   0.00000   0.00000   0.00000
   D40       -3.14159  -0.00001   0.00000  -0.00000  -0.00000  -3.14159
   D41        3.14159   0.00000  -0.00000   0.00000   0.00000   3.14159
   D42       -0.00000  -0.00001   0.00000  -0.00000  -0.00000  -0.00000
   D43        0.00001  -0.00002   0.00000  -0.00000  -0.00000   0.00001
   D44       -3.14159  -0.00001   0.00000  -0.00000  -0.00000  -3.14159
   D45       -0.00001  -0.00008   0.00000  -0.00000  -0.00000  -0.00001
         Item               Value     Threshold  Converged?
 Maximum Force            4.713528     0.000450     NO 
 RMS     Force            0.706491     0.000300     NO 
 Maximum Displacement     0.756407     0.001800     NO 
 RMS     Displacement     0.235894     0.001200     NO 
 Predicted change in Energy=-4.540243D-01
 GradGradGradGradGradGradGradGradGradGradGradGradGradGradGradGradGradGrad

                          Input orientation:                          
 ---------------------------------------------------------------------
 Center     Atomic      Atomic             Coordinates (Angstroms)
 Number     Number       Type             X           Y           Z
 ---------------------------------------------------------------------
      1          6           0        0.524701    0.130154    0.087371
      2          6           0        1.834598   -0.020549   -0.372482
      3          6           0        2.683413    1.089355   -0.443680
      4          6           0        2.234634    2.354431   -0.058237
      5          6           0        0.926275    2.512229    0.402439
      6          6           0        0.080377    1.398396    0.471938
      7          6           0       -0.232974   -1.322505    0.064160
      8          6           0        0.516834   -2.411278   -0.387353
      9          6           0       -0.056884   -3.685010   -0.437554
     10          6           0       -1.381764   -3.874347   -0.036617
     11          6           0       -2.136663   -2.785283    0.416629
     12          6           0       -1.552114   -1.516314    0.462366
     13          1           0        2.193880   -0.985951   -0.672156
     14          1           0        2.892252    3.201975   -0.115717
     15          1           0        1.535684   -2.275239   -0.697473
     16          1           0        0.521102   -4.521604   -0.785097
     17         17           0       -2.437781   -0.057223    1.028191
     18         17           0       -1.587235    1.521875    1.044528
     19         17           0       -3.809579   -3.026748    0.922445
     20         17           0        0.372605    4.111923    0.885278
     21         17           0       -2.085452   -5.486615   -0.107574
[...]
                 (A) (A) (A) (A) (A) (A) (A) (A) (A) (A) (A) (A)
                 (A) (A) (A) (A) (A) (A) (A) (A) (A) (A) (A) (A)
                 (A) (A) (A) (A) (A) (A) (A) (A) (A) (A) (A) (A)
                 (A) (A) (A) (A) (A) (A) (A) (A) (A) (A) (A) (A)
                 (A) (A) (A) (A) (A) (A) (A) (A) (A) (A) (A) (A)
                 (A) (A) (A) (A) (A) (A) (A) (A) (A) (A) (A) (A)
                 (A) (A) (A) (A) (A) (A) (A) (A) (A) (A) (A) (A)
                 (A) (A) (A) (A) (A) (A) (A) (A) (A) (A) (A) (A)
                 (A) (A) (A) (A) (A) (A) (A) (A) (A) (A) (A) (A)
                 (A) (A) (A) (A) (A) (A) (A) (A) (A) (A) (A) (A)
                 (A) (A) (A) (A) (A) (A) (A) (A) (A) (A) (A) (A)
                 (A) (A) (A) (A) (A) (A) (A) (A) (A) (A) (A) (A)
                 (A) (A) (A) (A) (A) (A) (A) (A) (A) (A) (A) (A)
                 (A) (A) (A) (A) (A) (A) (A) (A) (A) (A) (A) (A)
                 (A) (A) (A) (A) (A) (A) (A) (A) (A) (A) (A) (A)
                 (A) (A) (A) (A) (A) (A) (A) (A) (A) (A) (A) (A)
                 (A) (A) (A) (A) (A) (A) (A) (A) (A) (A) (A) (A)
                 (A) (A) (A) (A) (A) (A) (A) (A) (A) (A) (A) (A)
                 (A) (A) (A) (A) (A) (A) (A) (A) (A) (A) (A) (A)
                 (A) (A) (A) (A) (A) (A) (A) (A) (A) (A) (A) (A)
                 (A) (A) (A) (A) (A) (A) (A) (A) (A) (A) (A) (A)
                 (A) (A) (A)
 The electronic state is 1-A.
 Alpha  occ. eigenvalues -- -101.57696-101.57674-101.57600-101.57599-101.57569
 Alpha  occ. eigenvalues -- -101.57542 -10.27684 -10.27594 -10.27510 -10.27312
 Alpha  occ. eigenvalues --  -10.27286 -10.26868 -10.23689 -10.23253 -10.22177
 Alpha  occ. eigenvalues --  -10.21842 -10.21690 -10.21631  -9.49154  -9.49139
 Alpha  occ. eigenvalues --   -9.49076  -9.49057  -9.49041  -9.48995  -7.25643
 Alpha  occ. eigenvalues --   -7.25639  -7.25562  -7.25544  -7.25526  -7.25468
 Alpha  occ. eigenvalues --   -7.24634  -7.24621  -7.24572  -7.24559  -7.24538
 Alpha  occ. eigenvalues --   -7.24537  -7.24522  -7.24487  -7.24476  -7.24472
 Alpha  occ. eigenvalues --   -7.24455  -7.24436  -0.95558  -0.94510  -0.90559
 Alpha  occ. eigenvalues --   -0.90295  -0.88657  -0.87511  -0.85698  -0.84442
 Alpha  occ. eigenvalues --   -0.79785  -0.76319  -0.75628  -0.74484  -0.66932
 Alpha  occ. eigenvalues --   -0.64231  -0.63027  -0.61606  -0.55144  -0.53634
 Alpha  occ. eigenvalues --   -0.53463  -0.53070  -0.49772  -0.48252  -0.46776
 Alpha  occ. eigenvalues --   -0.46693  -0.46572  -0.45149  -0.44870  -0.43344
 Alpha  occ. eigenvalues --   -0.41611  -0.41344  -0.40500  -0.39546  -0.38627
 Alpha  occ. eigenvalues --   -0.36789  -0.36490  -0.35325  -0.34953  -0.34550
 Alpha  occ. eigenvalues --   -0.34175  -0.33776  -0.33417  -0.32706  -0.31917
 Alpha  occ. eigenvalues --   -0.28563  -0.27489  -0.27347  -0.26647
 Alpha virt. eigenvalues --   -0.06208  -0.05954  -0.05429  -0.04723  -0.04033
 Alpha virt. eigenvalues --   -0.02833  -0.00933   0.00064   0.00587   0.01397
 Alpha virt. eigenvalues --    0.01722   0.02129   0.02265   0.02553   0.03277
 Alpha virt. eigenvalues --    0.04025   0.04696   0.04927   0.05521   0.05738
 Alpha virt. eigenvalues --    0.06171   0.06847   0.07179   0.07549   0.08062
 Alpha virt. eigenvalues --    0.08316   0.08657   0.08966   0.09101   0.09221
 Alpha virt. eigenvalues --    0.09601   0.10427   0.10637   0.10972   0.11575
 Alpha virt. eigenvalues --    0.11649   0.12019   0.12245   0.12421   0.12693
 Alpha virt. eigenvalues --    0.13440   0.13740   0.14283   0.14424   0.14903
 Alpha virt. eigenvalues --    0.15435   0.15547   0.15848   0.16284   0.16602
 Alpha virt. eigenvalues --    0.17142   0.17687   0.17818   0.18070   0.18469
 Alpha virt. eigenvalues --    0.18849   0.19319   0.19525   0.19787   0.20151
 Alpha virt. eigenvalues --    0.20698   0.20732   0.21190   0.21303   0.22441
 Alpha virt. eigenvalues --    0.22604   0.22877   0.23361   0.23517   0.23689
 Alpha virt. eigenvalues --    0.24243   0.24467   0.25013   0.25380   0.26032
 Alpha virt. eigenvalues --    0.26293   0.26713   0.27347   0.27510   0.28204
 Alpha virt. eigenvalues --    0.28373   0.28594   0.28792   0.29490   0.29564
 Alpha virt. eigenvalues --    0.30212   0.30533   0.31175   0.31863   0.32323
 Alpha virt. eigenvalues --    0.33134   0.33764   0.35761   0.40559   0.40794
 Alpha virt. eigenvalues --    0.42166   0.42589   0.43394   0.44211   0.44731
 Alpha virt. eigenvalues --    0.45108   0.45158   0.45798   0.45891   0.46639
 Alpha virt. eigenvalues --    0.47257   0.47293   0.48061   0.48450   0.48921
 Alpha virt. eigenvalues --    0.50020   0.50650   0.51249   0.51871   0.52999
 Alpha virt. eigenvalues --    0.53068   0.54161   0.55814   0.56447   0.57291
 Alpha virt. eigenvalues --    0.57514   0.57966   0.58861   0.59161   0.59968
 Alpha virt. eigenvalues --    0.61243   0.61395   0.62480   0.62984   0.63333
 Alpha virt. eigenvalues --    0.63607   0.64515   0.65345   0.65881   0.66393
 Alpha virt. eigenvalues --    0.67210   0.67830   0.68238   0.68627   0.69275
 Alpha virt. eigenvalues --    0.70175   0.71126   0.71805   0.74481   0.77800
 Alpha virt. eigenvalues --    0.78328   0.79845   0.81365   0.82367   0.82592
 Alpha virt. eigenvalues --    0.83147   0.83403   0.83471   0.83727   0.84110
 Alpha virt. eigenvalues --    0.84360   0.84418   0.84806   0.84989   0.85168
 Alpha virt. eigenvalues --    0.85623   0.86218   0.87073   0.87267   0.87770
 Alpha virt. eigenvalues --    0.88881   0.89452   0.89754   0.90345   0.91492
 Alpha virt. eigenvalues --    0.91753   0.92597   0.93132   0.93898   0.94143
 Alpha virt. eigenvalues --    0.94275   0.94301   0.94532   0.95770   0.96234
 Alpha virt. eigenvalues --    0.96750   0.97930   0.98563   0.98835   0.99908
 Alpha virt. eigenvalues --    1.00272   1.01903   1.02670   1.04402   1.05358
 Alpha virt. eigenvalues --    1.09497   1.10576   1.11084   1.13657   1.14972
 Alpha virt. eigenvalues --    1.18134   1.20473   1.21418   1.22311   1.22379
 Alpha virt. eigenvalues --    1.23586   1.23796   1.25958   1.26450   1.27208
 Alpha virt. eigenvalues --    1.27845   1.29148   1.29641   1.30392   1.32978
 Alpha virt. eigenvalues --    1.34117   1.36026   1.37185   1.39728   1.40926
 Alpha virt. eigenvalues --    1.44353   1.47862   1.48633   1.51851   1.54972
 Alpha virt. eigenvalues --    1.55908   1.56491   1.57744   1.59458   1.60096
 Alpha virt. eigenvalues --    1.61147   1.64902   1.66849   1.67495   1.69039
 Alpha virt. eigenvalues --    1.72834   1.73222   1.77110   1.78156   1.79349
 Alpha virt. eigenvalues --    1.80137   1.82241   1.84382   1.84978   1.85574
 Alpha virt. eigenvalues --    1.88455   1.88682   1.92363   1.92762   1.93533
 Alpha virt. eigenvalues --    1.94234   1.96415   1.97259   1.99272   2.02989
 Alpha virt. eigenvalues --    2.06244   2.06441   2.08273   2.10617   2.12649
 Alpha virt. eigenvalues --    2.16954   2.18611   2.23239   2.23856   2.24842
 Alpha virt. eigenvalues --    2.25119   2.25726   2.26365   2.27357   2.29539
 Alpha virt. eigenvalues --    2.30155   2.32003   2.32899   2.34411   2.34528
 Alpha virt. eigenvalues --    2.36604   2.41054   2.42239   2.42888   2.44944
 Alpha virt. eigenvalues --    2.46160   2.47847   2.49577   2.51180   2.52200
 Alpha virt. eigenvalues --    2.54253   2.54657   2.55114   2.58581   2.61114
 Alpha virt. eigenvalues --    2.63314   2.64609   2.66503   2.67913   2.69148
 Alpha virt. eigenvalues --    2.70315   2.71041   2.72707   2.73374   2.74858
 Alpha virt. eigenvalues --    2.75158   2.76905   2.79344   2.82425   2.82936
 Alpha virt. eigenvalues --    2.84230   2.88231   2.90184   2.96946   2.97646
 Alpha virt. eigenvalues --    3.06601   3.08427   3.08867   3.11649   3.12218
 Alpha virt. eigenvalues --    3.13048   3.16365   3.18984   3.20919   3.24513
 Alpha virt. eigenvalues --    3.27148   3.34051   3.35766   3.42315   3.44545
 Alpha virt. eigenvalues --    3.56268   3.63832   3.68026   3.70565   3.79244
 Alpha virt. eigenvalues --    3.82633   3.95593   4.00723   4.06734   4.08608
 Alpha virt. eigenvalues --    4.31816   4.80447   4.81115   9.75414   9.76222
 Alpha virt. eigenvalues --    9.78495   9.79641   9.81987   9.84038  23.34884
 Alpha virt. eigenvalues --   23.49737  23.82141  23.84124  23.86800  23.88865
 Alpha virt. eigenvalues --   23.94308  23.95545  24.01067  24.05844  24.10466
 Alpha virt. eigenvalues --   24.14364  25.77753  25.80003  25.81781  25.83965
 Alpha virt. eigenvalues --   25.90487  25.96961  26.07981  26.10552  26.16458
 Alpha virt. eigenvalues --   26.17017  26.24453  26.36987  26.50008  26.56950
 Alpha virt. eigenvalues --   26.62569  26.66137  26.82902  26.95389 215.74567
 Alpha virt. eigenvalues --  215.75265 215.77959 215.79277 215.82426 215.84383
          Condensed to atoms (all electrons):
               1          2          3          4          5          6
     1  C   28.670265  -3.987535  -6.236641  -2.254435   5.492539  -8.620600
     2  C   -3.987535  48.367376 -12.266547  -9.020368   3.140761 -10.920488
     3  C   -6.236641 -12.266547  25.079943  -0.818324  -4.813324   1.767050
     4  C   -2.254435  -9.020368  -0.818324  30.436135  -9.113153  -0.054366
     5  C    5.492539   3.140761  -4.813324  -9.113153  31.593302 -21.925272
     6  C   -8.620600 -10.920488   1.767050  -0.054366 -21.925272  66.726842
     7  C    2.402912  -7.654379   3.097794  -3.496675   2.700303 -14.741260
     8  C   -2.239101   0.232180   0.253119   0.227709  -0.654860  -0.962322
     9  C    0.831191  -0.084024   0.222510  -0.015513  -0.183359   1.205980
    10  C   -1.909253   0.298826  -0.065388  -0.090017   0.233356  -1.264091
    11  C   -2.389622  -0.937885   0.370083   0.072244  -0.327124  -0.935290
    12  C   -0.918058  -1.089987  -0.786092   0.487763   0.240829  -4.763050
    13  H    0.046289   0.025966   0.084469   0.034398   0.001205  -0.120294
    14  H    0.082413  -0.010060   0.051472   0.112233   0.126668  -0.033150
    15  H    0.077664   0.037895  -0.029363  -0.002132   0.010623   0.085473
    16  H    0.000814  -0.000476  -0.001092   0.000100   0.000201   0.002868
    17  Cl  -0.510570   0.170534   0.362633  -0.528184   0.477044  -0.778029
    18  Cl  -1.559119  -0.107234   0.302694   1.531389  -1.503674   2.040203
    19  Cl  -0.146505  -0.049729   0.024112   0.003473  -0.019292  -0.044404
    20  Cl  -0.024494   0.314135  -0.067701  -0.636202   0.036723  -0.152566
    21  Cl  -0.077283  -0.004519   0.009253  -0.002030   0.000020  -0.047251
    22  Cl  -0.358215   0.452225  -1.345959   0.074690  -0.180768   0.818716
               7          8          9         10         11         12
     1  C    2.402912  -2.239101   0.831191  -1.909253  -2.389622  -0.918058
     2  C   -7.654379   0.232180  -0.084024   0.298826  -0.937885  -1.089987
     3  C    3.097794   0.253119   0.222510  -0.065388   0.370083  -0.786092
     4  C   -3.496675   0.227709  -0.015513  -0.090017   0.072244   0.487763
     5  C    2.700303  -0.654860  -0.183359   0.233356  -0.327124   0.240829
     6  C  -14.741260  -0.962322   1.205980  -1.264091  -0.935290  -4.763050
     7  C   30.174750  -5.964942  -1.874894   0.906495  -1.475027   4.148613
     8  C   -5.964942  23.129117  -1.739562   1.055060  -1.228709  -7.233258
     9  C   -1.874894  -1.739562  15.817145  -3.318937  -5.990017   1.144071
    10  C    0.906495   1.055060  -3.318937  18.976382  -2.612535  -5.746412
    11  C   -1.475027  -1.228709  -5.990017  -2.612535  21.650474  -0.556127
    12  C    4.148613  -7.233258   1.144071  -5.746412  -0.556127  25.674538
    13  H    0.212460  -0.010442  -0.012238   0.007782   0.013319   0.090507
    14  H    0.020473  -0.001315  -0.000181   0.000069   0.000111   0.001665
    15  H   -0.009142   0.331446  -0.059289  -0.017312  -0.035762  -0.031375
    16  H    0.016970  -0.030115   0.330337   0.030257  -0.001615   0.002098
    17  Cl   0.571437   0.523097   0.342790   0.386745   0.076247  -2.882167
    18  Cl  -2.594851   0.532086   0.266830  -0.266722   0.126284  -1.033967
    19  Cl  -0.566557   0.179571   0.179520  -0.500315  -0.614852   1.004958
    20  Cl   0.151665  -0.036750  -0.001166   0.004880  -0.008283  -0.014394
    21  Cl  -0.185050   0.092887  -0.185481  -0.497602   0.587143  -0.355059
    22  Cl  -0.242339   0.026926   0.011030   0.000220  -0.002739  -0.065203
              13         14         15         16         17         18
     1  C    0.046289   0.082413   0.077664   0.000814  -0.510570  -1.559119
     2  C    0.025966  -0.010060   0.037895  -0.000476   0.170534  -0.107234
     3  C    0.084469   0.051472  -0.029363  -0.001092   0.362633   0.302694
     4  C    0.034398   0.112233  -0.002132   0.000100  -0.528184   1.531389
     5  C    0.001205   0.126668   0.010623   0.000201   0.477044  -1.503674
     6  C   -0.120294  -0.033150   0.085473   0.002868  -0.778029   2.040203
     7  C    0.212460   0.020473  -0.009142   0.016970   0.571437  -2.594851
     8  C   -0.010442  -0.001315   0.331446  -0.030115   0.523097   0.532086
     9  C   -0.012238  -0.000181  -0.059289   0.330337   0.342790   0.266830
    10  C    0.007782   0.000069  -0.017312   0.030257   0.386745  -0.266722
    11  C    0.013319   0.000111  -0.035762  -0.001615   0.076247   0.126284
    12  C    0.090507   0.001665  -0.031375   0.002098  -2.882167  -1.033967
    13  H    0.511824  -0.000218  -0.000483   0.000005  -0.010932  -0.004173
    14  H   -0.000218   0.491119  -0.000001  -0.000000   0.000065  -0.002738
    15  H   -0.000483  -0.000001   0.523273  -0.006760  -0.001411  -0.009179
    16  H    0.000005  -0.000000  -0.006760   0.503880   0.001514  -0.000850
    17  Cl  -0.010932   0.000065  -0.001411   0.001514  18.500122   0.051219
    18  Cl  -0.004173  -0.002738  -0.009179  -0.000850   0.051219  19.020337
    19  Cl   0.000665  -0.000001   0.000078  -0.000859  -0.296385   0.001800
    20  Cl   0.000147  -0.002375   0.000461  -0.000003   0.009169  -0.366038
    21  Cl   0.000078   0.000000  -0.001427  -0.006346  -0.018354   0.004624
    22  Cl  -0.018191  -0.010050   0.000195  -0.000004  -0.007906   0.004444
              19         20         21         22
     1  C   -0.146505  -0.024494  -0.077283  -0.358215
     2  C   -0.049729   0.314135  -0.004519   0.452225
     3  C    0.024112  -0.067701   0.009253  -1.345959
     4  C    0.003473  -0.636202  -0.002030   0.074690
     5  C   -0.019292   0.036723   0.000020  -0.180768
     6  C   -0.044404  -0.152566  -0.047251   0.818716
     7  C   -0.566557   0.151665  -0.185050  -0.242339
     8  C    0.179571  -0.036750   0.092887   0.026926
     9  C    0.179520  -0.001166  -0.185481   0.011030
    10  C   -0.500315   0.004880  -0.497602   0.000220
    11  C   -0.614852  -0.008283   0.587143  -0.002739
    12  C    1.004958  -0.014394  -0.355059  -0.065203
    13  H    0.000665   0.000147   0.000078  -0.018191
    14  H   -0.000001  -0.002375   0.000000  -0.010050
    15  H    0.000078   0.000461  -0.001427   0.000195
    16  H   -0.000859  -0.000003  -0.006346  -0.000004
    17  Cl  -0.296385   0.009169  -0.018354  -0.007906
    18  Cl   0.001800  -0.366038   0.004624   0.004444
    19  Cl  17.411121  -0.000280  -0.138387  -0.000024
    20  Cl  -0.000280  17.347810   0.000049  -0.023444
    21  Cl  -0.138387   0.000049  17.317187   0.000050
    22  Cl  -0.000024  -0.023444   0.000050  17.440784
 Mulliken charges:
               1
     1  C   -0.372655
     2  C   -0.906666
     3  C    0.805299
     4  C   -0.948735
     5  C    0.667251
     6  C   -1.284699
     7  C    0.401242
     8  C   -0.481820
     9  C   -0.886743
    10  C    0.388512
    11  C    0.219680
    12  C   -1.319894
    13  H    0.147857
    14  H    0.173800
    15  H    0.136529
    16  H    0.159078
    17  Cl   0.561323
    18  Cl   0.566635
    19  Cl   0.572291
    20  Cl   0.468657
    21  Cl   0.507496
    22  Cl   0.425560
 Sum of Mulliken charges =  -0.00000
 Mulliken charges with hydrogens summed into heavy atoms:
               1
     1  C   -0.372655
     2  C   -0.758809
     3  C    0.805299
     4  C   -0.774935
     5  C    0.667251
     6  C   -1.284699
     7  C    0.401242
     8  C   -0.345292
     9  C   -0.727665
    10  C    0.388512
    11  C    0.219680
    12  C   -1.319894
    17  Cl   0.561323
    18  Cl   0.566635
    19  Cl   0.572291
    20  Cl   0.468657
    21  Cl   0.507496
    22  Cl   0.425560
 Electronic spatial extent (au):  <R**2>=           8547.8767
 Charge=              0.0000 electrons
 Dipole moment (field-independent basis, Debye):
    X=              0.6389    Y=              1.0371    Z=              1.8729  Tot=              2.2342
 Quadrupole moment (field-independent basis, Debye-Ang):
   XX=           -147.7531   YY=           -147.7681   ZZ=           -140.6881
   XY=              0.0247   XZ=             -3.0782   YZ=              1.5260
 Traceless Quadrupole moment (field-independent basis, Debye-Ang):
   XX=             -2.3500   YY=             -2.3650   ZZ=              4.7150
   XY=              0.0247   XZ=             -3.0782   YZ=              1.5260
 Octapole moment (field-independent basis, Debye-Ang**2):
  XXX=             28.7564  YYY=            -12.9837  ZZZ=             -0.7202  XYY=            -10.0962
  XXY=             -7.0908  XXZ=             -5.2844  XZZ=            -14.6076  YZZ=             -1.2412
  YYZ=             -5.9376  XYZ=             -1.3038
 Hexadecapole moment (field-independent basis, Debye-Ang**3):
 XXXX=          -7898.4943 YYYY=          -1963.6047 ZZZZ=          -1149.5666 XXXY=             -9.5256
 XXXZ=              6.7157 YYYX=            -11.5237 YYYZ=             -9.8308 ZZZX=             -7.6509
 ZZZY=             11.6350 XXYY=          -1703.6915 XXZZ=          -1522.7947 YYZZ=           -555.9911
 XXYZ=              3.4596 YYXZ=              3.2782 ZZXY=             -7.6396
 N-N= 2.012715465456D+03 E-N=-1.165445239156D+04  KE= 3.212689430205D+03
 1\1\GINC-CN251\FOpt\RB3LYP\6-311+G(d,p)\C12H4Cl6\20CY91R06\03-Apr-2022
 \0\\# opt b3lyp/6-311+g(d,p) scf=xqc\\Title Card Required\\0,1\C,0.646
 0131411,-0.02272504,0.0639075306\C,1.9613411012,-0.087345607,0.5274004
 851\C,2.7263163889,1.0692098509,0.6105410665\C,2.2082690622,2.30132992
 29,0.2368474205\C,0.8983194728,2.370120667,-0.2295570606\C,0.111594239
 4,1.2157190822,-0.321144715\C,-0.1449563081,-1.2861040968,-0.039035240
 8\C,-0.0150814899,-2.0883506843,-1.1739290135\C,-0.716721374,-3.278936
 077,-1.2960428817\C,-1.5653672431,-3.6903808348,-0.2740373092\C,-1.716
 5931441,-2.9116905746,0.880478916\C,-0.9985444198,-1.7094775148,0.9871
 871564\H,2.3776445357,-1.0394863561,0.8286043275\H,2.8061027896,3.1995
 98877,0.3030115234\H,0.6411970422,-1.7677723359,-1.9738263999\H,-0.613
 4945607,-3.8942344995,-2.1799180068\Cl,-1.1624721898,-0.7231073098,2.4
 171003774\Cl,-1.5261139951,1.3033021847,-0.9128879529\Cl,-2.7708154893
 ,-3.4285212534,2.1601904024\Cl,0.2752034992,3.9312206683,-0.6982319266
 \Cl,-2.4306715443,-5.1940225861,-0.4650027599\Cl,4.3756978762,0.975118
 407,1.1961775512\\Version=EM64L-G16RevB.01\State=1-A\HF=-3221.1320422\
 RMSD=7.189e-09\RMSF=2.809e-05\Dipole=0.6441003,-0.1596838,-0.5764511\Q
 uadrupole=-1.596644,-0.4130926,2.0097365,-0.8002104,-0.7600253,3.33824
 39\PG=C01 [X(C12H4Cl6)]\\@


     ON THE SURVIVAL OF THE FITTEST -
 "STRONG REPRESENTATIVES FROM EACH PAST ERA THRIVE TODAY,
 SUCH AS PROGRAMMING IN THE THIRTY YEAR OLD LANGUAGE KNOWN
 AS FORTRAN, AND EVEN IN THE ANCIENT SCRIPT KNOWN AS DIRECT
 MACHINE CODE. SOME PEOPLE MIGHT LOOK ON SUCH RELICS AS LIVING
 FOSSILS; OTHERS WOULD POINT OUT THAT EVEN A VERY OLD SPECIES
 MIGHT STILL BE FILLING A PARTICULAR ECOLOGICAL NICHE."
     -- ALAN KAY, SCI.AM. SEPTEMBER 1984
 Job cpu time:       1 days  5 hours  3 minutes 40.9 seconds.
 Elapsed time:       0 days  2 hours 54 minutes 53.0 seconds.
 File lengths (MBytes):  RWF=    134 Int=      0 D2E=      0 Chk=     23 Scr=      1
 Normal termination of Gaussian 16 at Sun Apr  3 03:32:27 2022.
