 Entering Gaussian System, Link 0=g16
 Input=2,2prime,3,4prime,5prime-Pentachlorobiphenyl.gjf
 Output=2,2prime,3,4prime,5prime-Pentachlorobiphenyl.log
 Initial command:
 /opt/g16/l1.exe "/scratch/gour/Gau-44199.inp" -scrdir="/scratch/gour/"
 Entering Link 1 = /opt/g16/l1.exe PID=     44200.
  
 Copyright (c) 1988-2017, Gaussian, Inc.  All Rights Reserved.
  
 This is part of the Gaussian(R) 16 program.  It is based on
 the Gaussian(R) 09 system (copyright 2009, Gaussian, Inc.),
 the Gaussian(R) 03 system (copyright 2003, Gaussian, Inc.),
 the Gaussian(R) 98 system (copyright 1998, Gaussian, Inc.),
 the Gaussian(R) 94 system (copyright 1995, Gaussian, Inc.),
 the Gaussian 92(TM) system (copyright 1992, Gaussian, Inc.),
 the Gaussian 90(TM) system (copyright 1990, Gaussian, Inc.),
 the Gaussian 88(TM) system (copyright 1988, Gaussian, Inc.),
 the Gaussian 86(TM) system (copyright 1986, Carnegie Mellon
 University), and the Gaussian 82(TM) system (copyright 1983,
 Carnegie Mellon University). Gaussian is a federally registered
 trademark of Gaussian, Inc.
  
 This software contains proprietary and confidential information,
 including trade secrets, belonging to Gaussian, Inc.
  
 This software is provided under written license and may be
 used, copied, transmitted, or stored only in accord with that
 written license.
  
 The following legend is applicable only to US Government
 contracts under FAR:
  
                    RESTRICTED RIGHTS LEGEND
  
 Use, reproduction and disclosure by the US Government is
 subject to restrictions as set forth in subparagraphs (a)
 and (c) of the Commercial Computer Software - Restricted
 Rights clause in FAR 52.227-19.
  
 Gaussian, Inc.
 340 Quinnipiac St., Bldg. 40, Wallingford CT 06492
  
  
 ---------------------------------------------------------------
 Warning -- This program may not be used in any manner that
 competes with the business of Gaussian, Inc. or will provide
 assistance to any competitor of Gaussian, Inc.  The licensee
 of this program is prohibited from giving any competitor of
 Gaussian, Inc. access to this program.  By using this program,
 the user acknowledges that Gaussian, Inc. is engaged in the
 business of creating and licensing software in the field of
 computational chemistry and represents and warrants to the
 licensee that it is not a competitor of Gaussian, Inc. and that
 it will not use this program in any manner prohibited above.
 ---------------------------------------------------------------
  

 Cite this work as:
 Gaussian 16, Revision B.01,
 M. J. Frisch, G. W. Trucks, H. B. Schlegel, G. E. Scuseria, 
 M. A. Robb, J. R. Cheeseman, G. Scalmani, V. Barone, 
 G. A. Petersson, H. Nakatsuji, X. Li, M. Caricato, A. V. Marenich, 
 J. Bloino, B. G. Janesko, R. Gomperts, B. Mennucci, H. P. Hratchian, 
 J. V. Ortiz, A. F. Izmaylov, J. L. Sonnenberg, D. Williams-Young, 
 F. Ding, F. Lipparini, F. Egidi, J. Goings, B. Peng, A. Petrone, 
 T. Henderson, D. Ranasinghe, V. G. Zakrzewski, J. Gao, N. Rega, 
 G. Zheng, W. Liang, M. Hada, M. Ehara, K. Toyota, R. Fukuda, 
 J. Hasegawa, M. Ishida, T. Nakajima, Y. Honda, O. Kitao, H. Nakai, 
 T. Vreven, K. Throssell, J. A. Montgomery, Jr., J. E. Peralta, 
 F. Ogliaro, M. J. Bearpark, J. J. Heyd, E. N. Brothers, K. N. Kudin, 
 V. N. Staroverov, T. A. Keith, R. Kobayashi, J. Normand, 
 K. Raghavachari, A. P. Rendell, J. C. Burant, S. S. Iyengar, 
 J. Tomasi, M. Cossi, J. M. Millam, M. Klene, C. Adamo, R. Cammi, 
 J. W. Ochterski, R. L. Martin, K. Morokuma, O. Farkas, 
 J. B. Foresman, and D. J. Fox, Gaussian, Inc., Wallingford CT, 2016.
 
 ******************************************
 Gaussian 16:  EM64L-G16RevB.01 20-Dec-2017
                16-Mar-2022 
 ******************************************
 %mem=10GB
 %nprocshared=4
 Will use up to    4 processors via shared memory.
 --------------------------------
 # opt b3lyp/6-311+g(d,p) scf=xqc
 --------------------------------
 1/18=20,19=15,26=3,38=1/1,3;
 2/9=110,12=2,17=6,18=5,40=1/2;
 3/5=4,6=6,7=111,11=2,25=1,30=1,71=1,74=-5/1,2,3;
 4//1;
 5/5=2,8=3,13=1,38=5/2,8;
 6/7=2,8=2,9=2,10=2,28=1/1;
 7//1,2,3,16;
 1/18=20,19=15,26=3/3(2);
 2/9=110/2;
 99//99;
 2/9=110/2;
 3/5=4,6=6,7=111,11=2,25=1,30=1,71=1,74=-5/1,2,3;
 4/5=5,16=3,69=1/1;
 5/5=2,8=3,13=1,38=5/2,8;
 7//1,2,3,16;
 1/18=20,19=15,26=3/3(-5);
 2/9=110/2;
 6/7=2,8=2,9=2,10=2,19=2,28=1/1;
 99/9=1/99;
 -------------------
 Title Card Required
 -------------------
 Symbolic Z-matrix:
 Charge =  0 Multiplicity = 1
 C                     0.93602  -0.17882  -0.00285 
 C                     2.2684   -0.14893  -0.4362 
 C                     2.9763    1.06052  -0.44227 
 C                     2.35181   2.24008  -0.015 
 C                     1.01943   2.2102    0.41835 
 C                     0.31153   1.00075   0.42442 
 C                     0.15812  -1.50789   0.00382 
 C                     0.78261  -2.68745  -0.42345 
 C                     0.07471  -3.8969   -0.41738 
 C                    -1.25767  -3.92679   0.01597 
 C                    -1.88216  -2.74722   0.44325 
 C                    -1.17426  -1.53777   0.43717 
 H                     2.74521  -1.04956  -0.76243 
 H                     0.54262   3.11082   0.74458 
 H                     1.79991  -2.66463  -0.75432 
 H                     0.55152  -4.79753  -0.74361 
 H                    -1.79816  -4.85023   0.02061 
 Cl                   -1.95855  -0.05637   0.97378 
 Cl                   -1.36179   0.96321   0.96866 
 Cl                   -3.55547  -2.78476   0.98749 
 Cl                    3.24084   3.75902  -0.02262 
 Cl                    4.64962   1.09805  -0.9865 
 

 GradGradGradGradGradGradGradGradGradGradGradGradGradGradGradGradGradGrad
 Berny optimization.
 Initialization pass.
                           ----------------------------
                           !    Initial Parameters    !
                           ! (Angstroms and Degrees)  !
 --------------------------                            --------------------------
 ! Name  Definition              Value          Derivative Info.                !
 --------------------------------------------------------------------------------
 ! R1    R(1,2)                  1.4014         estimate D2E/DX2                !
 ! R2    R(1,6)                  1.4014         estimate D2E/DX2                !
 ! R3    R(1,7)                  1.54           estimate D2E/DX2                !
 ! R4    R(2,3)                  1.4014         estimate D2E/DX2                !
 ! R5    R(2,13)                 1.07           estimate D2E/DX2                !
 ! R6    R(3,4)                  1.4014         estimate D2E/DX2                !
 ! R7    R(3,22)                 1.76           estimate D2E/DX2                !
 ! R8    R(4,5)                  1.4014         estimate D2E/DX2                !
 ! R9    R(4,21)                 1.76           estimate D2E/DX2                !
 ! R10   R(5,6)                  1.4014         estimate D2E/DX2                !
 ! R11   R(5,14)                 1.07           estimate D2E/DX2                !
 ! R12   R(6,19)                 1.76           estimate D2E/DX2                !
 ! R13   R(7,8)                  1.4014         estimate D2E/DX2                !
 ! R14   R(7,12)                 1.4014         estimate D2E/DX2                !
 ! R15   R(8,9)                  1.4014         estimate D2E/DX2                !
 ! R16   R(8,15)                 1.07           estimate D2E/DX2                !
 ! R17   R(9,10)                 1.4014         estimate D2E/DX2                !
 ! R18   R(9,16)                 1.07           estimate D2E/DX2                !
 ! R19   R(10,11)                1.4014         estimate D2E/DX2                !
 ! R20   R(10,17)                1.07           estimate D2E/DX2                !
 ! R21   R(11,12)                1.4014         estimate D2E/DX2                !
 ! R22   R(11,20)                1.76           estimate D2E/DX2                !
 ! R23   R(12,18)                1.76           estimate D2E/DX2                !
 ! R24   R(18,19)                1.1814         estimate D2E/DX2                !
 ! A1    A(2,1,6)              120.0            estimate D2E/DX2                !
 ! A2    A(2,1,7)              120.0            estimate D2E/DX2                !
 ! A3    A(6,1,7)              120.0            estimate D2E/DX2                !
 ! A4    A(1,2,3)              120.0            estimate D2E/DX2                !
 ! A5    A(1,2,13)             120.0            estimate D2E/DX2                !
 ! A6    A(3,2,13)             120.0            estimate D2E/DX2                !
 ! A7    A(2,3,4)              120.0            estimate D2E/DX2                !
 ! A8    A(2,3,22)             120.0            estimate D2E/DX2                !
 ! A9    A(4,3,22)             120.0            estimate D2E/DX2                !
 ! A10   A(3,4,5)              120.0            estimate D2E/DX2                !
 ! A11   A(3,4,21)             120.0            estimate D2E/DX2                !
 ! A12   A(5,4,21)             120.0            estimate D2E/DX2                !
 ! A13   A(4,5,6)              120.0            estimate D2E/DX2                !
 ! A14   A(4,5,14)             120.0            estimate D2E/DX2                !
 ! A15   A(6,5,14)             120.0            estimate D2E/DX2                !
 ! A16   A(1,6,5)              120.0            estimate D2E/DX2                !
 ! A17   A(1,6,19)             120.0            estimate D2E/DX2                !
 ! A18   A(5,6,19)             120.0            estimate D2E/DX2                !
 ! A19   A(1,7,8)              120.0            estimate D2E/DX2                !
 ! A20   A(1,7,12)             120.0            estimate D2E/DX2                !
 ! A21   A(8,7,12)             120.0            estimate D2E/DX2                !
 ! A22   A(7,8,9)              120.0            estimate D2E/DX2                !
 ! A23   A(7,8,15)             120.0            estimate D2E/DX2                !
 ! A24   A(9,8,15)             120.0            estimate D2E/DX2                !
 ! A25   A(8,9,10)             120.0            estimate D2E/DX2                !
 ! A26   A(8,9,16)             120.0            estimate D2E/DX2                !
 ! A27   A(10,9,16)            120.0            estimate D2E/DX2                !
 ! A28   A(9,10,11)            120.0            estimate D2E/DX2                !
 ! A29   A(9,10,17)            120.0            estimate D2E/DX2                !
 ! A30   A(11,10,17)           120.0            estimate D2E/DX2                !
 ! A31   A(10,11,12)           120.0            estimate D2E/DX2                !
 ! A32   A(10,11,20)           120.0            estimate D2E/DX2                !
 ! A33   A(12,11,20)           120.0            estimate D2E/DX2                !
 ! A34   A(7,12,11)            120.0            estimate D2E/DX2                !
 ! A35   A(7,12,18)            120.0            estimate D2E/DX2                !
 ! A36   A(11,12,18)           120.0            estimate D2E/DX2                !
 ! A37   A(12,18,19)           120.0            estimate D2E/DX2                !
 ! A38   A(6,19,18)            120.0            estimate D2E/DX2                !
 ! D1    D(6,1,2,3)              0.0001         estimate D2E/DX2                !
 ! D2    D(6,1,2,13)           180.0            estimate D2E/DX2                !
 ! D3    D(7,1,2,3)           -180.0            estimate D2E/DX2                !
 ! D4    D(7,1,2,13)            -0.0001         estimate D2E/DX2                !
 ! D5    D(2,1,6,5)             -0.0001         estimate D2E/DX2                !
 ! D6    D(2,1,6,19)           180.0            estimate D2E/DX2                !
 ! D7    D(7,1,6,5)            180.0            estimate D2E/DX2                !
 ! D8    D(7,1,6,19)             0.0            estimate D2E/DX2                !
 ! D9    D(2,1,7,8)             -0.0001         estimate D2E/DX2                !
 ! D10   D(2,1,7,12)           179.9998         estimate D2E/DX2                !
 ! D11   D(6,1,7,8)            179.9999         estimate D2E/DX2                !
 ! D12   D(6,1,7,12)            -0.0002         estimate D2E/DX2                !
 ! D13   D(1,2,3,4)              0.0            estimate D2E/DX2                !
 ! D14   D(1,2,3,22)           180.0            estimate D2E/DX2                !
 ! D15   D(13,2,3,4)          -179.9999         estimate D2E/DX2                !
 ! D16   D(13,2,3,22)            0.0001         estimate D2E/DX2                !
 ! D17   D(2,3,4,5)             -0.0001         estimate D2E/DX2                !
 ! D18   D(2,3,4,21)           180.0            estimate D2E/DX2                !
 ! D19   D(22,3,4,5)           179.9999         estimate D2E/DX2                !
 ! D20   D(22,3,4,21)            0.0            estimate D2E/DX2                !
 ! D21   D(3,4,5,6)              0.0001         estimate D2E/DX2                !
 ! D22   D(3,4,5,14)          -179.9999         estimate D2E/DX2                !
 ! D23   D(21,4,5,6)          -180.0            estimate D2E/DX2                !
 ! D24   D(21,4,5,14)            0.0            estimate D2E/DX2                !
 ! D25   D(4,5,6,1)              0.0            estimate D2E/DX2                !
 ! D26   D(4,5,6,19)           179.9999         estimate D2E/DX2                !
 ! D27   D(14,5,6,1)           180.0            estimate D2E/DX2                !
 ! D28   D(14,5,6,19)           -0.0001         estimate D2E/DX2                !
 ! D29   D(1,6,19,18)            0.0006         estimate D2E/DX2                !
 ! D30   D(5,6,19,18)         -179.9994         estimate D2E/DX2                !
 ! D31   D(1,7,8,9)            179.9999         estimate D2E/DX2                !
 ! D32   D(1,7,8,15)             0.0001         estimate D2E/DX2                !
 ! D33   D(12,7,8,9)             0.0001         estimate D2E/DX2                !
 ! D34   D(12,7,8,15)         -179.9998         estimate D2E/DX2                !
 ! D35   D(1,7,12,11)         -179.9999         estimate D2E/DX2                !
 ! D36   D(1,7,12,18)            0.0            estimate D2E/DX2                !
 ! D37   D(8,7,12,11)           -0.0001         estimate D2E/DX2                !
 ! D38   D(8,7,12,18)          179.9999         estimate D2E/DX2                !
 ! D39   D(7,8,9,10)             0.0            estimate D2E/DX2                !
 ! D40   D(7,8,9,16)           180.0            estimate D2E/DX2                !
 ! D41   D(15,8,9,10)          179.9998         estimate D2E/DX2                !
 ! D42   D(15,8,9,16)           -0.0002         estimate D2E/DX2                !
 ! D43   D(8,9,10,11)            0.0            estimate D2E/DX2                !
 ! D44   D(8,9,10,17)         -179.9999         estimate D2E/DX2                !
 ! D45   D(16,9,10,11)         180.0            estimate D2E/DX2                !
 ! D46   D(16,9,10,17)           0.0001         estimate D2E/DX2                !
 ! D47   D(9,10,11,12)           0.0            estimate D2E/DX2                !
 ! D48   D(9,10,11,20)        -179.9998         estimate D2E/DX2                !
 ! D49   D(17,10,11,12)        179.9999         estimate D2E/DX2                !
 ! D50   D(17,10,11,20)          0.0001         estimate D2E/DX2                !
 ! D51   D(10,11,12,7)           0.0            estimate D2E/DX2                !
 ! D52   D(10,11,12,18)       -179.9999         estimate D2E/DX2                !
 ! D53   D(20,11,12,7)         179.9999         estimate D2E/DX2                !
 ! D54   D(20,11,12,18)         -0.0001         estimate D2E/DX2                !
 ! D55   D(7,12,18,19)           0.0005         estimate D2E/DX2                !
 ! D56   D(11,12,18,19)       -179.9995         estimate D2E/DX2                !
 ! D57   D(12,18,19,6)          -0.0008         estimate D2E/DX2                !
 --------------------------------------------------------------------------------
 Trust Radius=3.00D-01 FncErr=1.00D-07 GrdErr=1.00D-06 EigMax=2.50D+02 EigMin=1.00D-04
 Number of steps in this run=    129 maximum allowed number of steps=    132.
 GradGradGradGradGradGradGradGradGradGradGradGradGradGradGradGradGradGrad

                          Input orientation:                          
 ---------------------------------------------------------------------
 Center     Atomic      Atomic             Coordinates (Angstroms)
 Number     Number       Type             X           Y           Z
 ---------------------------------------------------------------------
      1          6           0        0.936023   -0.178820   -0.002851
      2          6           0        2.268404   -0.148934   -0.436198
      3          6           0        2.976297    1.060517   -0.442270
      4          6           0        2.351810    2.240082   -0.014995
      5          6           0        1.019428    2.210197    0.418349
      6          6           0        0.311535    1.000746    0.424422
      7          6           0        0.158118   -1.507887    0.003823
      8          6           0        0.782605   -2.687452   -0.423452
      9          6           0        0.074712   -3.896904   -0.417378
     10          6           0       -1.257668   -3.926790    0.015972
     11          6           0       -1.882155   -2.747225    0.443247
     12          6           0       -1.174262   -1.537774    0.437173
     13          1           0        2.745214   -1.049558   -0.762430
     14          1           0        0.542618    3.110821    0.744581
     15          1           0        1.799908   -2.664634   -0.754322
     16          1           0        0.551522   -4.797528   -0.743612
     17          1           0       -1.798159   -4.850233    0.020612
     18         17           0       -1.958547   -0.056374    0.973785
     19         17           0       -1.361786    0.963212    0.968656
     20         17           0       -3.555472   -2.784760    0.987490
     21         17           0        3.240845    3.759016   -0.022621
     22         17           0        4.649618    1.098050   -0.986504
 ---------------------------------------------------------------------
                    Distance matrix (angstroms):
                    1          2          3          4          5
     1  C    0.000000
     2  C    1.401400   0.000000
     3  C    2.427296   1.401400   0.000000
     4  C    2.802800   2.427296   1.401400   0.000000
     5  C    2.427296   2.802800   2.427296   1.401400   0.000000
     6  C    1.401400   2.427296   2.802800   2.427296   1.401400
     7  C    1.540000   2.548270   3.838989   4.342800   3.838989
     8  C    2.548270   2.941400   4.342800   5.187469   4.975106
     9  C    3.838989   4.342800   5.744200   6.558176   6.235992
    10  C    4.342800   5.187469   6.558176   7.145600   6.558176
    11  C    3.838989   4.975106   6.235992   6.558176   5.744200
    12  C    2.548270   3.813607   4.975106   5.187469   4.342800
    13  H    2.146700   1.070000   2.146700   3.396345   3.872800
    14  H    3.396345   3.872800   3.396345   2.146700   1.070000
    15  H    2.736837   2.578650   3.918930   4.990735   5.074276
    16  H    4.693509   4.965039   6.347206   7.300676   7.118798
    17  H    5.412800   6.232802   7.612271   8.215600   7.612271
    18  Cl   3.057342   4.456874   5.254079   4.983028   3.783409
    19  Cl   2.743718   4.048303   4.562800   4.048303   2.743718
    20  Cl   5.286324   6.549198   7.713260   7.819846   6.797295
    21  Cl   4.562800   4.048303   2.743718   1.760000   2.743718
    22  Cl   4.048303   2.743718   1.760000   2.743718   4.048303
                    6          7          8          9         10
     6  C    0.000000
     7  C    2.548270   0.000000
     8  C    3.813607   1.401400   0.000000
     9  C    4.975106   2.427296   1.401400   0.000000
    10  C    5.187469   2.802800   2.427296   1.401400   0.000000
    11  C    4.342800   2.427296   2.802800   2.427296   1.401400
    12  C    2.941400   1.401400   2.427296   2.802800   2.427296
    13  H    3.396345   2.736837   2.578650   3.918930   4.990735
    14  H    2.146700   4.693509   5.919617   7.118798   7.300676
    15  H    4.127917   2.146700   1.070000   2.146700   3.396345
    16  H    5.919617   3.396345   2.146700   1.070000   2.146700
    17  H    6.232802   3.872800   3.396345   2.146700   1.070000
    18  Cl   2.563702   2.743718   4.048303   4.562800   4.048303
    19  Cl   1.760000   3.057342   4.456874   5.254079   4.983028
    20  Cl   5.440665   4.048303   4.562800   4.048303   2.743718
    21  Cl   4.048303   6.102800   6.910901   8.294174   8.905600
    22  Cl   4.562800   5.286324   5.440665   6.797295   7.819846
                   11         12         13         14         15
    11  C    0.000000
    12  C    1.401400   0.000000
    13  H    5.074276   4.127917   0.000000
    14  H    6.347206   4.965039   4.942800   0.000000
    15  H    3.872800   3.396345   1.871400   6.097816   0.000000
    16  H    3.396345   3.872800   4.342800   8.047159   2.471400
    17  H    2.146700   3.396345   5.974992   8.329571   4.280590
    18  Cl   2.743718   1.760000   5.111382   4.042212   4.890333
    19  Cl   3.783409   2.563702   4.890332   2.879094   5.111382
    20  Cl   1.760000   2.743718   6.765486   7.184095   5.632800
    21  Cl   8.294174   6.910901   4.890332   2.879094   6.623817
    22  Cl   7.713260   6.549198   2.879094   4.890332   4.725732
                   16         17         18         19         20
    16  H    0.000000
    17  H    2.471400   0.000000
    18  Cl   5.632800   4.890332   0.000000
    19  Cl   6.307038   5.906383   1.181400   0.000000
    20  Cl   4.890332   2.879094   3.161400   4.342800   0.000000
    21  Cl   8.998151   9.975600   6.525618   5.475705   9.488480
    22  Cl   7.184095   8.830073   6.988795   6.322800   9.289584
                   21         22
    21  Cl   0.000000
    22  Cl   3.161400   0.000000
 Stoichiometry    C12H5Cl5
 Framework group  C1[X(C12H5Cl5)]
 Deg. of freedom    60
 Full point group                 C1      NOp   1
 Largest Abelian subgroup         C1      NOp   1
 Largest concise Abelian subgroup C1      NOp   1
                         Standard orientation:                         
 ---------------------------------------------------------------------
 Center     Atomic      Atomic             Coordinates (Angstroms)
 Number     Number       Type             X           Y           Z
 ---------------------------------------------------------------------
      1          6           0        0.421279    0.424471    0.000003
      2          6           0        1.513804    1.302145    0.000001
      3          6           0        2.820154    0.794828   -0.000000
      4          6           0        3.033980   -0.590163   -0.000001
      5          6           0        1.941455   -1.467837    0.000003
      6          6           0        0.635105   -0.960520    0.000004
      7          6           0       -1.014270    0.981963    0.000003
      8          6           0       -1.228096    2.366954    0.000004
      9          6           0       -2.534446    2.874271    0.000003
     10          6           0       -3.626971    1.996597    0.000001
     11          6           0       -3.413146    0.611606    0.000000
     12          6           0       -2.106795    0.104289    0.000001
     13          1           0        1.350544    2.359617   -0.000000
     14          1           0        2.104716   -2.525309    0.000005
     15          1           0       -0.393929    3.037077    0.000003
     16          1           0       -2.697707    3.931743    0.000004
     17          1           0       -4.624399    2.383945   -0.000001
     18         17           0       -1.838255   -1.635104   -0.000003
     19         17           0       -0.736983   -2.062779    0.000007
     20         17           0       -4.785233   -0.490653   -0.000007
     21         17           0        4.674608   -1.227297   -0.000003
     22         17           0        4.192242    1.897087   -0.000003
 ---------------------------------------------------------------------
 Rotational constants (GHZ):           0.6542270           0.1632159           0.1306272
 Standard basis: 6-311+G(d,p) (5D, 7F)
 There are   461 symmetry adapted cartesian basis functions of A   symmetry.
 There are   444 symmetry adapted basis functions of A   symmetry.
   444 basis functions,   737 primitive gaussians,   461 cartesian basis functions
    81 alpha electrons       81 beta electrons
       nuclear repulsion energy      1826.4783481835 Hartrees.
 NAtoms=   22 NActive=   22 NUniq=   22 SFac= 1.00D+00 NAtFMM=   60 NAOKFM=F Big=F
 Integral buffers will be    131072 words long.
 Raffenetti 2 integral format.
 Two-electron integral symmetry is turned on.
 One-electron integrals computed using PRISM.
 NBasis=   444 RedAO= T EigKep=  1.07D-06  NBF=   444
 NBsUse=   438 1.00D-06 EigRej=  8.59D-07 NBFU=   438
 ExpMin= 4.38D-02 ExpMax= 1.06D+05 ExpMxC= 3.62D+03 IAcc=3 IRadAn=         5 AccDes= 0.00D+00
 Harris functional with IExCor=  402 and IRadAn=       5 diagonalized for initial guess.
 HarFok:  IExCor=  402 AccDes= 0.00D+00 IRadAn=         5 IDoV= 1 UseB2=F ITyADJ=14
 ICtDFT=  3500011 ScaDFX=  1.000000  1.000000  1.000000  1.000000
 FoFCou: FMM=F IPFlag=           0 FMFlag=      100000 FMFlg1=           0
         NFxFlg=           0 DoJE=T BraDBF=F KetDBF=T FulRan=T
         wScrn=  0.000000 ICntrl=       500 IOpCl=  0 I1Cent=   200000004 NGrid=           0
         NMat0=    1 NMatS0=      1 NMatT0=    0 NMatD0=    1 NMtDS0=    0 NMtDT0=    0
 Petite list used in FoFCou.
 Requested convergence on RMS density matrix=1.00D-08 within  32 cycles.
 Requested convergence on MAX density matrix=1.00D-06.
 Requested convergence on             energy=1.00D-06.
 No special actions if energy rises.
 SCF Done:  E(RB3LYP) =  -2759.89735063     A.U. after   20 cycles
            NFock= 20  Conv=0.26D-08     -V/T= 1.9998
 QCSCF skips out because SCF is already converged.

 **********************************************************************

            Population analysis using the SCF Density.

 **********************************************************************

 Orbital symmetries:
       Occupied  (A) (A) (A) (A) (A) (A) (A) (A) (A) (A) (A) (A)
                 (A) (A) (A) (A) (A) (A) (A) (A) (A) (A) (A) (A)
                 (A) (A) (A) (A) (A) (A) (A) (A) (A) (A) (A) (A)
                 (A) (A) (A) (A) (A) (A) (A) (A) (A) (A) (A) (A)
                 (A) (A) (A) (A) (A) (A) (A) (A) (A) (A) (A) (A)
                 (A) (A) (A) (A) (A) (A) (A) (A) (A) (A) (A) (A)
                 (A) (A) (A) (A) (A) (A) (A) (A) (A)
       Virtual   (A) (A) (A) (A) (A) (A) (A) (A) (A) (A) (A) (A)
                 (A) (A) (A) (A) (A) (A) (A) (A) (A) (A) (A) (A)
                 (A) (A) (A) (A) (A) (A) (A) (A) (A) (A) (A) (A)
                 (A) (A) (A) (A) (A) (A) (A) (A) (A) (A) (A) (A)
                 (A) (A) (A) (A) (A) (A) (A) (A) (A) (A) (A) (A)
                 (A) (A) (A) (A) (A) (A) (A) (A) (A) (A) (A) (A)
                 (A) (A) (A) (A) (A) (A) (A) (A) (A) (A) (A) (A)
                 (A) (A) (A) (A) (A) (A) (A) (A) (A) (A) (A) (A)
                 (A) (A) (A) (A) (A) (A) (A) (A) (A) (A) (A) (A)
                 (A) (A) (A) (A) (A) (A) (A) (A) (A) (A) (A) (A)
                 (A) (A) (A) (A) (A) (A) (A) (A) (A) (A) (A) (A)
                 (A) (A) (A) (A) (A) (A) (A) (A) (A) (A) (A) (A)
                 (A) (A) (A) (A) (A) (A) (A) (A) (A) (A) (A) (A)
                 (A) (A) (A) (A) (A) (A) (A) (A) (A) (A) (A) (A)
                 (A) (A) (A) (A) (A) (A) (A) (A) (A) (A) (A) (A)
                 (A) (A) (A) (A) (A) (A) (A) (A) (A) (A) (A) (A)
                 (A) (A) (A) (A) (A) (A) (A) (A) (A) (A) (A) (A)
                 (A) (A) (A) (A) (A) (A) (A) (A) (A) (A) (A) (A)
                 (A) (A) (A) (A) (A) (A) (A) (A) (A) (A) (A) (A)
                 (A) (A) (A) (A) (A) (A) (A) (A) (A) (A) (A) (A)
                 (A) (A) (A) (A) (A) (A) (A) (A) (A) (A) (A) (A)
                 (A) (A) (A) (A) (A) (A) (A) (A) (A) (A) (A) (A)
                 (A) (A) (A) (A) (A) (A) (A) (A) (A) (A) (A) (A)
                 (A) (A) (A) (A) (A) (A) (A) (A) (A) (A) (A) (A)
                 (A) (A) (A) (A) (A) (A) (A) (A) (A) (A) (A) (A)
                 (A) (A) (A) (A) (A) (A) (A) (A) (A) (A) (A) (A)
                 (A) (A) (A) (A) (A) (A) (A) (A) (A) (A) (A) (A)
                 (A) (A) (A) (A) (A) (A) (A) (A) (A) (A) (A) (A)
                 (A) (A) (A) (A) (A) (A) (A) (A) (A) (A) (A) (A)
                 (A) (A) (A) (A) (A) (A) (A) (A) (A)
 The electronic state is 1-A.
 Alpha  occ. eigenvalues -- -101.66295-101.66009-101.56256-101.56227-101.56164
 Alpha  occ. eigenvalues --  -10.25845 -10.25645 -10.24814 -10.21284 -10.21058
 Alpha  occ. eigenvalues --  -10.20524 -10.20273 -10.19639 -10.19323 -10.19035
 Alpha  occ. eigenvalues --  -10.17983 -10.17649  -9.64980  -9.62838  -9.47727
 Alpha  occ. eigenvalues --   -9.47663  -9.47605  -7.43372  -7.38433  -7.38363
 Alpha  occ. eigenvalues --   -7.37962  -7.37754  -7.37302  -7.24162  -7.24146
 Alpha  occ. eigenvalues --   -7.24080  -7.23219  -7.23188  -7.23145  -7.23092
 Alpha  occ. eigenvalues --   -7.23092  -7.23034  -1.39400  -0.92289  -0.90785
 Alpha  occ. eigenvalues --   -0.87312  -0.86182  -0.84793  -0.82045  -0.80202
 Alpha  occ. eigenvalues --   -0.77575  -0.74055  -0.72595  -0.72278  -0.70816
 Alpha  occ. eigenvalues --   -0.66077  -0.63689  -0.60435  -0.59336  -0.57573
 Alpha  occ. eigenvalues --   -0.51925  -0.50520  -0.49954  -0.48056  -0.47428
 Alpha  occ. eigenvalues --   -0.45529  -0.44673  -0.42839  -0.42506  -0.41277
 Alpha  occ. eigenvalues --   -0.41113  -0.39680  -0.37304  -0.36658  -0.35678
 Alpha  occ. eigenvalues --   -0.35258  -0.34146  -0.33709  -0.32564  -0.31219
 Alpha  occ. eigenvalues --   -0.30804  -0.28194  -0.27291  -0.24830  -0.21299
 Alpha  occ. eigenvalues --   -0.16320
 Alpha virt. eigenvalues --   -0.06762  -0.05583  -0.02564  -0.02016  -0.01555
 Alpha virt. eigenvalues --   -0.00003   0.00188   0.00507   0.01038   0.01735
 Alpha virt. eigenvalues --    0.02065   0.02325   0.03175   0.03941   0.04695
 Alpha virt. eigenvalues --    0.04904   0.05003   0.06143   0.06210   0.06608
 Alpha virt. eigenvalues --    0.07340   0.07417   0.08177   0.08392   0.09301
 Alpha virt. eigenvalues --    0.09519   0.09593   0.09947   0.10323   0.11276
 Alpha virt. eigenvalues --    0.11449   0.11556   0.11798   0.12680   0.13558
 Alpha virt. eigenvalues --    0.13613   0.13725   0.14079   0.14638   0.14916
 Alpha virt. eigenvalues --    0.15261   0.15626   0.15970   0.16312   0.16531
 Alpha virt. eigenvalues --    0.17078   0.17103   0.17463   0.17842   0.18687
 Alpha virt. eigenvalues --    0.19038   0.19129   0.19670   0.19919   0.19999
 Alpha virt. eigenvalues --    0.20276   0.20755   0.21842   0.21916   0.22265
 Alpha virt. eigenvalues --    0.22669   0.22811   0.23398   0.23547   0.24093
 Alpha virt. eigenvalues --    0.24538   0.24935   0.25133   0.25854   0.26288
 Alpha virt. eigenvalues --    0.26788   0.27294   0.27821   0.28339   0.28513
 Alpha virt. eigenvalues --    0.29385   0.29845   0.30351   0.30713   0.31739
 Alpha virt. eigenvalues --    0.32445   0.32582   0.33812   0.34365   0.35486
 Alpha virt. eigenvalues --    0.35949   0.36372   0.38069   0.39157   0.41146
 Alpha virt. eigenvalues --    0.42348   0.43773   0.44626   0.44771   0.44985
 Alpha virt. eigenvalues --    0.45366   0.45617   0.46341   0.47323   0.47895
 Alpha virt. eigenvalues --    0.48889   0.49358   0.49448   0.50314   0.51704
 Alpha virt. eigenvalues --    0.52337   0.52752   0.54143   0.54405   0.54886
 Alpha virt. eigenvalues --    0.54901   0.55496   0.57099   0.57834   0.58328
 Alpha virt. eigenvalues --    0.58467   0.59335   0.60936   0.61326   0.61955
 Alpha virt. eigenvalues --    0.62480   0.63106   0.64144   0.65351   0.65397
 Alpha virt. eigenvalues --    0.65761   0.67041   0.67188   0.67932   0.68763
 Alpha virt. eigenvalues --    0.70719   0.70801   0.71357   0.71893   0.72865
 Alpha virt. eigenvalues --    0.74128   0.77450   0.79233   0.79310   0.80653
 Alpha virt. eigenvalues --    0.81173   0.82301   0.83696   0.83753   0.84826
 Alpha virt. eigenvalues --    0.85660   0.85681   0.85890   0.86224   0.86267
 Alpha virt. eigenvalues --    0.87058   0.87351   0.88738   0.89372   0.90543
 Alpha virt. eigenvalues --    0.91218   0.91533   0.91636   0.92215   0.93082
 Alpha virt. eigenvalues --    0.93845   0.94397   0.95077   0.95570   0.96253
 Alpha virt. eigenvalues --    0.96909   0.97299   0.98668   0.99081   1.00268
 Alpha virt. eigenvalues --    1.00316   1.02272   1.04588   1.05670   1.05933
 Alpha virt. eigenvalues --    1.07873   1.09124   1.09424   1.10207   1.12050
 Alpha virt. eigenvalues --    1.12975   1.16988   1.18575   1.20327   1.24263
 Alpha virt. eigenvalues --    1.25512   1.25775   1.26718   1.27368   1.27991
 Alpha virt. eigenvalues --    1.28580   1.28888   1.31068   1.31096   1.34156
 Alpha virt. eigenvalues --    1.36141   1.37075   1.41840   1.43913   1.44090
 Alpha virt. eigenvalues --    1.48854   1.50041   1.50551   1.51061   1.51600
 Alpha virt. eigenvalues --    1.55274   1.56487   1.57212   1.58481   1.59800
 Alpha virt. eigenvalues --    1.61010   1.63880   1.67499   1.67990   1.68409
 Alpha virt. eigenvalues --    1.72804   1.73017   1.74895   1.76707   1.77408
 Alpha virt. eigenvalues --    1.79621   1.83642   1.83713   1.87275   1.88511
 Alpha virt. eigenvalues --    1.88998   1.89878   1.90327   1.92117   1.93374
 Alpha virt. eigenvalues --    1.94590   1.95865   1.97547   1.98610   2.00111
 Alpha virt. eigenvalues --    2.01120   2.02287   2.04387   2.07391   2.08897
 Alpha virt. eigenvalues --    2.11548   2.12631   2.13749   2.19904   2.22186
 Alpha virt. eigenvalues --    2.24545   2.24597   2.24871   2.26295   2.26738
 Alpha virt. eigenvalues --    2.28820   2.29620   2.29916   2.31887   2.33028
 Alpha virt. eigenvalues --    2.36229   2.36535   2.37662   2.41468   2.42066
 Alpha virt. eigenvalues --    2.42508   2.46442   2.47590   2.48634   2.52874
 Alpha virt. eigenvalues --    2.54928   2.56621   2.58493   2.60753   2.61929
 Alpha virt. eigenvalues --    2.63170   2.64302   2.66562   2.69179   2.69576
 Alpha virt. eigenvalues --    2.73757   2.73907   2.74831   2.76209   2.76230
 Alpha virt. eigenvalues --    2.77195   2.78002   2.80219   2.80682   2.82818
 Alpha virt. eigenvalues --    2.84560   2.85873   2.86864   2.90852   2.93058
 Alpha virt. eigenvalues --    2.95491   3.02039   3.06990   3.07126   3.08560
 Alpha virt. eigenvalues --    3.12418   3.15171   3.17924   3.20301   3.22342
 Alpha virt. eigenvalues --    3.24402   3.34183   3.36554   3.38707   3.42053
 Alpha virt. eigenvalues --    3.51454   3.52621   3.56225   3.62797   3.72612
 Alpha virt. eigenvalues --    3.75546   3.85797   3.93515   3.98334   4.07659
 Alpha virt. eigenvalues --    4.12084   4.20241   4.47775   4.81071   4.84365
 Alpha virt. eigenvalues --    9.74545   9.77356   9.80810   9.82217  10.55201
 Alpha virt. eigenvalues --   23.39489  23.55505  23.83573  23.88731  23.89567
 Alpha virt. eigenvalues --   23.92664  23.98894  24.02253  24.04154  24.04871
 Alpha virt. eigenvalues --   24.10223  24.13942  25.41046  25.78664  25.82597
 Alpha virt. eigenvalues --   25.87171  25.97569  26.12012  26.15653  26.20973
 Alpha virt. eigenvalues --   26.21605  26.51969  26.63201  26.78263  27.11079
 Alpha virt. eigenvalues --   27.41727  28.45360 215.74335 215.77557 215.80440
 Alpha virt. eigenvalues --  215.91070 216.87145
          Condensed to atoms (all electrons):
               1          2          3          4          5          6
     1  C   19.107672   0.798938  -4.112341   1.383231  -2.110290  -4.066496
     2  C    0.798938  12.627173  -1.609029  -0.829523   2.919208  -3.238283
     3  C   -4.112341  -1.609029  32.705295 -17.044428  -4.968442   9.410763
     4  C    1.383231  -0.829523 -17.044428  29.668469   3.522826 -13.429218
     5  C   -2.110290   2.919208  -4.968442   3.522826  16.446116 -13.346326
     6  C   -4.066496  -3.238283   9.410763 -13.429218 -13.346326  47.243961
     7  C    5.878744  -2.559217  -0.537190  -0.623847  -1.895642  -0.250667
     8  C   -1.099685   1.301097  -1.760608  -0.687879   1.209394  -4.506927
     9  C   -0.835212  -1.063820   1.102541  -0.544804  -0.618317   0.315216
    10  C   -3.356492   0.020447  -1.134311   0.493437   1.039748  -0.595926
    11  C   -1.505157  -0.647400  -0.448071   0.102473   0.932169  -1.645309
    12  C    3.311291  -2.188594  -1.512801  -0.978941  -6.294755  10.962119
    13  H    0.133735   0.257241  -0.361315   0.162843  -0.028091  -0.031079
    14  H    0.096042  -0.032877  -0.004361   0.061956   0.226907   0.037206
    15  H    0.076260   0.018735  -0.026639   0.012011   0.002413   0.010991
    16  H   -0.001877   0.005091   0.000149  -0.000369   0.000359   0.001613
    17  H    0.001288   0.002284  -0.000319   0.000243   0.000522   0.001346
    18  Cl  -4.856838  -0.361091  -2.784121   2.741437   3.172445  -5.750082
    19  Cl  -1.970975   1.327206  -2.161599   3.091907   6.622809 -14.525531
    20  Cl   0.488383  -0.079936   0.106209  -0.086353  -0.281343   0.109937
    21  Cl   0.088449  -0.018414  -0.431810   0.343813   0.187519  -0.939919
    22  Cl  -1.090670   0.057054   0.899738  -1.146652   0.150962   0.644116
               7          8          9         10         11         12
     1  C    5.878744  -1.099685  -0.835212  -3.356492  -1.505157   3.311291
     2  C   -2.559217   1.301097  -1.063820   0.020447  -0.647400  -2.188594
     3  C   -0.537190  -1.760608   1.102541  -1.134311  -0.448071  -1.512801
     4  C   -0.623847  -0.687879  -0.544804   0.493437   0.102473  -0.978941
     5  C   -1.895642   1.209394  -0.618317   1.039748   0.932169  -6.294755
     6  C   -0.250667  -4.506927   0.315216  -0.595926  -1.645309  10.962119
     7  C   19.250022  -5.188929  -0.520486  -7.471450   1.648502   6.207451
     8  C   -5.188929  19.876598  -3.279964   5.362152  -3.099681  -2.782831
     9  C   -0.520486  -3.279964  12.041471  -0.104117  -0.239343   0.986793
    10  C   -7.471450   5.362152  -0.104117  28.355993  -9.310263 -13.173627
    11  C    1.648502  -3.099681  -0.239343  -9.310263  27.570994 -12.599612
    12  C    6.207451  -2.782831   0.986793 -13.173627 -12.599612  56.005621
    13  H    0.064663   0.031534  -0.014701   0.013165  -0.017299   0.090209
    14  H    0.013187  -0.002020   0.000987  -0.000467   0.000954   0.026498
    15  H    0.038361   0.341218  -0.168843   0.008139  -0.065827   0.036071
    16  H    0.011447  -0.045329   0.404462  -0.005005  -0.007495  -0.012617
    17  H    0.030986   0.036823  -0.083814   0.533085  -0.185989   0.025953
    18  Cl  -6.909244  -0.326267  -0.569419   8.405407   5.515625 -24.375041
    19  Cl  -1.741371   1.464677  -0.848721   2.374220   0.688917 -13.368741
    20  Cl   0.915129  -0.492615   0.184637  -4.935946  -1.134055   6.873186
    21  Cl  -0.036398  -0.017399  -0.007521   0.001975  -0.000921  -0.052501
    22  Cl  -0.204093  -0.069429   0.041756  -0.016486  -0.008123  -0.143973
              13         14         15         16         17         18
     1  C    0.133735   0.096042   0.076260  -0.001877   0.001288  -4.856838
     2  C    0.257241  -0.032877   0.018735   0.005091   0.002284  -0.361091
     3  C   -0.361315  -0.004361  -0.026639   0.000149  -0.000319  -2.784121
     4  C    0.162843   0.061956   0.012011  -0.000369   0.000243   2.741437
     5  C   -0.028091   0.226907   0.002413   0.000359   0.000522   3.172445
     6  C   -0.031079   0.037206   0.010991   0.001613   0.001346  -5.750082
     7  C    0.064663   0.013187   0.038361   0.011447   0.030986  -6.909244
     8  C    0.031534  -0.002020   0.341218  -0.045329   0.036823  -0.326267
     9  C   -0.014701   0.000987  -0.168843   0.404462  -0.083814  -0.569419
    10  C    0.013165  -0.000467   0.008139  -0.005005   0.533085   8.405407
    11  C   -0.017299   0.000954  -0.065827  -0.007495  -0.185989   5.515625
    12  C    0.090209   0.026498   0.036071  -0.012617   0.025953 -24.375041
    13  H    0.559935   0.000051   0.005580  -0.000018   0.000001   0.025080
    14  H    0.000051   0.512176  -0.000001   0.000000  -0.000000   0.035720
    15  H    0.005580  -0.000001   0.577660  -0.007345  -0.000125   0.021019
    16  H   -0.000018   0.000000  -0.007345   0.532014  -0.007724  -0.000077
    17  H    0.000001  -0.000000  -0.000125  -0.007724   0.526131   0.018682
    18  Cl   0.025080   0.035720   0.021019  -0.000077   0.018682  41.630961
    19  Cl   0.011544  -0.109384   0.008212  -0.000576   0.004903   4.167319
    20  Cl  -0.000584   0.000165  -0.002061   0.000248  -0.041687  -3.370603
    21  Cl   0.000824  -0.010793   0.000182  -0.000001   0.000000  -0.005829
    22  Cl  -0.037733   0.000368  -0.000880   0.000020  -0.000001  -0.032071
              19         20         21         22
     1  C   -1.970975   0.488383   0.088449  -1.090670
     2  C    1.327206  -0.079936  -0.018414   0.057054
     3  C   -2.161599   0.106209  -0.431810   0.899738
     4  C    3.091907  -0.086353   0.343813  -1.146652
     5  C    6.622809  -0.281343   0.187519   0.150962
     6  C  -14.525531   0.109937  -0.939919   0.644116
     7  C   -1.741371   0.915129  -0.036398  -0.204093
     8  C    1.464677  -0.492615  -0.017399  -0.069429
     9  C   -0.848721   0.184637  -0.007521   0.041756
    10  C    2.374220  -4.935946   0.001975  -0.016486
    11  C    0.688917  -1.134055  -0.000921  -0.008123
    12  C  -13.368741   6.873186  -0.052501  -0.143973
    13  H    0.011544  -0.000584   0.000824  -0.037733
    14  H   -0.109384   0.000165  -0.010793   0.000368
    15  H    0.008212  -0.002061   0.000182  -0.000880
    16  H   -0.000576   0.000248  -0.000001   0.000020
    17  H    0.004903  -0.041687   0.000000  -0.000001
    18  Cl   4.167319  -3.370603  -0.005829  -0.032071
    19  Cl  32.694605  -1.424806   0.055101  -0.027464
    20  Cl  -1.424806  19.627096  -0.000490   0.000467
    21  Cl   0.055101  -0.000490  17.516491  -0.197519
    22  Cl  -0.027464   0.000467  -0.197519  17.634417
 Mulliken charges:
               1
     1  C   -0.358003
     2  C   -0.706289
     3  C    0.672688
     4  C   -0.212633
     5  C   -0.890190
     6  C   -0.411505
     7  C   -0.119957
     8  C   -0.263929
     9  C   -0.178781
    10  C   -0.503677
    11  C    0.454909
    12  C   -1.041155
    13  H    0.134414
    14  H    0.147685
    15  H    0.114869
    16  H    0.133031
    17  H    0.137411
    18  Cl   0.606988
    19  Cl   0.667750
    20  Cl   0.545020
    21  Cl   0.525161
    22  Cl   0.546193
 Sum of Mulliken charges =  -0.00000
 Mulliken charges with hydrogens summed into heavy atoms:
               1
     1  C   -0.358003
     2  C   -0.571875
     3  C    0.672688
     4  C   -0.212633
     5  C   -0.742505
     6  C   -0.411505
     7  C   -0.119957
     8  C   -0.149059
     9  C   -0.045750
    10  C   -0.366266
    11  C    0.454909
    12  C   -1.041155
    18  Cl   0.606988
    19  Cl   0.667750
    20  Cl   0.545020
    21  Cl   0.525161
    22  Cl   0.546193
 Electronic spatial extent (au):  <R**2>=           7208.7693
 Charge=             -0.0000 electrons
 Dipole moment (field-independent basis, Debye):
    X=             -2.2737    Y=             -1.0572    Z=              0.0000  Tot=              2.5075
 Quadrupole moment (field-independent basis, Debye-Ang):
   XX=           -148.8122   YY=           -117.9523   ZZ=           -134.7167
   XY=             -0.9598   XZ=             -0.0000   YZ=             -0.0000
 Traceless Quadrupole moment (field-independent basis, Debye-Ang):
   XX=            -14.9851   YY=             15.8747   ZZ=             -0.8896
   XY=             -0.9598   XZ=             -0.0000   YZ=             -0.0000
 Octapole moment (field-independent basis, Debye-Ang**2):
  XXX=            -18.7699  YYY=            -18.6746  ZZZ=             -0.0001  XYY=            -26.3489
  XXY=              2.2867  XXZ=              0.0000  XZZ=              1.9481  YZZ=            -15.6802
  YYZ=              0.0000  XYZ=             -0.0000
 Hexadecapole moment (field-independent basis, Debye-Ang**3):
 XXXX=          -7618.9946 YYYY=          -1878.7454 ZZZZ=           -160.7794 XXXY=            -16.9829
 XXXZ=              0.0001 YYYX=             36.8758 YYYZ=             -0.0001 ZZZX=              0.0000
 ZZZY=             -0.0001 XXYY=          -1486.5364 XXZZ=          -1297.2531 YYZZ=           -385.3553
 XXYZ=             -0.0001 YYXZ=              0.0000 ZZXY=             35.3647
 N-N= 1.826478348183D+03 E-N=-1.018966109227D+04  KE= 2.760326881779D+03
 Calling FoFJK, ICntrl=      2127 FMM=F ISym2X=0 I1Cent= 0 IOpClX= 0 NMat=1 NMatS=1 NMatT=0.
 ***** Axes restored to original set *****
 -------------------------------------------------------------------
 Center     Atomic                   Forces (Hartrees/Bohr)
 Number     Number              X              Y              Z
 -------------------------------------------------------------------
      1        6           0.003320868   -0.027558818   -0.006269851
      2        6          -0.004585381    0.015676041    0.004454994
      3        6          -0.000611353   -0.001424590   -0.000066041
      4        6          -0.003098498    0.000126864    0.001044458
      5        6           0.004745040   -0.021230251   -0.005550387
      6        6           0.109786206   -0.004099116   -0.036940084
      7        6           0.026013893    0.007788124   -0.007107785
      8        6          -0.015986530   -0.004733610    0.004377855
      9        6          -0.007853722    0.016756535    0.005734444
     10        6           0.003390031    0.008651678    0.000508013
     11        6           0.028677553    0.005335631   -0.008445943
     12        6           0.048892728   -0.094093042   -0.033779091
     13        1           0.007583925   -0.003300479   -0.003118490
     14        1          -0.004885178    0.011341123    0.003739430
     15        1           0.007549179   -0.003601123   -0.003163550
     16        1           0.003244789   -0.008302558   -0.002628278
     17        1          -0.005744897   -0.008613300    0.000274991
     18       17          -1.716033873   -2.711426011    0.056154339
     19       17           1.530502953    2.828991470    0.027049850
     20       17          -0.005411908   -0.001178825    0.001561590
     21       17          -0.004566632   -0.000838012    0.001347118
     22       17          -0.004929193   -0.004267732    0.000822420
 -------------------------------------------------------------------
 Cartesian Forces:  Max     2.828991470 RMS     0.559716384

 GradGradGradGradGradGradGradGradGradGradGradGradGradGradGradGradGradGrad
 Berny optimization.
 FormGI is forming the generalized inverse of G from B-inverse, IUseBI=4.
 Internal  Forces:  Max     3.117446609 RMS     0.292563883
 Search for a local minimum.
 Step number   1 out of a maximum of  129
 All quantities printed in internal units (Hartrees-Bohrs-Radians)
 Mixed Optimization -- RFO/linear search
 Second derivative matrix not updated -- first step.
 ITU=  0
     Eigenvalues ---    0.01035   0.01214   0.01489   0.01712   0.01738
     Eigenvalues ---    0.01829   0.02070   0.02070   0.02070   0.02070
     Eigenvalues ---    0.02070   0.02070   0.02070   0.02070   0.02070
     Eigenvalues ---    0.02070   0.02070   0.02070   0.03966   0.16000
     Eigenvalues ---    0.16000   0.16000   0.16000   0.16000   0.22099
     Eigenvalues ---    0.23082   0.23532   0.23992   0.24915   0.25000
     Eigenvalues ---    0.25000   0.25000   0.25000   0.25000   0.25000
     Eigenvalues ---    0.25000   0.28335   0.29044   0.29447   0.29539
     Eigenvalues ---    0.29539   0.29539   0.37230   0.37230   0.37230
     Eigenvalues ---    0.37230   0.37230   0.39997   0.40874   0.41462
     Eigenvalues ---    0.41550   0.44578   0.45130   0.45389   0.45389
     Eigenvalues ---    0.45389   0.45389   0.45389   0.45389  16.61567
 RFO step:  Lambda=-6.28403484D-01 EMin= 1.03510889D-02
 Linear search not attempted -- first point.
 Iteration  1 RMS(Cart)=  0.03341745 RMS(Int)=  0.00052540
 Iteration  2 RMS(Cart)=  0.00130875 RMS(Int)=  0.00024000
 Iteration  3 RMS(Cart)=  0.00000068 RMS(Int)=  0.00024000
 Variable       Old X    -DE/DX   Delta X   Delta X   Delta X     New X
                                 (Linear)    (Quad)   (Total)
    R1        2.64826   0.01594   0.00000   0.00014   0.00008   2.64834
    R2        2.64826   0.10195   0.00000   0.01667   0.01634   2.66460
    R3        2.91018   0.11843   0.00000  -0.01385  -0.01437   2.89581
    R4        2.64826  -0.01164   0.00000  -0.00841  -0.00840   2.63986
    R5        2.02201   0.00711   0.00000   0.00710   0.00710   2.02911
    R6        2.64826  -0.02279   0.00000  -0.00413  -0.00405   2.64421
    R7        3.32592  -0.00503   0.00000  -0.00545  -0.00545   3.32047
    R8        2.64826  -0.02690   0.00000  -0.01027  -0.01021   2.63806
    R9        3.32592  -0.00304   0.00000  -0.00329  -0.00329   3.32263
   R10        2.64826  -0.00917   0.00000  -0.01081  -0.01082   2.63744
   R11        2.02201   0.01286   0.00000   0.01285   0.01285   2.03486
   R12        3.32592   0.05101   0.00000   0.12612   0.12638   3.45230
   R13        2.64826   0.01821   0.00000   0.00226   0.00219   2.65045
   R14        2.64826   0.10249   0.00000   0.01734   0.01698   2.66525
   R15        2.64826  -0.01018   0.00000  -0.00713  -0.00713   2.64113
   R16        2.02201   0.00808   0.00000   0.00807   0.00807   2.03008
   R17        2.64826  -0.03067   0.00000  -0.01150  -0.01142   2.63684
   R18        2.02201   0.00924   0.00000   0.00923   0.00923   2.03124
   R19        2.64826  -0.02676   0.00000  -0.01017  -0.01009   2.63817
   R20        2.02201   0.01034   0.00000   0.01033   0.01033   2.03234
   R21        2.64826  -0.00898   0.00000  -0.01058  -0.01058   2.63768
   R22        3.32592   0.00565   0.00000   0.00612   0.00612   3.33204
   R23        3.32592   0.05894   0.00000   0.13479   0.13502   3.46094
   R24        2.23252   3.11745   0.00000   0.18079   0.18131   2.41384
    A1        2.09440  -0.08010   0.00000  -0.01052  -0.01023   2.08416
    A2        2.09440  -0.16792   0.00000  -0.00351  -0.00285   2.09155
    A3        2.09440   0.24802   0.00000   0.01403   0.01308   2.10748
    A4        2.09440   0.04695   0.00000   0.00656   0.00640   2.10079
    A5        2.09440  -0.01817   0.00000   0.00346   0.00354   2.09793
    A6        2.09440  -0.02879   0.00000  -0.01002  -0.00994   2.08446
    A7        2.09440   0.00696   0.00000   0.00038   0.00036   2.09475
    A8        2.09440  -0.01051   0.00000  -0.00819  -0.00818   2.08621
    A9        2.09440   0.00355   0.00000   0.00781   0.00782   2.10222
   A10        2.09440  -0.00878   0.00000  -0.00215  -0.00212   2.09227
   A11        2.09440   0.01065   0.00000   0.00820   0.00818   2.10258
   A12        2.09440  -0.00186   0.00000  -0.00605  -0.00606   2.08833
   A13        2.09440   0.02097   0.00000   0.00779   0.00773   2.10212
   A14        2.09440  -0.01150   0.00000  -0.00518  -0.00516   2.08924
   A15        2.09440  -0.00947   0.00000  -0.00260  -0.00257   2.09182
   A16        2.09440   0.01401   0.00000  -0.00206  -0.00212   2.09227
   A17        2.09440   0.07001   0.00000   0.03181   0.03165   2.12604
   A18        2.09440  -0.08402   0.00000  -0.02975  -0.02952   2.06487
   A19        2.09440  -0.16771   0.00000  -0.00346  -0.00276   2.09163
   A20        2.09440   0.24570   0.00000   0.01138   0.01041   2.10480
   A21        2.09440  -0.07799   0.00000  -0.00792  -0.00764   2.08675
   A22        2.09440   0.04644   0.00000   0.00601   0.00582   2.10021
   A23        2.09440  -0.01935   0.00000   0.00191   0.00201   2.09640
   A24        2.09440  -0.02710   0.00000  -0.00792  -0.00783   2.08657
   A25        2.09440   0.00811   0.00000   0.00165   0.00161   2.09601
   A26        2.09440  -0.00301   0.00000   0.00050   0.00052   2.09492
   A27        2.09440  -0.00510   0.00000  -0.00215  -0.00213   2.09226
   A28        2.09440  -0.01136   0.00000  -0.00532  -0.00529   2.08911
   A29        2.09440   0.00634   0.00000   0.00349   0.00348   2.09787
   A30        2.09440   0.00502   0.00000   0.00183   0.00181   2.09621
   A31        2.09440   0.02819   0.00000   0.01587   0.01583   2.11022
   A32        2.09440  -0.01588   0.00000  -0.00997  -0.00995   2.08445
   A33        2.09440  -0.01231   0.00000  -0.00590  -0.00588   2.08852
   A34        2.09440   0.00661   0.00000  -0.01029  -0.01033   2.08407
   A35        2.09440   0.06794   0.00000   0.02951   0.02928   2.12368
   A36        2.09440  -0.07455   0.00000  -0.01922  -0.01896   2.07544
   A37        2.09440  -0.31504   0.00000  -0.04239  -0.04126   2.05314
   A38        2.09440  -0.31664   0.00000  -0.04434  -0.04316   2.05123
    D1        0.00000   0.00000   0.00000   0.00000   0.00000   0.00000
    D2        3.14159   0.00000   0.00000   0.00000   0.00000   3.14159
    D3       -3.14159   0.00000   0.00000   0.00000   0.00000  -3.14159
    D4       -0.00000   0.00000   0.00000   0.00000   0.00000  -0.00000
    D5       -0.00000  -0.00000   0.00000  -0.00000  -0.00000  -0.00000
    D6        3.14159  -0.00000   0.00000   0.00000   0.00000   3.14159
    D7        3.14159  -0.00000   0.00000  -0.00000  -0.00000   3.14159
    D8        0.00000  -0.00000   0.00000   0.00000   0.00000   0.00000
    D9       -0.00000  -0.00000   0.00000  -0.00000  -0.00000  -0.00000
   D10        3.14159  -0.00000   0.00000  -0.00000  -0.00000   3.14159
   D11        3.14159  -0.00000   0.00000  -0.00000  -0.00000   3.14159
   D12       -0.00000  -0.00000   0.00000  -0.00000  -0.00000  -0.00000
   D13        0.00000  -0.00000   0.00000   0.00000   0.00000   0.00000
   D14        3.14159  -0.00000   0.00000   0.00000   0.00000   3.14159
   D15       -3.14159   0.00000   0.00000  -0.00000  -0.00000  -3.14159
   D16        0.00000   0.00000   0.00000  -0.00000  -0.00000   0.00000
   D17       -0.00000  -0.00000   0.00000   0.00000   0.00000  -0.00000
   D18        3.14159   0.00000   0.00000  -0.00000  -0.00000   3.14159
   D19        3.14159  -0.00000   0.00000   0.00000   0.00000   3.14159
   D20        0.00000   0.00000   0.00000  -0.00000  -0.00000   0.00000
   D21        0.00000   0.00000   0.00000  -0.00000  -0.00000   0.00000
   D22       -3.14159   0.00000   0.00000  -0.00000  -0.00000  -3.14159
   D23       -3.14159  -0.00000   0.00000  -0.00000  -0.00000  -3.14159
   D24        0.00000   0.00000   0.00000   0.00000   0.00000   0.00000
   D25       -0.00000   0.00000   0.00000   0.00000   0.00000  -0.00000
   D26        3.14159   0.00000   0.00000   0.00000  -0.00000   3.14159
   D27        3.14159  -0.00000   0.00000   0.00000   0.00000   3.14159
   D28       -0.00000   0.00000   0.00000  -0.00000  -0.00000  -0.00000
   D29        0.00001  -0.00000   0.00000  -0.00000  -0.00000   0.00001
   D30       -3.14158  -0.00000   0.00000  -0.00000  -0.00000  -3.14158
   D31        3.14159   0.00000   0.00000   0.00000   0.00000   3.14159
   D32        0.00000   0.00000   0.00000   0.00000   0.00000   0.00000
   D33        0.00000   0.00000   0.00000   0.00000   0.00000   0.00000
   D34       -3.14159   0.00000   0.00000  -0.00000  -0.00000  -3.14159
   D35       -3.14159  -0.00000   0.00000  -0.00000  -0.00000  -3.14159
   D36        0.00000  -0.00000   0.00000   0.00000   0.00000   0.00000
   D37       -0.00000  -0.00000   0.00000  -0.00000  -0.00000  -0.00000
   D38        3.14159  -0.00000   0.00000   0.00000   0.00000   3.14159
   D39       -0.00000  -0.00000   0.00000   0.00000   0.00000  -0.00000
   D40        3.14159  -0.00000   0.00000  -0.00000  -0.00000   3.14159
   D41        3.14159   0.00000   0.00000   0.00000   0.00000   3.14159
   D42       -0.00000   0.00000   0.00000   0.00000   0.00000  -0.00000
   D43       -0.00000  -0.00000   0.00000  -0.00000  -0.00000  -0.00000
   D44       -3.14159  -0.00000   0.00000  -0.00000  -0.00000  -3.14159
   D45        3.14159  -0.00000   0.00000   0.00000   0.00000   3.14159
   D46        0.00000   0.00000   0.00000  -0.00000  -0.00000   0.00000
   D47        0.00000   0.00000   0.00000  -0.00000  -0.00000   0.00000
   D48       -3.14159   0.00000   0.00000  -0.00000  -0.00000  -3.14159
   D49        3.14159  -0.00000   0.00000   0.00000   0.00000   3.14159
   D50        0.00000   0.00000   0.00000  -0.00000  -0.00000   0.00000
   D51        0.00000   0.00000   0.00000   0.00000   0.00000   0.00000
   D52       -3.14159   0.00000   0.00000  -0.00000  -0.00000  -3.14159
   D53        3.14159   0.00000   0.00000   0.00000   0.00000   3.14159
   D54       -0.00000   0.00000   0.00000  -0.00000  -0.00000  -0.00000
   D55        0.00001  -0.00000   0.00000  -0.00000  -0.00000   0.00001
   D56       -3.14158  -0.00000   0.00000  -0.00000  -0.00000  -3.14158
   D57       -0.00001   0.00000   0.00000   0.00000   0.00000  -0.00001
         Item               Value     Threshold  Converged?
 Maximum Force            3.117447     0.000450     NO 
 RMS     Force            0.292564     0.000300     NO 
 Maximum Displacement     0.196045     0.001800     NO 
 RMS     Displacement     0.032673     0.001200     NO 
 Predicted change in Energy=-3.368308D-01
 GradGradGradGradGradGradGradGradGradGradGradGradGradGradGradGradGradGrad

                          Input orientation:                          
 ---------------------------------------------------------------------
 Center     Atomic      Atomic             Coordinates (Angstroms)
 Number     Number       Type             X           Y           Z
 ---------------------------------------------------------------------
      1          6           0        0.929688   -0.178497   -0.000703
      2          6           0        2.261964   -0.152561   -0.434757
      3          6           0        2.978010    1.046873   -0.445397
      4          6           0        2.365821    2.231452   -0.021232
      5          6           0        1.038971    2.211982    0.412246
      6          6           0        0.316924    1.017675    0.425826
      7          6           0        0.155607   -1.500990    0.005946
      8          6           0        0.783847   -2.679558   -0.422379
      9          6           0        0.087538   -3.891381   -0.420566
     10          6           0       -1.239515   -3.935116    0.008428
     11          6           0       -1.867354   -2.763546    0.435306
     12          6           0       -1.185749   -1.545489    0.439509
     13          1           0        2.741060   -1.055979   -0.762266
     14          1           0        0.570618    3.125214    0.738059
     15          1           0        1.805239   -2.655866   -0.754432
     16          1           0        0.573776   -4.791672   -0.749844
     17          1           0       -1.776945   -4.866669    0.010535
     18         17           0       -2.062290   -0.042252    1.010616
     19         17           0       -1.415433    1.059180    1.004353
     20         17           0       -3.544465   -2.826896    0.975950
     21         17           0        3.256011    3.747688   -0.029745
     22         17           0        4.647283    1.054175   -0.993974
 ---------------------------------------------------------------------
                    Distance matrix (angstroms):
                    1          2          3          4          5
     1  C    0.000000
     2  C    1.401441   0.000000
     3  C    2.427943   1.396953   0.000000
     4  C    2.805486   2.421839   1.399256   0.000000
     5  C    2.428345   2.793598   2.419277   1.395999   0.000000
     6  C    1.410048   2.427599   2.800225   2.423034   1.395674
     7  C    1.532395   2.539532   3.829005   4.337846   3.838173
     8  C    2.540549   2.927576   4.324486   5.175092   4.968788
     9  C    3.830275   4.325172   5.722046   6.545160   6.232964
    10  C    4.337938   5.173441   6.543218   7.143241   6.568210
    11  C    3.833539   4.962411   6.226756   6.563398   5.762216
    12  C    2.556859   3.819859   4.984004   5.204922   4.366774
    13  H    2.151980   1.073759   2.139752   3.390742   3.867318
    14  H    3.404293   3.870395   3.393465   2.144315   1.076802
    15  H    2.733505   2.564630   3.896303   4.973702   5.064015
    16  H    4.687138   4.946778   6.321522   7.284680   7.114634
    17  H    5.413405   6.223656   7.601807   8.218689   7.628765
    18  Cl   3.161212   4.560750   5.358245   5.083562   3.880391
    19  Cl   2.835768   4.130691   4.626475   4.089490   2.775544
    20  Cl   5.290171   6.546509   7.718095   7.843005   6.834905
    21  Cl   4.563721   4.045257   2.746716   1.758261   2.732950
    22  Cl   4.040617   2.731059   1.757118   2.745410   4.042015
                    6          7          8          9         10
     6  C    0.000000
     7  C    2.558514   0.000000
     8  C    3.821911   1.402559   0.000000
     9  C    4.986765   2.429097   1.397628   0.000000
    10  C    5.208345   2.805591   2.419921   1.395356   0.000000
    11  C    4.366783   2.422967   2.787749   2.413738   1.396060
    12  C    2.971199   1.410387   2.430694   2.804317   2.428793
    13  H    3.404120   2.733633   2.565583   3.898390   4.972764
    14  H    2.145594   4.702126   5.923468   7.128000   7.325108
    15  H    4.135576   2.152486   1.074272   2.142069   3.389537
    16  H    5.932679   3.402157   2.147647   1.074884   2.143989
    17  H    6.259574   3.881053   3.395368   2.147867   1.075466
    18  Cl   2.669472   2.838370   4.136346   4.635281   4.103136
    19  Cl   1.826877   3.165352   4.566242   5.366318   5.095666
    20  Cl   5.476649   4.048390   4.550969   4.034207   2.734418
    21  Cl   4.037170   6.096097   6.897481   8.279332   8.901499
    22  Cl   4.557321   5.263446   5.403113   6.751193   7.781532
                   11         12         13         14         15
    11  C    0.000000
    12  C    1.395802   0.000000
    13  H    5.058403   4.135663   0.000000
    14  H    6.380663   4.998943   4.944104   0.000000
    15  H    3.861995   3.406529   1.853500   6.096942   0.000000
    16  H    3.387770   3.879199   4.318874   8.055492   2.465398
    17  H    2.147495   3.400554   5.960785   8.361253   4.278419
    18  Cl   2.788265   1.831450   5.219475   4.127873   4.990405
    19  Cl   3.891180   2.675090   4.987111   2.878161   5.221841
    20  Cl   1.763238   2.737391   6.757615   7.240035   5.625193
    21  Cl   8.298271   6.925832   4.886407   2.861526   6.605710
    22  Cl   7.684942   6.545028   2.853091   4.889616   4.679637
                   16         17         18         19         20
    16  H    0.000000
    17  H    2.471779   0.000000
    18  Cl   5.710083   4.935239   0.000000
    19  Cl   6.423911   6.019473   1.277347   0.000000
    20  Cl   4.878382   2.866501   3.154724   4.431159   0.000000
    21  Cl   8.979621   9.976944   6.612890   5.488153   9.512257
    22  Cl   7.129305   8.794098   7.087941   6.383562   9.276209
                   21         22
    21  Cl   0.000000
    22  Cl   3.181255   0.000000
 Stoichiometry    C12H5Cl5
 Framework group  C1[X(C12H5Cl5)]
 Deg. of freedom    60
 Full point group                 C1      NOp   1
 Largest Abelian subgroup         C1      NOp   1
 Largest concise Abelian subgroup C1      NOp   1
                         Standard orientation:                         
 ---------------------------------------------------------------------
 Center     Atomic      Atomic             Coordinates (Angstroms)
 Number     Number       Type             X           Y           Z
 ---------------------------------------------------------------------
      1          6           0        0.426981    0.426229    0.000003
      2          6           0        1.520935    1.302186    0.000001
      3          6           0        2.825554    0.802738   -0.000000
      4          6           0        3.046187   -0.579014   -0.000001
      5          6           0        1.960535   -1.456608    0.000003
      6          6           0        0.654159   -0.965398    0.000004
      7          6           0       -0.999000    0.987308    0.000003
      8          6           0       -1.203010    2.374951    0.000004
      9          6           0       -2.499144    2.897827    0.000004
     10          6           0       -3.599631    2.039953    0.000002
     11          6           0       -3.399527    0.658309    0.000000
     12          6           0       -2.111525    0.120428    0.000001
     13          1           0        1.362550    2.364199   -0.000000
     14          1           0        2.133547   -2.519420    0.000005
     15          1           0       -0.362026    3.043387    0.000003
     16          1           0       -2.649857    3.962092    0.000004
     17          1           0       -4.597747    2.440443   -0.000000
     18         17           0       -1.912206   -1.700144   -0.000003
     19         17           0       -0.722829   -2.165974    0.000007
     20         17           0       -4.795190   -0.419250   -0.000007
     21         17           0        4.683263   -1.220468   -0.000003
     22         17           0        4.180990    1.920886   -0.000003
 ---------------------------------------------------------------------
 Rotational constants (GHZ):           0.6309526           0.1628072           0.1294140
 Standard basis: 6-311+G(d,p) (5D, 7F)
 There are   461 symmetry adapted cartesian basis functions of A   symmetry.
 There are   444 symmetry adapted basis functions of A   symmetry.
   444 basis functions,   737 primitive gaussians,   461 cartesian basis functions
    81 alpha electrons       81 beta electrons
       nuclear repulsion energy      1805.2156648607 Hartrees.
 NAtoms=   22 NActive=   22 NUniq=   22 SFac= 1.00D+00 NAtFMM=   60 NAOKFM=F Big=F
 Integral buffers will be    131072 words long.
 Raffenetti 2 integral format.
 Two-electron integral symmetry is turned on.
 One-electron integrals computed using PRISM.
 NBasis=   444 RedAO= T EigKep=  1.32D-06  NBF=   444
 NBsUse=   438 1.00D-06 EigRej=  9.45D-07 NBFU=   438
 Initial guess from the checkpoint file:  "/scratch/gour/Gau-44200.chk"
 B after Tr=    -0.000000    0.000000    0.000000
         Rot=    0.999999   -0.000000   -0.000000    0.001358 Ang=  -0.16 deg.
 ExpMin= 4.38D-02 ExpMax= 1.06D+05 ExpMxC= 3.62D+03 IAcc=3 IRadAn=         5 AccDes= 0.00D+00
 Harris functional with IExCor=  402 and IRadAn=       5 diagonalized for initial guess.
 HarFok:  IExCor=  402 AccDes= 0.00D+00 IRadAn=         5 IDoV= 1 UseB2=F ITyADJ=14
 ICtDFT=  3500011 ScaDFX=  1.000000  1.000000  1.000000  1.000000
 FoFCou: FMM=F IPFlag=           0 FMFlag=      100000 FMFlg1=           0
         NFxFlg=           0 DoJE=T BraDBF=F KetDBF=T FulRan=T
         wScrn=  0.000000 ICntrl=       500 IOpCl=  0 I1Cent=   200000004 NGrid=           0
         NMat0=    1 NMatS0=      1 NMatT0=    0 NMatD0=    1 NMtDS0=    0 NMtDT0=    0
 Petite list used in FoFCou.
 Requested convergence on RMS density matrix=1.00D-08 within  32 cycles.
 Requested convergence on MAX density matrix=1.00D-06.
 Requested convergence on             energy=1.00D-06.
 No special actions if energy rises.
 SCF Done:  E(RB3LYP) =  -2760.40695812     A.U. after   16 cycles
            NFock= 16  Conv=0.72D-08     -V/T= 2.0007
 QCSCF skips out because SCF is already converged.
 Calling FoFJK, ICntrl=      2127 FMM=F ISym2X=0 I1Cent= 0 IOpClX= 0 NMat=1 NMatS=1 NMatT=0.
 ***** Axes restored to original set *****
 -------------------------------------------------------------------
 Center     Atomic                   Forces (Hartrees/Bohr)
 Number     Number              X              Y              Z
 -------------------------------------------------------------------
      1        6          -0.001113719   -0.022270368   -0.003815684
      2        6          -0.003317215    0.011189696    0.003194585
      3        6           0.000160313   -0.000765732   -0.000196528
      4        6           0.000335298    0.001350540    0.000142991
      5        6          -0.002074774   -0.015204938   -0.002171981
      6        6           0.090409385   -0.016900455   -0.032960317
      7        6           0.019205421    0.009013541   -0.004634490
      8        6          -0.011058077   -0.003506607    0.002984613
      9        6          -0.003723469    0.011407351    0.003369070
     10        6          -0.000039964    0.002150196    0.000417025
     11        6           0.023288354    0.008670094   -0.006044163
     12        6           0.051503576   -0.073559241   -0.030782997
     13        1           0.005812605   -0.001368972   -0.002172157
     14        1          -0.002642133    0.007749519    0.002325925
     15        1           0.004679402   -0.003201197   -0.002142981
     16        1           0.002094696   -0.005255316   -0.001677073
     17        1          -0.003680202   -0.005248351    0.000226725
     18       17          -1.103360106   -1.691288823    0.045886103
     19       17           0.946660201    1.791333246    0.024528918
     20       17          -0.006657002   -0.000974603    0.002010143
     21       17          -0.002989728   -0.000561621    0.000879508
     22       17          -0.003492862   -0.002757959    0.000632765
 -------------------------------------------------------------------
 Cartesian Forces:  Max     1.791333246 RMS     0.352626536

 GradGradGradGradGradGradGradGradGradGradGradGradGradGradGradGradGradGrad
 Berny optimization.
 Using GEDIIS/GDIIS optimizer.
 FormGI is forming the generalized inverse of G from B-inverse, IUseBI=4.
 Internal  Forces:  Max     1.969771901 RMS     0.184857066
 Search for a local minimum.
 Step number   2 out of a maximum of  129
 All quantities printed in internal units (Hartrees-Bohrs-Radians)
 Mixed Optimization -- RFO/linear search
 Update second derivatives using D2CorX and points    1    2
 DE= -5.10D-01 DEPred=-3.37D-01 R= 1.51D+00
 TightC=F SS=  1.41D+00  RLast= 2.78D-01 DXNew= 5.0454D-01 8.3429D-01
 Trust test= 1.51D+00 RLast= 2.78D-01 DXMaxT set to 5.05D-01
 ITU=  1  0
 Use linear search instead of GDIIS.
 Linear search step of   0.556 exceeds DXMaxT=   0.505 but not scaled.
 Quartic linear search produced a step of  2.00000.
 Iteration  1 RMS(Cart)=  0.04171908 RMS(Int)=  0.01654393
 Iteration  2 RMS(Cart)=  0.02392119 RMS(Int)=  0.00132754
 Iteration  3 RMS(Cart)=  0.00024611 RMS(Int)=  0.00132181
 Iteration  4 RMS(Cart)=  0.00000010 RMS(Int)=  0.00132181
 Variable       Old X    -DE/DX   Delta X   Delta X   Delta X     New X
                                 (Linear)    (Quad)   (Total)
    R1        2.64834   0.01120   0.00015   0.00000  -0.00019   2.64815
    R2        2.66460   0.06025   0.03268   0.00000   0.03091   2.69552
    R3        2.89581   0.06127  -0.02874   0.00000  -0.03145   2.86435
    R4        2.63986  -0.00737  -0.01681   0.00000  -0.01673   2.62312
    R5        2.02911   0.00441   0.01421   0.00000   0.01421   2.04332
    R6        2.64421  -0.01503  -0.00810   0.00000  -0.00768   2.63653
    R7        3.32047  -0.00353  -0.01089   0.00000  -0.01089   3.30958
    R8        2.63806  -0.01521  -0.02041   0.00000  -0.02006   2.61799
    R9        3.32263  -0.00200  -0.00657   0.00000  -0.00657   3.31606
   R10        2.63744  -0.00700  -0.02164   0.00000  -0.02171   2.61573
   R11        2.03486   0.00843   0.02571   0.00000   0.02571   2.06057
   R12        3.45230   0.06088   0.25276   0.00000   0.25389   3.70619
   R13        2.65045   0.01234   0.00438   0.00000   0.00397   2.65442
   R14        2.66525   0.06086   0.03397   0.00000   0.03203   2.69727
   R15        2.64113  -0.00684  -0.01426   0.00000  -0.01423   2.62691
   R16        2.03008   0.00504   0.01615   0.00000   0.01615   2.04623
   R17        2.63684  -0.01861  -0.02284   0.00000  -0.02240   2.61444
   R18        2.03124   0.00586   0.01846   0.00000   0.01846   2.04969
   R19        2.63817  -0.01553  -0.02018   0.00000  -0.01977   2.61840
   R20        2.03234   0.00639   0.02066   0.00000   0.02066   2.05300
   R21        2.63768  -0.00823  -0.02116   0.00000  -0.02117   2.61652
   R22        3.33204   0.00698   0.01224   0.00000   0.01224   3.34428
   R23        3.46094   0.06814   0.27004   0.00000   0.27104   3.73198
   R24        2.41384   1.96977   0.36263   0.00000   0.36533   2.77917
    A1        2.08416  -0.04896  -0.02047   0.00000  -0.01895   2.06521
    A2        2.09155  -0.09888  -0.00570   0.00000  -0.00204   2.08950
    A3        2.10748   0.14784   0.02617   0.00000   0.02099   2.12847
    A4        2.10079   0.02957   0.01279   0.00000   0.01189   2.11268
    A5        2.09793  -0.01014   0.00708   0.00000   0.00753   2.10547
    A6        2.08446  -0.01943  -0.01987   0.00000  -0.01942   2.06504
    A7        2.09475   0.00370   0.00072   0.00000   0.00059   2.09535
    A8        2.08621  -0.00648  -0.01636   0.00000  -0.01630   2.06991
    A9        2.10222   0.00278   0.01565   0.00000   0.01571   2.11793
   A10        2.09227  -0.00662  -0.00425   0.00000  -0.00409   2.08818
   A11        2.10258   0.00739   0.01637   0.00000   0.01629   2.11887
   A12        2.08833  -0.00076  -0.01212   0.00000  -0.01220   2.07613
   A13        2.10212   0.01472   0.01545   0.00000   0.01510   2.11723
   A14        2.08924  -0.00859  -0.01031   0.00000  -0.01014   2.07910
   A15        2.09182  -0.00613  -0.00514   0.00000  -0.00497   2.08686
   A16        2.09227   0.00759  -0.00425   0.00000  -0.00455   2.08772
   A17        2.12604   0.05555   0.06329   0.00000   0.06219   2.18823
   A18        2.06487  -0.06314  -0.05904   0.00000  -0.05764   2.00723
   A19        2.09163  -0.09910  -0.00553   0.00000  -0.00171   2.08993
   A20        2.10480   0.14593   0.02081   0.00000   0.01552   2.12032
   A21        2.08675  -0.04683  -0.01529   0.00000  -0.01381   2.07294
   A22        2.10021   0.02877   0.01164   0.00000   0.01057   2.11079
   A23        2.09640  -0.01097   0.00401   0.00000   0.00455   2.10095
   A24        2.08657  -0.01780  -0.01565   0.00000  -0.01512   2.07145
   A25        2.09601   0.00442   0.00323   0.00000   0.00303   2.09904
   A26        2.09492  -0.00153   0.00104   0.00000   0.00114   2.09606
   A27        2.09226  -0.00289  -0.00427   0.00000  -0.00417   2.08809
   A28        2.08911  -0.00896  -0.01058   0.00000  -0.01037   2.07874
   A29        2.09787   0.00509   0.00695   0.00000   0.00685   2.10472
   A30        2.09621   0.00386   0.00362   0.00000   0.00352   2.09973
   A31        2.11022   0.02051   0.03165   0.00000   0.03137   2.14159
   A32        2.08445  -0.01148  -0.01990   0.00000  -0.01976   2.06469
   A33        2.08852  -0.00903  -0.01175   0.00000  -0.01161   2.07690
   A34        2.08407   0.00209  -0.02065   0.00000  -0.02080   2.06327
   A35        2.12368   0.05317   0.05857   0.00000   0.05713   2.18081
   A36        2.07544  -0.05526  -0.03792   0.00000  -0.03633   2.03910
   A37        2.05314  -0.20088  -0.08251   0.00000  -0.07613   1.97701
   A38        2.05123  -0.20160  -0.08632   0.00000  -0.07970   1.97153
    D1        0.00000   0.00000   0.00000   0.00000   0.00000   0.00000
    D2        3.14159   0.00000   0.00000   0.00000   0.00000   3.14159
    D3       -3.14159   0.00000   0.00000   0.00000   0.00000  -3.14159
    D4       -0.00000   0.00000   0.00000   0.00000   0.00000  -0.00000
    D5       -0.00000  -0.00000  -0.00000   0.00000  -0.00000  -0.00000
    D6        3.14159  -0.00000   0.00000   0.00000   0.00000   3.14159
    D7        3.14159  -0.00000  -0.00000   0.00000  -0.00000   3.14159
    D8        0.00000  -0.00000   0.00000   0.00000   0.00000   0.00000
    D9       -0.00000  -0.00000  -0.00000   0.00000  -0.00000  -0.00000
   D10        3.14159  -0.00000  -0.00000   0.00000  -0.00000   3.14159
   D11        3.14159  -0.00000  -0.00000   0.00000  -0.00000   3.14159
   D12       -0.00000  -0.00000  -0.00000   0.00000  -0.00000  -0.00000
   D13        0.00000  -0.00000   0.00000   0.00000   0.00000   0.00000
   D14        3.14159  -0.00000   0.00000   0.00000   0.00000   3.14159
   D15       -3.14159   0.00000  -0.00000   0.00000  -0.00000  -3.14159
   D16        0.00000   0.00000  -0.00000   0.00000  -0.00000   0.00000
   D17       -0.00000  -0.00000   0.00000   0.00000   0.00000  -0.00000
   D18        3.14159   0.00000  -0.00000   0.00000  -0.00000   3.14159
   D19        3.14159  -0.00000   0.00000   0.00000   0.00000   3.14159
   D20        0.00000   0.00000  -0.00000   0.00000  -0.00000   0.00000
   D21        0.00000   0.00000  -0.00000   0.00000  -0.00000   0.00000
   D22       -3.14159   0.00000  -0.00000   0.00000  -0.00000  -3.14159
   D23       -3.14159  -0.00000  -0.00000   0.00000  -0.00000  -3.14159
   D24        0.00000   0.00000   0.00000   0.00000   0.00000   0.00000
   D25       -0.00000   0.00000   0.00000   0.00000   0.00000  -0.00000
   D26        3.14159   0.00000  -0.00000   0.00000  -0.00000   3.14159
   D27        3.14159  -0.00000   0.00000   0.00000   0.00000   3.14159
   D28       -0.00000   0.00000  -0.00000   0.00000  -0.00000  -0.00000
   D29        0.00001  -0.00000  -0.00000   0.00000  -0.00000   0.00001
   D30       -3.14158  -0.00000  -0.00000   0.00000  -0.00000  -3.14158
   D31        3.14159   0.00000   0.00000   0.00000   0.00000   3.14159
   D32        0.00000   0.00000   0.00000   0.00000   0.00000   0.00000
   D33        0.00000   0.00000   0.00000   0.00000   0.00000   0.00000
   D34       -3.14159   0.00000  -0.00000   0.00000  -0.00000  -3.14159
   D35       -3.14159  -0.00000  -0.00000   0.00000  -0.00000  -3.14159
   D36        0.00000  -0.00000   0.00000   0.00000   0.00000   0.00000
   D37       -0.00000  -0.00000  -0.00000   0.00000  -0.00000  -0.00000
   D38        3.14159  -0.00000   0.00000   0.00000   0.00000   3.14159
   D39       -0.00000  -0.00000   0.00000   0.00000   0.00000  -0.00000
   D40        3.14159  -0.00000  -0.00000   0.00000  -0.00000   3.14159
   D41        3.14159   0.00000   0.00000   0.00000   0.00000   3.14159
   D42       -0.00000   0.00000   0.00000   0.00000   0.00000  -0.00000
   D43       -0.00000  -0.00000  -0.00000   0.00000  -0.00000  -0.00000
   D44       -3.14159  -0.00000  -0.00000   0.00000  -0.00000  -3.14159
   D45        3.14159  -0.00000   0.00000   0.00000   0.00000   3.14159
   D46        0.00000   0.00000  -0.00000   0.00000  -0.00000   0.00000
   D47        0.00000   0.00000  -0.00000   0.00000  -0.00000   0.00000
   D48       -3.14159   0.00000  -0.00000   0.00000  -0.00000  -3.14159
   D49        3.14159  -0.00000   0.00000   0.00000   0.00000   3.14159
   D50        0.00000   0.00000  -0.00000   0.00000  -0.00000   0.00000
   D51        0.00000   0.00000   0.00000   0.00000   0.00000   0.00000
   D52       -3.14159   0.00000  -0.00000   0.00000  -0.00000  -3.14159
   D53        3.14159   0.00000   0.00000   0.00000   0.00000   3.14159
   D54       -0.00000   0.00000  -0.00000   0.00000  -0.00000  -0.00000
   D55        0.00001  -0.00000  -0.00000   0.00000  -0.00000   0.00001
   D56       -3.14158  -0.00000  -0.00000   0.00000  -0.00000  -3.14158
   D57       -0.00001   0.00000   0.00000   0.00000   0.00000  -0.00001
         Item               Value     Threshold  Converged?
 Maximum Force            1.969772     0.000450     NO 
 RMS     Force            0.184857     0.000300     NO 
 Maximum Displacement     0.376968     0.001800     NO 
 RMS     Displacement     0.060377     0.001200     NO 
 Predicted change in Energy=-3.680315D-01
 GradGradGradGradGradGradGradGradGradGradGradGradGradGradGradGradGradGrad

[...]
                 (A) (A) (A) (A) (A) (A) (A) (A) (A) (A) (A) (A)
                 (A) (A) (A) (A) (A) (A) (A) (A) (A)
       Virtual   (A) (A) (A) (A) (A) (A) (A) (A) (A) (A) (A) (A)
                 (A) (A) (A) (A) (A) (A) (A) (A) (A) (A) (A) (A)
                 (A) (A) (A) (A) (A) (A) (A) (A) (A) (A) (A) (A)
                 (A) (A) (A) (A) (A) (A) (A) (A) (A) (A) (A) (A)
                 (A) (A) (A) (A) (A) (A) (A) (A) (A) (A) (A) (A)
                 (A) (A) (A) (A) (A) (A) (A) (A) (A) (A) (A) (A)
                 (A) (A) (A) (A) (A) (A) (A) (A) (A) (A) (A) (A)
                 (A) (A) (A) (A) (A) (A) (A) (A) (A) (A) (A) (A)
                 (A) (A) (A) (A) (A) (A) (A) (A) (A) (A) (A) (A)
                 (A) (A) (A) (A) (A) (A) (A) (A) (A) (A) (A) (A)
                 (A) (A) (A) (A) (A) (A) (A) (A) (A) (A) (A) (A)
                 (A) (A) (A) (A) (A) (A) (A) (A) (A) (A) (A) (A)
                 (A) (A) (A) (A) (A) (A) (A) (A) (A) (A) (A) (A)
                 (A) (A) (A) (A) (A) (A) (A) (A) (A) (A) (A) (A)
                 (A) (A) (A) (A) (A) (A) (A) (A) (A) (A) (A) (A)
                 (A) (A) (A) (A) (A) (A) (A) (A) (A) (A) (A) (A)
                 (A) (A) (A) (A) (A) (A) (A) (A) (A) (A) (A) (A)
                 (A) (A) (A) (A) (A) (A) (A) (A) (A) (A) (A) (A)
                 (A) (A) (A) (A) (A) (A) (A) (A) (A) (A) (A) (A)
                 (A) (A) (A) (A) (A) (A) (A) (A) (A) (A) (A) (A)
                 (A) (A) (A) (A) (A) (A) (A) (A) (A) (A) (A) (A)
                 (A) (A) (A) (A) (A) (A) (A) (A) (A) (A) (A) (A)
                 (A) (A) (A) (A) (A) (A) (A) (A) (A) (A) (A) (A)
                 (A) (A) (A) (A) (A) (A) (A) (A) (A) (A) (A) (A)
                 (A) (A) (A) (A) (A) (A) (A) (A) (A) (A) (A) (A)
                 (A) (A) (A) (A) (A) (A) (A) (A) (A) (A) (A) (A)
                 (A) (A) (A) (A) (A) (A) (A) (A) (A) (A) (A) (A)
                 (A) (A) (A) (A) (A) (A) (A) (A) (A) (A) (A) (A)
                 (A) (A) (A) (A) (A) (A) (A) (A) (A) (A) (A) (A)
                 (A) (A) (A) (A) (A) (A) (A) (A) (A) (A) (A) (A)
 The electronic state is 1-A.
 Alpha  occ. eigenvalues -- -101.57516-101.57396-101.57174-101.57018-101.56979
 Alpha  occ. eigenvalues --  -10.27167 -10.26843 -10.26718 -10.26718 -10.26480
 Alpha  occ. eigenvalues --  -10.22977 -10.22726 -10.21932 -10.21883 -10.21078
 Alpha  occ. eigenvalues --  -10.20793 -10.20686  -9.48972  -9.48851  -9.48644
 Alpha  occ. eigenvalues --   -9.48493  -9.48439  -7.25459  -7.25337  -7.25116
 Alpha  occ. eigenvalues --   -7.24973  -7.24921  -7.24451  -7.24392  -7.24329
 Alpha  occ. eigenvalues --   -7.24274  -7.24123  -7.24077  -7.23977  -7.23921
 Alpha  occ. eigenvalues --   -7.23909  -7.23862  -0.94698  -0.93402  -0.90440
 Alpha  occ. eigenvalues --   -0.88048  -0.87443  -0.86250  -0.84300  -0.79987
 Alpha  occ. eigenvalues --   -0.76348  -0.75343  -0.73975  -0.66488  -0.64622
 Alpha  occ. eigenvalues --   -0.62772  -0.60692  -0.54988  -0.53252  -0.52678
 Alpha  occ. eigenvalues --   -0.51477  -0.49544  -0.47974  -0.46341  -0.46144
 Alpha  occ. eigenvalues --   -0.45813  -0.44519  -0.43571  -0.42647  -0.41056
 Alpha  occ. eigenvalues --   -0.40153  -0.39383  -0.38913  -0.36624  -0.36173
 Alpha  occ. eigenvalues --   -0.35470  -0.34718  -0.34251  -0.33416  -0.33223
 Alpha  occ. eigenvalues --   -0.32655  -0.32067  -0.28343  -0.27914  -0.26730
 Alpha  occ. eigenvalues --   -0.26312
 Alpha virt. eigenvalues --   -0.05885  -0.05448  -0.04676  -0.04148  -0.02901
 Alpha virt. eigenvalues --   -0.01962  -0.00658   0.00195   0.00875   0.01755
 Alpha virt. eigenvalues --    0.02006   0.02504   0.02564   0.03524   0.03736
 Alpha virt. eigenvalues --    0.04692   0.05013   0.05436   0.05786   0.06130
 Alpha virt. eigenvalues --    0.06653   0.07065   0.07837   0.08116   0.08740
 Alpha virt. eigenvalues --    0.08818   0.09013   0.09689   0.09947   0.10032
 Alpha virt. eigenvalues --    0.11077   0.11322   0.11458   0.11679   0.11823
 Alpha virt. eigenvalues --    0.12404   0.12929   0.13105   0.13336   0.13744
 Alpha virt. eigenvalues --    0.14371   0.14488   0.14939   0.15038   0.15593
 Alpha virt. eigenvalues --    0.16024   0.16592   0.17156   0.17467   0.18011
 Alpha virt. eigenvalues --    0.18268   0.18648   0.18859   0.19208   0.19437
 Alpha virt. eigenvalues --    0.19611   0.19934   0.20350   0.20906   0.21100
 Alpha virt. eigenvalues --    0.21284   0.21839   0.22228   0.22786   0.23211
 Alpha virt. eigenvalues --    0.23483   0.24050   0.24197   0.24658   0.25154
 Alpha virt. eigenvalues --    0.25432   0.25670   0.26137   0.26645   0.27309
 Alpha virt. eigenvalues --    0.27490   0.28024   0.28298   0.28700   0.29011
 Alpha virt. eigenvalues --    0.29496   0.29665   0.30162   0.30731   0.31504
 Alpha virt. eigenvalues --    0.32439   0.32706   0.33438   0.34398   0.35942
 Alpha virt. eigenvalues --    0.41215   0.42018   0.42723   0.43561   0.44182
 Alpha virt. eigenvalues --    0.44239   0.45215   0.45672   0.46207   0.46691
 Alpha virt. eigenvalues --    0.47107   0.47517   0.48163   0.48492   0.49123
 Alpha virt. eigenvalues --    0.50846   0.50892   0.51412   0.53010   0.53432
 Alpha virt. eigenvalues --    0.54023   0.54352   0.56185   0.56767   0.57330
 Alpha virt. eigenvalues --    0.57764   0.57890   0.58715   0.59556   0.61098
 Alpha virt. eigenvalues --    0.61469   0.61784   0.63140   0.63822   0.63999
 Alpha virt. eigenvalues --    0.64411   0.65393   0.65723   0.65995   0.67359
 Alpha virt. eigenvalues --    0.68306   0.68499   0.69202   0.69580   0.70203
 Alpha virt. eigenvalues --    0.70695   0.71936   0.73156   0.75612   0.78183
 Alpha virt. eigenvalues --    0.79944   0.80824   0.81272   0.81842   0.82469
 Alpha virt. eigenvalues --    0.82788   0.83901   0.84255   0.84331   0.84502
 Alpha virt. eigenvalues --    0.84662   0.85186   0.85499   0.85522   0.86221
 Alpha virt. eigenvalues --    0.87394   0.87776   0.88488   0.89497   0.90005
 Alpha virt. eigenvalues --    0.90253   0.90542   0.91518   0.92298   0.92398
 Alpha virt. eigenvalues --    0.93819   0.94564   0.94767   0.95176   0.95795
 Alpha virt. eigenvalues --    0.96119   0.96967   0.97859   0.98412   0.99212
 Alpha virt. eigenvalues --    0.99849   1.00315   1.01326   1.02554   1.04236
 Alpha virt. eigenvalues --    1.04810   1.05271   1.10868   1.11360   1.13205
 Alpha virt. eigenvalues --    1.15533   1.16398   1.20323   1.22004   1.22103
 Alpha virt. eigenvalues --    1.23859   1.24822   1.25973   1.26460   1.27042
 Alpha virt. eigenvalues --    1.27318   1.29338   1.29946   1.32226   1.33778
 Alpha virt. eigenvalues --    1.34560   1.36210   1.39190   1.40471   1.43591
 Alpha virt. eigenvalues --    1.48185   1.49028   1.49936   1.54354   1.55176
 Alpha virt. eigenvalues --    1.55464   1.56153   1.56855   1.59458   1.60588
 Alpha virt. eigenvalues --    1.63371   1.64646   1.65796   1.68889   1.69290
 Alpha virt. eigenvalues --    1.71744   1.74242   1.75236   1.75772   1.79189
 Alpha virt. eigenvalues --    1.81627   1.82192   1.83760   1.85291   1.85945
 Alpha virt. eigenvalues --    1.87772   1.90467   1.91348   1.93124   1.93399
 Alpha virt. eigenvalues --    1.93597   1.97107   1.98276   1.99951   2.01118
 Alpha virt. eigenvalues --    2.01838   2.04140   2.06548   2.08859   2.11600
 Alpha virt. eigenvalues --    2.14512   2.17248   2.19332   2.23026   2.23646
 Alpha virt. eigenvalues --    2.25175   2.25856   2.26548   2.28266   2.29143
 Alpha virt. eigenvalues --    2.30338   2.32119   2.33769   2.35434   2.36738
 Alpha virt. eigenvalues --    2.39156   2.41786   2.42850   2.44819   2.45064
 Alpha virt. eigenvalues --    2.48430   2.49544   2.52215   2.53025   2.54118
 Alpha virt. eigenvalues --    2.55031   2.56868   2.59860   2.60742   2.62825
 Alpha virt. eigenvalues --    2.66986   2.67985   2.69286   2.70089   2.71437
 Alpha virt. eigenvalues --    2.72829   2.74104   2.74569   2.75379   2.76006
 Alpha virt. eigenvalues --    2.77465   2.78053   2.79911   2.83484   2.84320
 Alpha virt. eigenvalues --    2.84443   2.87463   2.90370   2.97805   2.98669
 Alpha virt. eigenvalues --    3.06118   3.08963   3.09149   3.12309   3.13501
 Alpha virt. eigenvalues --    3.14734   3.18866   3.21057   3.23089   3.27684
 Alpha virt. eigenvalues --    3.34945   3.35394   3.39147   3.50163   3.51578
 Alpha virt. eigenvalues --    3.54249   3.64586   3.71735   3.77115   3.81334
 Alpha virt. eigenvalues --    3.90623   3.95911   4.04222   4.09515   4.11442
 Alpha virt. eigenvalues --    4.33121   4.80757   4.81738   9.75874   9.77834
 Alpha virt. eigenvalues --    9.79585   9.81406   9.83715  23.37939  23.53254
 Alpha virt. eigenvalues --   23.82901  23.87988  23.88644  23.89895  23.94820
 Alpha virt. eigenvalues --   24.00692  24.03271  24.06458  24.11731  24.15599
 Alpha virt. eigenvalues --   25.77970  25.80561  25.86295  25.87917  25.96705
 Alpha virt. eigenvalues --   26.07276  26.12933  26.16225  26.25795  26.35600
 Alpha virt. eigenvalues --   26.50548  26.57452  26.70180  26.77894  26.88367
 Alpha virt. eigenvalues --  215.74972 215.77154 215.79090 215.81662 215.83984
          Condensed to atoms (all electrons):
               1          2          3          4          5          6
     1  C   46.671931   2.195874  -9.763574  -4.579781  -3.933884  -3.756848
     2  C    2.195874  23.918511  -0.131867  -8.317186   1.371290 -10.838444
     3  C   -9.763574  -0.131867  32.387662  -6.624586 -11.400539   2.307836
     4  C   -4.579781  -8.317186  -6.624586  29.929342   4.372094  -8.917145
     5  C   -3.933884   1.371290 -11.400539   4.372094  25.650748  -6.028605
     6  C   -3.756848 -10.838444   2.307836  -8.917145  -6.028605  47.357285
     7  C    1.420847  -1.641671  -0.469316   1.364062  -2.409675  -8.191512
     8  C   -3.224895   1.353603   1.181485  -0.044501  -1.385597  -3.745660
     9  C    3.458873  -0.201331   0.485056  -0.129222  -0.352996   0.503388
    10  C   -6.107556   0.034504  -0.383675   0.110169   0.357096   0.126166
    11  C    2.924368  -1.293733  -0.252123  -0.151236   0.317352   1.768373
    12  C  -18.149951  -0.203447  -1.776979   0.796336   1.061569  -3.864674
    13  H   -0.045643   0.248069  -0.041767   0.052332  -0.047402  -0.047326
    14  H    0.118421  -0.042211   0.034138  -0.002447   0.216580   0.004289
    15  H    0.160328   0.004716  -0.026056   0.001847   0.021681   0.078879
    16  H   -0.003588  -0.002984  -0.000953   0.000005   0.000487   0.003419
    17  H    0.024333  -0.000888  -0.000095   0.000011  -0.000037   0.000041
    18  Cl  -2.277128   0.186113   0.266360   0.053130  -0.301653  -0.933403
    19  Cl   0.074154  -0.351010   0.808039  -0.644135  -1.102051   0.565815
    20  Cl   0.062720   0.005476   0.014730  -0.001239  -0.011695  -0.066921
    21  Cl   0.176081   0.336103  -0.013019  -0.999405   0.300118  -0.385910
    22  Cl  -0.457343   0.267992  -0.788345  -0.317285   0.098460   0.791510
               7          8          9         10         11         12
     1  C    1.420847  -3.224895   3.458873  -6.107556   2.924368 -18.149951
     2  C   -1.641671   1.353603  -0.201331   0.034504  -1.293733  -0.203447
     3  C   -0.469316   1.181485   0.485056  -0.383675  -0.252123  -1.776979
     4  C    1.364062  -0.044501  -0.129222   0.110169  -0.151236   0.796336
     5  C   -2.409675  -1.385597  -0.352996   0.357096   0.317352   1.061569
     6  C   -8.191512  -3.745660   0.503388   0.126166   1.768373  -3.864674
     7  C   27.853633  -5.514120  -1.587100  -5.632087   2.204595  -0.290057
     8  C   -5.514120  21.712150  -3.028089   5.139944  -3.414048  -3.804883
     9  C   -1.587100  -3.028089  10.793890  -1.552209   0.651587  -3.259742
    10  C   -5.632087   5.139944  -1.552209  22.870304  -9.962743   0.824380
    11  C    2.204595  -3.414048   0.651587  -9.962743  21.076525  -8.202740
    12  C   -0.290057  -3.804883  -3.259742   0.824380  -8.202740  44.844557
    13  H    0.130916   0.012169  -0.014876   0.011328  -0.009103   0.111693
    14  H    0.022823   0.001024  -0.000303   0.000053  -0.000320   0.001715
    15  H   -0.008993   0.282421  -0.030893  -0.036841   0.015076  -0.104686
    16  H    0.005222   0.019761   0.358963   0.009221  -0.029638  -0.010554
    17  H    0.088782  -0.078491  -0.007971   0.181189   0.149280  -0.004448
    18  Cl  -0.978874   0.470554  -0.080416   1.577803  -0.076904   0.345833
    19  Cl  -0.028605   0.363286   0.282447  -0.374417   0.188637  -1.266471
    20  Cl  -0.226276   0.073008   0.038223  -0.525856  -0.759856   0.918920
    21  Cl  -0.072195   0.000520   0.003591  -0.002109   0.001630  -0.052570
    22  Cl  -0.325324   0.019396   0.030239  -0.014053   0.016661  -0.165256
              13         14         15         16         17         18
     1  C   -0.045643   0.118421   0.160328  -0.003588   0.024333  -2.277128
     2  C    0.248069  -0.042211   0.004716  -0.002984  -0.000888   0.186113
     3  C   -0.041767   0.034138  -0.026056  -0.000953  -0.000095   0.266360
     4  C    0.052332  -0.002447   0.001847   0.000005   0.000011   0.053130
     5  C   -0.047402   0.216580   0.021681   0.000487  -0.000037  -0.301653
     6  C   -0.047326   0.004289   0.078879   0.003419   0.000041  -0.933403
     7  C    0.130916   0.022823  -0.008993   0.005222   0.088782  -0.978874
     8  C    0.012169   0.001024   0.282421   0.019761  -0.078491   0.470554
     9  C   -0.014876  -0.000303  -0.030893   0.358963  -0.007971  -0.080416
    10  C    0.011328   0.000053  -0.036841   0.009221   0.181189   1.577803
    11  C   -0.009103  -0.000320   0.015076  -0.029638   0.149280  -0.076904
    12  C    0.111693   0.001715  -0.104686  -0.010554  -0.004448   0.345833
    13  H    0.507831   0.000046  -0.000484   0.000008  -0.000003  -0.005339
    14  H    0.000046   0.490284  -0.000003   0.000000  -0.000000  -0.001064
    15  H   -0.000484  -0.000003   0.529924  -0.006946  -0.000216  -0.004637
    16  H    0.000008   0.000000  -0.006946   0.524747  -0.007635   0.001161
    17  H   -0.000003  -0.000000  -0.000216  -0.007635   0.508857  -0.003389
    18  Cl  -0.005339  -0.001064  -0.004637   0.001161  -0.003389  18.438895
    19  Cl  -0.000733  -0.008021  -0.006868  -0.000664  -0.000029   0.053632
    20  Cl   0.000259  -0.000006   0.000162  -0.000350  -0.003675  -0.270833
    21  Cl  -0.000709  -0.008043   0.000122  -0.000001   0.000000   0.003930
    22  Cl  -0.012972   0.000045   0.000311  -0.000004   0.000001  -0.016704
              19         20         21         22
     1  C    0.074154   0.062720   0.176081  -0.457343
     2  C   -0.351010   0.005476   0.336103   0.267992
     3  C    0.808039   0.014730  -0.013019  -0.788345
     4  C   -0.644135  -0.001239  -0.999405  -0.317285
     5  C   -1.102051  -0.011695   0.300118   0.098460
     6  C    0.565815  -0.066921  -0.385910   0.791510
     7  C   -0.028605  -0.226276  -0.072195  -0.325324
     8  C    0.363286   0.073008   0.000520   0.019396
     9  C    0.282447   0.038223   0.003591   0.030239
    10  C   -0.374417  -0.525856  -0.002109  -0.014053
    11  C    0.188637  -0.759856   0.001630   0.016661
    12  C   -1.266471   0.918920  -0.052570  -0.165256
    13  H   -0.000733   0.000259  -0.000709  -0.012972
    14  H   -0.008021  -0.000006  -0.008043   0.000045
    15  H   -0.006868   0.000162   0.000122   0.000311
    16  H   -0.000664  -0.000350  -0.000001  -0.000004
    17  H   -0.000029  -0.003675   0.000000   0.000001
    18  Cl   0.053632  -0.270833   0.003930  -0.016704
    19  Cl  18.069664   0.003685  -0.038913   0.002407
    20  Cl   0.003685  17.295744   0.000036   0.000321
    21  Cl  -0.038913   0.000036  17.413112  -0.162406
    22  Cl   0.002407   0.000321  -0.162406  17.500746
 Mulliken charges:
               1
     1  C    1.012260
     2  C   -0.897480
     3  C    0.187584
     4  C    0.048839
     5  C   -0.793341
     6  C   -0.730553
     7  C    0.284925
     8  C   -0.389035
     9  C   -0.361109
    10  C   -0.650609
    11  C    0.838360
    12  C   -1.748546
    13  H    0.151706
    14  H    0.172999
    15  H    0.131155
    16  H    0.140320
    17  H    0.154382
    18  Cl   0.552930
    19  Cl   0.410149
    20  Cl   0.453423
    21  Cl   0.500038
    22  Cl   0.531600
 Sum of Mulliken charges =   0.00000
 Mulliken charges with hydrogens summed into heavy atoms:
               1
     1  C    1.012260
     2  C   -0.745773
     3  C    0.187584
     4  C    0.048839
     5  C   -0.620342
     6  C   -0.730553
     7  C    0.284925
     8  C   -0.257880
     9  C   -0.220789
    10  C   -0.496227
    11  C    0.838360
    12  C   -1.748546
    18  Cl   0.552930
    19  Cl   0.410149
    20  Cl   0.453423
    21  Cl   0.500038
    22  Cl   0.531600
 Electronic spatial extent (au):  <R**2>=           7175.6033
 Charge=              0.0000 electrons
 Dipole moment (field-independent basis, Debye):
    X=             -0.8950    Y=              0.2977    Z=              2.5631  Tot=              2.7312
 Quadrupole moment (field-independent basis, Debye-Ang):
   XX=           -134.7226   YY=           -132.7314   ZZ=           -127.6622
   XY=             -4.3089   XZ=             -7.3086   YZ=              2.3899
 Traceless Quadrupole moment (field-independent basis, Debye-Ang):
   XX=             -3.0172   YY=             -1.0260   ZZ=              4.0432
   XY=             -4.3089   XZ=             -7.3086   YZ=              2.3899
 Octapole moment (field-independent basis, Debye-Ang**2):
  XXX=            -25.1700  YYY=             -5.0126  ZZZ=             -0.1137  XYY=             12.2617
  XXY=             -6.7560  XXZ=             19.1597  XZZ=            -14.5277  YZZ=              3.2256
  YYZ=             -8.5910  XYZ=             -4.4539
 Hexadecapole moment (field-independent basis, Debye-Ang**3):
 XXXX=          -6902.9812 YYYY=          -1432.0931 ZZZZ=           -975.2543 XXXY=            -34.8289
 XXXZ=            -84.8353 YYYX=             34.0875 YYYZ=             -7.1854 ZZZX=            -11.8935
 ZZZY=              9.6413 XXYY=          -1400.0515 XXZZ=          -1288.9050 YYZZ=           -438.2972
 XXYZ=             20.1847 YYXZ=             10.0321 ZZXY=             -8.0748
 N-N= 1.727291021414D+03 E-N=-9.991432174593D+03  KE= 2.754120061670D+03
 1\1\GINC-LOCALHOST\FOpt\RB3LYP\6-311+G(d,p)\C12H5Cl5\GOUR\16-Mar-2022\
 0\\# opt b3lyp/6-311+g(d,p) scf=xqc\\Title Card Required\\0,1\C,0.8740
 667465,-0.1692225372,0.0268711187\C,2.2017157115,-0.1958587116,0.45760
 87274\C,2.9751273823,0.9599832261,0.5156767824\C,2.4162201999,2.182136
 9908,0.1329789638\C,1.0954697256,2.2302755294,-0.3039435375\C,0.338501
 5756,1.0661670972,-0.3551423944\C,0.0969739102,-1.4421982618,-0.042024
 8333\C,0.2384631445,-2.2727752196,-1.1563111977\C,-0.4597311529,-3.472
 4739039,-1.2460120853\C,-1.3100600848,-3.8606775737,-0.2181068512\C,-1
 .4601649078,-3.0472514921,0.9021947369\C,-0.7594540579,-1.8390940047,0
 .9964629401\H,2.641875489,-1.1364977787,0.7628077776\H,0.663520028,3.1
 748354428,-0.604280467\H,0.897790679,-1.9632645027,-1.9582966291\H,-0.
 344154192,-4.1063673612,-2.116840737\H,-1.8614169219,-4.7905186035,-0.
 2714178821\Cl,-0.9353923034,-0.8211779583,2.4037991421\Cl,-1.315469031
 6,1.17987728,-0.9220783065\Cl,-2.5331220398,-3.5742882279,2.1768405883
 \Cl,3.3336629499,3.6644955576,0.1826733251\Cl,4.6261842496,0.841664263
 2,1.0680191681\\Version=EM64L-G16RevB.01\State=1-A\HF=-2761.5165636\RM
 SD=2.313e-09\RMSF=1.067e-05\Dipole=0.0689269,-0.6595867,-0.845463\Quad
 rupole=-5.4146434,4.9927329,0.4219105,-1.6249201,1.2079316,4.3542246\P
 G=C01 [X(C12H5Cl5)]\\@


 A HARD FALL SHOULD MEAN A HIGH BOUNCE 
 IF ONE IS MADE OF THE RIGHT MATERIAL.

                -- THE CHEMIST ANALYST, MARCH 1950
 Job cpu time:       1 days  1 hours 41 minutes 35.5 seconds.
 Elapsed time:       0 days  6 hours 26 minutes 31.0 seconds.
 File lengths (MBytes):  RWF=    130 Int=      0 D2E=      0 Chk=     21 Scr=      1
 Normal termination of Gaussian 16 at Wed Mar 16 17:04:57 2022.
