 Entering Gaussian System, Link 0=g16
 Input=2,2prime,3,4,4prime,5,6,6prime-Octachlorobiphenyl1.gjf
 Output=2,2prime,3,4,4prime,5,6,6prime-Octachlorobiphenyl1.log
 Initial command:
 /home/apps/g16/l1.exe "./Gau-143087.inp" -scrdir="./"
 Entering Link 1 = /home/apps/g16/l1.exe PID=    143088.
  
 Copyright (c) 1988-2017, Gaussian, Inc.  All Rights Reserved.
  
 This is part of the Gaussian(R) 16 program.  It is based on
 the Gaussian(R) 09 system (copyright 2009, Gaussian, Inc.),
 the Gaussian(R) 03 system (copyright 2003, Gaussian, Inc.),
 the Gaussian(R) 98 system (copyright 1998, Gaussian, Inc.),
 the Gaussian(R) 94 system (copyright 1995, Gaussian, Inc.),
 the Gaussian 92(TM) system (copyright 1992, Gaussian, Inc.),
 the Gaussian 90(TM) system (copyright 1990, Gaussian, Inc.),
 the Gaussian 88(TM) system (copyright 1988, Gaussian, Inc.),
 the Gaussian 86(TM) system (copyright 1986, Carnegie Mellon
 University), and the Gaussian 82(TM) system (copyright 1983,
 Carnegie Mellon University). Gaussian is a federally registered
 trademark of Gaussian, Inc.
  
 This software contains proprietary and confidential information,
 including trade secrets, belonging to Gaussian, Inc.
  
 This software is provided under written license and may be
 used, copied, transmitted, or stored only in accord with that
 written license.
  
 The following legend is applicable only to US Government
 contracts under FAR:
  
                    RESTRICTED RIGHTS LEGEND
  
 Use, reproduction and disclosure by the US Government is
 subject to restrictions as set forth in subparagraphs (a)
 and (c) of the Commercial Computer Software - Restricted
 Rights clause in FAR 52.227-19.
  
 Gaussian, Inc.
 340 Quinnipiac St., Bldg. 40, Wallingford CT 06492
  
  
 ---------------------------------------------------------------
 Warning -- This program may not be used in any manner that
 competes with the business of Gaussian, Inc. or will provide
 assistance to any competitor of Gaussian, Inc.  The licensee
 of this program is prohibited from giving any competitor of
 Gaussian, Inc. access to this program.  By using this program,
 the user acknowledges that Gaussian, Inc. is engaged in the
 business of creating and licensing software in the field of
 computational chemistry and represents and warrants to the
 licensee that it is not a competitor of Gaussian, Inc. and that
 it will not use this program in any manner prohibited above.
 ---------------------------------------------------------------
  

 Cite this work as:
 Gaussian 16, Revision B.01,
 M. J. Frisch, G. W. Trucks, H. B. Schlegel, G. E. Scuseria, 
 M. A. Robb, J. R. Cheeseman, G. Scalmani, V. Barone, 
 G. A. Petersson, H. Nakatsuji, X. Li, M. Caricato, A. V. Marenich, 
 J. Bloino, B. G. Janesko, R. Gomperts, B. Mennucci, H. P. Hratchian, 
 J. V. Ortiz, A. F. Izmaylov, J. L. Sonnenberg, D. Williams-Young, 
 F. Ding, F. Lipparini, F. Egidi, J. Goings, B. Peng, A. Petrone, 
 T. Henderson, D. Ranasinghe, V. G. Zakrzewski, J. Gao, N. Rega, 
 G. Zheng, W. Liang, M. Hada, M. Ehara, K. Toyota, R. Fukuda, 
 J. Hasegawa, M. Ishida, T. Nakajima, Y. Honda, O. Kitao, H. Nakai, 
 T. Vreven, K. Throssell, J. A. Montgomery, Jr., J. E. Peralta, 
 F. Ogliaro, M. J. Bearpark, J. J. Heyd, E. N. Brothers, K. N. Kudin, 
 V. N. Staroverov, T. A. Keith, R. Kobayashi, J. Normand, 
 K. Raghavachari, A. P. Rendell, J. C. Burant, S. S. Iyengar, 
 J. Tomasi, M. Cossi, J. M. Millam, M. Klene, C. Adamo, R. Cammi, 
 J. W. Ochterski, R. L. Martin, K. Morokuma, O. Farkas, 
 J. B. Foresman, and D. J. Fox, Gaussian, Inc., Wallingford CT, 2016.
 
 ******************************************
 Gaussian 16:  EM64L-G16RevB.01 20-Dec-2017
                13-Apr-2022 
 ******************************************
 %mem=48GB
 %nprocshared=16
 Will use up to   16 processors via shared memory.
 --------------------------------
 # opt b3lyp/6-311+g(d,p) scf=xqc
 --------------------------------
 1/18=20,19=15,26=3,38=1/1,3;
 2/9=110,12=2,17=6,18=5,40=1/2;
 3/5=4,6=6,7=111,11=2,25=1,30=1,71=1,74=-5/1,2,3;
 4//1;
 5/5=2,8=3,13=1,38=5/2,8;
 6/7=2,8=2,9=2,10=2,28=1/1;
 7//1,2,3,16;
 1/18=20,19=15,26=3/3(2);
 2/9=110/2;
 99//99;
 2/9=110/2;
 3/5=4,6=6,7=111,11=2,25=1,30=1,71=1,74=-5/1,2,3;
 4/5=5,16=3,69=1/1;
 5/5=2,8=3,13=1,38=5/2,8;
 7//1,2,3,16;
 1/18=20,19=15,26=3/3(-5);
 2/9=110/2;
 6/7=2,8=2,9=2,10=2,19=2,28=1/1;
 99/9=1/99;
 -------------------
 Title Card Required
 -------------------
 Symbolic Z-matrix:
 Charge =  0 Multiplicity = 1
 C                    -0.23487   1.00187   0.04477 
 C                     1.09751   1.03176  -0.38857 
 C                     1.8054    2.24121  -0.39465 
 C                     1.18091   3.42078   0.03263 
 C                    -0.15147   3.39089   0.46597 
 C                    -0.85936   2.18144   0.47205 
 C                    -1.31273  -0.83966   0.05402 
 C                    -0.68824  -2.01923  -0.37325 
 C                    -1.39613  -3.22868  -0.36718 
 C                    -2.72851  -3.25856   0.06617 
 C                    -3.353    -2.079     0.49345 
 C                    -2.64511  -0.86955   0.48737 
 H                     2.8227    2.26403  -0.72551 
 H                    -0.62828   4.29151   0.79221 
 Cl                   -3.42939   0.61185   1.02398 
 Cl                   -2.53268   2.14391   1.01628 
 Cl                   -5.02632  -2.11653   1.03769 
 Cl                   -3.61754  -4.7775    0.0738 
 Cl                    2.06995   4.93971   0.025 
 Cl                   -0.61185  -4.71008  -0.90379 
 Cl                    0.98508  -1.98169  -0.91749 
 Cl                    1.88179  -0.44964  -0.92518 
 

 GradGradGradGradGradGradGradGradGradGradGradGradGradGradGradGradGradGrad
 Berny optimization.
 Initialization pass.
                           ----------------------------
                           !    Initial Parameters    !
                           ! (Angstroms and Degrees)  !
 --------------------------                            --------------------------
 ! Name  Definition              Value          Derivative Info.                !
 --------------------------------------------------------------------------------
 ! R1    R(1,2)                  1.4014         estimate D2E/DX2                !
 ! R2    R(1,6)                  1.4014         estimate D2E/DX2                !
 ! R3    R(2,3)                  1.4014         estimate D2E/DX2                !
 ! R4    R(2,22)                 1.76           estimate D2E/DX2                !
 ! R5    R(3,4)                  1.4014         estimate D2E/DX2                !
 ! R6    R(3,13)                 1.07           estimate D2E/DX2                !
 ! R7    R(4,5)                  1.4014         estimate D2E/DX2                !
 ! R8    R(4,19)                 1.76           estimate D2E/DX2                !
 ! R9    R(5,6)                  1.4014         estimate D2E/DX2                !
 ! R10   R(5,14)                 1.07           estimate D2E/DX2                !
 ! R11   R(6,16)                 1.76           estimate D2E/DX2                !
 ! R12   R(7,8)                  1.4014         estimate D2E/DX2                !
 ! R13   R(7,12)                 1.4014         estimate D2E/DX2                !
 ! R14   R(8,9)                  1.4014         estimate D2E/DX2                !
 ! R15   R(8,21)                 1.76           estimate D2E/DX2                !
 ! R16   R(9,10)                 1.4014         estimate D2E/DX2                !
 ! R17   R(9,20)                 1.76           estimate D2E/DX2                !
 ! R18   R(10,11)                1.4014         estimate D2E/DX2                !
 ! R19   R(10,18)                1.76           estimate D2E/DX2                !
 ! R20   R(11,12)                1.4014         estimate D2E/DX2                !
 ! R21   R(11,17)                1.76           estimate D2E/DX2                !
 ! R22   R(12,15)                1.76           estimate D2E/DX2                !
 ! R23   R(15,16)                1.7752         estimate D2E/DX2                !
 ! R24   R(21,22)                1.7752         estimate D2E/DX2                !
 ! A1    A(2,1,6)              120.0            estimate D2E/DX2                !
 ! A2    A(1,2,3)              120.0            estimate D2E/DX2                !
 ! A3    A(1,2,22)             120.0            estimate D2E/DX2                !
 ! A4    A(3,2,22)             120.0            estimate D2E/DX2                !
 ! A5    A(2,3,4)              120.0            estimate D2E/DX2                !
 ! A6    A(2,3,13)             120.0            estimate D2E/DX2                !
 ! A7    A(4,3,13)             120.0            estimate D2E/DX2                !
 ! A8    A(3,4,5)              120.0            estimate D2E/DX2                !
 ! A9    A(3,4,19)             120.0            estimate D2E/DX2                !
 ! A10   A(5,4,19)             120.0            estimate D2E/DX2                !
 ! A11   A(4,5,6)              120.0            estimate D2E/DX2                !
 ! A12   A(4,5,14)             120.0            estimate D2E/DX2                !
 ! A13   A(6,5,14)             120.0            estimate D2E/DX2                !
 ! A14   A(1,6,5)              120.0            estimate D2E/DX2                !
 ! A15   A(1,6,16)             120.0            estimate D2E/DX2                !
 ! A16   A(5,6,16)             120.0            estimate D2E/DX2                !
 ! A17   A(8,7,12)             120.0            estimate D2E/DX2                !
 ! A18   A(7,8,9)              120.0            estimate D2E/DX2                !
 ! A19   A(7,8,21)             120.0            estimate D2E/DX2                !
 ! A20   A(9,8,21)             120.0            estimate D2E/DX2                !
 ! A21   A(8,9,10)             120.0            estimate D2E/DX2                !
 ! A22   A(8,9,20)             120.0            estimate D2E/DX2                !
 ! A23   A(10,9,20)            120.0            estimate D2E/DX2                !
 ! A24   A(9,10,11)            120.0            estimate D2E/DX2                !
 ! A25   A(9,10,18)            120.0            estimate D2E/DX2                !
 ! A26   A(11,10,18)           120.0            estimate D2E/DX2                !
 ! A27   A(10,11,12)           120.0            estimate D2E/DX2                !
 ! A28   A(10,11,17)           120.0            estimate D2E/DX2                !
 ! A29   A(12,11,17)           120.0            estimate D2E/DX2                !
 ! A30   A(7,12,11)            120.0            estimate D2E/DX2                !
 ! A31   A(7,12,15)            120.0            estimate D2E/DX2                !
 ! A32   A(11,12,15)           120.0            estimate D2E/DX2                !
 ! A33   A(12,15,16)           120.0            estimate D2E/DX2                !
 ! A34   A(6,16,15)            120.0            estimate D2E/DX2                !
 ! A35   A(8,21,22)            120.0            estimate D2E/DX2                !
 ! A36   A(2,22,21)            120.0            estimate D2E/DX2                !
 ! D1    D(6,1,2,3)              0.0001         estimate D2E/DX2                !
 ! D2    D(6,1,2,22)           180.0            estimate D2E/DX2                !
 ! D3    D(2,1,6,5)             -0.0001         estimate D2E/DX2                !
 ! D4    D(2,1,6,16)           180.0            estimate D2E/DX2                !
 ! D5    D(1,2,3,4)              0.0            estimate D2E/DX2                !
 ! D6    D(1,2,3,13)           180.0            estimate D2E/DX2                !
 ! D7    D(22,2,3,4)          -179.9999         estimate D2E/DX2                !
 ! D8    D(22,2,3,13)            0.0001         estimate D2E/DX2                !
 ! D9    D(1,2,22,21)            0.0002         estimate D2E/DX2                !
 ! D10   D(3,2,22,21)         -179.9999         estimate D2E/DX2                !
 ! D11   D(2,3,4,5)             -0.0001         estimate D2E/DX2                !
 ! D12   D(2,3,4,19)           180.0            estimate D2E/DX2                !
 ! D13   D(13,3,4,5)           179.9999         estimate D2E/DX2                !
 ! D14   D(13,3,4,19)            0.0            estimate D2E/DX2                !
 ! D15   D(3,4,5,6)              0.0001         estimate D2E/DX2                !
 ! D16   D(3,4,5,14)          -179.9999         estimate D2E/DX2                !
 ! D17   D(19,4,5,6)          -180.0            estimate D2E/DX2                !
 ! D18   D(19,4,5,14)            0.0            estimate D2E/DX2                !
 ! D19   D(4,5,6,1)              0.0            estimate D2E/DX2                !
 ! D20   D(4,5,6,16)           179.9999         estimate D2E/DX2                !
 ! D21   D(14,5,6,1)           180.0            estimate D2E/DX2                !
 ! D22   D(14,5,6,16)           -0.0001         estimate D2E/DX2                !
 ! D23   D(1,6,16,15)            0.0004         estimate D2E/DX2                !
 ! D24   D(5,6,16,15)         -179.9996         estimate D2E/DX2                !
 ! D25   D(12,7,8,9)             0.0001         estimate D2E/DX2                !
 ! D26   D(12,7,8,21)         -179.9998         estimate D2E/DX2                !
 ! D27   D(8,7,12,11)           -0.0001         estimate D2E/DX2                !
 ! D28   D(8,7,12,15)          179.9999         estimate D2E/DX2                !
 ! D29   D(7,8,9,10)             0.0            estimate D2E/DX2                !
 ! D30   D(7,8,9,20)           180.0            estimate D2E/DX2                !
 ! D31   D(21,8,9,10)          179.9998         estimate D2E/DX2                !
 ! D32   D(21,8,9,20)           -0.0002         estimate D2E/DX2                !
 ! D33   D(7,8,21,22)            0.0            estimate D2E/DX2                !
 ! D34   D(9,8,21,22)         -179.9998         estimate D2E/DX2                !
 ! D35   D(8,9,10,11)            0.0            estimate D2E/DX2                !
 ! D36   D(8,9,10,18)         -179.9999         estimate D2E/DX2                !
 ! D37   D(20,9,10,11)         180.0            estimate D2E/DX2                !
 ! D38   D(20,9,10,18)           0.0001         estimate D2E/DX2                !
 ! D39   D(9,10,11,12)           0.0            estimate D2E/DX2                !
 ! D40   D(9,10,11,17)        -179.9998         estimate D2E/DX2                !
 ! D41   D(18,10,11,12)        179.9999         estimate D2E/DX2                !
 ! D42   D(18,10,11,17)          0.0001         estimate D2E/DX2                !
 ! D43   D(10,11,12,7)           0.0            estimate D2E/DX2                !
 ! D44   D(10,11,12,15)       -179.9999         estimate D2E/DX2                !
 ! D45   D(17,11,12,7)         179.9999         estimate D2E/DX2                !
 ! D46   D(17,11,12,15)         -0.0001         estimate D2E/DX2                !
 ! D47   D(7,12,15,16)           0.0004         estimate D2E/DX2                !
 ! D48   D(11,12,15,16)       -179.9997         estimate D2E/DX2                !
 ! D49   D(12,15,16,6)          -0.0006         estimate D2E/DX2                !
 ! D50   D(8,21,22,2)           -0.0002         estimate D2E/DX2                !
 --------------------------------------------------------------------------------
 Trust Radius=3.00D-01 FncErr=1.00D-07 GrdErr=1.00D-06 EigMax=2.50D+02 EigMin=1.00D-04
 Number of steps in this run=    120 maximum allowed number of steps=    132.
 GradGradGradGradGradGradGradGradGradGradGradGradGradGradGradGradGradGrad

                          Input orientation:                          
 ---------------------------------------------------------------------
 Center     Atomic      Atomic             Coordinates (Angstroms)
 Number     Number       Type             X           Y           Z
 ---------------------------------------------------------------------
      1          6           0       -0.234873    1.001873    0.044774
      2          6           0        1.097508    1.031759   -0.388573
      3          6           0        1.805402    2.241210   -0.394645
      4          6           0        1.180914    3.420775    0.032630
      5          6           0       -0.151468    3.390890    0.465974
      6          6           0       -0.859361    2.181439    0.472047
      7          6           0       -1.312726   -0.839661    0.054021
      8          6           0       -0.688238   -2.019226   -0.373254
      9          6           0       -1.396131   -3.228678   -0.367180
     10          6           0       -2.728512   -3.258564    0.066170
     11          6           0       -3.352999   -2.078999    0.493445
     12          6           0       -2.645106   -0.869548    0.487371
     13          1           0        2.822704    2.264029   -0.725515
     14          1           0       -0.628278    4.291514    0.792206
     15         17           0       -3.429390    0.611852    1.023983
     16         17           0       -2.532681    2.143906    1.016280
     17         17           0       -5.026316   -2.116534    1.037688
     18         17           0       -3.617544   -4.777499    0.073801
     19         17           0        2.069949    4.939709    0.025004
     20         17           0       -0.611846   -4.710078   -0.903789
     21         17           0        0.985082   -1.981693   -0.917488
     22         17           0        1.881795   -0.449642   -0.925179
 ---------------------------------------------------------------------
                    Distance matrix (angstroms):
                    1          2          3          4          5
     1  C    0.000000
     2  C    1.401400   0.000000
     3  C    2.427296   1.401400   0.000000
     4  C    2.802800   2.427296   1.401400   0.000000
     5  C    2.427296   2.802800   2.427296   1.401400   0.000000
     6  C    1.401400   2.427296   2.802800   2.427296   1.401400
     7  C    2.133800   3.083396   4.406335   4.936600   4.406335
     8  C    3.083396   3.535200   4.936600   5.766463   5.501071
     9  C    4.406335   4.936600   6.338000   7.142565   6.786900
    10  C    4.936600   5.766463   7.142565   7.739400   7.142565
    11  C    4.406335   5.501071   6.786900   7.142565   6.338000
    12  C    3.083396   4.288287   5.501071   5.766463   4.936600
    13  H    3.396345   2.146700   1.070000   2.146700   3.396345
    14  H    3.396345   3.872800   3.396345   2.146700   1.070000
    15  Cl   3.363913   4.760719   5.663070   5.488874   4.333498
    16  Cl   2.743718   4.048303   4.562800   4.048303   2.743718
    17  Cl   5.802437   7.031870   8.228845   8.378642   7.377176
    18  Cl   6.696600   7.496198   8.882008   9.499400   8.882008
    19  Cl   4.562800   4.048303   2.743718   1.760000   2.743718
    20  Cl   5.802437   6.012989   7.377176   8.378642   8.228844
    21  Cl   3.363913   3.061582   4.333498   5.488874   5.663070
    22  Cl   2.743718   1.760000   2.743718   4.048303   4.562800
                    6          7          8          9         10
     6  C    0.000000
     7  C    3.083396   0.000000
     8  C    4.288287   1.401400   0.000000
     9  C    5.501071   2.427296   1.401400   0.000000
    10  C    5.766463   2.802800   2.427296   1.401400   0.000000
    11  C    4.936600   2.427296   2.802800   2.427296   1.401400
    12  C    3.535200   1.401400   2.427296   2.802800   2.427296
    13  H    3.872800   5.228991   5.549512   6.935186   7.870311
    14  H    2.146700   5.228991   6.417736   7.647684   7.870311
    15  Cl   3.061582   2.743718   4.048303   4.562800   4.048303
    16  Cl   1.760000   3.363913   4.760719   5.663070   5.488874
    17  Cl   6.012989   4.048303   4.562800   4.048303   2.743718
    18  Cl   7.496198   4.562800   4.048303   2.743718   1.760000
    19  Cl   4.048303   6.696600   7.496198   8.882008   9.499400
    20  Cl   7.031870   4.048303   2.743718   1.760000   2.743718
    21  Cl   4.760719   2.743718   1.760000   2.743718   4.048303
    22  Cl   4.048303   3.363913   3.061582   4.333498   5.488874
                   11         12         13         14         15
    11  C    0.000000
    12  C    1.401400   0.000000
    13  H    7.647684   6.417736   0.000000
    14  H    6.935186   5.549512   4.280590   0.000000
    15  Cl   2.743718   1.760000   6.699188   4.630320   0.000000
    16  Cl   4.333498   3.061582   5.632800   2.879094   1.775200
    17  Cl   1.760000   2.743718   9.159986   7.775994   3.161400
    18  Cl   2.743718   4.048303   9.575950   9.575950   5.475705
    19  Cl   8.882008   7.496198   2.879094   2.879094   7.069020
    20  Cl   4.048303   4.562800   7.775994   9.159986   6.322800
    21  Cl   4.562800   4.048303   4.630320   6.699188   5.475705
    22  Cl   5.663070   4.760719   2.879094   5.632800   5.756274
                   16         17         18         19         20
    16  Cl   0.000000
    17  Cl   4.936600   0.000000
    18  Cl   7.069020   3.161400   0.000000
    19  Cl   5.475705  10.058483  11.259400   0.000000
    20  Cl   7.372474   5.475705   3.161400  10.058483   0.000000
    21  Cl   5.756274   6.322800   5.475705   7.069020   3.161400
    22  Cl   5.475705   7.372474   7.069020   5.475705   4.936600
                   21         22
    21  Cl   0.000000
    22  Cl   1.775200   0.000000
 Stoichiometry    C12H2Cl8
 Framework group  C1[X(C12H2Cl8)]
 Deg. of freedom    60
 Full point group                 C1      NOp   1
 Largest Abelian subgroup         C1      NOp   1
 Largest concise Abelian subgroup C1      NOp   1
                         Standard orientation:                         
 ---------------------------------------------------------------------
 Center     Atomic      Atomic             Coordinates (Angstroms)
 Number     Number       Type             X           Y           Z
 ---------------------------------------------------------------------
      1          6           0        1.687176    0.000000    0.000002
      2          6           0        2.387876    1.213648    0.000000
      3          6           0        3.789276    1.213648   -0.000001
      4          6           0        4.489976    0.000000   -0.000002
      5          6           0        3.789276   -1.213648    0.000003
      6          6           0        2.387876   -1.213648    0.000004
      7          6           0       -0.446624    0.000000    0.000003
      8          6           0       -1.147324    1.213648    0.000003
      9          6           0       -2.548724    1.213648    0.000003
     10          6           0       -3.249424    0.000000    0.000001
     11          6           0       -2.548724   -1.213648    0.000000
     12          6           0       -1.147324   -1.213648    0.000001
     13          1           0        4.324276    2.140295   -0.000003
     14          1           0        4.324276   -2.140295    0.000005
     15         17           0       -0.267324   -2.737853   -0.000002
     16         17           0        1.507876   -2.737853    0.000007
     17         17           0       -3.428724   -2.737853   -0.000006
     18         17           0       -5.009424    0.000000   -0.000002
     19         17           0        6.249976    0.000000   -0.000004
     20         17           0       -3.428724    2.737853    0.000003
     21         17           0       -0.267324    2.737853    0.000001
     22         17           0        1.507876    2.737853   -0.000003
 ---------------------------------------------------------------------
 Rotational constants (GHZ):           0.2932520           0.1164148           0.0833333
 Standard basis: 6-311+G(d,p) (5D, 7F)
 There are   536 symmetry adapted cartesian basis functions of A   symmetry.
 There are   516 symmetry adapted basis functions of A   symmetry.
   516 basis functions,   872 primitive gaussians,   536 cartesian basis functions
   105 alpha electrons      105 beta electrons
       nuclear repulsion energy      2740.6728940964 Hartrees.
 NAtoms=   22 NActive=   22 NUniq=   22 SFac= 1.00D+00 NAtFMM=   60 NAOKFM=F Big=F
 Integral buffers will be    131072 words long.
 Raffenetti 2 integral format.
 Two-electron integral symmetry is turned on.
 One-electron integrals computed using PRISM.
 NBasis=   516 RedAO= T EigKep=  1.36D-06  NBF=   516
 NBsUse=   509 1.00D-06 EigRej=  6.09D-07 NBFU=   509
 ExpMin= 4.38D-02 ExpMax= 1.06D+05 ExpMxC= 3.62D+03 IAcc=3 IRadAn=         5 AccDes= 0.00D+00
 Harris functional with IExCor=  402 and IRadAn=       5 diagonalized for initial guess.
 HarFok:  IExCor=  402 AccDes= 0.00D+00 IRadAn=         5 IDoV= 1 UseB2=F ITyADJ=14
 ICtDFT=  3500011 ScaDFX=  1.000000  1.000000  1.000000  1.000000
 FoFCou: FMM=F IPFlag=           0 FMFlag=      100000 FMFlg1=           0
         NFxFlg=           0 DoJE=T BraDBF=F KetDBF=T FulRan=T
         wScrn=  0.000000 ICntrl=       500 IOpCl=  0 I1Cent=   200000004 NGrid=           0
         NMat0=    1 NMatS0=      1 NMatT0=    0 NMatD0=    1 NMtDS0=    0 NMtDT0=    0
 Petite list used in FoFCou.
 Requested convergence on RMS density matrix=1.00D-08 within  32 cycles.
 Requested convergence on MAX density matrix=1.00D-06.
 Requested convergence on             energy=1.00D-06.
 No special actions if energy rises.
 EnCoef did     3 forward-backward iterations
 EnCoef did   100 forward-backward iterations
 Restarting incremental Fock formation.
 SCF Done:  E(RB3LYP) =  -4139.52265227     A.U. after   24 cycles
            NFock= 24  Conv=0.73D-08     -V/T= 2.0017
 QCSCF skips out because SCF is already converged.

 **********************************************************************

            Population analysis using the SCF Density.

 **********************************************************************

 Orbital symmetries:
       Occupied  (A) (A) (A) (A) (A) (A) (A) (A) (A) (A) (A) (A)
                 (A) (A) (A) (A) (A) (A) (A) (A) (A) (A) (A) (A)
                 (A) (A) (A) (A) (A) (A) (A) (A) (A) (A) (A) (A)
                 (A) (A) (A) (A) (A) (A) (A) (A) (A) (A) (A) (A)
                 (A) (A) (A) (A) (A) (A) (A) (A) (A) (A) (A) (A)
                 (A) (A) (A) (A) (A) (A) (A) (A) (A) (A) (A) (A)
                 (A) (A) (A) (A) (A) (A) (A) (A) (A) (A) (A) (A)
                 (A) (A) (A) (A) (A) (A) (A) (A) (A) (A) (A) (A)
                 (A) (A) (A) (A) (A) (A) (A) (A) (A)
       Virtual   (A) (A) (A) (A) (A) (A) (A) (A) (A) (A) (A) (A)
                 (A) (A) (A) (A) (A) (A) (A) (A) (A) (A) (A) (A)
                 (A) (A) (A) (A) (A) (A) (A) (A) (A) (A) (A) (A)
                 (A) (A) (A) (A) (A) (A) (A) (A) (A) (A) (A) (A)
                 (A) (A) (A) (A) (A) (A) (A) (A) (A) (A) (A) (A)
                 (A) (A) (A) (A) (A) (A) (A) (A) (A) (A) (A) (A)
                 (A) (A) (A) (A) (A) (A) (A) (A) (A) (A) (A) (A)
                 (A) (A) (A) (A) (A) (A) (A) (A) (A) (A) (A) (A)
                 (A) (A) (A) (A) (A) (A) (A) (A) (A) (A) (A) (A)
                 (A) (A) (A) (A) (A) (A) (A) (A) (A) (A) (A) (A)
                 (A) (A) (A) (A) (A) (A) (A) (A) (A) (A) (A) (A)
                 (A) (A) (A) (A) (A) (A) (A) (A) (A) (A) (A) (A)
                 (A) (A) (A) (A) (A) (A) (A) (A) (A) (A) (A) (A)
                 (A) (A) (A) (A) (A) (A) (A) (A) (A) (A) (A) (A)
                 (A) (A) (A) (A) (A) (A) (A) (A) (A) (A) (A) (A)
                 (A) (A) (A) (A) (A) (A) (A) (A) (A) (A) (A) (A)
                 (A) (A) (A) (A) (A) (A) (A) (A) (A) (A) (A) (A)
                 (A) (A) (A) (A) (A) (A) (A) (A) (A) (A) (A) (A)
                 (A) (A) (A) (A) (A) (A) (A) (A) (A) (A) (A) (A)
                 (A) (A) (A) (A) (A) (A) (A) (A) (A) (A) (A) (A)
                 (A) (A) (A) (A) (A) (A) (A) (A) (A) (A) (A) (A)
                 (A) (A) (A) (A) (A) (A) (A) (A) (A) (A) (A) (A)
                 (A) (A) (A) (A) (A) (A) (A) (A) (A) (A) (A) (A)
                 (A) (A) (A) (A) (A) (A) (A) (A) (A) (A) (A) (A)
                 (A) (A) (A) (A) (A) (A) (A) (A) (A) (A) (A) (A)
                 (A) (A) (A) (A) (A) (A) (A) (A) (A) (A) (A) (A)
                 (A) (A) (A) (A) (A) (A) (A) (A) (A) (A) (A) (A)
                 (A) (A) (A) (A) (A) (A) (A) (A) (A) (A) (A) (A)
                 (A) (A) (A) (A) (A) (A) (A) (A) (A) (A) (A) (A)
                 (A) (A) (A) (A) (A) (A) (A) (A) (A) (A) (A) (A)
                 (A) (A) (A) (A) (A) (A) (A) (A) (A) (A) (A) (A)
                 (A) (A) (A) (A) (A) (A) (A) (A) (A) (A) (A) (A)
                 (A) (A) (A) (A) (A) (A) (A) (A) (A) (A) (A) (A)
                 (A) (A) (A) (A) (A) (A) (A) (A)
 The electronic state is 1-A.
 Alpha  occ. eigenvalues -- -101.60047-101.60047-101.59525-101.59525-101.57906
 Alpha  occ. eigenvalues -- -101.56974-101.56974-101.56810 -10.28283 -10.28282
 Alpha  occ. eigenvalues --  -10.27961 -10.27959 -10.27594 -10.27320 -10.27240
 Alpha  occ. eigenvalues --  -10.27239 -10.24645 -10.24410 -10.22787 -10.22786
 Alpha  occ. eigenvalues --   -9.52501  -9.52500  -9.52040  -9.52040  -9.49319
 Alpha  occ. eigenvalues --   -9.48442  -9.48441  -9.48256  -7.29013  -7.29013
 Alpha  occ. eigenvalues --   -7.28641  -7.28641  -7.27945  -7.27945  -7.27609
 Alpha  occ. eigenvalues --   -7.27609  -7.27402  -7.27402  -7.27105  -7.27105
 Alpha  occ. eigenvalues --   -7.25804  -7.24930  -7.24930  -7.24794  -7.24758
 Alpha  occ. eigenvalues --   -7.24755  -7.23929  -7.23929  -7.23847  -7.23847
 Alpha  occ. eigenvalues --   -7.23745  -7.23654  -1.05352  -1.05208  -0.94974
 Alpha  occ. eigenvalues --   -0.92920  -0.90326  -0.88921  -0.87255  -0.86845
 Alpha  occ. eigenvalues --   -0.85150  -0.81910  -0.79625  -0.77105  -0.74375
 Alpha  occ. eigenvalues --   -0.74099  -0.67242  -0.66954  -0.61945  -0.61471
 Alpha  occ. eigenvalues --   -0.59537  -0.56636  -0.54235  -0.52473  -0.52469
 Alpha  occ. eigenvalues --   -0.50493  -0.49199  -0.49063  -0.48161  -0.46707
 Alpha  occ. eigenvalues --   -0.46349  -0.45178  -0.45153  -0.45083  -0.43584
 Alpha  occ. eigenvalues --   -0.42996  -0.42806  -0.39771  -0.39162  -0.37852
 Alpha  occ. eigenvalues --   -0.36497  -0.35707  -0.35513  -0.34924  -0.34305
 Alpha  occ. eigenvalues --   -0.34202  -0.33334  -0.31282  -0.30963  -0.29310
 Alpha  occ. eigenvalues --   -0.28416  -0.26027  -0.25647  -0.15695  -0.14034
 Alpha virt. eigenvalues --   -0.09358  -0.07467  -0.07092  -0.07029  -0.05928
 Alpha virt. eigenvalues --   -0.05188  -0.03663  -0.02430  -0.01340  -0.00378
 Alpha virt. eigenvalues --   -0.00069   0.00614   0.01601   0.02383   0.02842
 Alpha virt. eigenvalues --    0.02918   0.03182   0.03693   0.05071   0.05173
 Alpha virt. eigenvalues --    0.05503   0.05559   0.05802   0.06380   0.07197
 Alpha virt. eigenvalues --    0.07296   0.07397   0.07980   0.08190   0.08345
 Alpha virt. eigenvalues --    0.08652   0.08916   0.08977   0.09590   0.10016
 Alpha virt. eigenvalues --    0.10360   0.10699   0.10701   0.11180   0.11745
 Alpha virt. eigenvalues --    0.11949   0.12018   0.12996   0.13118   0.13195
 Alpha virt. eigenvalues --    0.14028   0.14056   0.14987   0.15128   0.15133
 Alpha virt. eigenvalues --    0.15216   0.15243   0.15648   0.15922   0.16965
 Alpha virt. eigenvalues --    0.17280   0.17547   0.17618   0.18239   0.18836
 Alpha virt. eigenvalues --    0.19534   0.19989   0.20085   0.20494   0.20510
 Alpha virt. eigenvalues --    0.21055   0.22132   0.22134   0.22314   0.22560
 Alpha virt. eigenvalues --    0.22800   0.22815   0.23318   0.23390   0.24552
 Alpha virt. eigenvalues --    0.24624   0.25401   0.26324   0.26362   0.26628
 Alpha virt. eigenvalues --    0.27090   0.27169   0.27804   0.28104   0.29018
 Alpha virt. eigenvalues --    0.29632   0.29862   0.30346   0.31149   0.31356
 Alpha virt. eigenvalues --    0.31457   0.31975   0.32310   0.33270   0.33948
 Alpha virt. eigenvalues --    0.34010   0.36219   0.38580   0.39407   0.39733
 Alpha virt. eigenvalues --    0.41051   0.41621   0.42476   0.42847   0.42923
 Alpha virt. eigenvalues --    0.43002   0.43099   0.44020   0.44332   0.44663
 Alpha virt. eigenvalues --    0.44861   0.44957   0.45470   0.46331   0.46635
 Alpha virt. eigenvalues --    0.47201   0.47619   0.48101   0.48964   0.49476
 Alpha virt. eigenvalues --    0.49477   0.50126   0.50655   0.51402   0.51762
 Alpha virt. eigenvalues --    0.51915   0.53083   0.54515   0.54873   0.54977
 Alpha virt. eigenvalues --    0.57072   0.57595   0.57675   0.58465   0.58588
 Alpha virt. eigenvalues --    0.58655   0.59370   0.60681   0.61139   0.61171
 Alpha virt. eigenvalues --    0.61527   0.61697   0.63174   0.63398   0.63621
 Alpha virt. eigenvalues --    0.65583   0.66395   0.67126   0.67852   0.67920
 Alpha virt. eigenvalues --    0.70112   0.71273   0.72971   0.74893   0.76659
 Alpha virt. eigenvalues --    0.77256   0.77707   0.77894   0.79326   0.81344
 Alpha virt. eigenvalues --    0.81401   0.82061   0.82211   0.82359   0.82841
 Alpha virt. eigenvalues --    0.83629   0.83656   0.84172   0.84247   0.84519
 Alpha virt. eigenvalues --    0.84855   0.84987   0.85222   0.85365   0.87078
 Alpha virt. eigenvalues --    0.87218   0.88299   0.88543   0.88735   0.88883
 Alpha virt. eigenvalues --    0.89254   0.90966   0.91598   0.91621   0.92550
 Alpha virt. eigenvalues --    0.93085   0.93978   0.95041   0.95178   0.95220
 Alpha virt. eigenvalues --    0.95405   0.95482   0.95810   0.96611   0.96670
 Alpha virt. eigenvalues --    0.98169   0.98258   0.99785   1.00494   1.02148
 Alpha virt. eigenvalues --    1.02243   1.02550   1.03021   1.03351   1.05072
 Alpha virt. eigenvalues --    1.05975   1.07254   1.10255   1.12574   1.13221
 Alpha virt. eigenvalues --    1.15727   1.16593   1.17024   1.18946   1.19956
 Alpha virt. eigenvalues --    1.21132   1.21244   1.22241   1.22245   1.24827
 Alpha virt. eigenvalues --    1.25038   1.26207   1.26289   1.26414   1.27578
 Alpha virt. eigenvalues --    1.28370   1.28579   1.28686   1.29033   1.29489
 Alpha virt. eigenvalues --    1.29884   1.34371   1.35533   1.46151   1.47465
 Alpha virt. eigenvalues --    1.49273   1.49273   1.50465   1.51733   1.54780
 Alpha virt. eigenvalues --    1.55094   1.57634   1.58773   1.59797   1.61768
 Alpha virt. eigenvalues --    1.64460   1.67047   1.68395   1.69107   1.75068
 Alpha virt. eigenvalues --    1.75111   1.75209   1.76658   1.80650   1.81101
 Alpha virt. eigenvalues --    1.82625   1.82669   1.85524   1.85569   1.85686
 Alpha virt. eigenvalues --    1.86483   1.87232   1.89637   1.92489   1.94382
 Alpha virt. eigenvalues --    1.94465   1.94732   2.03865   2.05322   2.07374
 Alpha virt. eigenvalues --    2.08228   2.13017   2.16359   2.18286   2.19272
 Alpha virt. eigenvalues --    2.21502   2.21822   2.23019   2.24144   2.24627
 Alpha virt. eigenvalues --    2.24871   2.26009   2.26225   2.27872   2.28559
 Alpha virt. eigenvalues --    2.30868   2.31102   2.31513   2.33576   2.33826
 Alpha virt. eigenvalues --    2.33928   2.39126   2.39379   2.42805   2.43146
 Alpha virt. eigenvalues --    2.43892   2.46062   2.49804   2.51000   2.51396
 Alpha virt. eigenvalues --    2.52011   2.53957   2.56884   2.57655   2.58605
 Alpha virt. eigenvalues --    2.59921   2.60300   2.60731   2.63127   2.64937
 Alpha virt. eigenvalues --    2.64979   2.68216   2.70403   2.73234   2.73422
 Alpha virt. eigenvalues --    2.73567   2.75125   2.75922   2.76486   2.76516
 Alpha virt. eigenvalues --    2.83163   2.85457   2.86042   2.87919   2.88228
 Alpha virt. eigenvalues --    3.03646   3.05543   3.07380   3.08888   3.09354
 Alpha virt. eigenvalues --    3.12053   3.13966   3.14407   3.21131   3.22447
 Alpha virt. eigenvalues --    3.24960   3.27815   3.30111   3.33568   3.39833
 Alpha virt. eigenvalues --    3.50472   3.51939   3.62238   3.70049   3.71664
 Alpha virt. eigenvalues --    3.78028   3.87540   3.90778   4.01756   4.09039
 Alpha virt. eigenvalues --    4.78639   4.80902   9.69312   9.76046   9.76957
 Alpha virt. eigenvalues --    9.78717   9.80983   9.81472   9.92860   9.93552
 Alpha virt. eigenvalues --   23.22327  23.36087  23.77905  23.78916  23.80629
 Alpha virt. eigenvalues --   23.83754  23.93211  23.93226  23.96549  24.00025
 Alpha virt. eigenvalues --   24.00447  24.05916  25.74298  25.75790  25.77872
 Alpha virt. eigenvalues --   25.80706  25.81971  25.87888  25.98025  26.01086
 Alpha virt. eigenvalues --   26.09021  26.10808  26.10895  26.18857  26.23652
 Alpha virt. eigenvalues --   26.37644  26.44753  26.54644  26.57003  26.58963
 Alpha virt. eigenvalues --   26.79152  26.90962  26.91068  27.07713  27.16973
 Alpha virt. eigenvalues --   27.18315 215.69169 215.75286 215.77734 215.79576
 Alpha virt. eigenvalues --  215.81912 215.82539 215.98130 215.98694
          Condensed to atoms (all electrons):
               1          2          3          4          5          6
     1  C   34.017928  -1.783217  -7.463839   3.756567  -7.463841  -1.783217
     2  C   -1.783217  21.652161   1.256070  -4.187972  -0.023552  -2.813254
     3  C   -7.463839   1.256070  24.347462  -3.141005  -9.085790  -0.023553
     4  C    3.756567  -4.187972  -3.141005  23.224449  -3.141006  -4.187971
     5  C   -7.463841  -0.023552  -9.085790  -3.141006  24.347464   1.256070
     6  C   -1.783217  -2.813254  -0.023553  -4.187971   1.256070  21.652160
     7  C    9.065855  -3.176174  -2.816689   1.156168  -2.816689  -3.176174
     8  C   -4.631893  -2.552124   0.209179  -0.807323   0.272270  -1.070391
     9  C   -3.442592  -0.110841   0.095720  -0.033565  -0.105228   1.058524
    10  C    1.664363   0.094202   0.226475  -0.111534   0.226475   0.094201
    11  C   -3.442592   1.058524  -0.105228  -0.033565   0.095720  -0.110841
    12  C   -4.631893  -1.070391   0.272270  -0.807323   0.209179  -2.552124
    13  H   -0.026647  -0.049001   0.342585  -0.063015   0.046634   0.032308
    14  H   -0.026647   0.032308   0.046634  -0.063015   0.342585  -0.049001
    15  Cl   2.380500   0.967907  -0.428532   1.504560  -1.706274   8.147670
    16  Cl  -5.504053  -2.491399   0.115183  -3.889041   3.844684  -7.667113
    17  Cl  -0.183746  -0.025939  -0.004079  -0.004136  -0.025302  -0.117597
    18  Cl  -0.040614  -0.000371  -0.001073  -0.000717  -0.001073  -0.000371
    19  Cl  -0.118953   0.002158   0.381542  -1.461595   0.381542   0.002158
    20  Cl  -0.183746  -0.117597  -0.025302  -0.004136  -0.004079  -0.025939
    21  Cl   2.380500   8.147670  -1.706274   1.504560  -0.428533   0.967907
    22  Cl  -5.504053  -7.667112   3.844684  -3.889040   0.115183  -2.491399
               7          8          9         10         11         12
     1  C    9.065855  -4.631893  -3.442592   1.664363  -3.442592  -4.631893
     2  C   -3.176174  -2.552124  -0.110841   0.094202   1.058524  -1.070391
     3  C   -2.816689   0.209179   0.095720   0.226475  -0.105228   0.272270
     4  C    1.156168  -0.807323  -0.033565  -0.111534  -0.033565  -0.807323
     5  C   -2.816689   0.272270  -0.105228   0.226475   0.095720   0.209179
     6  C   -3.176174  -1.070391   1.058524   0.094201  -0.110841  -2.552124
     7  C   32.123945  -4.631582  -8.340876  12.153820  -8.340875  -4.631583
     8  C   -4.631582  26.410518  -3.643954  -6.773064   6.407088   1.771946
     9  C   -8.340876  -3.643954  22.696506  -8.327217  -2.926102   6.407090
    10  C   12.153820  -6.773064  -8.327217  28.564383  -8.327212  -6.773067
    11  C   -8.340875   6.407088  -2.926102  -8.327212  22.696503  -3.643955
    12  C   -4.631583   1.771946   6.407090  -6.773067  -3.643955  26.410521
    13  H   -0.002781   0.007816  -0.000399   0.000209   0.000245   0.000213
    14  H   -0.002781   0.000213   0.000245   0.000209  -0.000399   0.007816
    15  Cl  -5.372882  -2.665077   0.888291  -4.291777   4.691237 -13.630266
    16  Cl   1.354776   0.753265  -0.378588   1.641184  -1.469354  10.174241
    17  Cl  -0.882887   1.096109   0.037137  -0.405826  -0.803688   0.909769
    18  Cl   0.168266  -0.448689   0.055430  -0.147587   0.055430  -0.448689
    19  Cl  -0.050591  -0.007750  -0.001416  -0.000264  -0.001416  -0.007750
    20  Cl  -0.882887   0.909769  -0.803688  -0.405827   0.037137   1.096109
    21  Cl  -5.372882 -13.630267   4.691237  -4.291776   0.888290  -2.665078
    22  Cl   1.354776  10.174241  -1.469354   1.641184  -0.378588   0.753265
              13         14         15         16         17         18
     1  C   -0.026647  -0.026647   2.380500  -5.504053  -0.183746  -0.040614
     2  C   -0.049001   0.032308   0.967907  -2.491399  -0.025939  -0.000371
     3  C    0.342585   0.046634  -0.428532   0.115183  -0.004079  -0.001073
     4  C   -0.063015  -0.063015   1.504560  -3.889041  -0.004136  -0.000717
     5  C    0.046634   0.342585  -1.706274   3.844684  -0.025302  -0.001073
     6  C    0.032308  -0.049001   8.147670  -7.667113  -0.117597  -0.000371
     7  C   -0.002781  -0.002781  -5.372882   1.354776  -0.882887   0.168266
     8  C    0.007816   0.000213  -2.665077   0.753265   1.096109  -0.448689
     9  C   -0.000399   0.000245   0.888291  -0.378588   0.037137   0.055430
    10  C    0.000209   0.000209  -4.291777   1.641184  -0.405826  -0.147587
    11  C    0.000245  -0.000399   4.691237  -1.469354  -0.803688   0.055430
    12  C    0.000213   0.007816 -13.630266  10.174241   0.909769  -0.448689
    13  H    0.500186  -0.000082  -0.002082   0.008110   0.000000  -0.000000
    14  H   -0.000082   0.500186  -0.021943   0.067273   0.000002  -0.000000
    15  Cl  -0.002082  -0.021943  58.532677 -31.545545  -1.180987   0.076332
    16  Cl   0.008110   0.067273 -31.545545  51.123440   0.015518  -0.018460
    17  Cl   0.000000   0.000002  -1.180987   0.015518  18.120865  -0.282283
    18  Cl  -0.000000  -0.000000   0.076332  -0.018460  -0.282283  17.624487
    19  Cl  -0.006243  -0.006243  -0.014458   0.027426  -0.000023  -0.000006
    20  Cl   0.000002   0.000000   0.188597  -0.035952  -0.050115  -0.282283
    21  Cl  -0.021943  -0.002082  -1.767367   1.039895   0.188597   0.076332
    22  Cl   0.067273   0.008110   1.039895  -1.431184  -0.035952  -0.018460
              19         20         21         22
     1  C   -0.118953  -0.183746   2.380500  -5.504053
     2  C    0.002158  -0.117597   8.147670  -7.667112
     3  C    0.381542  -0.025302  -1.706274   3.844684
     4  C   -1.461595  -0.004136   1.504560  -3.889040
     5  C    0.381542  -0.004079  -0.428533   0.115183
     6  C    0.002158  -0.025939   0.967907  -2.491399
     7  C   -0.050591  -0.882887  -5.372882   1.354776
     8  C   -0.007750   0.909769 -13.630267  10.174241
     9  C   -0.001416  -0.803688   4.691237  -1.469354
    10  C   -0.000264  -0.405827  -4.291776   1.641184
    11  C   -0.001416   0.037137   0.888290  -0.378588
    12  C   -0.007750   1.096109  -2.665078   0.753265
    13  H   -0.006243   0.000002  -0.021943   0.067273
    14  H   -0.006243   0.000000  -0.002082   0.008110
    15  Cl  -0.014458   0.188597  -1.767367   1.039895
    16  Cl   0.027426  -0.035952   1.039895  -1.431184
    17  Cl  -0.000023  -0.050115   0.188597  -0.035952
    18  Cl  -0.000006  -0.282283   0.076332  -0.018460
    19  Cl  17.420495  -0.000023  -0.014458   0.027426
    20  Cl  -0.000023  18.120865  -1.180988   0.015519
    21  Cl  -0.014458  -1.180988  58.532678 -31.545545
    22  Cl   0.027426   0.015519 -31.545545  51.123439
 Mulliken charges:
               1
     1  C   -1.034171
     2  C   -1.142054
     3  C   -0.336439
     4  C    0.679658
     5  C   -0.336439
     6  C   -1.142054
     7  C   -0.879271
     8  C   -1.150300
     9  C   -0.346358
    10  C   -0.451552
    11  C   -0.346358
    12  C   -1.150300
    13  H    0.166612
    14  H    0.166612
    15  Cl   1.209526
    16  Cl   1.265694
    17  Cl   0.634565
    18  Cl   0.634402
    19  Cl   0.448444
    20  Cl   0.634565
    21  Cl   1.209526
    22  Cl   1.265694
 Sum of Mulliken charges =  -0.00000
 Mulliken charges with hydrogens summed into heavy atoms:
               1
     1  C   -1.034171
     2  C   -1.142054
     3  C   -0.169827
     4  C    0.679658
     5  C   -0.169827
     6  C   -1.142054
     7  C   -0.879271
     8  C   -1.150300
     9  C   -0.346358
    10  C   -0.451552
    11  C   -0.346358
    12  C   -1.150300
    15  Cl   1.209526
    16  Cl   1.265694
    17  Cl   0.634565
    18  Cl   0.634402
    19  Cl   0.448444
    20  Cl   0.634565
    21  Cl   1.209526
    22  Cl   1.265694
 Electronic spatial extent (au):  <R**2>=          11058.7297
 Charge=             -0.0000 electrons
 Dipole moment (field-independent basis, Debye):
    X=              2.7395    Y=              0.0000    Z=              0.0000  Tot=              2.7395
 Quadrupole moment (field-independent basis, Debye-Ang):
   XX=           -182.4747   YY=           -164.7442   ZZ=           -170.3478
   XY=              0.0000   XZ=             -0.0000   YZ=             -0.0000
 Traceless Quadrupole moment (field-independent basis, Debye-Ang):
   XX=             -9.9525   YY=              7.7780   ZZ=              2.1745
   XY=              0.0000   XZ=             -0.0000   YZ=             -0.0000
 Octapole moment (field-independent basis, Debye-Ang**2):
  XXX=             -2.7839  YYY=              0.0000  ZZZ=             -0.0001  XYY=             11.7081
  XXY=              0.0000  XXZ=             -0.0000  XZZ=             -8.5270  YZZ=             -0.0000
  YYZ=             -0.0000  XYZ=              0.0001
 Hexadecapole moment (field-independent basis, Debye-Ang**3):
 XXXX=         -10530.5674 YYYY=          -3907.4459 ZZZZ=           -198.5007 XXXY=             -0.0000
 XXXZ=              0.0002 YYYX=             -0.0000 YYYZ=              0.0001 ZZZX=             -0.0000
 ZZZY=              0.0000 XXYY=          -2388.1207 XXZZ=          -1798.5587 YYZZ=           -708.4071
 XXYZ=              0.0001 YYXZ=             -0.0001 ZZXY=             -0.0000
 N-N= 2.740672894096D+03 E-N=-1.529510706903D+04  KE= 4.132291669668D+03
 Calling FoFJK, ICntrl=      2127 FMM=F ISym2X=0 I1Cent= 0 IOpClX= 0 NMat=1 NMatS=1 NMatT=0.
 ***** Axes restored to original set *****
 -------------------------------------------------------------------
 Center     Atomic                   Forces (Hartrees/Bohr)
 Number     Number              X              Y              Z
 -------------------------------------------------------------------
      1        6          -0.011141201   -0.019034978    0.000095567
      2        6          -0.017913540    0.038557172    0.013143137
      3        6          -0.002511155    0.002860706    0.001364636
      4        6          -0.007470170   -0.012762826    0.000063928
      5        6           0.003717993   -0.000798972   -0.001374758
      6        6           0.042332047    0.003162310   -0.013352536
      7        6           0.002391741    0.004086349   -0.000020519
      8        6          -0.056244643   -0.016410461    0.015448135
      9        6           0.000645538    0.004101710    0.000557684
     10        6          -0.003283863   -0.005610584    0.000028223
     11        6           0.003257703    0.002567034   -0.000591137
     12        6           0.013166217   -0.057190005   -0.015078513
     13        1           0.007130074    0.001853730   -0.002000895
     14        1          -0.001866451    0.007139273    0.001955749
     15       17          -0.219695773   -0.370534645    0.002793271
     16       17           0.211849972    0.411181807    0.007425326
     17       17           0.002163317   -0.003807632   -0.001427903
     18       17           0.001278354    0.002184121   -0.000011001
     19       17          -0.002670235   -0.004562151    0.000022903
     20       17          -0.004372948    0.000032489    0.001446776
     21       17          -0.215496322   -0.373001880    0.000942168
     22       17           0.254733347    0.385987434   -0.011430242
 -------------------------------------------------------------------
 Cartesian Forces:  Max     0.411181807 RMS     0.110883938

 GradGradGradGradGradGradGradGradGradGradGradGradGradGradGradGradGradGrad
 Berny optimization.
 FormGI is forming the generalized inverse of G from B-inverse, IUseBI=4.
 Internal  Forces:  Max     0.471352413 RMS     0.064400527
 Search for a local minimum.
 Step number   1 out of a maximum of  120
 All quantities printed in internal units (Hartrees-Bohrs-Radians)
 Mixed Optimization -- RFO/linear search
 Second derivative matrix not updated -- first step.
 ITU=  0
     Eigenvalues ---    0.00238   0.00582   0.01203   0.01569   0.01638
     Eigenvalues ---    0.01713   0.01775   0.01884   0.02070   0.02070
     Eigenvalues ---    0.02070   0.02070   0.02070   0.02070   0.02070
     Eigenvalues ---    0.02070   0.02070   0.02092   0.02257   0.16000
     Eigenvalues ---    0.16000   0.23489   0.23508   0.25000   0.25000
     Eigenvalues ---    0.25000   0.25000   0.25000   0.25000   0.25000
     Eigenvalues ---    0.25000   0.25000   0.25000   0.25000   0.25000
     Eigenvalues ---    0.25000   0.29151   0.29501   0.29539   0.29539
     Eigenvalues ---    0.29539   0.29539   0.29539   0.29539   0.37230
     Eigenvalues ---    0.37230   0.40106   0.41551   0.41630   0.41794
     Eigenvalues ---    0.44966   0.45248   0.45389   0.45389   0.45389
     Eigenvalues ---    0.45389   0.45389   0.45389   0.80498   0.81410
 RFO step:  Lambda=-3.87512942D-01 EMin= 2.37799058D-03
 Linear search not attempted -- first point.
 Maximum step size (   0.300) exceeded in Quadratic search.
    -- Step size scaled by   0.519
 Iteration  1 RMS(Cart)=  0.06224195 RMS(Int)=  0.00049517
 Iteration  2 RMS(Cart)=  0.00081235 RMS(Int)=  0.00001573
 Iteration  3 RMS(Cart)=  0.00000009 RMS(Int)=  0.00001573
 Variable       Old X    -DE/DX   Delta X   Delta X   Delta X     New X
                                 (Linear)    (Quad)   (Total)
    R1        2.64826  -0.00703   0.00000  -0.00417  -0.00414   2.64413
    R2        2.64826  -0.00703   0.00000  -0.00417  -0.00414   2.64413
    R3        2.64826  -0.00363   0.00000  -0.00224  -0.00224   2.64602
    R4        3.32592   0.01638   0.00000   0.01258   0.01260   3.33852
    R5        2.64826  -0.01172   0.00000  -0.00728  -0.00729   2.64097
    R6        2.02201   0.00744   0.00000   0.00508   0.00508   2.02709
    R7        2.64826  -0.01172   0.00000  -0.00728  -0.00729   2.64097
    R8        3.32592  -0.00529   0.00000  -0.00402  -0.00402   3.32190
    R9        2.64826  -0.00363   0.00000  -0.00224  -0.00224   2.64602
   R10        2.02201   0.00744   0.00000   0.00508   0.00508   2.02709
   R11        3.32592   0.01638   0.00000   0.01258   0.01260   3.33852
   R12        2.64826  -0.02333   0.00000  -0.01479  -0.01482   2.63344
   R13        2.64826  -0.02333   0.00000  -0.01479  -0.01482   2.63344
   R14        2.64826   0.00031   0.00000   0.00019   0.00019   2.64845
   R15        3.32592   0.03395   0.00000   0.02566   0.02564   3.35155
   R16        2.64826  -0.00303   0.00000  -0.00157  -0.00156   2.64670
   R17        3.32592  -0.00242   0.00000  -0.00184  -0.00184   3.32408
   R18        2.64826  -0.00303   0.00000  -0.00157  -0.00156   2.64670
   R19        3.32592  -0.00253   0.00000  -0.00192  -0.00192   3.32400
   R20        2.64826   0.00031   0.00000   0.00019   0.00019   2.64845
   R21        3.32592  -0.00242   0.00000  -0.00184  -0.00184   3.32408
   R22        3.32592   0.03395   0.00000   0.02566   0.02564   3.35155
   R23        3.35464   0.47135   0.00000   0.20351   0.20351   3.55815
   R24        3.35464   0.47135   0.00000   0.20351   0.20351   3.55815
    A1        2.09440  -0.01867   0.00000  -0.01497  -0.01497   2.07943
    A2        2.09440   0.01340   0.00000   0.01097   0.01097   2.10536
    A3        2.09440  -0.01240   0.00000  -0.00991  -0.00986   2.08453
    A4        2.09440  -0.00100   0.00000  -0.00106  -0.00110   2.09329
    A5        2.09440  -0.00594   0.00000  -0.00500  -0.00500   2.08940
    A6        2.09440   0.00471   0.00000   0.00415   0.00415   2.09854
    A7        2.09440   0.00123   0.00000   0.00085   0.00085   2.09524
    A8        2.09440   0.00374   0.00000   0.00303   0.00303   2.09742
    A9        2.09440  -0.00187   0.00000  -0.00152  -0.00151   2.09288
   A10        2.09440  -0.00187   0.00000  -0.00152  -0.00151   2.09288
   A11        2.09440  -0.00594   0.00000  -0.00500  -0.00500   2.08940
   A12        2.09440   0.00123   0.00000   0.00085   0.00085   2.09524
   A13        2.09440   0.00471   0.00000   0.00415   0.00415   2.09854
   A14        2.09440   0.01340   0.00000   0.01097   0.01097   2.10536
   A15        2.09440  -0.01240   0.00000  -0.00991  -0.00986   2.08453
   A16        2.09440  -0.00100   0.00000  -0.00106  -0.00110   2.09329
   A17        2.09440  -0.00414   0.00000  -0.00422  -0.00422   2.09018
   A18        2.09440   0.00825   0.00000   0.00646   0.00646   2.10086
   A19        2.09440  -0.03053   0.00000  -0.02507  -0.02511   2.06929
   A20        2.09440   0.02228   0.00000   0.01861   0.01865   2.11304
   A21        2.09440  -0.00319   0.00000  -0.00228  -0.00228   2.09211
   A22        2.09440   0.00812   0.00000   0.00644   0.00645   2.10084
   A23        2.09440  -0.00493   0.00000  -0.00417  -0.00417   2.09023
   A24        2.09440  -0.00598   0.00000  -0.00414  -0.00414   2.09026
   A25        2.09440   0.00299   0.00000   0.00207   0.00207   2.09646
   A26        2.09440   0.00299   0.00000   0.00207   0.00207   2.09646
   A27        2.09440  -0.00319   0.00000  -0.00228  -0.00228   2.09211
   A28        2.09440  -0.00493   0.00000  -0.00417  -0.00417   2.09023
   A29        2.09440   0.00812   0.00000   0.00644   0.00645   2.10084
   A30        2.09440   0.00825   0.00000   0.00646   0.00646   2.10086
   A31        2.09440  -0.03053   0.00000  -0.02507  -0.02511   2.06929
   A32        2.09440   0.02228   0.00000   0.01861   0.01865   2.11304
   A33        2.09440   0.03785   0.00000   0.03038   0.03034   2.12474
   A34        2.09440  -0.00633   0.00000  -0.00500  -0.00496   2.08943
   A35        2.09440   0.03785   0.00000   0.03038   0.03034   2.12474
   A36        2.09440  -0.00633   0.00000  -0.00500  -0.00496   2.08943
    D1        0.00000  -0.00000   0.00000  -0.00000  -0.00000   0.00000
    D2        3.14159   0.00000   0.00000   0.00000   0.00000   3.14159
    D3       -0.00000  -0.00000   0.00000  -0.00000  -0.00000  -0.00000
    D4        3.14159   0.00000   0.00000   0.00000   0.00000   3.14159
    D5        0.00000   0.00000   0.00000   0.00000   0.00000   0.00000
    D6        3.14159   0.00000   0.00000   0.00000   0.00000   3.14159
    D7       -3.14159  -0.00000   0.00000  -0.00000  -0.00000  -3.14159
    D8        0.00000  -0.00000   0.00000  -0.00000  -0.00000   0.00000
    D9        0.00000  -0.00000   0.00000  -0.00000  -0.00000   0.00000
   D10       -3.14159  -0.00000   0.00000   0.00000   0.00000  -3.14159
   D11       -0.00000   0.00000   0.00000   0.00000   0.00000  -0.00000
   D12        3.14159  -0.00000   0.00000  -0.00000  -0.00000   3.14159
   D13        3.14159  -0.00000   0.00000  -0.00000  -0.00000   3.14159
   D14        0.00000  -0.00000   0.00000  -0.00000  -0.00000   0.00000
   D15        0.00000  -0.00000   0.00000  -0.00000  -0.00000   0.00000
   D16       -3.14159  -0.00000   0.00000  -0.00000  -0.00000  -3.14159
   D17       -3.14159  -0.00000   0.00000  -0.00000  -0.00000  -3.14159
   D18        0.00000   0.00000   0.00000   0.00000   0.00000   0.00000
   D19       -0.00000   0.00000   0.00000   0.00000   0.00000  -0.00000
   D20        3.14159   0.00000   0.00000   0.00000   0.00000   3.14159
   D21        3.14159   0.00000   0.00000   0.00000   0.00000   3.14159
   D22       -0.00000  -0.00000   0.00000  -0.00000  -0.00000  -0.00000
   D23        0.00001   0.00000   0.00000   0.00000   0.00000   0.00001
   D24       -3.14159   0.00000   0.00000   0.00000   0.00000  -3.14159
   D25        0.00000   0.00000   0.00000   0.00000   0.00000   0.00000
   D26       -3.14159  -0.00000   0.00000  -0.00000  -0.00000  -3.14159
   D27       -0.00000  -0.00000   0.00000  -0.00000  -0.00000  -0.00000
   D28        3.14159   0.00000   0.00000   0.00000   0.00000   3.14159
   D29       -0.00000   0.00000   0.00000  -0.00000  -0.00000  -0.00000
   D30        3.14159  -0.00000   0.00000  -0.00000  -0.00000   3.14159
   D31        3.14159  -0.00000   0.00000  -0.00000  -0.00000   3.14159
   D32       -0.00000  -0.00000   0.00000  -0.00000  -0.00000  -0.00000
   D33        0.00000   0.00000   0.00000   0.00000   0.00000   0.00000
   D34       -3.14159   0.00000   0.00000   0.00000   0.00000  -3.14159
   D35       -0.00000  -0.00000   0.00000  -0.00000  -0.00000  -0.00000
   D36       -3.14159  -0.00000   0.00000  -0.00000  -0.00000  -3.14159
   D37        3.14159   0.00000   0.00000   0.00000   0.00000   3.14159
   D38        0.00000  -0.00000   0.00000  -0.00000  -0.00000   0.00000
   D39        0.00000   0.00000   0.00000   0.00000   0.00000   0.00000
   D40       -3.14159  -0.00000   0.00000  -0.00000  -0.00000  -3.14159
   D41        3.14159   0.00000   0.00000   0.00000   0.00000   3.14159
   D42        0.00000  -0.00000   0.00000  -0.00000  -0.00000   0.00000
   D43        0.00000   0.00000   0.00000   0.00000   0.00000   0.00000
   D44       -3.14159  -0.00000   0.00000  -0.00000  -0.00000  -3.14159
   D45        3.14159   0.00000   0.00000   0.00000   0.00000   3.14159
   D46       -0.00000  -0.00000   0.00000  -0.00000  -0.00000  -0.00000
   D47        0.00001   0.00000   0.00000   0.00000   0.00000   0.00001
   D48       -3.14159   0.00000   0.00000   0.00000   0.00000  -3.14159
   D49       -0.00001  -0.00000   0.00000  -0.00000  -0.00000  -0.00001
   D50       -0.00000  -0.00000   0.00000  -0.00000  -0.00000  -0.00000
         Item               Value     Threshold  Converged?
 Maximum Force            0.471352     0.000450     NO 
 RMS     Force            0.064401     0.000300     NO 
 Maximum Displacement     0.139357     0.001800     NO 
 RMS     Displacement     0.063039     0.001200     NO 
 Predicted change in Energy=-1.663294D-01
 GradGradGradGradGradGradGradGradGradGradGradGradGradGradGradGradGradGrad

                          Input orientation:                          
 ---------------------------------------------------------------------
 Center     Atomic      Atomic             Coordinates (Angstroms)
 Number     Number       Type             X           Y           Z
 ---------------------------------------------------------------------
      1          6           0       -0.200252    1.061025    0.044477
      2          6           0        1.130371    1.101171   -0.386364
      3          6           0        1.841595    2.307281   -0.394161
      4          6           0        1.217051    3.482516    0.032319
      5          6           0       -0.111587    3.454794    0.464837
      6          6           0       -0.814944    2.244063    0.469174
      7          6           0       -1.353828   -0.909886    0.054373
      8          6           0       -0.735309   -2.084347   -0.369977
      9          6           0       -1.438329   -3.296763   -0.366065
     10          6           0       -2.770021   -3.329484    0.066526
     11          6           0       -3.391703   -2.149136    0.493025
     12          6           0       -2.678848   -0.942499    0.484787
     13          1           0        2.861477    2.330858   -0.725737
     14          1           0       -0.588996    4.358044    0.791759
     15         17           0       -3.434684    0.570751    1.018008
     16         17           0       -2.494745    2.202249    1.014739
     17         17           0       -5.064219   -2.190278    1.036326
     18         17           0       -3.658540   -4.847541    0.074153
     19         17           0        2.105012    4.999616    0.024703
     20         17           0       -0.657577   -4.779224   -0.901709
     21         17           0        0.951865   -2.006389   -0.911183
     22         17           0        1.914093   -0.387986   -0.924240
 ---------------------------------------------------------------------
                    Distance matrix (angstroms):
                    1          2          3          4          5
     1  C    0.000000
     2  C    1.399211   0.000000
     3  C    2.432015   1.400215   0.000000
     4  C    2.805800   2.419424   1.397540   0.000000
     5  C    2.432015   2.794020   2.422723   1.397540   0.000000
     6  C    1.399211   2.412965   2.794020   2.419424   1.400215
     7  C    2.283709   3.226429   4.556542   5.089509   4.556542
     8  C    3.217362   3.691687   5.091897   5.912995   5.636313
     9  C    4.548812   5.093177   6.493381   7.291665   6.930668
    10  C    5.087315   5.920209   7.297421   7.893115   7.297421
    11  C    4.548812   5.637994   6.930668   7.291665   6.493381
    12  C    3.217362   4.409721   5.636313   5.912995   5.091897
    13  H    3.402924   2.150356   1.072687   2.145951   3.394085
    14  H    3.402924   3.866707   3.394085   2.145951   1.072687
    15  Cl   3.413164   4.805553   5.731395   5.575715   4.434713
    16  Cl   2.740164   4.039422   4.560688   4.047426   2.747854
    17  Cl   5.934047   7.157558   8.364485   8.523085   7.531402
    18  Cl   6.846297   7.650681   9.036718   9.652098   9.036718
    19  Cl   4.563675   4.039403   2.737426   1.757875   2.737426
    20  Cl   5.934047   6.167769   7.531402   8.523085   8.364485
    21  Cl   3.413164   3.156617   4.434713   5.575715   5.731395
    22  Cl   2.740164   1.766669   2.747854   4.047426   4.560688
                    6          7          8          9         10
     6  C    0.000000
     7  C    3.226429   0.000000
     8  C    4.409721   1.393556   0.000000
     9  C    5.637994   2.425096   1.401501   0.000000
    10  C    5.920209   2.803606   2.425068   1.400575   0.000000
    11  C    5.093177   2.425096   2.793814   2.422963   1.400575
    12  C    3.691687   1.393556   2.410764   2.793814   2.425068
    13  H    3.866707   5.373992   5.705915   7.091390   8.023772
    14  H    2.150356   5.373992   6.547934   7.788324   8.023772
    15  Cl   3.156617   2.729622   4.032700   4.567138   4.069266
    16  Cl   1.766669   3.450996   4.836109   5.767301   5.619160
    17  Cl   6.167769   4.046064   4.552842   4.042040   2.738913
    18  Cl   7.650681   4.562589   4.046946   2.743728   1.758983
    19  Cl   4.039403   6.847384   7.642364   9.029832   9.650990
    20  Cl   7.157558   4.046064   2.747934   1.759028   2.738913
    21  Cl   4.805553   2.729622   1.773566   2.770423   4.069266
    22  Cl   4.039422   3.450996   3.194398   4.473396   5.619160
                   11         12         13         14         15
    11  C    0.000000
    12  C    1.401501   0.000000
    13  H    7.788324   6.547934   0.000000
    14  H    7.091390   5.705915   4.279959   0.000000
    15  Cl   2.770423   1.773566   6.766112   4.742649   0.000000
    16  Cl   4.473396   3.194398   5.633375   2.886010   1.882892
    17  Cl   1.759028   2.747934   9.293127   7.935235   3.206088
    18  Cl   2.743728   4.046946   9.730357   9.730357   5.504440
    19  Cl   9.029832   7.642364   2.873616   2.873616   7.161685
    20  Cl   4.042040   4.552842   7.935235   9.293127   6.326126
    21  Cl   4.567138   4.032700   4.742649   6.766112   5.441070
    22  Cl   5.767301   4.836109   2.886010   5.633375   5.770695
                   16         17         18         19         20
    16  Cl   0.000000
    17  Cl   5.088906   0.000000
    18  Cl   7.206848   3.156383   0.000000
    19  Cl   5.473865  10.203717  11.409972   0.000000
    20  Cl   7.469198   5.465997   3.156383  10.203717   0.000000
    21  Cl   5.770695   6.326126   5.504440   7.161685   3.206088
    22  Cl   5.468712   7.469198   7.206848   5.473865   5.088906
                   21         22
    21  Cl   0.000000
    22  Cl   1.882892   0.000000
 Stoichiometry    C12H2Cl8
 Framework group  C1[X(C12H2Cl8)]
 Deg. of freedom    60
 Full point group                 C1      NOp   1
 Largest Abelian subgroup         C1      NOp   1
 Largest concise Abelian subgroup C1      NOp   1
                         Standard orientation:                         
 ---------------------------------------------------------------------
 Center     Atomic      Atomic             Coordinates (Angstroms)
 Number     Number       Type             X           Y           Z
 ---------------------------------------------------------------------
      1          6           0        1.765393    0.000000    0.000002
      2          6           0        2.474048    1.206482    0.000000
      3          6           0        3.874255    1.211361   -0.000002
      4          6           0        4.571193    0.000000   -0.000002
      5          6           0        3.874255   -1.211361    0.000003
      6          6           0        2.474048   -1.206482    0.000004
      7          6           0       -0.518316    0.000000    0.000003
      8          6           0       -1.217639    1.205382    0.000003
      9          6           0       -2.619126    1.211481    0.000003
     10          6           0       -3.321922    0.000000    0.000001
     11          6           0       -2.619126   -1.211481    0.000000
     12          6           0       -1.217639   -1.205382    0.000001
     13          1           0        4.411215    2.139979   -0.000004
     14          1           0        4.411215   -2.139979    0.000005
     15         17           0       -0.295766   -2.720535   -0.000002
     16         17           0        1.587075   -2.734356    0.000008
     17         17           0       -3.501830   -2.732998   -0.000006
     18         17           0       -5.080905    0.000000   -0.000002
     19         17           0        6.329068    0.000000   -0.000004
     20         17           0       -3.501830    2.732998    0.000003
     21         17           0       -0.295766    2.720535    0.000001
     22         17           0        1.587075    2.734356   -0.000003
 ---------------------------------------------------------------------
 Rotational constants (GHZ):           0.2951297           0.1119718           0.0811744
 Standard basis: 6-311+G(d,p) (5D, 7F)
 There are   536 symmetry adapted cartesian basis functions of A   symmetry.
 There are   516 symmetry adapted basis functions of A   symmetry.
   516 basis functions,   872 primitive gaussians,   536 cartesian basis functions
   105 alpha electrons      105 beta electrons
       nuclear repulsion energy      2709.5180052114 Hartrees.
 NAtoms=   22 NActive=   22 NUniq=   22 SFac= 1.00D+00 NAtFMM=   60 NAOKFM=F Big=F
 Integral buffers will be    131072 words long.
 Raffenetti 2 integral format.
 Two-electron integral symmetry is turned on.
 One-electron integrals computed using PRISM.
 NBasis=   516 RedAO= T EigKep=  1.49D-06  NBF=   516
 NBsUse=   509 1.00D-06 EigRej=  6.68D-07 NBFU=   509
 Initial guess from the checkpoint file:  "./Gau-143088.chk"
 B after Tr=    -0.000000    0.000000    0.000000
         Rot=    1.000000   -0.000000   -0.000000    0.000000 Ang=   0.00 deg.
 ExpMin= 4.38D-02 ExpMax= 1.06D+05 ExpMxC= 3.62D+03 IAcc=3 IRadAn=         5 AccDes= 0.00D+00
 Harris functional with IExCor=  402 and IRadAn=       5 diagonalized for initial guess.
 HarFok:  IExCor=  402 AccDes= 0.00D+00 IRadAn=         5 IDoV= 1 UseB2=F ITyADJ=14
 ICtDFT=  3500011 ScaDFX=  1.000000  1.000000  1.000000  1.000000
 FoFCou: FMM=F IPFlag=           0 FMFlag=      100000 FMFlg1=           0
         NFxFlg=           0 DoJE=T BraDBF=F KetDBF=T FulRan=T
         wScrn=  0.000000 ICntrl=       500 IOpCl=  0 I1Cent=   200000004 NGrid=           0
         NMat0=    1 NMatS0=      1 NMatT0=    0 NMatD0=    1 NMtDS0=    0 NMtDT0=    0
 Petite list used in FoFCou.
 Requested convergence on RMS density matrix=1.00D-08 within  32 cycles.
 Requested convergence on MAX density matrix=1.00D-06.
 Requested convergence on             energy=1.00D-06.
 No special actions if energy rises.
 SCF Done:  E(RB3LYP) =  -4139.69584898     A.U. after   16 cycles
            NFock= 16  Conv=0.84D-08     -V/T= 2.0020
 QCSCF skips out because SCF is already converged.
 Calling FoFJK, ICntrl=      2127 FMM=F ISym2X=0 I1Cent= 0 IOpClX= 0 NMat=1 NMatS=1 NMatT=0.
 ***** Axes restored to original set *****
 -------------------------------------------------------------------
 Center     Atomic                   Forces (Hartrees/Bohr)
 Number     Number              X              Y              Z
 -------------------------------------------------------------------
      1        6          -0.010461082   -0.017872972    0.000089729
      2        6          -0.015353740    0.016576364    0.008171613
      3        6          -0.000721058    0.001659807    0.000549370
      4        6          -0.006023183   -0.010290581    0.000051483
      5        6           0.001797923    0.000179888   -0.000558419
      6        6           0.021935488   -0.005331413   -0.008227940
      7        6           0.004207335    0.007188322   -0.000036086
      8        6          -0.027926007   -0.010400605    0.007247140
      9        6           0.002078084   -0.001389403   -0.000945606
     10        6          -0.004000707   -0.006835350    0.000034384
     11        6          -0.002224853    0.001138609    0.000946926
     12        6           0.004574957   -0.029495222   -0.007046743
     13        1           0.005240959    0.000587680   -0.001616278
     14        1          -0.002046919    0.004869378    0.001588907
     15       17          -0.159144214   -0.292357034   -0.002474114
     16       17           0.163470149    0.320271719    0.006291379
     17       17           0.005454876   -0.001070493   -0.001998278
     18       17           0.003045063    0.005202594   -0.000026174
     19       17          -0.002510729   -0.004289633    0.000021540
     20       17          -0.003595783    0.004246857    0.001982244
     21       17          -0.176962091   -0.281888868    0.005358949
     22       17           0.199165531    0.299300356   -0.009404025
 -------------------------------------------------------------------
 Cartesian Forces:  Max     0.320271719 RMS     0.085655701

 GradGradGradGradGradGradGradGradGradGradGradGradGradGradGradGradGradGrad
 Berny optimization.
 Using GEDIIS/GDIIS optimizer.
 FormGI is forming the generalized inverse of G from B-inverse, IUseBI=4.
 Internal  Forces:  Max     0.350988609 RMS     0.047787487
 Search for a local minimum.
 Step number   2 out of a maximum of  120
 All quantities printed in internal units (Hartrees-Bohrs-Radians)
 Mixed Optimization -- RFO/linear search
 Update second derivatives using D2CorX and points    1    2
 DE= -1.73D-01 DEPred=-1.66D-01 R= 1.04D+00
 TightC=F SS=  1.41D+00  RLast= 3.00D-01 DXNew= 5.0454D-01 9.0000D-01
 Trust test= 1.04D+00 RLast= 3.00D-01 DXMaxT set to 5.05D-01
 ITU=  1  0
 Use linear search instead of GDIIS.
 Linear search step of   0.600 exceeds DXMaxT=   0.505 but not scaled.
 Quartic linear search produced a step of  2.00000.
 Iteration  1 RMS(Cart)=  0.08086132 RMS(Int)=  0.02792446
 Iteration  2 RMS(Cart)=  0.04480641 RMS(Int)=  0.00095488
 Iteration  3 RMS(Cart)=  0.00157655 RMS(Int)=  0.00008341
 Iteration  4 RMS(Cart)=  0.00000006 RMS(Int)=  0.00008341
 Variable       Old X    -DE/DX   Delta X   Delta X   Delta X     New X
                                 (Linear)    (Quad)   (Total)
    R1        2.64413   0.00154  -0.00827   0.00000  -0.00811   2.63602
    R2        2.64413   0.00154  -0.00827   0.00000  -0.00811   2.63602
    R3        2.64602  -0.00418  -0.00448   0.00000  -0.00448   2.64154
    R4        3.33852   0.00255   0.02521   0.00000   0.02531   3.36383
    R5        2.64097  -0.01135  -0.01459   0.00000  -0.01465   2.62632
    R6        2.02709   0.00550   0.01016   0.00000   0.01016   2.03724
    R7        2.64097  -0.01135  -0.01459   0.00000  -0.01465   2.62632
    R8        3.32190  -0.00497  -0.00803   0.00000  -0.00803   3.31387
    R9        2.64602  -0.00418  -0.00448   0.00000  -0.00448   2.64154
   R10        2.02709   0.00550   0.01016   0.00000   0.01016   2.03724
   R11        3.33852   0.00255   0.02521   0.00000   0.02531   3.36383
   R12        2.63344  -0.01160  -0.02965   0.00000  -0.02979   2.60364
   R13        2.63344  -0.01160  -0.02965   0.00000  -0.02979   2.60364
   R14        2.64845  -0.00075   0.00038   0.00000   0.00038   2.64883
   R15        3.35155   0.01242   0.05127   0.00000   0.05118   3.40273
   R16        2.64670  -0.00282  -0.00312   0.00000  -0.00307   2.64363
   R17        3.32408  -0.00578  -0.00367   0.00000  -0.00367   3.32041
   R18        2.64670  -0.00282  -0.00312   0.00000  -0.00307   2.64363
   R19        3.32400  -0.00603  -0.00385   0.00000  -0.00385   3.32015
   R20        2.64845  -0.00075   0.00038   0.00000   0.00038   2.64883
   R21        3.32408  -0.00578  -0.00367   0.00000  -0.00367   3.32041
   R22        3.35155   0.01242   0.05127   0.00000   0.05118   3.40273
   R23        3.55815   0.35099   0.40702   0.00000   0.40701   3.96516
   R24        3.55815   0.35099   0.40702   0.00000   0.40701   3.96516
    A1        2.07943  -0.01978  -0.02994   0.00000  -0.02991   2.04952
    A2        2.10536   0.01142   0.02194   0.00000   0.02194   2.12730
    A3        2.08453   0.00183  -0.01973   0.00000  -0.01951   2.06502
    A4        2.09329  -0.01325  -0.00221   0.00000  -0.00243   2.09086
    A5        2.08940  -0.00301  -0.01000   0.00000  -0.00998   2.07942
    A6        2.09854   0.00199   0.00830   0.00000   0.00829   2.10683
    A7        2.09524   0.00103   0.00170   0.00000   0.00169   2.09694
    A8        2.09742   0.00297   0.00605   0.00000   0.00600   2.10342
    A9        2.09288  -0.00148  -0.00303   0.00000  -0.00300   2.08988
   A10        2.09288  -0.00148  -0.00303   0.00000  -0.00300   2.08988
   A11        2.08940  -0.00301  -0.01000   0.00000  -0.00998   2.07942
   A12        2.09524   0.00103   0.00170   0.00000   0.00169   2.09694
   A13        2.09854   0.00199   0.00830   0.00000   0.00829   2.10683
   A14        2.10536   0.01142   0.02194   0.00000   0.02194   2.12730
   A15        2.08453   0.00183  -0.01973   0.00000  -0.01951   2.06502
   A16        2.09329  -0.01325  -0.00221   0.00000  -0.00243   2.09086
   A17        2.09018  -0.00732  -0.00844   0.00000  -0.00842   2.08176
   A18        2.10086   0.00719   0.01292   0.00000   0.01294   2.11380
   A19        2.06929  -0.01589  -0.05022   0.00000  -0.05045   2.01884
   A20        2.11304   0.00871   0.03730   0.00000   0.03751   2.15055
   A21        2.09211  -0.00120  -0.00457   0.00000  -0.00460   2.08751
   A22        2.10084   0.00263   0.01290   0.00000   0.01291   2.11376
   A23        2.09023  -0.00144  -0.00833   0.00000  -0.00831   2.08192
   A24        2.09026  -0.00466  -0.00828   0.00000  -0.00826   2.08199
   A25        2.09646   0.00233   0.00414   0.00000   0.00413   2.10060
   A26        2.09646   0.00233   0.00414   0.00000   0.00413   2.10060
   A27        2.09211  -0.00120  -0.00457   0.00000  -0.00460   2.08751
   A28        2.09023  -0.00144  -0.00833   0.00000  -0.00831   2.08192
   A29        2.10084   0.00263   0.01290   0.00000   0.01291   2.11376
   A30        2.10086   0.00719   0.01292   0.00000   0.01294   2.11380
   A31        2.06929  -0.01589  -0.05022   0.00000  -0.05045   2.01884
   A32        2.11304   0.00871   0.03730   0.00000   0.03751   2.15055
   A33        2.12474   0.02149   0.06068   0.00000   0.06046   2.18520
   A34        2.08943  -0.02098  -0.00992   0.00000  -0.00967   2.07976
   A35        2.12474   0.02149   0.06068   0.00000   0.06046   2.18520
   A36        2.08943  -0.02098  -0.00992   0.00000  -0.00967   2.07976
    D1        0.00000  -0.00000  -0.00000   0.00000  -0.00000   0.00000
    D2        3.14159   0.00000   0.00000   0.00000   0.00000   3.14159
    D3       -0.00000  -0.00000  -0.00000   0.00000  -0.00000  -0.00000
    D4        3.14159  -0.00000   0.00000   0.00000   0.00000   3.14159
    D5        0.00000   0.00000   0.00000   0.00000   0.00000   0.00000
    D6        3.14159   0.00000   0.00000   0.00000   0.00000   3.14159
    D7       -3.14159  -0.00000  -0.00000   0.00000  -0.00000  -3.14159
    D8        0.00000  -0.00000  -0.00000   0.00000  -0.00000   0.00000
    D9        0.00000  -0.00000  -0.00000   0.00000  -0.00000   0.00000
   D10       -3.14159  -0.00000   0.00000   0.00000   0.00000  -3.14159
   D11       -0.00000   0.00000   0.00000   0.00000   0.00000  -0.00000
   D12        3.14159  -0.00000  -0.00000   0.00000  -0.00000   3.14159
   D13        3.14159   0.00000  -0.00000   0.00000  -0.00000   3.14159
   D14        0.00000  -0.00000  -0.00000   0.00000  -0.00000   0.00000
   D15        0.00000  -0.00000  -0.00000   0.00000  -0.00000   0.00000
   D16       -3.14159  -0.00000  -0.00000   0.00000  -0.00000  -3.14159
   D17       -3.14159  -0.00000  -0.00000   0.00000  -0.00000  -3.14159
   D18        0.00000   0.00000   0.00000   0.00000   0.00000   0.00000
   D19       -0.00000   0.00000   0.00000   0.00000   0.00000  -0.00000
   D20        3.14159   0.00000   0.00000   0.00000   0.00000   3.14159
   D21        3.14159   0.00000   0.00000   0.00000   0.00000   3.14159
   D22       -0.00000   0.00000  -0.00000   0.00000  -0.00000  -0.00000
   D23        0.00001  -0.00000   0.00000   0.00000   0.00000   0.00001
   D24       -3.14159  -0.00000   0.00000   0.00000   0.00000  -3.14159
   D25        0.00000   0.00000   0.00000   0.00000   0.00000   0.00000
   D26       -3.14159  -0.00000  -0.00000   0.00000  -0.00000  -3.14159
   D27       -0.00000  -0.00000  -0.00000   0.00000  -0.00000  -0.00000
   D28        3.14159   0.00000   0.00000   0.00000   0.00000   3.14159
   D29       -0.00000  -0.00000  -0.00000   0.00000  -0.00000  -0.00000
   D30        3.14159  -0.00000  -0.00000   0.00000  -0.00000   3.14159
   D31        3.14159  -0.00000  -0.00000   0.00000  -0.00000   3.14159
   D32       -0.00000  -0.00000  -0.00000   0.00000  -0.00000  -0.00000
   D33        0.00000   0.00000   0.00000   0.00000   0.00000   0.00000
   D34       -3.14159   0.00000   0.00000   0.00000   0.00000  -3.14159
   D35       -0.00000   0.00000  -0.00000   0.00000  -0.00000  -0.00000
   D36       -3.14159  -0.00000  -0.00000   0.00000  -0.00000  -3.14159
   D37        3.14159   0.00000   0.00000   0.00000   0.00000   3.14159
   D38        0.00000  -0.00000  -0.00000   0.00000  -0.00000   0.00000
   D39        0.00000   0.00000   0.00000   0.00000   0.00000   0.00000
   D40       -3.14159  -0.00000  -0.00000   0.00000  -0.00000  -3.14159
   D41        3.14159   0.00000   0.00000   0.00000   0.00000   3.14159
   D42        0.00000  -0.00000  -0.00000   0.00000  -0.00000   0.00000
   D43        0.00000  -0.00000   0.00000   0.00000   0.00000   0.00000
   D44       -3.14159  -0.00000  -0.00000   0.00000  -0.00000  -3.14159
   D45        3.14159   0.00000   0.00000   0.00000   0.00000   3.14159
   D46       -0.00000  -0.00000  -0.00000   0.00000  -0.00000  -0.00000
   D47        0.00001   0.00000   0.00000   0.00000   0.00000   0.00001
   D48       -3.14159   0.00000   0.00000   0.00000   0.00000  -3.14159
   D49       -0.00001  -0.00000  -0.00000   0.00000  -0.00000  -0.00001
   D50       -0.00000  -0.00000  -0.00000   0.00000  -0.00000  -0.00000
         Item               Value     Threshold  Converged?
 Maximum Force            0.350989     0.000450     NO 
 RMS     Force            0.047787     0.000300     NO 
 Maximum Displacement     0.278530     0.001800     NO 
 RMS     Displacement     0.126072     0.001200     NO 
 Predicted change in Energy=-1.884443D-01
 GradGradGradGradGradGradGradGradGradGradGradGradGradGradGradGradGradGrad

                          Input orientation:                          
 ---------------------------------------------------------------------
 Center     Atomic      Atomic             Coordinates (Angstroms)
 Number     Number       Type             X           Y           Z
[...]
                 (A) (A) (A) (A) (A) (A) (A) (A) (A) (A) (A) (A)
                 (A) (A) (A) (A) (A) (A) (A) (A) (A) (A) (A) (A)
                 (A) (A) (A) (A) (A) (A) (A) (A) (A) (A) (A) (A)
                 (A) (A) (A) (A) (A) (A) (A) (A) (A) (A) (A) (A)
                 (A) (A) (A) (A) (A) (A) (A) (A) (A) (A) (A) (A)
                 (A) (A) (A) (A) (A) (A) (A) (A) (A) (A) (A) (A)
                 (A) (A) (A) (A) (A) (A) (A) (A) (A) (A) (A) (A)
                 (A) (A) (A) (A) (A) (A) (A) (A) (A) (A) (A) (A)
                 (A) (A) (A) (A) (A) (A) (A) (A) (A) (A) (A) (A)
                 (A) (A) (A) (A) (A) (A) (A) (A) (A) (A) (A) (A)
                 (A) (A) (A) (A) (A) (A) (A) (A) (A) (A) (A) (A)
                 (A) (A) (A) (A) (A) (A) (A) (A) (A) (A) (A) (A)
                 (A) (A) (A) (A) (A) (A) (A) (A) (A) (A) (A) (A)
                 (A) (A) (A) (A) (A) (A) (A) (A) (A) (A) (A) (A)
                 (A) (A) (A) (A) (A) (A) (A) (A) (A)
 The electronic state is 1-A.
 Alpha  occ. eigenvalues -- -101.58483-101.58360-101.58360-101.58305-101.58305
 Alpha  occ. eigenvalues -- -101.57970-101.57969-101.57907 -10.28906 -10.28559
 Alpha  occ. eigenvalues --  -10.28554 -10.28468 -10.28468 -10.27830 -10.27830
 Alpha  occ. eigenvalues --  -10.27548 -10.24796 -10.24138 -10.22198 -10.22197
 Alpha  occ. eigenvalues --   -9.49950  -9.49826  -9.49826  -9.49783  -9.49782
 Alpha  occ. eigenvalues --   -9.49443  -9.49441  -9.49360  -7.26459  -7.26335
 Alpha  occ. eigenvalues --   -7.26334  -7.26277  -7.26277  -7.25917  -7.25916
 Alpha  occ. eigenvalues --   -7.25836  -7.25431  -7.25338  -7.25304  -7.25304
 Alpha  occ. eigenvalues --   -7.25260  -7.25260  -7.25219  -7.25218  -7.25187
 Alpha  occ. eigenvalues --   -7.25187  -7.24920  -7.24918  -7.24873  -7.24872
 Alpha  occ. eigenvalues --   -7.24838  -7.24796  -0.97581  -0.94994  -0.92898
 Alpha  occ. eigenvalues --   -0.91807  -0.90322  -0.90042  -0.88366  -0.87243
 Alpha  occ. eigenvalues --   -0.84485  -0.83889  -0.80081  -0.77111  -0.74941
 Alpha  occ. eigenvalues --   -0.74733  -0.66348  -0.64319  -0.63650  -0.62320
 Alpha  occ. eigenvalues --   -0.56621  -0.56036  -0.54077  -0.52762  -0.49950
 Alpha  occ. eigenvalues --   -0.49023  -0.47683  -0.47532  -0.47249  -0.47077
 Alpha  occ. eigenvalues --   -0.45441  -0.44875  -0.43404  -0.42053  -0.41915
 Alpha  occ. eigenvalues --   -0.41641  -0.39701  -0.39057  -0.38876  -0.36418
 Alpha  occ. eigenvalues --   -0.36234  -0.36226  -0.35857  -0.34820  -0.34738
 Alpha  occ. eigenvalues --   -0.34668  -0.33685  -0.33636  -0.33182  -0.32939
 Alpha  occ. eigenvalues --   -0.31809  -0.27987  -0.27846  -0.27823  -0.27037
 Alpha virt. eigenvalues --   -0.06823  -0.06587  -0.06201  -0.06100  -0.05746
 Alpha virt. eigenvalues --   -0.03476  -0.01119  -0.00695   0.00043   0.00892
 Alpha virt. eigenvalues --    0.00922   0.01361   0.01862   0.02158   0.02512
 Alpha virt. eigenvalues --    0.02909   0.03904   0.04221   0.04627   0.05054
 Alpha virt. eigenvalues --    0.05505   0.06030   0.06300   0.06520   0.07584
 Alpha virt. eigenvalues --    0.07911   0.08116   0.08200   0.08464   0.08585
 Alpha virt. eigenvalues --    0.08917   0.09601   0.09616   0.09643   0.10192
 Alpha virt. eigenvalues --    0.10505   0.11135   0.11147   0.11153   0.11238
 Alpha virt. eigenvalues --    0.11782   0.12037   0.12474   0.13372   0.13398
 Alpha virt. eigenvalues --    0.14191   0.14271   0.14696   0.14959   0.15112
 Alpha virt. eigenvalues --    0.15408   0.16174   0.16301   0.16428   0.16847
 Alpha virt. eigenvalues --    0.16948   0.17726   0.17876   0.18277   0.19265
 Alpha virt. eigenvalues --    0.19285   0.19618   0.19984   0.20020   0.20316
 Alpha virt. eigenvalues --    0.20622   0.21140   0.21441   0.21565   0.22338
 Alpha virt. eigenvalues --    0.22381   0.22725   0.23205   0.23564   0.23854
 Alpha virt. eigenvalues --    0.24229   0.24515   0.25329   0.25957   0.26087
 Alpha virt. eigenvalues --    0.26248   0.26434   0.27393   0.27408   0.27869
 Alpha virt. eigenvalues --    0.28025   0.28087   0.28565   0.28994   0.29378
 Alpha virt. eigenvalues --    0.29459   0.30143   0.30405   0.30559   0.31164
 Alpha virt. eigenvalues --    0.31434   0.33263   0.33316   0.36353   0.38216
 Alpha virt. eigenvalues --    0.38905   0.39839   0.42558   0.42564   0.43088
 Alpha virt. eigenvalues --    0.43906   0.44104   0.44658   0.45266   0.45476
 Alpha virt. eigenvalues --    0.45921   0.46164   0.46592   0.46794   0.46901
 Alpha virt. eigenvalues --    0.48031   0.48316   0.48532   0.49357   0.49372
 Alpha virt. eigenvalues --    0.49681   0.50894   0.51102   0.51203   0.52457
 Alpha virt. eigenvalues --    0.53515   0.54692   0.55588   0.56858   0.56957
 Alpha virt. eigenvalues --    0.57019   0.57936   0.58357   0.59293   0.59777
 Alpha virt. eigenvalues --    0.60667   0.60832   0.61186   0.61310   0.61625
 Alpha virt. eigenvalues --    0.62311   0.62847   0.63255   0.63532   0.64497
 Alpha virt. eigenvalues --    0.65753   0.66381   0.66462   0.67285   0.68013
 Alpha virt. eigenvalues --    0.68883   0.69218   0.69424   0.76361   0.77276
 Alpha virt. eigenvalues --    0.78125   0.78870   0.80730   0.80982   0.81903
 Alpha virt. eigenvalues --    0.82353   0.82667   0.82858   0.83281   0.83376
 Alpha virt. eigenvalues --    0.83561   0.83677   0.83737   0.83784   0.83945
 Alpha virt. eigenvalues --    0.84322   0.85118   0.85367   0.85515   0.85612
 Alpha virt. eigenvalues --    0.86123   0.86939   0.89054   0.89076   0.89216
 Alpha virt. eigenvalues --    0.89633   0.89700   0.90414   0.91017   0.91256
 Alpha virt. eigenvalues --    0.91285   0.92232   0.92950   0.93694   0.93921
 Alpha virt. eigenvalues --    0.94421   0.95005   0.95077   0.95967   0.96563
 Alpha virt. eigenvalues --    0.97149   0.97293   0.97334   0.97715   0.98803
 Alpha virt. eigenvalues --    1.01277   1.01810   1.02799   1.03614   1.05898
 Alpha virt. eigenvalues --    1.06010   1.06707   1.06813   1.09458   1.10034
 Alpha virt. eigenvalues --    1.12065   1.17262   1.17609   1.17649   1.19515
 Alpha virt. eigenvalues --    1.19738   1.20472   1.21505   1.23538   1.23830
 Alpha virt. eigenvalues --    1.26569   1.26740   1.27130   1.28062   1.28547
 Alpha virt. eigenvalues --    1.29231   1.29490   1.29693   1.30000   1.31758
 Alpha virt. eigenvalues --    1.32285   1.32781   1.37571   1.39340   1.39431
 Alpha virt. eigenvalues --    1.43466   1.46185   1.48040   1.50082   1.53897
 Alpha virt. eigenvalues --    1.54391   1.54533   1.57152   1.57777   1.60323
 Alpha virt. eigenvalues --    1.61799   1.65534   1.65551   1.68593   1.71080
 Alpha virt. eigenvalues --    1.73254   1.74045   1.78280   1.80038   1.80242
 Alpha virt. eigenvalues --    1.80905   1.81536   1.81620   1.83356   1.86781
 Alpha virt. eigenvalues --    1.87460   1.90106   1.90895   1.92660   1.94404
 Alpha virt. eigenvalues --    1.94943   1.96722   1.99118   2.04438   2.04796
 Alpha virt. eigenvalues --    2.07632   2.11282   2.11910   2.15288   2.22144
 Alpha virt. eigenvalues --    2.22161   2.22693   2.22872   2.22970   2.24416
 Alpha virt. eigenvalues --    2.25720   2.25909   2.26890   2.28704   2.29506
 Alpha virt. eigenvalues --    2.31993   2.32011   2.33424   2.34456   2.34500
 Alpha virt. eigenvalues --    2.38421   2.38955   2.41259   2.41444   2.41723
 Alpha virt. eigenvalues --    2.43494   2.45015   2.45398   2.46683   2.48142
 Alpha virt. eigenvalues --    2.51912   2.52903   2.52947   2.54586   2.55889
 Alpha virt. eigenvalues --    2.55919   2.57819   2.62710   2.64775   2.66098
 Alpha virt. eigenvalues --    2.66634   2.68475   2.69258   2.69306   2.71452
 Alpha virt. eigenvalues --    2.73494   2.73577   2.76288   2.79087   2.80313
 Alpha virt. eigenvalues --    2.81243   2.82162   2.87669   2.94834   2.95663
 Alpha virt. eigenvalues --    3.04018   3.06783   3.09289   3.10310   3.10679
 Alpha virt. eigenvalues --    3.12213   3.12499   3.14453   3.17960   3.21799
 Alpha virt. eigenvalues --    3.23637   3.24160   3.27536   3.32249   3.44309
 Alpha virt. eigenvalues --    3.50820   3.51810   3.61530   3.69481   3.69632
 Alpha virt. eigenvalues --    3.77536   3.88164   3.88888   3.97798   4.06990
 Alpha virt. eigenvalues --    4.31036   4.79925   4.80141   9.74223   9.76368
 Alpha virt. eigenvalues --    9.78478   9.80197   9.80617   9.81372   9.85498
 Alpha virt. eigenvalues --    9.86651  23.27105  23.48127  23.76939  23.81879
 Alpha virt. eigenvalues --   23.84552  23.86221  23.91582  23.92366  23.96996
 Alpha virt. eigenvalues --   24.03100  24.07438  24.10831  25.76315  25.77045
 Alpha virt. eigenvalues --   25.81224  25.82428  25.85518  25.93246  25.97563
 Alpha virt. eigenvalues --   26.00416  26.08858  26.08960  26.09469  26.19775
 Alpha virt. eigenvalues --   26.23993  26.32693  26.36493  26.38581  26.49163
 Alpha virt. eigenvalues --   26.56072  26.58967  26.68615  26.68794  26.80735
 Alpha virt. eigenvalues --   26.87619  27.21425 215.73352 215.75511 215.78052
 Alpha virt. eigenvalues --  215.80112 215.80514 215.81497 215.86916 215.87874
          Condensed to atoms (all electrons):
               1          2          3          4          5          6
     1  C   28.852997  -0.780213  -7.235655  -2.456798  -7.221693  -0.778946
     2  C   -0.780213  20.949665  -5.391378  -2.924287   7.085617  -1.372277
     3  C   -7.235655  -5.391378  31.525122  -0.608069 -10.434935   7.092164
     4  C   -2.456798  -2.924287  -0.608069  17.512310  -0.607900  -2.923882
     5  C   -7.221693   7.085617 -10.434935  -0.607900  31.502050  -5.389345
     6  C   -0.778946  -1.372277   7.092164  -2.923882  -5.389345  20.945150
     7  C   15.288023  -2.575513  -4.674824  -1.010515  -4.671408  -2.571423
     8  C   -2.599936  -2.423190  -1.678178  -0.087917  -1.674662  -2.425899
     9  C   -6.200164  -1.418455  -0.401882   0.084972  -0.401154  -1.418975
    10  C   -2.501067   0.764696   0.104872  -0.003795   0.104338   0.762420
    11  C   -6.193776  -1.417766  -0.402392   0.085116  -0.400933  -1.421024
    12  C   -2.604769  -2.422583  -1.678613  -0.087723  -1.674087  -2.426296
    13  H    0.118549   0.064675   0.087220   0.045940   0.055918  -0.029381
    14  H    0.118403  -0.029331   0.055882   0.045973   0.087580   0.064451
    15  Cl   0.495676   0.045237  -0.025662   0.034163  -0.025855   0.046058
    16  Cl  -0.071046  -0.743195   0.551717  -0.369977  -0.970000  -0.296590
    17  Cl  -0.266804  -0.035188  -0.002962   0.003574  -0.002937  -0.035201
    18  Cl  -0.085803  -0.030182  -0.002730  -0.002509  -0.002738  -0.030235
    19  Cl  -0.136742  -0.168776   0.404013  -1.077237   0.403495  -0.168054
    20  Cl  -0.267126  -0.035187  -0.002954   0.003574  -0.002942  -0.035152
    21  Cl   0.499286   0.045920  -0.025282   0.034397  -0.025379   0.045872
    22  Cl  -0.071014  -0.297868  -0.970845  -0.369530   0.551199  -0.743592
               7          8          9         10         11         12
     1  C   15.288023  -2.599936  -6.200164  -2.501067  -6.193776  -2.604769
     2  C   -2.575513  -2.423190  -1.418455   0.764696  -1.417766  -2.422583
     3  C   -4.674824  -1.678178  -0.401882   0.104872  -0.402392  -1.678613
     4  C   -1.010515  -0.087917   0.084972  -0.003795   0.085116  -0.087723
     5  C   -4.671408  -1.674662  -0.401154   0.104338  -0.400933  -1.674087
     6  C   -2.571423  -2.425899  -1.418975   0.762420  -1.421024  -2.426296
     7  C   32.717323  -2.554850 -11.022325   2.248355 -11.016857  -2.561890
     8  C   -2.554850  21.680548  -6.023095  -7.893821  11.360331   3.660336
     9  C  -11.022325  -6.023095  33.209098  -2.520038  -9.592782  11.366337
    10  C    2.248355  -7.893821  -2.520038  26.140944  -2.521646  -7.889067
    11  C  -11.016857  11.360331  -9.592782  -2.521646  33.200989  -6.020175
    12  C   -2.561890   3.660336  11.366337  -7.889067  -6.020175  21.678261
    13  H    0.020620   0.000566  -0.000815   0.000105  -0.000816   0.000564
    14  H    0.020600   0.000564  -0.000816   0.000106  -0.000815   0.000562
    15  Cl   0.263662  -1.130138   1.457620  -0.540584  -1.948869  -0.790910
    16  Cl   0.317099   0.217893  -0.024691  -0.062242  -0.025257   0.217629
    17  Cl  -1.158595   0.703626  -0.571576  -0.460632   1.300686  -0.092081
    18  Cl   0.138180  -0.784299  -0.005437   0.866841  -0.004894  -0.784306
    19  Cl   0.005499  -0.043220  -0.001256  -0.001786  -0.001255  -0.043216
    20  Cl  -1.159005  -0.092578   1.301576  -0.460485  -0.571704   0.703993
    21  Cl   0.264873  -0.792342  -1.952169  -0.541085   1.456849  -1.132178
    22  Cl   0.316648   0.219240  -0.024557  -0.062144  -0.024356   0.219381
              13         14         15         16         17         18
     1  C    0.118549   0.118403   0.495676  -0.071046  -0.266804  -0.085803
     2  C    0.064675  -0.029331   0.045237  -0.743195  -0.035188  -0.030182
     3  C    0.087220   0.055882  -0.025662   0.551717  -0.002962  -0.002730
     4  C    0.045940   0.045973   0.034163  -0.369977   0.003574  -0.002509
     5  C    0.055918   0.087580  -0.025855  -0.970000  -0.002937  -0.002738
     6  C   -0.029381   0.064451   0.046058  -0.296590  -0.035201  -0.030235
     7  C    0.020620   0.020600   0.263662   0.317099  -1.158595   0.138180
     8  C    0.000566   0.000564  -1.130138   0.217893   0.703626  -0.784299
     9  C   -0.000815  -0.000816   1.457620  -0.024691  -0.571576  -0.005437
    10  C    0.000105   0.000106  -0.540584  -0.062242  -0.460632   0.866841
    11  C   -0.000816  -0.000815  -1.948869  -0.025257   1.300686  -0.004894
    12  C    0.000564   0.000562  -0.790910   0.217629  -0.092081  -0.784306
    13  H    0.491596  -0.000230  -0.000813   0.000392  -0.000004  -0.000000
    14  H   -0.000230   0.491583  -0.000814  -0.008452  -0.000004  -0.000000
    15  Cl  -0.000813  -0.000814  19.017890   0.029327  -0.394223  -0.033471
    16  Cl   0.000392  -0.008452   0.029327  17.930747  -0.006234   0.011434
    17  Cl  -0.000004  -0.000004  -0.394223  -0.006234  17.592841  -0.233572
    18  Cl  -0.000000  -0.000000  -0.033471   0.011434  -0.233572  17.564843
    19  Cl  -0.013717  -0.013713   0.009089  -0.028426   0.000040   0.000002
    20  Cl  -0.000004  -0.000004   0.031782  -0.006212  -0.007071  -0.233546
    21  Cl  -0.000817  -0.000815  -0.165767   0.028967   0.031765  -0.033477
    22  Cl  -0.008451   0.000392   0.028544  -0.067627  -0.006161   0.011442
              19         20         21         22
     1  C   -0.136742  -0.267126   0.499286  -0.071014
     2  C   -0.168776  -0.035187   0.045920  -0.297868
     3  C    0.404013  -0.002954  -0.025282  -0.970845
     4  C   -1.077237   0.003574   0.034397  -0.369530
     5  C    0.403495  -0.002942  -0.025379   0.551199
     6  C   -0.168054  -0.035152   0.045872  -0.743592
     7  C    0.005499  -1.159005   0.264873   0.316648
     8  C   -0.043220  -0.092578  -0.792342   0.219240
     9  C   -0.001256   1.301576  -1.952169  -0.024557
    10  C   -0.001786  -0.460485  -0.541085  -0.062144
    11  C   -0.001255  -0.571704   1.456849  -0.024356
    12  C   -0.043216   0.703993  -1.132178   0.219381
    13  H   -0.013717  -0.000004  -0.000817  -0.008451
    14  H   -0.013713  -0.000004  -0.000815   0.000392
    15  Cl   0.009089   0.031782  -0.165767   0.028544
    16  Cl  -0.028426  -0.006212   0.028967  -0.067627
    17  Cl   0.000040  -0.007071   0.031765  -0.006161
    18  Cl   0.000002  -0.233546  -0.033477   0.011442
    19  Cl  17.448948   0.000040   0.009099  -0.028465
    20  Cl   0.000040  17.592925  -0.394411  -0.006189
    21  Cl   0.009099  -0.394411  19.019896   0.028773
    22  Cl  -0.028465  -0.006189   0.028773  17.930723
 Mulliken charges:
               1
     1  C    0.098618
     2  C   -0.890423
     3  C   -0.284630
     4  C    0.680118
     5  C   -0.284229
     6  C   -0.889843
     7  C   -0.623676
     8  C   -1.638979
     9  C    0.160581
    10  C    0.465715
    11  C    0.161348
    12  C   -1.639168
    13  H    0.168901
    14  H    0.168896
    15  Cl   0.598058
    16  Cl   0.374745
    17  Cl   0.640713
    18  Cl   0.674457
    19  Cl   0.445637
    20  Cl   0.640680
    21  Cl   0.598024
    22  Cl   0.374457
 Sum of Mulliken charges =  -0.00000
 Mulliken charges with hydrogens summed into heavy atoms:
               1
     1  C    0.098618
     2  C   -0.890423
     3  C   -0.115729
     4  C    0.680118
     5  C   -0.115333
     6  C   -0.889843
     7  C   -0.623676
     8  C   -1.638979
     9  C    0.160581
    10  C    0.465715
    11  C    0.161348
    12  C   -1.639168
    15  Cl   0.598058
    16  Cl   0.374745
    17  Cl   0.640713
    18  Cl   0.674457
    19  Cl   0.445637
    20  Cl   0.640680
    21  Cl   0.598024
    22  Cl   0.374457
 Electronic spatial extent (au):  <R**2>=           9828.0226
 Charge=             -0.0000 electrons
 Dipole moment (field-independent basis, Debye):
    X=              1.0489    Y=              0.0003    Z=             -0.0001  Tot=              1.0489
 Quadrupole moment (field-independent basis, Debye-Ang):
   XX=           -166.7609   YY=           -170.6203   ZZ=           -167.5971
   XY=              0.0003   XZ=              0.0008   YZ=             -0.0013
 Traceless Quadrupole moment (field-independent basis, Debye-Ang):
   XX=              1.5652   YY=             -2.2942   ZZ=              0.7290
   XY=              0.0003   XZ=              0.0008   YZ=             -0.0013
 Octapole moment (field-independent basis, Debye-Ang**2):
  XXX=            -22.4440  YYY=             -0.0026  ZZZ=             -0.0023  XYY=            -10.2262
  XXY=              0.0027  XXZ=              0.0070  XZZ=              5.1430  YZZ=             -0.0005
  YYZ=              0.0056  XYZ=             -0.0067
 Hexadecapole moment (field-independent basis, Debye-Ang**3):
 XXXX=          -8614.8075 YYYY=          -2505.3975 ZZZZ=          -1498.6373 XXXY=              0.0074
 XXXZ=              0.0219 YYYX=              0.0066 YYYZ=              0.0166 ZZZX=             -0.0083
 ZZZY=             -0.0224 XXYY=          -1869.2115 XXZZ=          -1658.3060 YYZZ=           -707.9490
 XXYZ=             -0.0112 YYXZ=              0.0017 ZZXY=              0.0044
 N-N= 2.751849046760D+03 E-N=-1.531722072286D+04  KE= 4.129828754348D+03
 1\1\GINC-CN020\FOpt\RB3LYP\6-311+G(d,p)\C12H2Cl8\20CY91R06\14-Apr-2022
 \0\\# opt b3lyp/6-311+g(d,p) scf=xqc\\Title Card Required\\0,1\C,-0.40
 24409267,0.7150891119,0.0472464134\C,0.8854095223,0.8135512007,0.58957
 88883\C,1.6032481351,2.0039699726,0.5940650862\C,1.0145410531,3.133067
 6939,0.0384171737\C,-0.2600331573,3.091894578,-0.5129125229\C,-0.94763
 36991,1.8838426295,-0.4996081851\C,-1.1557979541,-0.5709825678,0.05183
 76162\C,-1.0448234331,-1.4680210521,-1.0162558412\C,-1.7475352528,-2.6
 783416478,-1.0227103089\C,-2.5779311016,-2.9984253655,0.0604509695\C,-
 2.7014766042,-2.1117758791,1.1392772398\C,-1.9893351272,-0.9070342615,
 1.1242647712\H,2.5952184355,2.045310837,1.0208011078\H,-0.7101456576,3
 .9751854916,-0.9430316704\Cl,-2.1333570001,0.2046722578,2.4567664334\C
 l,-2.5529182865,1.8466088698,-1.1978080318\Cl,-3.728854173,-2.50624589
 47,2.4805585842\Cl,-3.4549197302,-4.4953910953,0.0657339192\Cl,1.89982
 40178,4.6436270088,0.0328666598\Cl,-1.5936264915,-3.7743078594,-2.3588
 769594\Cl,-0.0094251951,-1.0563927364,-2.3543095039\Cl,1.6398962598,-0
 .6010664982,1.2934183202\\Version=EM64L-G16RevB.01\State=1-A\HF=-4140.
 3621823\RMSD=5.439e-09\RMSF=2.382e-05\Dipole=0.2087026,0.3560175,-0.00
 13527\Quadrupole=0.3544446,0.8830372,-1.2374818,0.4765526,0.7834958,-0
 .4682642\PG=C01 [X(C12H2Cl8)]\\@


 A SLIP OF THE FOOT YOU MAY SOON RECOVER, BUT A SLIP OF THE TONGUE
 YOU MAY NEVER GET OVER. -- BEN FRANKLIN
 Job cpu time:       2 days  1 hours 59 minutes 34.8 seconds.
 Elapsed time:       1 days  1 hours  0 minutes  6.3 seconds.
 File lengths (MBytes):  RWF=    173 Int=      0 D2E=      0 Chk=     27 Scr=      1
 Normal termination of Gaussian 16 at Thu Apr 14 18:14:27 2022.
