 Entering Gaussian System, Link 0=g16
 Input=2,2prime,3,4,5prime-Pentachlorobiphenyl.gjf
 Output=2,2prime,3,4,5prime-Pentachlorobiphenyl.log
 Initial command:
 /opt/g16/l1.exe "/scratch/gour/Gau-26827.inp" -scrdir="/scratch/gour/"
 Entering Link 1 = /opt/g16/l1.exe PID=     26828.
  
 Copyright (c) 1988-2017, Gaussian, Inc.  All Rights Reserved.
  
 This is part of the Gaussian(R) 16 program.  It is based on
 the Gaussian(R) 09 system (copyright 2009, Gaussian, Inc.),
 the Gaussian(R) 03 system (copyright 2003, Gaussian, Inc.),
 the Gaussian(R) 98 system (copyright 1998, Gaussian, Inc.),
 the Gaussian(R) 94 system (copyright 1995, Gaussian, Inc.),
 the Gaussian 92(TM) system (copyright 1992, Gaussian, Inc.),
 the Gaussian 90(TM) system (copyright 1990, Gaussian, Inc.),
 the Gaussian 88(TM) system (copyright 1988, Gaussian, Inc.),
 the Gaussian 86(TM) system (copyright 1986, Carnegie Mellon
 University), and the Gaussian 82(TM) system (copyright 1983,
 Carnegie Mellon University). Gaussian is a federally registered
 trademark of Gaussian, Inc.
  
 This software contains proprietary and confidential information,
 including trade secrets, belonging to Gaussian, Inc.
  
 This software is provided under written license and may be
 used, copied, transmitted, or stored only in accord with that
 written license.
  
 The following legend is applicable only to US Government
 contracts under FAR:
  
                    RESTRICTED RIGHTS LEGEND
  
 Use, reproduction and disclosure by the US Government is
 subject to restrictions as set forth in subparagraphs (a)
 and (c) of the Commercial Computer Software - Restricted
 Rights clause in FAR 52.227-19.
  
 Gaussian, Inc.
 340 Quinnipiac St., Bldg. 40, Wallingford CT 06492
  
  
 ---------------------------------------------------------------
 Warning -- This program may not be used in any manner that
 competes with the business of Gaussian, Inc. or will provide
 assistance to any competitor of Gaussian, Inc.  The licensee
 of this program is prohibited from giving any competitor of
 Gaussian, Inc. access to this program.  By using this program,
 the user acknowledges that Gaussian, Inc. is engaged in the
 business of creating and licensing software in the field of
 computational chemistry and represents and warrants to the
 licensee that it is not a competitor of Gaussian, Inc. and that
 it will not use this program in any manner prohibited above.
 ---------------------------------------------------------------
  

 Cite this work as:
 Gaussian 16, Revision B.01,
 M. J. Frisch, G. W. Trucks, H. B. Schlegel, G. E. Scuseria, 
 M. A. Robb, J. R. Cheeseman, G. Scalmani, V. Barone, 
 G. A. Petersson, H. Nakatsuji, X. Li, M. Caricato, A. V. Marenich, 
 J. Bloino, B. G. Janesko, R. Gomperts, B. Mennucci, H. P. Hratchian, 
 J. V. Ortiz, A. F. Izmaylov, J. L. Sonnenberg, D. Williams-Young, 
 F. Ding, F. Lipparini, F. Egidi, J. Goings, B. Peng, A. Petrone, 
 T. Henderson, D. Ranasinghe, V. G. Zakrzewski, J. Gao, N. Rega, 
 G. Zheng, W. Liang, M. Hada, M. Ehara, K. Toyota, R. Fukuda, 
 J. Hasegawa, M. Ishida, T. Nakajima, Y. Honda, O. Kitao, H. Nakai, 
 T. Vreven, K. Throssell, J. A. Montgomery, Jr., J. E. Peralta, 
 F. Ogliaro, M. J. Bearpark, J. J. Heyd, E. N. Brothers, K. N. Kudin, 
 V. N. Staroverov, T. A. Keith, R. Kobayashi, J. Normand, 
 K. Raghavachari, A. P. Rendell, J. C. Burant, S. S. Iyengar, 
 J. Tomasi, M. Cossi, J. M. Millam, M. Klene, C. Adamo, R. Cammi, 
 J. W. Ochterski, R. L. Martin, K. Morokuma, O. Farkas, 
 J. B. Foresman, and D. J. Fox, Gaussian, Inc., Wallingford CT, 2016.
 
 ******************************************
 Gaussian 16:  EM64L-G16RevB.01 20-Dec-2017
                16-Mar-2022 
 ******************************************
 %mem=10GB
 %nprocshared=4
 Will use up to    4 processors via shared memory.
 --------------------------------
 # opt b3lyp/6-311+g(d,p) scf=xqc
 --------------------------------
 1/18=20,19=15,26=3,38=1/1,3;
 2/9=110,12=2,17=6,18=5,40=1/2;
 3/5=4,6=6,7=111,11=2,25=1,30=1,71=1,74=-5/1,2,3;
 4//1;
 5/5=2,8=3,13=1,38=5/2,8;
 6/7=2,8=2,9=2,10=2,28=1/1;
 7//1,2,3,16;
 1/18=20,19=15,26=3/3(2);
 2/9=110/2;
 99//99;
 2/9=110/2;
 3/5=4,6=6,7=111,11=2,25=1,30=1,71=1,74=-5/1,2,3;
 4/5=5,16=3,69=1/1;
 5/5=2,8=3,13=1,38=5/2,8;
 7//1,2,3,16;
 1/18=20,19=15,26=3/3(-5);
 2/9=110/2;
 6/7=2,8=2,9=2,10=2,19=2,28=1/1;
 99/9=1/99;
 -------------------
 Title Card Required
 -------------------
 Symbolic Z-matrix:
 Charge =  0 Multiplicity = 1
 C                    -0.58857   0.2802   -0.00285 
 C                     0.74381   0.31008  -0.4362 
 C                     1.45171   1.51953  -0.44227 
 C                     0.82722   2.6991   -0.015 
 C                    -0.50516   2.66921   0.41835 
 C                    -1.21306   1.45976   0.42442 
 C                    -1.36647  -1.04887   0.00382 
 C                    -0.74199  -2.22844  -0.42345 
 C                    -1.44988  -3.43789  -0.41738 
 C                    -2.78226  -3.46777   0.01597 
 C                    -3.40675  -2.28821   0.44325 
 C                    -2.69885  -1.07876   0.43717 
 H                     1.22062  -0.59054  -0.76243 
 H                     1.36771   3.62254  -0.01963 
 H                    -0.98197   3.56984   0.74458 
 H                     0.27532  -2.20562  -0.75432 
 H                    -0.97307  -4.33851  -0.74361 
 Cl                   -3.48314   0.40264   0.97378 
 Cl                   -2.88638   1.42223   0.96866 
 Cl                   -5.08006  -2.32574   0.98749 
 Cl                   -3.67129  -4.98671   0.0236 
 Cl                    3.12503   1.55707  -0.9865 
 

 GradGradGradGradGradGradGradGradGradGradGradGradGradGradGradGradGradGrad
 Berny optimization.
 Initialization pass.
                           ----------------------------
                           !    Initial Parameters    !
                           ! (Angstroms and Degrees)  !
 --------------------------                            --------------------------
 ! Name  Definition              Value          Derivative Info.                !
 --------------------------------------------------------------------------------
 ! R1    R(1,2)                  1.4014         estimate D2E/DX2                !
 ! R2    R(1,6)                  1.4014         estimate D2E/DX2                !
 ! R3    R(1,7)                  1.54           estimate D2E/DX2                !
 ! R4    R(2,3)                  1.4014         estimate D2E/DX2                !
 ! R5    R(2,13)                 1.07           estimate D2E/DX2                !
 ! R6    R(3,4)                  1.4014         estimate D2E/DX2                !
 ! R7    R(3,22)                 1.76           estimate D2E/DX2                !
 ! R8    R(4,5)                  1.4014         estimate D2E/DX2                !
 ! R9    R(4,14)                 1.07           estimate D2E/DX2                !
 ! R10   R(5,6)                  1.4014         estimate D2E/DX2                !
 ! R11   R(5,15)                 1.07           estimate D2E/DX2                !
 ! R12   R(6,19)                 1.76           estimate D2E/DX2                !
 ! R13   R(7,8)                  1.4014         estimate D2E/DX2                !
 ! R14   R(7,12)                 1.4014         estimate D2E/DX2                !
 ! R15   R(8,9)                  1.4014         estimate D2E/DX2                !
 ! R16   R(8,16)                 1.07           estimate D2E/DX2                !
 ! R17   R(9,10)                 1.4014         estimate D2E/DX2                !
 ! R18   R(9,17)                 1.07           estimate D2E/DX2                !
 ! R19   R(10,11)                1.4014         estimate D2E/DX2                !
 ! R20   R(10,21)                1.76           estimate D2E/DX2                !
 ! R21   R(11,12)                1.4014         estimate D2E/DX2                !
 ! R22   R(11,20)                1.76           estimate D2E/DX2                !
 ! R23   R(12,18)                1.76           estimate D2E/DX2                !
 ! R24   R(18,19)                1.1814         estimate D2E/DX2                !
 ! A1    A(2,1,6)              120.0            estimate D2E/DX2                !
 ! A2    A(2,1,7)              120.0            estimate D2E/DX2                !
 ! A3    A(6,1,7)              120.0            estimate D2E/DX2                !
 ! A4    A(1,2,3)              120.0            estimate D2E/DX2                !
 ! A5    A(1,2,13)             120.0            estimate D2E/DX2                !
 ! A6    A(3,2,13)             120.0            estimate D2E/DX2                !
 ! A7    A(2,3,4)              120.0            estimate D2E/DX2                !
 ! A8    A(2,3,22)             120.0            estimate D2E/DX2                !
 ! A9    A(4,3,22)             120.0            estimate D2E/DX2                !
 ! A10   A(3,4,5)              120.0            estimate D2E/DX2                !
 ! A11   A(3,4,14)             120.0            estimate D2E/DX2                !
 ! A12   A(5,4,14)             120.0            estimate D2E/DX2                !
 ! A13   A(4,5,6)              120.0            estimate D2E/DX2                !
 ! A14   A(4,5,15)             120.0            estimate D2E/DX2                !
 ! A15   A(6,5,15)             120.0            estimate D2E/DX2                !
 ! A16   A(1,6,5)              120.0            estimate D2E/DX2                !
 ! A17   A(1,6,19)             120.0            estimate D2E/DX2                !
 ! A18   A(5,6,19)             120.0            estimate D2E/DX2                !
 ! A19   A(1,7,8)              120.0            estimate D2E/DX2                !
 ! A20   A(1,7,12)             120.0            estimate D2E/DX2                !
 ! A21   A(8,7,12)             120.0            estimate D2E/DX2                !
 ! A22   A(7,8,9)              120.0            estimate D2E/DX2                !
 ! A23   A(7,8,16)             120.0            estimate D2E/DX2                !
 ! A24   A(9,8,16)             120.0            estimate D2E/DX2                !
 ! A25   A(8,9,10)             120.0            estimate D2E/DX2                !
 ! A26   A(8,9,17)             120.0            estimate D2E/DX2                !
 ! A27   A(10,9,17)            120.0            estimate D2E/DX2                !
 ! A28   A(9,10,11)            120.0            estimate D2E/DX2                !
 ! A29   A(9,10,21)            120.0            estimate D2E/DX2                !
 ! A30   A(11,10,21)           120.0            estimate D2E/DX2                !
 ! A31   A(10,11,12)           120.0            estimate D2E/DX2                !
 ! A32   A(10,11,20)           120.0            estimate D2E/DX2                !
 ! A33   A(12,11,20)           120.0            estimate D2E/DX2                !
 ! A34   A(7,12,11)            120.0            estimate D2E/DX2                !
 ! A35   A(7,12,18)            120.0            estimate D2E/DX2                !
 ! A36   A(11,12,18)           120.0            estimate D2E/DX2                !
 ! A37   A(12,18,19)           120.0            estimate D2E/DX2                !
 ! A38   A(6,19,18)            120.0            estimate D2E/DX2                !
 ! D1    D(6,1,2,3)              0.0001         estimate D2E/DX2                !
 ! D2    D(6,1,2,13)           180.0            estimate D2E/DX2                !
 ! D3    D(7,1,2,3)           -180.0            estimate D2E/DX2                !
 ! D4    D(7,1,2,13)            -0.0001         estimate D2E/DX2                !
 ! D5    D(2,1,6,5)             -0.0001         estimate D2E/DX2                !
 ! D6    D(2,1,6,19)           180.0            estimate D2E/DX2                !
 ! D7    D(7,1,6,5)            180.0            estimate D2E/DX2                !
 ! D8    D(7,1,6,19)             0.0            estimate D2E/DX2                !
 ! D9    D(2,1,7,8)             -0.0001         estimate D2E/DX2                !
 ! D10   D(2,1,7,12)           179.9998         estimate D2E/DX2                !
 ! D11   D(6,1,7,8)            179.9999         estimate D2E/DX2                !
 ! D12   D(6,1,7,12)            -0.0002         estimate D2E/DX2                !
 ! D13   D(1,2,3,4)              0.0            estimate D2E/DX2                !
 ! D14   D(1,2,3,22)           180.0            estimate D2E/DX2                !
 ! D15   D(13,2,3,4)          -179.9999         estimate D2E/DX2                !
 ! D16   D(13,2,3,22)            0.0001         estimate D2E/DX2                !
 ! D17   D(2,3,4,5)             -0.0001         estimate D2E/DX2                !
 ! D18   D(2,3,4,14)           180.0            estimate D2E/DX2                !
 ! D19   D(22,3,4,5)           179.9999         estimate D2E/DX2                !
 ! D20   D(22,3,4,14)            0.0            estimate D2E/DX2                !
 ! D21   D(3,4,5,6)              0.0001         estimate D2E/DX2                !
 ! D22   D(3,4,5,15)          -179.9999         estimate D2E/DX2                !
 ! D23   D(14,4,5,6)          -180.0            estimate D2E/DX2                !
 ! D24   D(14,4,5,15)            0.0            estimate D2E/DX2                !
 ! D25   D(4,5,6,1)              0.0            estimate D2E/DX2                !
 ! D26   D(4,5,6,19)           179.9999         estimate D2E/DX2                !
 ! D27   D(15,5,6,1)           180.0            estimate D2E/DX2                !
 ! D28   D(15,5,6,19)           -0.0001         estimate D2E/DX2                !
 ! D29   D(1,6,19,18)            0.0006         estimate D2E/DX2                !
 ! D30   D(5,6,19,18)         -179.9994         estimate D2E/DX2                !
 ! D31   D(1,7,8,9)            179.9999         estimate D2E/DX2                !
 ! D32   D(1,7,8,16)             0.0001         estimate D2E/DX2                !
 ! D33   D(12,7,8,9)             0.0001         estimate D2E/DX2                !
 ! D34   D(12,7,8,16)         -179.9998         estimate D2E/DX2                !
 ! D35   D(1,7,12,11)         -179.9999         estimate D2E/DX2                !
 ! D36   D(1,7,12,18)            0.0            estimate D2E/DX2                !
 ! D37   D(8,7,12,11)           -0.0001         estimate D2E/DX2                !
 ! D38   D(8,7,12,18)          179.9999         estimate D2E/DX2                !
 ! D39   D(7,8,9,10)             0.0            estimate D2E/DX2                !
 ! D40   D(7,8,9,17)           180.0            estimate D2E/DX2                !
 ! D41   D(16,8,9,10)          179.9998         estimate D2E/DX2                !
 ! D42   D(16,8,9,17)           -0.0002         estimate D2E/DX2                !
 ! D43   D(8,9,10,11)            0.0            estimate D2E/DX2                !
 ! D44   D(8,9,10,21)         -179.9999         estimate D2E/DX2                !
 ! D45   D(17,9,10,11)         180.0            estimate D2E/DX2                !
 ! D46   D(17,9,10,21)           0.0001         estimate D2E/DX2                !
 ! D47   D(9,10,11,12)           0.0            estimate D2E/DX2                !
 ! D48   D(9,10,11,20)        -179.9998         estimate D2E/DX2                !
 ! D49   D(21,10,11,12)        179.9999         estimate D2E/DX2                !
 ! D50   D(21,10,11,20)          0.0001         estimate D2E/DX2                !
 ! D51   D(10,11,12,7)           0.0            estimate D2E/DX2                !
 ! D52   D(10,11,12,18)       -179.9999         estimate D2E/DX2                !
 ! D53   D(20,11,12,7)         179.9999         estimate D2E/DX2                !
 ! D54   D(20,11,12,18)         -0.0001         estimate D2E/DX2                !
 ! D55   D(7,12,18,19)           0.0005         estimate D2E/DX2                !
 ! D56   D(11,12,18,19)       -179.9995         estimate D2E/DX2                !
 ! D57   D(12,18,19,6)          -0.0008         estimate D2E/DX2                !
 --------------------------------------------------------------------------------
 Trust Radius=3.00D-01 FncErr=1.00D-07 GrdErr=1.00D-06 EigMax=2.50D+02 EigMin=1.00D-04
 Number of steps in this run=    129 maximum allowed number of steps=    132.
 GradGradGradGradGradGradGradGradGradGradGradGradGradGradGradGradGradGrad

                          Input orientation:                          
 ---------------------------------------------------------------------
 Center     Atomic      Atomic             Coordinates (Angstroms)
 Number     Number       Type             X           Y           Z
 ---------------------------------------------------------------------
      1          6           0       -0.588568    0.280197   -0.002851
      2          6           0        0.743814    0.310082   -0.436198
      3          6           0        1.451707    1.519533   -0.442270
      4          6           0        0.827220    2.699098   -0.014995
      5          6           0       -0.505162    2.669213    0.418349
      6          6           0       -1.213056    1.459762    0.424422
      7          6           0       -1.366472   -1.048871    0.003823
      8          6           0       -0.741985   -2.228436   -0.423452
      9          6           0       -1.449878   -3.437887   -0.417378
     10          6           0       -2.782258   -3.467774    0.015972
     11          6           0       -3.406745   -2.288209    0.443247
     12          6           0       -2.698852   -1.078757    0.437173
     13          1           0        1.220624   -0.590542   -0.762430
     14          1           0        1.367712    3.622541   -0.019631
     15          1           0       -0.981973    3.569837    0.744581
     16          1           0        0.275318   -2.205617   -0.754322
     17          1           0       -0.973068   -4.338511   -0.743612
     18         17           0       -3.483137    0.402643    0.973785
     19         17           0       -2.886376    1.422229    0.968656
     20         17           0       -5.080063   -2.325743    0.987490
     21         17           0       -3.671291   -4.986708    0.023603
     22         17           0        3.125028    1.557066   -0.986504
 ---------------------------------------------------------------------
                    Distance matrix (angstroms):
                    1          2          3          4          5
     1  C    0.000000
     2  C    1.401400   0.000000
     3  C    2.427296   1.401400   0.000000
     4  C    2.802800   2.427296   1.401400   0.000000
     5  C    2.427296   2.802800   2.427296   1.401400   0.000000
     6  C    1.401400   2.427296   2.802800   2.427296   1.401400
     7  C    1.540000   2.548270   3.838989   4.342800   3.838989
     8  C    2.548270   2.941400   4.342800   5.187469   4.975106
     9  C    3.838989   4.342800   5.744200   6.558176   6.235992
    10  C    4.342800   5.187469   6.558176   7.145600   6.558176
    11  C    3.838989   4.975106   6.235992   6.558176   5.744200
    12  C    2.548270   3.813607   4.975106   5.187469   4.342800
    13  H    2.146700   1.070000   2.146700   3.396345   3.872800
    14  H    3.872800   3.396345   2.146700   1.070000   2.146700
    15  H    3.396345   3.872800   3.396345   2.146700   1.070000
    16  H    2.736837   2.578650   3.918930   4.990735   5.074276
    17  H    4.693509   4.965039   6.347206   7.300676   7.118798
    18  Cl   3.057342   4.456874   5.254079   4.983028   3.783409
    19  Cl   2.743718   4.048303   4.562800   4.048303   2.743718
    20  Cl   5.286324   6.549198   7.713260   7.819846   6.797295
    21  Cl   6.102800   6.910901   8.294174   8.905600   8.294174
    22  Cl   4.048303   2.743718   1.760000   2.743718   4.048303
                    6          7          8          9         10
     6  C    0.000000
     7  C    2.548270   0.000000
     8  C    3.813607   1.401400   0.000000
     9  C    4.975106   2.427296   1.401400   0.000000
    10  C    5.187469   2.802800   2.427296   1.401400   0.000000
    11  C    4.342800   2.427296   2.802800   2.427296   1.401400
    12  C    2.941400   1.401400   2.427296   2.802800   2.427296
    13  H    3.396345   2.736837   2.578650   3.918930   4.990735
    14  H    3.396345   5.412800   6.232802   7.612271   8.215600
    15  H    2.146700   4.693509   5.919617   7.118798   7.300676
    16  H    4.127917   2.146700   1.070000   2.146700   3.396345
    17  H    5.919617   3.396345   2.146700   1.070000   2.146700
    18  Cl   2.563702   2.743718   4.048303   4.562800   4.048303
    19  Cl   1.760000   3.057342   4.456874   5.254079   4.983028
    20  Cl   5.440665   4.048303   4.562800   4.048303   2.743718
    21  Cl   6.910901   4.562800   4.048303   2.743718   1.760000
    22  Cl   4.562800   5.286324   5.440665   6.797295   7.819846
                   11         12         13         14         15
    11  C    0.000000
    12  C    1.401400   0.000000
    13  H    5.074276   4.127917   0.000000
    14  H    7.612271   6.232802   4.280590   0.000000
    15  H    6.347206   4.965039   4.942800   2.471400   0.000000
    16  H    3.872800   3.396345   1.871400   5.974992   6.097816
    17  H    3.396345   3.872800   4.342800   8.329571   8.047159
    18  Cl   2.743718   1.760000   5.111382   5.906383   4.042212
    19  Cl   3.783409   2.563702   4.890332   4.890332   2.879094
    20  Cl   1.760000   2.743718   6.765486   8.830073   7.184095
    21  Cl   2.743718   4.048303   6.623817   9.975600   8.998151
    22  Cl   7.713260   6.549198   2.879094   2.879094   4.890332
                   16         17         18         19         20
    16  H    0.000000
    17  H    2.471400   0.000000
    18  Cl   4.890332   5.632800   0.000000
    19  Cl   5.111382   6.307038   1.181400   0.000000
    20  Cl   5.632800   4.890332   3.161400   4.342800   0.000000
    21  Cl   4.890332   2.879094   5.475705   6.525618   3.161400
    22  Cl   4.725732   7.184095   6.988795   6.322800   9.289584
                   21         22
    21  Cl   0.000000
    22  Cl   9.488480   0.000000
 Stoichiometry    C12H5Cl5
 Framework group  C1[X(C12H5Cl5)]
 Deg. of freedom    60
 Full point group                 C1      NOp   1
 Largest Abelian subgroup         C1      NOp   1
 Largest concise Abelian subgroup C1      NOp   1
                         Standard orientation:                         
 ---------------------------------------------------------------------
 Center     Atomic      Atomic             Coordinates (Angstroms)
 Number     Number       Type             X           Y           Z
 ---------------------------------------------------------------------
      1          6           0       -1.405067   -0.137046    0.000002
      2          6           0       -2.434618   -1.087807    0.000001
      3          6           0       -3.772777   -0.671570   -0.000001
      4          6           0       -4.081384    0.695428   -0.000002
      5          6           0       -3.051833    1.646189    0.000001
      6          6           0       -1.713675    1.229952    0.000003
      7          6           0        0.065437   -0.594449    0.000003
      8          6           0        0.374044   -1.961447    0.000005
      9          6           0        1.712203   -2.377684    0.000004
     10          6           0        2.741754   -1.426923    0.000003
     11          6           0        2.433147   -0.059925    0.000001
     12          6           0        1.094988    0.356312    0.000001
     13          1           0       -2.198990   -2.131540   -0.000000
     14          1           0       -5.103098    1.013234   -0.000004
     15          1           0       -3.287462    2.689922    0.000003
     16          1           0       -0.412041   -2.687374    0.000003
     17          1           0        1.947832   -3.421418    0.000006
     18         17           0        0.707412    2.073107   -0.000003
     19         17           0       -0.420675    2.424000    0.000006
     20         17           0        3.726147    1.134123   -0.000006
     21         17           0        4.422330   -1.949670   -0.000000
     22         17           0       -5.065777   -1.865618   -0.000004
 ---------------------------------------------------------------------
 Rotational constants (GHZ):           0.5568299           0.1706632           0.1306272
 Standard basis: 6-311+G(d,p) (5D, 7F)
 There are   461 symmetry adapted cartesian basis functions of A   symmetry.
 There are   444 symmetry adapted basis functions of A   symmetry.
   444 basis functions,   737 primitive gaussians,   461 cartesian basis functions
    81 alpha electrons       81 beta electrons
       nuclear repulsion energy      1826.4783484273 Hartrees.
 NAtoms=   22 NActive=   22 NUniq=   22 SFac= 1.00D+00 NAtFMM=   60 NAOKFM=F Big=F
 Integral buffers will be    131072 words long.
 Raffenetti 2 integral format.
 Two-electron integral symmetry is turned on.
 One-electron integrals computed using PRISM.
 NBasis=   444 RedAO= T EigKep=  1.03D-06  NBF=   444
 NBsUse=   438 1.00D-06 EigRej=  7.74D-07 NBFU=   438
 ExpMin= 4.38D-02 ExpMax= 1.06D+05 ExpMxC= 3.62D+03 IAcc=3 IRadAn=         5 AccDes= 0.00D+00
 Harris functional with IExCor=  402 and IRadAn=       5 diagonalized for initial guess.
 HarFok:  IExCor=  402 AccDes= 0.00D+00 IRadAn=         5 IDoV= 1 UseB2=F ITyADJ=14
 ICtDFT=  3500011 ScaDFX=  1.000000  1.000000  1.000000  1.000000
 FoFCou: FMM=F IPFlag=           0 FMFlag=      100000 FMFlg1=           0
         NFxFlg=           0 DoJE=T BraDBF=F KetDBF=T FulRan=T
         wScrn=  0.000000 ICntrl=       500 IOpCl=  0 I1Cent=   200000004 NGrid=           0
         NMat0=    1 NMatS0=      1 NMatT0=    0 NMatD0=    1 NMtDS0=    0 NMtDT0=    0
 Petite list used in FoFCou.
 Requested convergence on RMS density matrix=1.00D-08 within  32 cycles.
 Requested convergence on MAX density matrix=1.00D-06.
 Requested convergence on             energy=1.00D-06.
 No special actions if energy rises.
 Restarting incremental Fock formation.
 SCF Done:  E(RB3LYP) =  -2759.89862336     A.U. after   23 cycles
            NFock= 23  Conv=0.62D-08     -V/T= 1.9998
 QCSCF skips out because SCF is already converged.

 **********************************************************************

            Population analysis using the SCF Density.

 **********************************************************************

 Orbital symmetries:
       Occupied  (A) (A) (A) (A) (A) (A) (A) (A) (A) (A) (A) (A)
                 (A) (A) (A) (A) (A) (A) (A) (A) (A) (A) (A) (A)
                 (A) (A) (A) (A) (A) (A) (A) (A) (A) (A) (A) (A)
                 (A) (A) (A) (A) (A) (A) (A) (A) (A) (A) (A) (A)
                 (A) (A) (A) (A) (A) (A) (A) (A) (A) (A) (A) (A)
                 (A) (A) (A) (A) (A) (A) (A) (A) (A) (A) (A) (A)
                 (A) (A) (A) (A) (A) (A) (A) (A) (A)
       Virtual   (A) (A) (A) (A) (A) (A) (A) (A) (A) (A) (A) (A)
                 (A) (A) (A) (A) (A) (A) (A) (A) (A) (A) (A) (A)
                 (A) (A) (A) (A) (A) (A) (A) (A) (A) (A) (A) (A)
                 (A) (A) (A) (A) (A) (A) (A) (A) (A) (A) (A) (A)
                 (A) (A) (A) (A) (A) (A) (A) (A) (A) (A) (A) (A)
                 (A) (A) (A) (A) (A) (A) (A) (A) (A) (A) (A) (A)
                 (A) (A) (A) (A) (A) (A) (A) (A) (A) (A) (A) (A)
                 (A) (A) (A) (A) (A) (A) (A) (A) (A) (A) (A) (A)
                 (A) (A) (A) (A) (A) (A) (A) (A) (A) (A) (A) (A)
                 (A) (A) (A) (A) (A) (A) (A) (A) (A) (A) (A) (A)
                 (A) (A) (A) (A) (A) (A) (A) (A) (A) (A) (A) (A)
                 (A) (A) (A) (A) (A) (A) (A) (A) (A) (A) (A) (A)
                 (A) (A) (A) (A) (A) (A) (A) (A) (A) (A) (A) (A)
                 (A) (A) (A) (A) (A) (A) (A) (A) (A) (A) (A) (A)
                 (A) (A) (A) (A) (A) (A) (A) (A) (A) (A) (A) (A)
                 (A) (A) (A) (A) (A) (A) (A) (A) (A) (A) (A) (A)
                 (A) (A) (A) (A) (A) (A) (A) (A) (A) (A) (A) (A)
                 (A) (A) (A) (A) (A) (A) (A) (A) (A) (A) (A) (A)
                 (A) (A) (A) (A) (A) (A) (A) (A) (A) (A) (A) (A)
                 (A) (A) (A) (A) (A) (A) (A) (A) (A) (A) (A) (A)
                 (A) (A) (A) (A) (A) (A) (A) (A) (A) (A) (A) (A)
                 (A) (A) (A) (A) (A) (A) (A) (A) (A) (A) (A) (A)
                 (A) (A) (A) (A) (A) (A) (A) (A) (A) (A) (A) (A)
                 (A) (A) (A) (A) (A) (A) (A) (A) (A) (A) (A) (A)
                 (A) (A) (A) (A) (A) (A) (A) (A) (A) (A) (A) (A)
                 (A) (A) (A) (A) (A) (A) (A) (A) (A) (A) (A) (A)
                 (A) (A) (A) (A) (A) (A) (A) (A) (A) (A) (A) (A)
                 (A) (A) (A) (A) (A) (A) (A) (A) (A) (A) (A) (A)
                 (A) (A) (A) (A) (A) (A) (A) (A) (A) (A) (A) (A)
                 (A) (A) (A) (A) (A) (A) (A) (A) (A)
 The electronic state is 1-A.
 Alpha  occ. eigenvalues -- -101.66445-101.65967-101.56235-101.56159-101.55861
 Alpha  occ. eigenvalues --  -10.25463 -10.25356 -10.25039 -10.21244 -10.21173
 Alpha  occ. eigenvalues --  -10.20056 -10.20002 -10.19960 -10.19822 -10.19561
 Alpha  occ. eigenvalues --  -10.18001 -10.17760  -9.65052  -9.62892  -9.47704
 Alpha  occ. eigenvalues --   -9.47599  -9.47307  -7.43438  -7.38527  -7.38419
 Alpha  occ. eigenvalues --   -7.38054  -7.37788  -7.37331  -7.24152  -7.24062
 Alpha  occ. eigenvalues --   -7.23776  -7.23199  -7.23147  -7.23081  -7.23050
 Alpha  occ. eigenvalues --   -7.22798  -7.22739  -1.39475  -0.92275  -0.90521
 Alpha  occ. eigenvalues --   -0.87091  -0.86548  -0.85117  -0.81081  -0.80328
 Alpha  occ. eigenvalues --   -0.78320  -0.73624  -0.72660  -0.72606  -0.70786
 Alpha  occ. eigenvalues --   -0.66074  -0.63408  -0.60557  -0.59416  -0.57887
 Alpha  occ. eigenvalues --   -0.52016  -0.50330  -0.49902  -0.48022  -0.47460
 Alpha  occ. eigenvalues --   -0.45493  -0.44701  -0.42739  -0.42374  -0.41404
 Alpha  occ. eigenvalues --   -0.41121  -0.39845  -0.37413  -0.36338  -0.35801
 Alpha  occ. eigenvalues --   -0.35422  -0.34505  -0.33434  -0.32416  -0.31218
 Alpha  occ. eigenvalues --   -0.29850  -0.28980  -0.27192  -0.24863  -0.21279
 Alpha  occ. eigenvalues --   -0.16425
 Alpha virt. eigenvalues --   -0.06816  -0.05505  -0.02672  -0.02039  -0.01363
 Alpha virt. eigenvalues --    0.00073   0.00157   0.00287   0.01059   0.01952
 Alpha virt. eigenvalues --    0.01966   0.02212   0.03019   0.03695   0.04719
 Alpha virt. eigenvalues --    0.05105   0.05354   0.06131   0.06442   0.06748
 Alpha virt. eigenvalues --    0.07116   0.07344   0.07760   0.08338   0.09468
 Alpha virt. eigenvalues --    0.09595   0.09952   0.10093   0.10757   0.11083
 Alpha virt. eigenvalues --    0.11391   0.11424   0.11591   0.12575   0.12782
 Alpha virt. eigenvalues --    0.13220   0.13912   0.14086   0.15145   0.15243
 Alpha virt. eigenvalues --    0.15460   0.15494   0.15832   0.16098   0.16357
 Alpha virt. eigenvalues --    0.16965   0.17194   0.17510   0.18055   0.18451
 Alpha virt. eigenvalues --    0.18852   0.19427   0.19846   0.20072   0.20250
 Alpha virt. eigenvalues --    0.20697   0.20795   0.21019   0.21519   0.22259
 Alpha virt. eigenvalues --    0.22576   0.23178   0.23227   0.23333   0.23894
 Alpha virt. eigenvalues --    0.24301   0.25287   0.25525   0.25805   0.26655
 Alpha virt. eigenvalues --    0.26989   0.27445   0.28102   0.28316   0.28920
 Alpha virt. eigenvalues --    0.29338   0.29555   0.30020   0.30670   0.31391
 Alpha virt. eigenvalues --    0.32456   0.32617   0.33494   0.34557   0.35174
 Alpha virt. eigenvalues --    0.35924   0.36396   0.38541   0.39896   0.41804
 Alpha virt. eigenvalues --    0.43390   0.43401   0.43991   0.44897   0.45124
 Alpha virt. eigenvalues --    0.45639   0.45916   0.46550   0.46959   0.47161
 Alpha virt. eigenvalues --    0.48417   0.49781   0.49895   0.50821   0.51168
 Alpha virt. eigenvalues --    0.52332   0.52385   0.54057   0.54449   0.54870
 Alpha virt. eigenvalues --    0.54991   0.55623   0.56686   0.57003   0.58719
 Alpha virt. eigenvalues --    0.58952   0.59210   0.61276   0.61619   0.61677
 Alpha virt. eigenvalues --    0.61698   0.62827   0.63529   0.65346   0.65738
 Alpha virt. eigenvalues --    0.66492   0.66592   0.67230   0.67888   0.68349
 Alpha virt. eigenvalues --    0.70674   0.71047   0.71494   0.71571   0.72928
 Alpha virt. eigenvalues --    0.73440   0.77281   0.79386   0.79831   0.80253
 Alpha virt. eigenvalues --    0.80909   0.83570   0.83586   0.83967   0.84586
 Alpha virt. eigenvalues --    0.85171   0.85937   0.86020   0.86320   0.86536
 Alpha virt. eigenvalues --    0.86625   0.87356   0.88214   0.88501   0.88563
 Alpha virt. eigenvalues --    0.90193   0.91491   0.91593   0.92486   0.93249
 Alpha virt. eigenvalues --    0.94759   0.95352   0.95755   0.95927   0.96221
 Alpha virt. eigenvalues --    0.96976   0.97753   0.98859   0.99418   1.00212
 Alpha virt. eigenvalues --    1.00410   1.03007   1.04512   1.04726   1.05497
 Alpha virt. eigenvalues --    1.06833   1.07686   1.09346   1.10913   1.12585
 Alpha virt. eigenvalues --    1.14039   1.16169   1.19455   1.20822   1.23103
 Alpha virt. eigenvalues --    1.24479   1.25393   1.26224   1.27504   1.28150
 Alpha virt. eigenvalues --    1.28253   1.28504   1.30947   1.32879   1.34004
 Alpha virt. eigenvalues --    1.36889   1.37788   1.42407   1.43883   1.44032
 Alpha virt. eigenvalues --    1.47046   1.50411   1.50452   1.51688   1.52277
 Alpha virt. eigenvalues --    1.54547   1.54951   1.57713   1.58127   1.61161
 Alpha virt. eigenvalues --    1.61987   1.64250   1.65893   1.67387   1.68717
 Alpha virt. eigenvalues --    1.71370   1.73117   1.74323   1.75705   1.80043
 Alpha virt. eigenvalues --    1.82640   1.83133   1.83428   1.86351   1.86889
 Alpha virt. eigenvalues --    1.88648   1.89881   1.90999   1.92136   1.92451
 Alpha virt. eigenvalues --    1.94934   1.95228   1.96577   1.98687   2.00022
 Alpha virt. eigenvalues --    2.01245   2.03467   2.03920   2.07345   2.08368
 Alpha virt. eigenvalues --    2.09766   2.14370   2.16493   2.19788   2.19999
 Alpha virt. eigenvalues --    2.23516   2.24566   2.26128   2.26284   2.26766
 Alpha virt. eigenvalues --    2.29092   2.29196   2.31027   2.33287   2.33465
 Alpha virt. eigenvalues --    2.35258   2.36175   2.39327   2.40790   2.42623
 Alpha virt. eigenvalues --    2.44009   2.44410   2.46617   2.48507   2.51218
 Alpha virt. eigenvalues --    2.54030   2.55098   2.59028   2.61972   2.63488
 Alpha virt. eigenvalues --    2.63968   2.64259   2.65942   2.68786   2.70879
 Alpha virt. eigenvalues --    2.72083   2.73889   2.73945   2.75005   2.75637
 Alpha virt. eigenvalues --    2.76119   2.78983   2.80108   2.82563   2.82841
 Alpha virt. eigenvalues --    2.85038   2.85687   2.86155   2.91295   2.92955
 Alpha virt. eigenvalues --    2.95279   3.01532   3.07034   3.07572   3.08799
 Alpha virt. eigenvalues --    3.13162   3.14995   3.17332   3.20654   3.21894
 Alpha virt. eigenvalues --    3.24145   3.33714   3.36685   3.39345   3.43009
 Alpha virt. eigenvalues --    3.46542   3.55335   3.57368   3.63307   3.70343
 Alpha virt. eigenvalues --    3.77478   3.82967   3.90693   4.05428   4.06383
 Alpha virt. eigenvalues --    4.10160   4.20059   4.47730   4.81024   4.84336
 Alpha virt. eigenvalues --    9.74413   9.78047   9.80064   9.82583  10.55053
 Alpha virt. eigenvalues --   23.38937  23.55991  23.85234  23.86104  23.89915
 Alpha virt. eigenvalues --   23.93202  23.99008  24.01977  24.02550  24.05749
 Alpha virt. eigenvalues --   24.11779  24.12577  25.40975  25.79036  25.82328
 Alpha virt. eigenvalues --   25.87450  25.97596  26.14549  26.15715  26.20284
 Alpha virt. eigenvalues --   26.20888  26.53204  26.60671  26.77292  27.11378
 Alpha virt. eigenvalues --   27.41248  28.45338 215.74514 215.77216 215.80632
 Alpha virt. eigenvalues --  215.91199 216.87021
          Condensed to atoms (all electrons):
               1          2          3          4          5          6
     1  C   30.563365   4.714553  -6.500854  -4.373404 -16.879596   9.480573
     2  C    4.714553  23.641488   6.599189  -6.398591  -9.571222  -1.487760
     3  C   -6.500854   6.599189  24.620758  -3.546043  -6.588637  -0.700292
     4  C   -4.373404  -6.398591  -3.546043  21.915074  10.114853 -13.689935
     5  C  -16.879596  -9.571222  -6.588637  10.114853  63.030628 -52.629746
     6  C    9.480573  -1.487760  -0.700292 -13.689935 -52.629746  85.254853
     7  C    3.569250  -0.900998  -0.513293   0.186459  -2.250999  -0.648166
     8  C    0.682383   4.460507  -1.116829  -0.139299   0.590280  -6.699458
     9  C    0.784280  -1.191417  -0.816787   0.021244   0.107455  -0.972979
    10  C    0.823066  -1.633827  -0.996275  -0.143147   0.047920  -0.587422
    11  C   -2.024902   0.189543   0.321801  -0.280792  -1.343730   1.075363
    12  C    4.033493  -4.264364  -1.922671  -0.988535  -7.627844  11.110501
    13  H    0.262812   0.062543  -0.353296   0.060948   0.065326  -0.016794
    14  H    0.081952   0.079238   0.095527   0.369542  -0.041822  -0.249501
    15  H    0.129255  -0.019009  -0.069850  -0.018713   0.113843   0.291580
    16  H    0.119661  -0.110253  -0.078920  -0.013441   0.033685   0.066554
    17  H   -0.000942   0.010677   0.000633   0.000063   0.000025   0.001277
    18  Cl   2.253050   1.020227  -0.128228  -1.599424  -9.722734   8.991642
    19  Cl -21.937148  -9.453975  -2.823889   5.385110  40.257724 -32.990721
    20  Cl   1.629861   0.534530   0.114811  -0.044392  -0.885333  -0.461895
    21  Cl  -0.273054  -0.142020  -0.025702  -0.000267   0.050086   0.076532
    22  Cl  -0.848628   0.375540  -0.632043   0.040161   0.004201   0.542656
               7          8          9         10         11         12
     1  C    3.569250   0.682383   0.784280   0.823066  -2.024902   4.033493
     2  C   -0.900998   4.460507  -1.191417  -1.633827   0.189543  -4.264364
     3  C   -0.513293  -1.116829  -0.816787  -0.996275   0.321801  -1.922671
     4  C    0.186459  -0.139299   0.021244  -0.143147  -0.280792  -0.988535
     5  C   -2.250999   0.590280   0.107455   0.047920  -1.343730  -7.627844
     6  C   -0.648166  -6.699458  -0.972979  -0.587422   1.075363  11.110501
     7  C   15.192269  -2.269868  -0.117153  -2.621254  -0.344369   0.042097
     8  C   -2.269868  22.949258   3.480130  -4.138912  -3.127982  -8.020449
     9  C   -0.117153   3.480130  15.170818  -0.366437  -7.749106  -1.198722
    10  C   -2.621254  -4.138912  -0.366437  24.516855  -8.407402   0.397098
    11  C   -0.344369  -3.127982  -7.749106  -8.407402  29.187221  -0.707743
    12  C    0.042097  -8.020449  -1.198722   0.397098  -0.707743  33.339123
    13  H    0.050053   0.034954   0.061980   0.027953  -0.018560   0.064577
    14  H    0.006323   0.004878   0.000449   0.000152  -0.000439   0.000573
    15  H    0.012145  -0.002296   0.000003  -0.000302   0.000761   0.019606
    16  H    0.018678   0.268206  -0.115828   0.049490  -0.042846   0.079975
    17  H    0.016134  -0.030141   0.343477   0.027062  -0.016472   0.002411
    18  Cl  -1.394540   0.407296  -0.957704  -0.201035   3.730272  -4.444675
    19  Cl  -1.237483  -1.675937  -0.776853  -2.467603   0.990709 -15.739824
    20  Cl   0.003464   1.352569   2.083146   1.844587  -6.935287   2.734044
    21  Cl  -0.420749  -0.708628  -1.082037  -0.917880   2.346646   0.220021
    22  Cl  -0.112539  -0.093723  -0.040101  -0.013572   0.007682  -0.063493
              13         14         15         16         17         18
     1  C    0.262812   0.081952   0.129255   0.119661  -0.000942   2.253050
     2  C    0.062543   0.079238  -0.019009  -0.110253   0.010677   1.020227
     3  C   -0.353296   0.095527  -0.069850  -0.078920   0.000633  -0.128228
     4  C    0.060948   0.369542  -0.018713  -0.013441   0.000063  -1.599424
     5  C    0.065326  -0.041822   0.113843   0.033685   0.000025  -9.722734
     6  C   -0.016794  -0.249501   0.291580   0.066554   0.001277   8.991642
     7  C    0.050053   0.006323   0.012145   0.018678   0.016134  -1.394540
     8  C    0.034954   0.004878  -0.002296   0.268206  -0.030141   0.407296
     9  C    0.061980   0.000449   0.000003  -0.115828   0.343477  -0.957704
    10  C    0.027953   0.000152  -0.000302   0.049490   0.027062  -0.201035
    11  C   -0.018560  -0.000439   0.000761  -0.042846  -0.016472   3.730272
    12  C    0.064577   0.000573   0.019606   0.079975   0.002411  -4.444675
    13  H    0.563946  -0.000195   0.000030   0.005879   0.000021  -0.000842
    14  H   -0.000195   0.523494  -0.009514   0.000004  -0.000000  -0.005542
    15  H    0.000030  -0.009514   0.532038  -0.000003   0.000000   0.028363
    16  H    0.005879   0.000004  -0.000003   0.573136  -0.007339   0.008770
    17  H    0.000021  -0.000000   0.000000  -0.007339   0.512071   0.001548
    18  Cl  -0.000842  -0.005542   0.028363   0.008770   0.001548  29.733150
    19  Cl   0.034227   0.018633  -0.144223   0.026777  -0.001112 -10.229201
    20  Cl  -0.000807  -0.000013   0.000285  -0.003254  -0.000552  -2.230798
    21  Cl   0.000346   0.000001  -0.000006   0.000926  -0.007403   0.277850
    22  Cl  -0.036253  -0.017549   0.002022  -0.000669   0.000021   0.004525
              19         20         21         22
     1  C  -21.937148   1.629861  -0.273054  -0.848628
     2  C   -9.453975   0.534530  -0.142020   0.375540
     3  C   -2.823889   0.114811  -0.025702  -0.632043
     4  C    5.385110  -0.044392  -0.000267   0.040161
     5  C   40.257724  -0.885333   0.050086   0.004201
     6  C  -32.990721  -0.461895   0.076532   0.542656
     7  C   -1.237483   0.003464  -0.420749  -0.112539
     8  C   -1.675937   1.352569  -0.708628  -0.093723
     9  C   -0.776853   2.083146  -1.082037  -0.040101
    10  C   -2.467603   1.844587  -0.917880  -0.013572
    11  C    0.990709  -6.935287   2.346646   0.007682
    12  C  -15.739824   2.734044   0.220021  -0.063493
    13  H    0.034227  -0.000807   0.000346  -0.036253
    14  H    0.018633  -0.000013   0.000001  -0.017549
    15  H   -0.144223   0.000285  -0.000006   0.002022
    16  H    0.026777  -0.003254   0.000926  -0.000669
    17  H   -0.001112  -0.000552  -0.007403   0.000021
    18  Cl -10.229201  -2.230798   0.277850   0.004525
    19  Cl  73.646090  -3.758815   0.204937  -0.073888
    20  Cl  -3.758815  21.135993  -0.855024   0.000376
    21  Cl   0.204937  -0.855024  17.779387  -0.000128
    22  Cl  -0.073888   0.000376  -0.000128  17.530498
 Mulliken charges:
               1
     1  C   -0.289025
     2  C   -0.514597
     3  C    1.060891
     4  C   -0.857473
     5  C   -0.874364
     6  C    0.243137
     7  C   -0.265458
     8  C   -0.206937
     9  C   -0.667860
    10  C    0.760885
    11  C   -0.850368
    12  C   -1.065199
    13  H    0.131152
    14  H    0.143809
    15  H    0.133986
    16  H    0.120812
    17  H    0.148541
    18  Cl   1.458031
    19  Cl  -0.253535
    20  Cl   0.742502
    21  Cl   0.476165
    22  Cl   0.424904
 Sum of Mulliken charges =  -0.00000
 Mulliken charges with hydrogens summed into heavy atoms:
               1
     1  C   -0.289025
     2  C   -0.383445
     3  C    1.060891
     4  C   -0.713664
     5  C   -0.740378
     6  C    0.243137
     7  C   -0.265458
     8  C   -0.086125
     9  C   -0.519319
    10  C    0.760885
    11  C   -0.850368
    12  C   -1.065199
    18  Cl   1.458031
    19  Cl  -0.253535
    20  Cl   0.742502
    21  Cl   0.476165
    22  Cl   0.424904
 Electronic spatial extent (au):  <R**2>=           7209.1154
 Charge=             -0.0000 electrons
 Dipole moment (field-independent basis, Debye):
    X=             -1.4046    Y=              2.7224    Z=              0.0000  Tot=              3.0634
 Quadrupole moment (field-independent basis, Debye-Ang):
   XX=           -148.7706   YY=           -118.4711   ZZ=           -134.7050
   XY=             -3.3908   XZ=              0.0000   YZ=              0.0000
 Traceless Quadrupole moment (field-independent basis, Debye-Ang):
   XX=            -14.7883   YY=             15.5111   ZZ=             -0.7228
   XY=             -3.3908   XZ=              0.0000   YZ=              0.0000
 Octapole moment (field-independent basis, Debye-Ang**2):
  XXX=             -2.0597  YYY=             31.9894  ZZZ=             -0.0001  XYY=              6.3195
  XXY=             42.0099  XXZ=             -0.0000  XZZ=             11.1156  YZZ=             11.3508
  YYZ=              0.0000  XYZ=             -0.0000
 Hexadecapole moment (field-independent basis, Debye-Ang**3):
 XXXX=          -7333.6209 YYYY=          -2108.4601 ZZZZ=           -160.6331 XXXY=            -78.9294
 XXXZ=             -0.0002 YYYX=             37.8931 YYYZ=              0.0001 ZZZX=             -0.0001
 ZZZY=              0.0001 XXYY=          -1564.8065 XXZZ=          -1266.3114 YYZZ=           -416.3224
 XXYZ=             -0.0000 YYXZ=             -0.0001 ZZXY=             18.0073
 N-N= 1.826478348427D+03 E-N=-1.018968172707D+04  KE= 2.760327504077D+03
 Calling FoFJK, ICntrl=      2127 FMM=F ISym2X=0 I1Cent= 0 IOpClX= 0 NMat=1 NMatS=1 NMatT=0.
 ***** Axes restored to original set *****
 -------------------------------------------------------------------
 Center     Atomic                   Forces (Hartrees/Bohr)
 Number     Number              X              Y              Z
 -------------------------------------------------------------------
      1        6           0.002394367   -0.025331056   -0.005546214
      2        6           0.000202449    0.013948843    0.002553231
      3        6          -0.012989868   -0.000566982    0.004173202
      4        6          -0.004024504   -0.008028218   -0.000182085
      5        6           0.006411648   -0.024306465   -0.006677203
      6        6           0.100838648   -0.005886303   -0.034327920
      7        6           0.025485805    0.009795816   -0.006556745
      8        6          -0.019394691   -0.004558689    0.005533544
      9        6          -0.005215346    0.012458338    0.004057987
     10        6           0.001358092    0.002373567   -0.000001647
     11        6           0.019085862    0.007267031   -0.004923119
     12        6           0.053735414   -0.104285635   -0.037288836
     13        1           0.006831848   -0.004063192   -0.003013955
     14        1           0.005634636    0.007929274   -0.000367157
     15        1          -0.005455497    0.011211635    0.003903020
     16        1           0.007287583   -0.004641941   -0.003272837
     17        1           0.002404484   -0.008083513   -0.002310302
     18       17          -1.719410056   -2.707385774    0.058025445
     19       17           1.537061917    2.829451249    0.024975306
     20       17          -0.003991532    0.003161214    0.001908735
     21       17           0.004451564   -0.000433185   -0.001548017
     22       17          -0.002702824   -0.000026014    0.000885567
 -------------------------------------------------------------------
 Cartesian Forces:  Max     2.829451249 RMS     0.559889522

 GradGradGradGradGradGradGradGradGradGradGradGradGradGradGradGradGradGrad
 Berny optimization.
 FormGI is forming the generalized inverse of G from B-inverse, IUseBI=4.
 Internal  Forces:  Max     3.118368441 RMS     0.292646680
 Search for a local minimum.
 Step number   1 out of a maximum of  129
 All quantities printed in internal units (Hartrees-Bohrs-Radians)
 Mixed Optimization -- RFO/linear search
 Second derivative matrix not updated -- first step.
 ITU=  0
     Eigenvalues ---    0.01035   0.01214   0.01489   0.01712   0.01738
     Eigenvalues ---    0.01829   0.02070   0.02070   0.02070   0.02070
     Eigenvalues ---    0.02070   0.02070   0.02070   0.02070   0.02070
     Eigenvalues ---    0.02070   0.02070   0.02070   0.03966   0.16000
     Eigenvalues ---    0.16000   0.16000   0.16000   0.16000   0.22442
     Eigenvalues ---    0.22534   0.23516   0.24504   0.24620   0.25000
     Eigenvalues ---    0.25000   0.25000   0.25000   0.25000   0.25000
     Eigenvalues ---    0.25000   0.28335   0.29044   0.29447   0.29539
     Eigenvalues ---    0.29539   0.29539   0.37230   0.37230   0.37230
     Eigenvalues ---    0.37230   0.37230   0.40024   0.40848   0.41432
     Eigenvalues ---    0.41582   0.44578   0.45130   0.45389   0.45389
     Eigenvalues ---    0.45389   0.45389   0.45389   0.45389  16.61567
 RFO step:  Lambda=-6.28474280D-01 EMin= 1.03510892D-02
 Linear search not attempted -- first point.
 Iteration  1 RMS(Cart)=  0.03349043 RMS(Int)=  0.00052104
 Iteration  2 RMS(Cart)=  0.00128041 RMS(Int)=  0.00023663
 Iteration  3 RMS(Cart)=  0.00000065 RMS(Int)=  0.00023663
 Variable       Old X    -DE/DX   Delta X   Delta X   Delta X     New X
                                 (Linear)    (Quad)   (Total)
    R1        2.64826   0.01765   0.00000   0.00175   0.00168   2.64995
    R2        2.64826   0.10199   0.00000   0.01677   0.01645   2.66471
    R3        2.91018   0.11878   0.00000  -0.01351  -0.01403   2.89615
    R4        2.64826  -0.01206   0.00000  -0.00886  -0.00885   2.63942
    R5        2.02201   0.00738   0.00000   0.00738   0.00738   2.02938
    R6        2.64826  -0.03071   0.00000  -0.01152  -0.01145   2.63681
    R7        3.32592  -0.00284   0.00000  -0.00308  -0.00308   3.32284
    R8        2.64826  -0.02541   0.00000  -0.00891  -0.00885   2.63941
    R9        2.02201   0.00969   0.00000   0.00968   0.00968   2.03169
   R10        2.64826  -0.00648   0.00000  -0.00827  -0.00828   2.63998
   R11        2.02201   0.01306   0.00000   0.01305   0.01305   2.03505
   R12        3.32592   0.04505   0.00000   0.11969   0.11994   3.44586
   R13        2.64826   0.01761   0.00000   0.00165   0.00158   2.64984
   R14        2.64826   0.10112   0.00000   0.01602   0.01566   2.66392
   R15        2.64826  -0.01261   0.00000  -0.00941  -0.00940   2.63886
   R16        2.02201   0.00784   0.00000   0.00784   0.00784   2.02984
   R17        2.64826  -0.03169   0.00000  -0.01241  -0.01233   2.63593
   R18        2.02201   0.00858   0.00000   0.00857   0.00857   2.03058
   R19        2.64826  -0.01999   0.00000  -0.00384  -0.00377   2.64449
   R20        3.32592  -0.00188   0.00000  -0.00204  -0.00204   3.32388
   R21        2.64826  -0.01099   0.00000  -0.01239  -0.01240   2.63586
   R22        3.32592   0.00432   0.00000   0.00467   0.00467   3.33059
   R23        3.32592   0.06441   0.00000   0.14072   0.14095   3.46686
   R24        2.23252   3.11837   0.00000   0.18084   0.18136   2.41388
    A1        2.09440  -0.07993   0.00000  -0.01013  -0.00985   2.08455
    A2        2.09440  -0.16846   0.00000  -0.00419  -0.00353   2.09086
    A3        2.09440   0.24840   0.00000   0.01431   0.01338   2.10777
    A4        2.09440   0.04392   0.00000   0.00298   0.00282   2.09722
    A5        2.09440  -0.01770   0.00000   0.00391   0.00399   2.09839
    A6        2.09440  -0.02622   0.00000  -0.00689  -0.00681   2.08758
    A7        2.09440   0.01287   0.00000   0.00699   0.00697   2.10136
    A8        2.09440  -0.00638   0.00000  -0.00343  -0.00342   2.09098
    A9        2.09440  -0.00649   0.00000  -0.00356  -0.00355   2.09084
   A10        2.09440  -0.01167   0.00000  -0.00572  -0.00569   2.08871
   A11        2.09440   0.00491   0.00000   0.00168   0.00167   2.09606
   A12        2.09440   0.00676   0.00000   0.00403   0.00402   2.09842
   A13        2.09440   0.02215   0.00000   0.00926   0.00920   2.10360
   A14        2.09440  -0.01151   0.00000  -0.00518  -0.00516   2.08924
   A15        2.09440  -0.01064   0.00000  -0.00408  -0.00405   2.09035
   A16        2.09440   0.01266   0.00000  -0.00339  -0.00346   2.09094
   A17        2.09440   0.07072   0.00000   0.03253   0.03237   2.12677
   A18        2.09440  -0.08339   0.00000  -0.02914  -0.02891   2.06548
   A19        2.09440  -0.16761   0.00000  -0.00321  -0.00253   2.09187
   A20        2.09440   0.24626   0.00000   0.01201   0.01104   2.10544
   A21        2.09440  -0.07865   0.00000  -0.00880  -0.00852   2.08588
   A22        2.09440   0.04760   0.00000   0.00720   0.00702   2.10142
   A23        2.09440  -0.01886   0.00000   0.00267   0.00275   2.09715
   A24        2.09440  -0.02874   0.00000  -0.00986  -0.00978   2.08462
   A25        2.09440   0.00665   0.00000  -0.00011  -0.00014   2.09426
   A26        2.09440  -0.00162   0.00000   0.00222   0.00223   2.09663
   A27        2.09440  -0.00503   0.00000  -0.00211  -0.00210   2.09230
   A28        2.09440  -0.00840   0.00000  -0.00168  -0.00165   2.09275
   A29        2.09440  -0.00302   0.00000  -0.00738  -0.00740   2.08700
   A30        2.09440   0.01142   0.00000   0.00906   0.00905   2.10344
   A31        2.09440   0.02234   0.00000   0.00932   0.00926   2.10366
   A32        2.09440  -0.00568   0.00000   0.00160   0.00163   2.09602
   A33        2.09440  -0.01667   0.00000  -0.01092  -0.01089   2.08351
   A34        2.09440   0.01045   0.00000  -0.00594  -0.00598   2.08841
   A35        2.09440   0.06591   0.00000   0.02718   0.02696   2.12135
   A36        2.09440  -0.07636   0.00000  -0.02125  -0.02098   2.07342
   A37        2.09440  -0.31543   0.00000  -0.04273  -0.04161   2.05278
   A38        2.09440  -0.31585   0.00000  -0.04330  -0.04214   2.05226
    D1        0.00000   0.00000   0.00000   0.00000   0.00000   0.00000
    D2        3.14159   0.00000   0.00000   0.00000   0.00000   3.14159
    D3       -3.14159   0.00000   0.00000   0.00000   0.00000  -3.14159
    D4       -0.00000   0.00000   0.00000   0.00000   0.00000  -0.00000
    D5       -0.00000  -0.00000   0.00000  -0.00000  -0.00000  -0.00000
    D6        3.14159  -0.00000   0.00000   0.00000   0.00000   3.14159
    D7        3.14159  -0.00000   0.00000  -0.00000  -0.00000   3.14159
    D8        0.00000  -0.00000   0.00000   0.00000   0.00000   0.00000
    D9       -0.00000  -0.00000   0.00000  -0.00000  -0.00000  -0.00000
   D10        3.14159  -0.00000   0.00000  -0.00000  -0.00000   3.14159
   D11        3.14159  -0.00000   0.00000  -0.00000  -0.00000   3.14159
   D12       -0.00000  -0.00000   0.00000  -0.00000  -0.00000  -0.00000
   D13        0.00000  -0.00000   0.00000   0.00000   0.00000   0.00000
   D14        3.14159  -0.00000   0.00000   0.00000   0.00000   3.14159
   D15       -3.14159   0.00000   0.00000  -0.00000  -0.00000  -3.14159
   D16        0.00000   0.00000   0.00000  -0.00000  -0.00000   0.00000
   D17       -0.00000  -0.00000   0.00000   0.00000   0.00000  -0.00000
   D18        3.14159   0.00000   0.00000  -0.00000  -0.00000   3.14159
   D19        3.14159  -0.00000   0.00000   0.00000   0.00000   3.14159
   D20        0.00000   0.00000   0.00000  -0.00000  -0.00000   0.00000
   D21        0.00000   0.00000   0.00000  -0.00000  -0.00000   0.00000
   D22       -3.14159   0.00000   0.00000  -0.00000  -0.00000  -3.14159
   D23       -3.14159  -0.00000   0.00000  -0.00000  -0.00000  -3.14159
   D24        0.00000   0.00000   0.00000  -0.00000  -0.00000   0.00000
   D25       -0.00000   0.00000   0.00000   0.00000   0.00000  -0.00000
   D26        3.14159   0.00000   0.00000   0.00000   0.00000   3.14159
   D27        3.14159  -0.00000   0.00000   0.00000   0.00000   3.14159
   D28       -0.00000   0.00000   0.00000  -0.00000  -0.00000  -0.00000
   D29        0.00001  -0.00000   0.00000  -0.00000  -0.00000   0.00001
   D30       -3.14158  -0.00000   0.00000  -0.00000  -0.00000  -3.14158
   D31        3.14159   0.00000   0.00000   0.00000   0.00000   3.14159
   D32        0.00000   0.00000   0.00000   0.00000   0.00000   0.00000
   D33        0.00000   0.00000   0.00000   0.00000   0.00000   0.00000
   D34       -3.14159   0.00000   0.00000  -0.00000  -0.00000  -3.14159
   D35       -3.14159  -0.00000   0.00000  -0.00000  -0.00000  -3.14159
   D36        0.00000  -0.00000   0.00000   0.00000   0.00000   0.00000
   D37       -0.00000  -0.00000   0.00000  -0.00000  -0.00000  -0.00000
   D38        3.14159  -0.00000   0.00000   0.00000   0.00000   3.14159
   D39       -0.00000  -0.00000   0.00000   0.00000   0.00000  -0.00000
   D40        3.14159  -0.00000   0.00000  -0.00000  -0.00000   3.14159
   D41        3.14159   0.00000   0.00000   0.00000   0.00000   3.14159
   D42       -0.00000   0.00000   0.00000   0.00000   0.00000  -0.00000
   D43       -0.00000  -0.00000   0.00000  -0.00000  -0.00000  -0.00000
   D44       -3.14159  -0.00000   0.00000  -0.00000  -0.00000  -3.14159
   D45        3.14159  -0.00000   0.00000   0.00000   0.00000   3.14159
   D46        0.00000   0.00000   0.00000  -0.00000  -0.00000   0.00000
   D47        0.00000   0.00000   0.00000   0.00000   0.00000   0.00000
   D48       -3.14159   0.00000   0.00000  -0.00000  -0.00000  -3.14159
   D49        3.14159  -0.00000   0.00000   0.00000   0.00000   3.14159
   D50        0.00000   0.00000   0.00000   0.00000   0.00000   0.00000
   D51        0.00000   0.00000   0.00000   0.00000   0.00000   0.00000
   D52       -3.14159   0.00000   0.00000  -0.00000  -0.00000  -3.14159
   D53        3.14159   0.00000   0.00000   0.00000   0.00000   3.14159
   D54       -0.00000   0.00000   0.00000  -0.00000  -0.00000  -0.00000
   D55        0.00001  -0.00000   0.00000  -0.00000  -0.00000   0.00001
   D56       -3.14158  -0.00000   0.00000  -0.00000  -0.00000  -3.14158
   D57       -0.00001   0.00000   0.00000   0.00000   0.00000  -0.00001
         Item               Value     Threshold  Converged?
 Maximum Force            3.118368     0.000450     NO 
 RMS     Force            0.292647     0.000300     NO 
 Maximum Displacement     0.197015     0.001800     NO 
 RMS     Displacement     0.032753     0.001200     NO 
 Predicted change in Energy=-3.367983D-01
 GradGradGradGradGradGradGradGradGradGradGradGradGradGradGradGradGradGrad

                          Input orientation:                          
 ---------------------------------------------------------------------
 Center     Atomic      Atomic             Coordinates (Angstroms)
 Number     Number       Type             X           Y           Z
 ---------------------------------------------------------------------
      1          6           0       -0.597038    0.278829   -0.000317
      2          6           0        0.736006    0.303707   -0.434823
      3          6           0        1.448800    1.504816   -0.444076
      4          6           0        0.842825    2.688747   -0.022081
      5          6           0       -0.484692    2.669609    0.411680
      6          6           0       -1.209358    1.475326    0.426127
      7          6           0       -1.371330   -1.043750    0.006385
      8          6           0       -0.743625   -2.222284   -0.421756
      9          6           0       -1.438346   -3.433631   -0.420378
     10          6           0       -2.764912   -3.476149    0.008684
     11          6           0       -3.397496   -2.303770    0.437278
     12          6           0       -2.712039   -1.088980    0.439598
     13          1           0        1.214871   -0.600012   -0.762313
     14          1           0        1.396065    3.610557   -0.031223
     15          1           0       -0.952863    3.583063    0.737474
     16          1           0        0.277608   -2.199734   -0.753971
     17          1           0       -0.953017   -4.334096   -0.749389
     18         17           0       -3.587393    0.418604    1.011131
     19         17           0       -2.938327    1.518758    1.003900
     20         17           0       -5.073499   -2.351815    0.980431
     21         17           0       -3.629594   -5.007855    0.005894
     22         17           0        3.119893    1.525210   -0.990795
 ---------------------------------------------------------------------
                    Distance matrix (angstroms):
                    1          2          3          4          5
     1  C    0.000000
     2  C    1.402291   0.000000
     3  C    2.425988   1.396719   0.000000
     4  C    2.807380   2.422846   1.395342   0.000000
     5  C    2.428619   2.793593   2.414012   1.396716   0.000000
     6  C    1.410105   2.428656   2.797129   2.425847   1.397018
     7  C    1.532576   2.539915   3.827694   4.339910   3.839195
     8  C    2.540604   2.927475   4.324176   5.176368   4.969132
     9  C    3.829701   4.323853   5.720527   6.545677   6.233082
    10  C    4.335853   5.171115   6.539907   7.143014   6.567507
    11  C    3.834563   4.964406   6.226451   6.566319   5.763642
    12  C    2.556885   3.820105   4.982092   5.207823   4.369078
    13  H    2.153141   1.073904   2.141565   3.391504   3.867453
    14  H    3.882502   3.396149   2.146479   1.075124   2.149138
    15  H    3.404248   3.870495   3.388681   2.145045   1.076905
    16  H    2.734277   2.564995   3.897617   4.975176   5.064616
    17  H    4.686887   4.945802   6.320984   7.285214   7.114723
    18  Cl   3.159872   4.560237   5.353571   5.084083   3.879834
    19  Cl   2.833286   4.128801   4.619926   4.088841   2.774077
    20  Cl   5.284020   6.542560   7.709943   7.836784   6.826077
    21  Cl   6.094709   6.889513   8.270880   8.901741   8.306535
    22  Cl   4.043524   2.735707   1.758371   2.734459   4.033562
                    6          7          8          9         10
     6  C    0.000000
     7  C    2.558937   0.000000
     8  C    3.822059   1.402235   0.000000
     9  C    4.986669   2.428611   1.396424   0.000000
    10  C    5.206833   2.803327   2.417242   1.394876   0.000000
    11  C    4.366879   2.424596   2.790629   2.418766   1.399402
    12  C    2.972187   1.409688   2.429190   2.803434   2.426326
    13  H    3.405335   2.734271   2.565824   3.896906   4.970440
    14  H    3.399502   5.415022   6.225176   7.603020   8.218073
    15  H    2.145992   4.702871   5.923651   7.128135   7.324420
    16  H    4.136395   2.152542   1.074147   2.139692   3.386415
    17  H    5.932700   3.401846   2.147309   1.074537   2.143295
    18  Cl   2.667197   2.838825   4.136964   4.637600   4.104933
    19  Cl   1.823469   3.164958   4.565590   5.366998   5.096040
    20  Cl   5.466795   4.045474   4.553100   4.043134   2.745540
    21  Cl   6.932949   4.562225   4.033747   2.731567   1.758922
    22  Cl   4.555499   5.269251   5.412420   6.759661   7.787393
                   11         12         13         14         15
    11  C    0.000000
    12  C    1.394837   0.000000
    13  H    5.061199   4.135735   0.000000
    14  H    7.627384   6.259700   4.277407   0.000000
    15  H    6.381312   5.001141   4.944345   2.471663   0.000000
    16  H    3.864749   3.405344   1.854088   5.960938   6.097475
    17  H    3.392031   3.877967   4.317787   8.315735   8.055567
    18  Cl   2.788672   1.834586   5.219619   6.009153   4.126673
    19  Cl   3.891480   2.677674   4.985755   4.922810   2.876526
    20  Cl   1.762473   2.731986   6.756447   8.855992   7.229208
    21  Cl   2.748097   4.048159   6.594549   9.976756   9.027955
    22  Cl   7.692648   6.549156   2.863194   2.870719   4.879448
                   16         17         18         19         20
    16  H    0.000000
    17  H    2.463729   0.000000
    18  Cl   4.990943   5.712051   0.000000
    19  Cl   5.221065   6.424280   1.277371   0.000000
    20  Cl   5.627222   4.888771   3.143991   4.420503   0.000000
    21  Cl   4.871260   2.861551   5.518944   6.638565   3.176339
    22  Cl   4.691469   7.139912   7.086605   6.378156   9.276245
                   21         22
    21  Cl   0.000000
    22  Cl   9.446159   0.000000
 Stoichiometry    C12H5Cl5
 Framework group  C1[X(C12H5Cl5)]
 Deg. of freedom    60
 Full point group                 C1      NOp   1
 Largest Abelian subgroup         C1      NOp   1
 Largest concise Abelian subgroup C1      NOp   1
                         Standard orientation:                         
 ---------------------------------------------------------------------
 Center     Atomic      Atomic             Coordinates (Angstroms)
 Number     Number       Type             X           Y           Z
 ---------------------------------------------------------------------
      1          6           0       -1.403639   -0.142802    0.000002
      2          6           0       -2.429074   -1.099307    0.000001
      3          6           0       -3.765968   -0.694907   -0.000001
      4          6           0       -4.093341    0.661487   -0.000002
      5          6           0       -3.075899    1.618372    0.000001
      6          6           0       -1.734552    1.227925    0.000003
      7          6           0        0.060444   -0.595849    0.000003
      8          6           0        0.367788   -1.963987    0.000005
      9          6           0        1.697800   -2.389509    0.000004
     10          6           0        2.730045   -1.451345    0.000003
     11          6           0        2.430479   -0.084382    0.000001
     12          6           0        1.105193    0.350575    0.000001
     13          1           0       -2.191528   -2.146609   -0.000001
     14          1           0       -5.124050    0.967316   -0.000004
     15          1           0       -3.328002    2.665353    0.000003
     16          1           0       -0.420107   -2.694064    0.000004
     17          1           0        1.928293   -3.439033    0.000006
     18         17           0        0.766828    2.153687   -0.000004
     19         17           0       -0.454810    2.526886    0.000006
     20         17           0        3.730867    1.105283   -0.000006
     21         17           0        4.401379   -1.999479   -0.000000
     22         17           0       -5.044280   -1.902295   -0.000004
 ---------------------------------------------------------------------
 Rotational constants (GHZ):           0.5334239           0.1710584           0.1295230
 Standard basis: 6-311+G(d,p) (5D, 7F)
 There are   461 symmetry adapted cartesian basis functions of A   symmetry.
 There are   444 symmetry adapted basis functions of A   symmetry.
   444 basis functions,   737 primitive gaussians,   461 cartesian basis functions
    81 alpha electrons       81 beta electrons
       nuclear repulsion energy      1805.4772086692 Hartrees.
 NAtoms=   22 NActive=   22 NUniq=   22 SFac= 1.00D+00 NAtFMM=   60 NAOKFM=F Big=F
 Integral buffers will be    131072 words long.
 Raffenetti 2 integral format.
 Two-electron integral symmetry is turned on.
 One-electron integrals computed using PRISM.
 NBasis=   444 RedAO= T EigKep=  1.33D-06  NBF=   444
 NBsUse=   438 1.00D-06 EigRej=  8.17D-07 NBFU=   438
 Initial guess from the checkpoint file:  "/scratch/gour/Gau-26828.chk"
 B after Tr=    -0.000000    0.000000    0.000000
         Rot=    1.000000    0.000000    0.000000    0.000342 Ang=   0.04 deg.
 ExpMin= 4.38D-02 ExpMax= 1.06D+05 ExpMxC= 3.62D+03 IAcc=3 IRadAn=         5 AccDes= 0.00D+00
 Harris functional with IExCor=  402 and IRadAn=       5 diagonalized for initial guess.
 HarFok:  IExCor=  402 AccDes= 0.00D+00 IRadAn=         5 IDoV= 1 UseB2=F ITyADJ=14
 ICtDFT=  3500011 ScaDFX=  1.000000  1.000000  1.000000  1.000000
 FoFCou: FMM=F IPFlag=           0 FMFlag=      100000 FMFlg1=           0
         NFxFlg=           0 DoJE=T BraDBF=F KetDBF=T FulRan=T
         wScrn=  0.000000 ICntrl=       500 IOpCl=  0 I1Cent=   200000004 NGrid=           0
         NMat0=    1 NMatS0=      1 NMatT0=    0 NMatD0=    1 NMtDS0=    0 NMtDT0=    0
 Petite list used in FoFCou.
 Requested convergence on RMS density matrix=1.00D-08 within  32 cycles.
 Requested convergence on MAX density matrix=1.00D-06.
 Requested convergence on             energy=1.00D-06.
 No special actions if energy rises.
 SCF Done:  E(RB3LYP) =  -2760.40822780     A.U. after   17 cycles
            NFock= 17  Conv=0.71D-08     -V/T= 2.0007
 QCSCF skips out because SCF is already converged.
 Calling FoFJK, ICntrl=      2127 FMM=F ISym2X=0 I1Cent= 0 IOpClX= 0 NMat=1 NMatS=1 NMatT=0.
 ***** Axes restored to original set *****
 -------------------------------------------------------------------
 Center     Atomic                   Forces (Hartrees/Bohr)
 Number     Number              X              Y              Z
 -------------------------------------------------------------------
      1        6          -0.001822022   -0.020767761   -0.003300119
      2        6           0.000642354    0.009830722    0.001634849
      3        6          -0.009207555   -0.001410055    0.002768765
      4        6          -0.000671473   -0.002209653   -0.000193976
      5        6          -0.000797649   -0.017403906   -0.003005719
      6        6           0.083174184   -0.017333776   -0.030658037
      7        6           0.018708714    0.010742361   -0.004146163
      8        6          -0.013204302   -0.002851170    0.003814796
      9        6          -0.001720008    0.008048467    0.002078198
     10        6          -0.001649401    0.000230416    0.000586703
     11        6           0.016263154    0.008717722   -0.003720686
     12        6           0.055874755   -0.082220478   -0.033849801
     13        1           0.005047405   -0.001912678   -0.002022169
     14        1           0.003606850    0.004754925   -0.000295269
     15        1          -0.003245551    0.007603195    0.002497254
     16        1           0.004593034   -0.004080838   -0.002279730
     17        1           0.001330820   -0.005159006   -0.001407324
     18       17          -1.109990523   -1.685081568    0.049236336
     19       17           0.956661920    1.789335837    0.020858650
     20       17          -0.005328357    0.001846028    0.002102151
     21       17           0.002884004   -0.000656104   -0.001073435
     22       17          -0.001150351   -0.000022680    0.000374726
 -------------------------------------------------------------------
 Cartesian Forces:  Max     1.789335837 RMS     0.352757115

 GradGradGradGradGradGradGradGradGradGradGradGradGradGradGradGradGradGrad
 Berny optimization.
 Using GEDIIS/GDIIS optimizer.
 FormGI is forming the generalized inverse of G from B-inverse, IUseBI=4.
 Internal  Forces:  Max     1.970537000 RMS     0.184925066
 Search for a local minimum.
 Step number   2 out of a maximum of  129
 All quantities printed in internal units (Hartrees-Bohrs-Radians)
 Mixed Optimization -- RFO/linear search
 Update second derivatives using D2CorX and points    1    2
 DE= -5.10D-01 DEPred=-3.37D-01 R= 1.51D+00
 TightC=F SS=  1.41D+00  RLast= 2.78D-01 DXNew= 5.0454D-01 8.3268D-01
 Trust test= 1.51D+00 RLast= 2.78D-01 DXMaxT set to 5.05D-01
 ITU=  1  0
 Use linear search instead of GDIIS.
 Linear search step of   0.555 exceeds DXMaxT=   0.505 but not scaled.
 Quartic linear search produced a step of  2.00000.
 Iteration  1 RMS(Cart)=  0.04158659 RMS(Int)=  0.01670300
 Iteration  2 RMS(Cart)=  0.02410850 RMS(Int)=  0.00131137
 Iteration  3 RMS(Cart)=  0.00024937 RMS(Int)=  0.00130412
 Iteration  4 RMS(Cart)=  0.00000018 RMS(Int)=  0.00130412
 Variable       Old X    -DE/DX   Delta X   Delta X   Delta X     New X
                                 (Linear)    (Quad)   (Total)
    R1        2.64995   0.01226   0.00337   0.00000   0.00303   2.65297
    R2        2.66471   0.06046   0.03290   0.00000   0.03115   2.69586
    R3        2.89615   0.06165  -0.02806   0.00000  -0.03073   2.86542
    R4        2.63942  -0.00800  -0.01769   0.00000  -0.01760   2.62181
    R5        2.02938   0.00448   0.01475   0.00000   0.01475   2.04414
    R6        2.63681  -0.01886  -0.02290   0.00000  -0.02247   2.61434
    R7        3.32284  -0.00121  -0.00616   0.00000  -0.00616   3.31668
    R8        2.63941  -0.01451  -0.01770   0.00000  -0.01736   2.62205
    R9        2.03169   0.00594   0.01937   0.00000   0.01937   2.05106
   R10        2.63998  -0.00553  -0.01656   0.00000  -0.01663   2.62335
   R11        2.03505   0.00862   0.02610   0.00000   0.02610   2.06115
   R12        3.44586   0.05505   0.23988   0.00000   0.24100   3.68686
   R13        2.64984   0.01192   0.00316   0.00000   0.00278   2.65262
   R14        2.66392   0.06000   0.03132   0.00000   0.02938   2.69330
   R15        2.63886  -0.00814  -0.01881   0.00000  -0.01873   2.62013
   R16        2.02984   0.00499   0.01567   0.00000   0.01567   2.04551
   R17        2.63593  -0.01915  -0.02466   0.00000  -0.02420   2.61173
   R18        2.03058   0.00536   0.01715   0.00000   0.01715   2.04773
   R19        2.64449  -0.01223  -0.00755   0.00000  -0.00717   2.63732
   R20        3.32388  -0.00084  -0.00407   0.00000  -0.00407   3.31981
   R21        2.63586  -0.00912  -0.02480   0.00000  -0.02487   2.61099
   R22        3.33059   0.00566   0.00935   0.00000   0.00935   3.33994
   R23        3.46686   0.07325   0.28189   0.00000   0.28288   3.74974
   R24        2.41388   1.97054   0.36272   0.00000   0.36539   2.77927
    A1        2.08455  -0.04880  -0.01970   0.00000  -0.01821   2.06634
    A2        2.09086  -0.09950  -0.00706   0.00000  -0.00345   2.08741
    A3        2.10777   0.14831   0.02676   0.00000   0.02166   2.12944
    A4        2.09722   0.02718   0.00565   0.00000   0.00476   2.10198
    A5        2.09839  -0.00991   0.00798   0.00000   0.00843   2.10681
    A6        2.08758  -0.01727  -0.01363   0.00000  -0.01319   2.07439
    A7        2.10136   0.00804   0.01394   0.00000   0.01383   2.11520
    A8        2.09098  -0.00403  -0.00683   0.00000  -0.00678   2.08420
    A9        2.09084  -0.00400  -0.00710   0.00000  -0.00705   2.08379
   A10        2.08871  -0.00892  -0.01138   0.00000  -0.01121   2.07750
   A11        2.09606   0.00376   0.00334   0.00000   0.00325   2.09932
   A12        2.09842   0.00516   0.00804   0.00000   0.00796   2.10637
   A13        2.10360   0.01536   0.01841   0.00000   0.01806   2.12166
   A14        2.08924  -0.00828  -0.01031   0.00000  -0.01014   2.07910
   A15        2.09035  -0.00708  -0.00810   0.00000  -0.00792   2.08243
   A16        2.09094   0.00716  -0.00692   0.00000  -0.00723   2.08370
   A17        2.12677   0.05568   0.06474   0.00000   0.06368   2.19044
   A18        2.06548  -0.06284  -0.05782   0.00000  -0.05644   2.00904
   A19        2.09187  -0.09915  -0.00506   0.00000  -0.00129   2.09058
   A20        2.10544   0.14666   0.02209   0.00000   0.01685   2.12229
   A21        2.08588  -0.04751  -0.01703   0.00000  -0.01555   2.07032
   A22        2.10142   0.02938   0.01405   0.00000   0.01308   2.11450
   A23        2.09715  -0.01037   0.00551   0.00000   0.00599   2.10314
   A24        2.08462  -0.01900  -0.01955   0.00000  -0.01907   2.06555
   A25        2.09426   0.00349  -0.00027   0.00000  -0.00040   2.09386
   A26        2.09663  -0.00043   0.00446   0.00000   0.00453   2.10116
   A27        2.09230  -0.00307  -0.00419   0.00000  -0.00413   2.08817
   A28        2.09275  -0.00658  -0.00330   0.00000  -0.00312   2.08963
   A29        2.08700  -0.00175  -0.01480   0.00000  -0.01489   2.07211
   A30        2.10344   0.00833   0.01809   0.00000   0.01800   2.12144
   A31        2.10366   0.01619   0.01852   0.00000   0.01816   2.12181
   A32        2.09602  -0.00471   0.00325   0.00000   0.00343   2.09946
   A33        2.08351  -0.01148  -0.02177   0.00000  -0.02159   2.06192
   A34        2.08841   0.00503  -0.01196   0.00000  -0.01216   2.07625
   A35        2.12135   0.05129   0.05392   0.00000   0.05251   2.17386
   A36        2.07342  -0.05633  -0.04195   0.00000  -0.04034   2.03307
   A37        2.05278  -0.20152  -0.08323   0.00000  -0.07692   1.97586
   A38        2.05226  -0.20042  -0.08428   0.00000  -0.07777   1.97449
    D1        0.00000   0.00000   0.00000   0.00000   0.00000   0.00000
    D2        3.14159   0.00000   0.00000   0.00000   0.00000   3.14159
    D3       -3.14159   0.00000   0.00000   0.00000   0.00000  -3.14159
    D4       -0.00000   0.00000   0.00000   0.00000   0.00000  -0.00000
    D5       -0.00000  -0.00000  -0.00000   0.00000  -0.00000  -0.00000
    D6        3.14159  -0.00000   0.00000   0.00000   0.00000   3.14159
    D7        3.14159  -0.00000  -0.00000   0.00000  -0.00000   3.14159
    D8        0.00000  -0.00000   0.00000   0.00000   0.00000   0.00000
    D9       -0.00000  -0.00000  -0.00000   0.00000  -0.00000  -0.00000
   D10        3.14159  -0.00000  -0.00000   0.00000  -0.00000   3.14159
   D11        3.14159  -0.00000  -0.00000   0.00000  -0.00000   3.14159
   D12       -0.00000  -0.00000  -0.00000   0.00000  -0.00000  -0.00000
   D13        0.00000  -0.00000   0.00000   0.00000   0.00000   0.00000
   D14        3.14159  -0.00000   0.00000   0.00000   0.00000   3.14159
   D15       -3.14159   0.00000  -0.00000   0.00000  -0.00000  -3.14159
   D16        0.00000   0.00000  -0.00000   0.00000  -0.00000   0.00000
   D17       -0.00000  -0.00000   0.00000   0.00000   0.00000  -0.00000
   D18        3.14159   0.00000  -0.00000   0.00000  -0.00000   3.14159
   D19        3.14159  -0.00000   0.00000   0.00000   0.00000   3.14159
   D20        0.00000   0.00000  -0.00000   0.00000  -0.00000   0.00000
   D21        0.00000   0.00000  -0.00000   0.00000  -0.00000   0.00000
   D22       -3.14159   0.00000  -0.00000   0.00000  -0.00000  -3.14159
   D23       -3.14159  -0.00000  -0.00000   0.00000  -0.00000  -3.14159
   D24        0.00000   0.00000  -0.00000   0.00000  -0.00000   0.00000
   D25       -0.00000   0.00000   0.00000   0.00000   0.00000  -0.00000
   D26        3.14159   0.00000   0.00000   0.00000   0.00000   3.14159
   D27        3.14159  -0.00000   0.00000   0.00000   0.00000   3.14159
   D28       -0.00000   0.00000  -0.00000   0.00000  -0.00000  -0.00000
   D29        0.00001  -0.00000  -0.00000   0.00000  -0.00000   0.00001
   D30       -3.14158  -0.00000  -0.00000   0.00000  -0.00000  -3.14158
   D31        3.14159   0.00000   0.00000   0.00000   0.00000   3.14159
   D32        0.00000   0.00000   0.00000   0.00000   0.00000   0.00000
   D33        0.00000   0.00000   0.00000   0.00000   0.00000   0.00000
   D34       -3.14159   0.00000  -0.00000   0.00000  -0.00000  -3.14159
   D35       -3.14159  -0.00000  -0.00000   0.00000  -0.00000  -3.14159
   D36        0.00000  -0.00000   0.00000   0.00000   0.00000   0.00000
   D37       -0.00000  -0.00000  -0.00000   0.00000  -0.00000  -0.00000
   D38        3.14159  -0.00000   0.00000   0.00000   0.00000   3.14159
   D39       -0.00000  -0.00000   0.00000   0.00000   0.00000  -0.00000
   D40        3.14159  -0.00000  -0.00000   0.00000  -0.00000   3.14159
   D41        3.14159   0.00000   0.00000   0.00000   0.00000   3.14159
   D42       -0.00000   0.00000   0.00000   0.00000   0.00000  -0.00000
   D43       -0.00000  -0.00000  -0.00000   0.00000  -0.00000  -0.00000
   D44       -3.14159  -0.00000  -0.00000   0.00000  -0.00000  -3.14159
   D45        3.14159  -0.00000   0.00000   0.00000   0.00000   3.14159
   D46        0.00000   0.00000  -0.00000   0.00000  -0.00000   0.00000
   D47        0.00000   0.00000  -0.00000   0.00000   0.00000   0.00000
   D48       -3.14159   0.00000  -0.00000   0.00000  -0.00000  -3.14159
   D49        3.14159  -0.00000   0.00000   0.00000   0.00000   3.14159
   D50        0.00000   0.00000   0.00000   0.00000  -0.00000   0.00000
   D51        0.00000   0.00000   0.00000   0.00000   0.00000   0.00000
   D52       -3.14159   0.00000  -0.00000   0.00000  -0.00000  -3.14159
   D53        3.14159   0.00000   0.00000   0.00000   0.00000   3.14159
   D54       -0.00000   0.00000  -0.00000   0.00000  -0.00000  -0.00000
   D55        0.00001  -0.00000  -0.00000   0.00000  -0.00000   0.00001
   D56       -3.14158  -0.00000  -0.00000   0.00000  -0.00000  -3.14158
   D57       -0.00001   0.00000   0.00000   0.00000   0.00000  -0.00001
         Item               Value     Threshold  Converged?
 Maximum Force            1.970537     0.000450     NO 
 RMS     Force            0.184925     0.000300     NO 
 Maximum Displacement     0.380286     0.001800     NO 
 RMS     Displacement     0.060577     0.001200     NO 
 Predicted change in Energy=-3.677239D-01
 GradGradGradGradGradGradGradGradGradGradGradGradGradGradGradGradGradGrad

[...]
                 (A) (A) (A) (A) (A) (A) (A) (A) (A) (A) (A) (A)
                 (A) (A) (A) (A) (A) (A) (A) (A) (A) (A) (A) (A)
                 (A) (A) (A) (A) (A) (A) (A) (A) (A)
       Virtual   (A) (A) (A) (A) (A) (A) (A) (A) (A) (A) (A) (A)
                 (A) (A) (A) (A) (A) (A) (A) (A) (A) (A) (A) (A)
                 (A) (A) (A) (A) (A) (A) (A) (A) (A) (A) (A) (A)
                 (A) (A) (A) (A) (A) (A) (A) (A) (A) (A) (A) (A)
                 (A) (A) (A) (A) (A) (A) (A) (A) (A) (A) (A) (A)
                 (A) (A) (A) (A) (A) (A) (A) (A) (A) (A) (A) (A)
                 (A) (A) (A) (A) (A) (A) (A) (A) (A) (A) (A) (A)
                 (A) (A) (A) (A) (A) (A) (A) (A) (A) (A) (A) (A)
                 (A) (A) (A) (A) (A) (A) (A) (A) (A) (A) (A) (A)
                 (A) (A) (A) (A) (A) (A) (A) (A) (A) (A) (A) (A)
                 (A) (A) (A) (A) (A) (A) (A) (A) (A) (A) (A) (A)
                 (A) (A) (A) (A) (A) (A) (A) (A) (A) (A) (A) (A)
                 (A) (A) (A) (A) (A) (A) (A) (A) (A) (A) (A) (A)
                 (A) (A) (A) (A) (A) (A) (A) (A) (A) (A) (A) (A)
                 (A) (A) (A) (A) (A) (A) (A) (A) (A) (A) (A) (A)
                 (A) (A) (A) (A) (A) (A) (A) (A) (A) (A) (A) (A)
                 (A) (A) (A) (A) (A) (A) (A) (A) (A) (A) (A) (A)
                 (A) (A) (A) (A) (A) (A) (A) (A) (A) (A) (A) (A)
                 (A) (A) (A) (A) (A) (A) (A) (A) (A) (A) (A) (A)
                 (A) (A) (A) (A) (A) (A) (A) (A) (A) (A) (A) (A)
                 (A) (A) (A) (A) (A) (A) (A) (A) (A) (A) (A) (A)
                 (A) (A) (A) (A) (A) (A) (A) (A) (A) (A) (A) (A)
                 (A) (A) (A) (A) (A) (A) (A) (A) (A) (A) (A) (A)
                 (A) (A) (A) (A) (A) (A) (A) (A) (A) (A) (A) (A)
                 (A) (A) (A) (A) (A) (A) (A) (A) (A) (A) (A) (A)
                 (A) (A) (A) (A) (A) (A) (A) (A) (A) (A) (A) (A)
                 (A) (A) (A) (A) (A) (A) (A) (A) (A) (A) (A) (A)
                 (A) (A) (A) (A) (A) (A) (A) (A) (A) (A) (A) (A)
                 (A) (A) (A) (A) (A) (A) (A) (A) (A) (A) (A) (A)
                 (A) (A) (A) (A) (A) (A) (A) (A) (A) (A) (A)
 The electronic state is 1-A.
 Alpha  occ. eigenvalues -- -101.57427-101.57363-101.57278-101.56910-101.56871
 Alpha  occ. eigenvalues --  -10.27394 -10.27269 -10.27028 -10.26162 -10.26003
 Alpha  occ. eigenvalues --  -10.22870 -10.22841 -10.21380 -10.21365 -10.21316
 Alpha  occ. eigenvalues --  -10.21312 -10.21247  -9.48892  -9.48822  -9.48754
 Alpha  occ. eigenvalues --   -9.48364  -9.48340  -7.25392  -7.25308  -7.25240
 Alpha  occ. eigenvalues --   -7.24830  -7.24806  -7.24374  -7.24303  -7.24291
 Alpha  occ. eigenvalues --   -7.24241  -7.24238  -7.24164  -7.23844  -7.23822
 Alpha  occ. eigenvalues --   -7.23810  -7.23778  -0.95052  -0.92814  -0.89966
 Alpha  occ. eigenvalues --   -0.89245  -0.87574  -0.85337  -0.84059  -0.80517
 Alpha  occ. eigenvalues --   -0.76015  -0.75758  -0.73738  -0.66387  -0.63924
 Alpha  occ. eigenvalues --   -0.63601  -0.60780  -0.54873  -0.53132  -0.52632
 Alpha  occ. eigenvalues --   -0.51694  -0.49457  -0.48002  -0.46452  -0.46249
 Alpha  occ. eigenvalues --   -0.45665  -0.44785  -0.43220  -0.42561  -0.40874
 Alpha  occ. eigenvalues --   -0.40161  -0.39514  -0.38592  -0.38044  -0.36187
 Alpha  occ. eigenvalues --   -0.35003  -0.34275  -0.33909  -0.33367  -0.33164
 Alpha  occ. eigenvalues --   -0.33012  -0.31721  -0.29124  -0.27196  -0.27080
 Alpha  occ. eigenvalues --   -0.26153
 Alpha virt. eigenvalues --   -0.05755  -0.05473  -0.04792  -0.04223  -0.03629
 Alpha virt. eigenvalues --   -0.01036  -0.00509   0.00448   0.00948   0.01504
 Alpha virt. eigenvalues --    0.01991   0.02244   0.02593   0.03281   0.04067
 Alpha virt. eigenvalues --    0.04699   0.05155   0.05335   0.05687   0.06226
 Alpha virt. eigenvalues --    0.06636   0.07220   0.07616   0.08076   0.08452
 Alpha virt. eigenvalues --    0.08972   0.09258   0.09390   0.09916   0.10146
 Alpha virt. eigenvalues --    0.10832   0.11063   0.11522   0.11914   0.12169
 Alpha virt. eigenvalues --    0.12493   0.12605   0.13099   0.13538   0.13882
 Alpha virt. eigenvalues --    0.14285   0.14563   0.15394   0.15487   0.16155
 Alpha virt. eigenvalues --    0.16359   0.16665   0.16905   0.17358   0.17727
 Alpha virt. eigenvalues --    0.17856   0.18518   0.18863   0.19106   0.19708
 Alpha virt. eigenvalues --    0.19969   0.20198   0.20550   0.20927   0.20984
 Alpha virt. eigenvalues --    0.21368   0.21742   0.22431   0.22644   0.23508
 Alpha virt. eigenvalues --    0.23799   0.24143   0.24383   0.24542   0.25118
 Alpha virt. eigenvalues --    0.25730   0.26306   0.26532   0.26695   0.27304
 Alpha virt. eigenvalues --    0.27484   0.28094   0.28453   0.28845   0.29049
 Alpha virt. eigenvalues --    0.29541   0.30027   0.30626   0.31494   0.32153
 Alpha virt. eigenvalues --    0.32497   0.33000   0.33942   0.36109   0.40965
 Alpha virt. eigenvalues --    0.42106   0.42529   0.43182   0.43795   0.44692
 Alpha virt. eigenvalues --    0.45099   0.45490   0.45916   0.46604   0.47204
 Alpha virt. eigenvalues --    0.47295   0.48218   0.48681   0.49664   0.50175
 Alpha virt. eigenvalues --    0.50804   0.51557   0.52052   0.53010   0.53676
 Alpha virt. eigenvalues --    0.54668   0.55909   0.56271   0.57488   0.57894
 Alpha virt. eigenvalues --    0.57987   0.58631   0.59567   0.60662   0.61144
 Alpha virt. eigenvalues --    0.62166   0.62772   0.63480   0.63617   0.64185
 Alpha virt. eigenvalues --    0.64871   0.65214   0.66574   0.66894   0.67721
 Alpha virt. eigenvalues --    0.68214   0.68612   0.69148   0.69923   0.70522
 Alpha virt. eigenvalues --    0.71973   0.73126   0.74629   0.77386   0.78743
 Alpha virt. eigenvalues --    0.79562   0.81745   0.82322   0.82826   0.83302
 Alpha virt. eigenvalues --    0.83643   0.83985   0.84559   0.84622   0.84829
 Alpha virt. eigenvalues --    0.85219   0.85499   0.85655   0.86301   0.86822
 Alpha virt. eigenvalues --    0.87540   0.88055   0.88239   0.89762   0.90048
 Alpha virt. eigenvalues --    0.90263   0.91287   0.91560   0.93239   0.94134
 Alpha virt. eigenvalues --    0.94400   0.94555   0.94834   0.95729   0.96252
 Alpha virt. eigenvalues --    0.96629   0.97686   0.98486   0.99170   0.99473
 Alpha virt. eigenvalues --    1.00183   1.02111   1.02834   1.03038   1.04465
 Alpha virt. eigenvalues --    1.05302   1.10515   1.11966   1.12557   1.14518
 Alpha virt. eigenvalues --    1.16500   1.19965   1.22375   1.22558   1.23664
 Alpha virt. eigenvalues --    1.24045   1.25317   1.26385   1.27427   1.27518
 Alpha virt. eigenvalues --    1.28274   1.30599   1.31747   1.32508   1.34803
 Alpha virt. eigenvalues --    1.37305   1.39451   1.40967   1.44523   1.47869
 Alpha virt. eigenvalues --    1.48318   1.49216   1.51807   1.55608   1.55907
 Alpha virt. eigenvalues --    1.57010   1.58044   1.60290   1.60813   1.62623
 Alpha virt. eigenvalues --    1.65575   1.66653   1.68224   1.69083   1.69911
 Alpha virt. eigenvalues --    1.71633   1.75189   1.78082   1.79447   1.80983
 Alpha virt. eigenvalues --    1.82842   1.83210   1.85120   1.85433   1.86844
 Alpha virt. eigenvalues --    1.90411   1.91852   1.93084   1.93925   1.94255
 Alpha virt. eigenvalues --    1.95540   1.96542   1.98525   2.01873   2.02687
 Alpha virt. eigenvalues --    2.04373   2.06694   2.09885   2.12653   2.13313
 Alpha virt. eigenvalues --    2.14979   2.19852   2.23493   2.25310   2.25806
 Alpha virt. eigenvalues --    2.26213   2.26730   2.27686   2.29164   2.30953
 Alpha virt. eigenvalues --    2.32093   2.34063   2.35418   2.35787   2.37482
 Alpha virt. eigenvalues --    2.41390   2.43472   2.44193   2.45301   2.45836
 Alpha virt. eigenvalues --    2.49339   2.52159   2.52908   2.53303   2.55975
 Alpha virt. eigenvalues --    2.57887   2.59277   2.61020   2.64852   2.66741
 Alpha virt. eigenvalues --    2.67241   2.67870   2.69743   2.70333   2.71353
 Alpha virt. eigenvalues --    2.72547   2.74385   2.74995   2.75866   2.77906
 Alpha virt. eigenvalues --    2.79073   2.80917   2.82904   2.84291   2.84881
 Alpha virt. eigenvalues --    2.87952   2.90417   2.97984   2.98565   3.07576
 Alpha virt. eigenvalues --    3.08872   3.09878   3.12037   3.12646   3.13753
 Alpha virt. eigenvalues --    3.17157   3.20958   3.24381   3.27668   3.34296
 Alpha virt. eigenvalues --    3.35796   3.40819   3.43363   3.54103   3.56905
 Alpha virt. eigenvalues --    3.65616   3.68645   3.74573   3.83185   3.87962
 Alpha virt. eigenvalues --    4.00263   4.04263   4.07078   4.12023   4.33082
 Alpha virt. eigenvalues --    4.80755   4.81746   9.75631   9.77512   9.79799
 Alpha virt. eigenvalues --    9.81765   9.83745  23.37091  23.54111  23.83608
 Alpha virt. eigenvalues --   23.85120  23.87407  23.92612  23.95656  23.97916
 Alpha virt. eigenvalues --   24.02660  24.07841  24.12440  24.15123  25.77839
 Alpha virt. eigenvalues --   25.82181  25.83607  25.89302  25.96621  26.09300
 Alpha virt. eigenvalues --   26.11317  26.15683  26.24638  26.32666  26.50602
 Alpha virt. eigenvalues --   26.60214  26.64529  26.74205  26.93564 215.74725
 Alpha virt. eigenvalues --  215.76725 215.79423 215.82068 215.84012
          Condensed to atoms (all electrons):
               1          2          3          4          5          6
     1  C   23.255561  -0.150296  -6.378893  -1.285959  -0.672692  -5.063860
     2  C   -0.150296  27.783244  -5.282185 -11.209705   2.313227   0.582493
     3  C   -6.378893  -5.282185  20.999510  -0.945314  -1.962699  -3.502993
     4  C   -1.285959 -11.209705  -0.945314  18.626391   1.388868  -1.072365
     5  C   -0.672692   2.313227  -1.962699   1.388868  14.586537  -5.386461
     6  C   -5.063860   0.582493  -3.502993  -1.072365  -5.386461  32.782715
     7  C    3.397118  -6.012016   2.710419   0.577330  -2.973121  -6.759684
     8  C   -1.685056  -0.071206   0.294612  -0.151649  -0.167911  -1.519641
     9  C    0.990097   0.237760   0.157350  -0.085325  -0.074415   0.427432
    10  C   -0.832914  -0.074671  -0.007980   0.006924   0.059930  -0.270239
    11  C   -3.676953  -0.596240   0.249996   0.056538  -0.130406  -1.446663
    12  C   -0.440984  -1.642689  -0.291782   0.514452  -0.210354  -3.276940
    13  H    0.002819   0.138973   0.043714   0.093810  -0.030268  -0.124909
    14  H    0.034135   0.038360   0.028316   0.310761  -0.048775  -0.014665
    15  H    0.110193  -0.048937  -0.024937  -0.052532   0.329718   0.025522
    16  H    0.078873   0.034066  -0.032573  -0.001251   0.019321   0.090604
    17  H   -0.001535  -0.001772  -0.001045   0.000062   0.000579   0.003611
    18  Cl  -0.065300   0.084720   0.353814  -0.146200  -0.244377   0.210376
    19  Cl  -0.925908  -0.244344   0.135530  -0.022778  -0.596353   0.693611
    20  Cl  -0.172164  -0.008375   0.018291   0.001571  -0.006680  -0.089387
    21  Cl  -0.058758  -0.000782   0.010500  -0.001002  -0.004896  -0.049519
    22  Cl  -0.332131   0.870483  -1.443728  -0.028409   0.136567   0.222795
               7          8          9         10         11         12
     1  C    3.397118  -1.685056   0.990097  -0.832914  -3.676953  -0.440984
     2  C   -6.012016  -0.071206   0.237760  -0.074671  -0.596240  -1.642689
     3  C    2.710419   0.294612   0.157350  -0.007980   0.249996  -0.291782
     4  C    0.577330  -0.151649  -0.085325   0.006924   0.056538   0.514452
     5  C   -2.973121  -0.167911  -0.074415   0.059930  -0.130406  -0.210354
     6  C   -6.759684  -1.519641   0.427432  -0.270239  -1.446663  -3.276940
     7  C   19.907126  -4.182755  -1.494883   0.658997  -1.619526   2.363775
     8  C   -4.182755  19.202391  -0.840405   0.032596   0.624199  -6.145511
     9  C   -1.494883  -0.840405  14.757207  -3.608357  -5.279732   1.017297
    10  C    0.658997   0.032596  -3.608357  15.387932  -0.122651  -4.388366
    11  C   -1.619526   0.624199  -5.279732  -0.122651  17.203748   0.350344
    12  C    2.363775  -6.145511   1.017297  -4.388366   0.350344  21.413944
    13  H    0.150121   0.003697  -0.017023   0.006914   0.017575   0.084449
    14  H    0.005280  -0.000294  -0.000136   0.000028   0.000093   0.001055
    15  H    0.018714  -0.002374  -0.000577   0.000071   0.000039   0.004347
    16  H   -0.021185   0.339439  -0.062089  -0.015921  -0.036228  -0.036470
    17  H    0.020398  -0.040062   0.339723   0.023766   0.000540   0.005447
    18  Cl  -0.221128   0.193847   0.381260  -0.220561   0.069720  -1.777214
    19  Cl  -0.023137   0.215574   0.204670  -0.036512  -0.098556  -0.476000
    20  Cl  -0.559384   0.253501   0.121146  -0.432223  -0.445167   0.714671
    21  Cl  -0.180115   0.089884  -0.226094  -0.444653   0.605074  -0.387968
    22  Cl  -0.161243   0.015543   0.008691   0.001942  -0.006398  -0.066189
              13         14         15         16         17         18
     1  C    0.002819   0.034135   0.110193   0.078873  -0.001535  -0.065300
     2  C    0.138973   0.038360  -0.048937   0.034066  -0.001772   0.084720
     3  C    0.043714   0.028316  -0.024937  -0.032573  -0.001045   0.353814
     4  C    0.093810   0.310761  -0.052532  -0.001251   0.000062  -0.146200
     5  C   -0.030268  -0.048775   0.329718   0.019321   0.000579  -0.244377
     6  C   -0.124909  -0.014665   0.025522   0.090604   0.003611   0.210376
     7  C    0.150121   0.005280   0.018714  -0.021185   0.020398  -0.221128
     8  C    0.003697  -0.000294  -0.002374   0.339439  -0.040062   0.193847
     9  C   -0.017023  -0.000136  -0.000577  -0.062089   0.339723   0.381260
    10  C    0.006914   0.000028   0.000071  -0.015921   0.023766  -0.220561
    11  C    0.017575   0.000093   0.000039  -0.036228   0.000540   0.069720
    12  C    0.084449   0.001055   0.004347  -0.036470   0.005447  -1.777214
    13  H    0.515043  -0.000286   0.000048  -0.000600   0.000009  -0.011675
    14  H   -0.000286   0.505650  -0.007744  -0.000003  -0.000000  -0.000259
    15  H    0.000048  -0.007744   0.506491   0.000001   0.000000  -0.001160
    16  H   -0.000600  -0.000003   0.000001   0.524379  -0.006855  -0.001816
    17  H    0.000009  -0.000000   0.000000  -0.006855   0.505007   0.001464
    18  Cl  -0.011675  -0.000259  -0.001160  -0.001816   0.001464  17.951130
    19  Cl  -0.001876   0.001025  -0.012612  -0.006343  -0.000861   0.172586
    20  Cl   0.000646   0.000000  -0.000004   0.000108  -0.000677  -0.225883
    21  Cl   0.000058   0.000000  -0.000001  -0.001446  -0.006047  -0.020077
    22  Cl  -0.017383  -0.008299   0.000661   0.000368  -0.000005  -0.001799
              19         20         21         22
     1  C   -0.925908  -0.172164  -0.058758  -0.332131
     2  C   -0.244344  -0.008375  -0.000782   0.870483
     3  C    0.135530   0.018291   0.010500  -1.443728
     4  C   -0.022778   0.001571  -0.001002  -0.028409
     5  C   -0.596353  -0.006680  -0.004896   0.136567
     6  C    0.693611  -0.089387  -0.049519   0.222795
     7  C   -0.023137  -0.559384  -0.180115  -0.161243
     8  C    0.215574   0.253501   0.089884   0.015543
     9  C    0.204670   0.121146  -0.226094   0.008691
    10  C   -0.036512  -0.432223  -0.444653   0.001942
    11  C   -0.098556  -0.445167   0.605074  -0.006398
    12  C   -0.476000   0.714671  -0.387968  -0.066189
    13  H   -0.001876   0.000646   0.000058  -0.017383
    14  H    0.001025   0.000000   0.000000  -0.008299
    15  H   -0.012612  -0.000004  -0.000001   0.000661
    16  H   -0.006343   0.000108  -0.001446   0.000368
    17  H   -0.000861  -0.000677  -0.006047  -0.000005
    18  Cl   0.172586  -0.225883  -0.020077  -0.001799
    19  Cl  17.660110  -0.005754   0.006445  -0.014206
    20  Cl  -0.005754  17.390065  -0.143551  -0.000043
    21  Cl   0.006445  -0.143551  17.313293   0.000058
    22  Cl  -0.014206  -0.000043   0.000058  17.416036
 Mulliken charges:
               1
     1  C   -0.125391
     2  C   -0.740107
     3  C    0.872076
     4  C   -0.574218
     5  C   -0.325339
     6  C   -0.461833
     7  C    0.398901
     8  C   -0.458420
     9  C   -0.953598
    10  C    0.275948
    11  C    0.280652
    12  C   -1.329315
    13  H    0.146145
    14  H    0.155757
    15  H    0.155073
    16  H    0.135621
    17  H    0.158252
    18  Cl   0.518532
    19  Cl   0.375687
    20  Cl   0.589294
    21  Cl   0.499596
    22  Cl   0.406689
 Sum of Mulliken charges =  -0.00000
 Mulliken charges with hydrogens summed into heavy atoms:
               1
     1  C   -0.125391
     2  C   -0.593963
     3  C    0.872076
     4  C   -0.418461
     5  C   -0.170266
     6  C   -0.461833
     7  C    0.398901
     8  C   -0.322798
     9  C   -0.795346
    10  C    0.275948
    11  C    0.280652
    12  C   -1.329315
    18  Cl   0.518532
    19  Cl   0.375687
    20  Cl   0.589294
    21  Cl   0.499596
    22  Cl   0.406689
 Electronic spatial extent (au):  <R**2>=           7158.1138
 Charge=             -0.0000 electrons
 Dipole moment (field-independent basis, Debye):
    X=             -1.6341    Y=             -0.0735    Z=              1.8381  Tot=              2.4605
 Quadrupole moment (field-independent basis, Debye-Ang):
   XX=           -132.2057   YY=           -133.4705   ZZ=           -129.8313
   XY=             -6.0095   XZ=              1.3215   YZ=             -2.0510
 Traceless Quadrupole moment (field-independent basis, Debye-Ang):
   XX=             -0.3698   YY=             -1.6347   ZZ=              2.0045
   XY=             -6.0095   XZ=              1.3215   YZ=             -2.0510
 Octapole moment (field-independent basis, Debye-Ang**2):
  XXX=            -24.2706  YYY=              3.6789  ZZZ=             -2.9094  XYY=              1.6739
  XXY=             36.0513  XXZ=             -2.6053  XZZ=             17.5186  YZZ=             -4.6812
  YYZ=             -5.2707  XYZ=             -2.6864
 Hexadecapole moment (field-independent basis, Debye-Ang**3):
 XXXX=          -6655.6923 YYYY=          -1459.8125 ZZZZ=          -1142.8287 XXXY=           -133.5449
 XXXZ=            -21.6124 YYYX=             19.0044 YYYZ=             12.2581 ZZZX=              7.6163
 ZZZY=            -27.9595 XXYY=          -1367.7846 XXZZ=          -1339.3395 YYZZ=           -455.2042
 XXYZ=              0.2676 YYXZ=              1.9166 ZZXY=             -0.5772
 N-N= 1.728391853621D+03 E-N=-9.993659279601D+03  KE= 2.754121346996D+03
 1\1\GINC-LOCALHOST\FOpt\RB3LYP\6-311+G(d,p)\C12H5Cl5\GOUR\16-Mar-2022\
 0\\# opt b3lyp/6-311+g(d,p) scf=xqc\\Title Card Required\\0,1\C,-0.650
 3056449,0.2869873902,0.0300062926\C,0.6770441553,0.2566084817,0.471539
 6145\C,1.4307779101,1.4230802228,0.5139012557\C,0.8890218907,2.6413689
 036,0.1188336094\C,-0.4279225108,2.6828639046,-0.325888936\C,-1.186356
 2476,1.5164275753,-0.3697074792\C,-1.4287285372,-0.9854297064,-0.03255
 08226\C,-1.2981607751,-1.8180974563,-1.1455203452\C,-1.9932010412,-3.0
 155982212,-1.2341262861\C,-2.8368145536,-3.4042028712,-0.1993411871\C,
 -2.989000117,-2.5959049379,0.9344186944\C,-2.2775468036,-1.387238966,1
 .0065644969\H,1.1126136563,-0.6822689893,0.7884709144\H,1.4843900114,3
 .5443413582,0.1560283155\H,-0.8675106904,3.6203684077,-0.6409429174\H,
 -0.6462057222,-1.5151301775,-1.9557423573\H,-1.8889681795,-3.653552104
 1,-2.1016865214\Cl,-2.4413459186,-0.3659757975,2.4118580595\Cl,-2.8408
 756663,1.6145133731,-0.9459231297\Cl,-4.0371758653,-3.0845441368,2.230
 5470112\Cl,-3.694353813,-4.9176962377,-0.3477553664\Cl,3.0931635027,1.
 3542272545,1.0744768843\\Version=EM64L-G16RevB.01\State=1-A\HF=-2761.5
 161136\RMSD=8.082e-09\RMSF=1.706e-05\Dipole=0.5473985,0.3518366,-0.716
 7225\Quadrupole=-4.9585352,4.2247255,0.7338098,-0.5452146,-1.3573356,1
 .2299732\PG=C01 [X(C12H5Cl5)]\\@


 I WANT IT ALL - RICH, THIN, AND CHOCOLATE.
 Job cpu time:       0 days 22 hours 18 minutes 16.6 seconds.
 Elapsed time:       0 days  5 hours 35 minutes 32.2 seconds.
 File lengths (MBytes):  RWF=    134 Int=      0 D2E=      0 Chk=     21 Scr=      1
 Normal termination of Gaussian 16 at Wed Mar 16 05:54:59 2022.
