 Entering Gaussian System, Link 0=g16
 Input=2,2prime-Dichlorobiphenyl.gjf
 Output=2,2prime-Dichlorobiphenyl.log
 Initial command:
 /usr/local/g16/l1.exe "/scratch/pkc/Gau-2694.inp" -scrdir="/scratch/pkc/"
 Entering Link 1 = /usr/local/g16/l1.exe PID=      2695.
  
 Copyright (c) 1988-2017, Gaussian, Inc.  All Rights Reserved.
  
 This is part of the Gaussian(R) 16 program.  It is based on
 the Gaussian(R) 09 system (copyright 2009, Gaussian, Inc.),
 the Gaussian(R) 03 system (copyright 2003, Gaussian, Inc.),
 the Gaussian(R) 98 system (copyright 1998, Gaussian, Inc.),
 the Gaussian(R) 94 system (copyright 1995, Gaussian, Inc.),
 the Gaussian 92(TM) system (copyright 1992, Gaussian, Inc.),
 the Gaussian 90(TM) system (copyright 1990, Gaussian, Inc.),
 the Gaussian 88(TM) system (copyright 1988, Gaussian, Inc.),
 the Gaussian 86(TM) system (copyright 1986, Carnegie Mellon
 University), and the Gaussian 82(TM) system (copyright 1983,
 Carnegie Mellon University). Gaussian is a federally registered
 trademark of Gaussian, Inc.
  
 This software contains proprietary and confidential information,
 including trade secrets, belonging to Gaussian, Inc.
  
 This software is provided under written license and may be
 used, copied, transmitted, or stored only in accord with that
 written license.
  
 The following legend is applicable only to US Government
 contracts under FAR:
  
                    RESTRICTED RIGHTS LEGEND
  
 Use, reproduction and disclosure by the US Government is
 subject to restrictions as set forth in subparagraphs (a)
 and (c) of the Commercial Computer Software - Restricted
 Rights clause in FAR 52.227-19.
  
 Gaussian, Inc.
 340 Quinnipiac St., Bldg. 40, Wallingford CT 06492
  
  
 ---------------------------------------------------------------
 Warning -- This program may not be used in any manner that
 competes with the business of Gaussian, Inc. or will provide
 assistance to any competitor of Gaussian, Inc.  The licensee
 of this program is prohibited from giving any competitor of
 Gaussian, Inc. access to this program.  By using this program,
 the user acknowledges that Gaussian, Inc. is engaged in the
 business of creating and licensing software in the field of
 computational chemistry and represents and warrants to the
 licensee that it is not a competitor of Gaussian, Inc. and that
 it will not use this program in any manner prohibited above.
 ---------------------------------------------------------------
  

 Cite this work as:
 Gaussian 16, Revision B.01,
 M. J. Frisch, G. W. Trucks, H. B. Schlegel, G. E. Scuseria, 
 M. A. Robb, J. R. Cheeseman, G. Scalmani, V. Barone, 
 G. A. Petersson, H. Nakatsuji, X. Li, M. Caricato, A. V. Marenich, 
 J. Bloino, B. G. Janesko, R. Gomperts, B. Mennucci, H. P. Hratchian, 
 J. V. Ortiz, A. F. Izmaylov, J. L. Sonnenberg, D. Williams-Young, 
 F. Ding, F. Lipparini, F. Egidi, J. Goings, B. Peng, A. Petrone, 
 T. Henderson, D. Ranasinghe, V. G. Zakrzewski, J. Gao, N. Rega, 
 G. Zheng, W. Liang, M. Hada, M. Ehara, K. Toyota, R. Fukuda, 
 J. Hasegawa, M. Ishida, T. Nakajima, Y. Honda, O. Kitao, H. Nakai, 
 T. Vreven, K. Throssell, J. A. Montgomery, Jr., J. E. Peralta, 
 F. Ogliaro, M. J. Bearpark, J. J. Heyd, E. N. Brothers, K. N. Kudin, 
 V. N. Staroverov, T. A. Keith, R. Kobayashi, J. Normand, 
 K. Raghavachari, A. P. Rendell, J. C. Burant, S. S. Iyengar, 
 J. Tomasi, M. Cossi, J. M. Millam, M. Klene, C. Adamo, R. Cammi, 
 J. W. Ochterski, R. L. Martin, K. Morokuma, O. Farkas, 
 J. B. Foresman, and D. J. Fox, Gaussian, Inc., Wallingford CT, 2016.
 
 ******************************************
 Gaussian 16:  EM64L-G16RevB.01 20-Dec-2017
                14-Mar-2022 
 ******************************************
 %mem=10GB
 %nprocshared=4
 Will use up to    4 processors via shared memory.
 --------------------------------
 # opt b3lyp/6-311+g(d,p) scf=xqc
 --------------------------------
 1/18=20,19=15,26=3,38=1/1,3;
 2/9=110,12=2,17=6,18=5,40=1/2;
 3/5=4,6=6,7=111,11=2,25=1,30=1,71=1,74=-5/1,2,3;
 4//1;
 5/5=2,8=3,13=1,38=5/2,8;
 6/7=2,8=2,9=2,10=2,28=1/1;
 7//1,2,3,16;
 1/18=20,19=15,26=3/3(2);
 2/9=110/2;
 99//99;
 2/9=110/2;
 3/5=4,6=6,7=111,11=2,25=1,30=1,71=1,74=-5/1,2,3;
 4/5=5,16=3,69=1/1;
 5/5=2,8=3,13=1,38=5/2,8;
 7//1,2,3,16;
 1/18=20,19=15,26=3/3(-5);
 2/9=110/2;
 6/7=2,8=2,9=2,10=2,19=2,28=1/1;
 99/9=1/99;
 -------------------
 Title Card Required
 -------------------
 Symbolic Z-matrix:
 Charge =  0 Multiplicity = 1
 C                    -0.93283   0.11626  -0.00285 
 C                     0.39955   0.14615  -0.4362 
 C                     1.10744   1.3556   -0.44227 
 C                     0.48296   2.53516  -0.015 
 C                    -0.84942   2.50528   0.41835 
 C                    -1.55732   1.29583   0.42442 
 C                    -1.71073  -1.21281   0.00382 
 C                    -1.08625  -2.39237  -0.42345 
 C                    -1.79414  -3.60182  -0.41738 
 C                    -3.12652  -3.63171   0.01597 
 C                    -3.75101  -2.45214   0.44325 
 C                    -3.04311  -1.24269   0.43717 
 H                     0.87636  -0.75448  -0.76243 
 H                     2.12475   1.37842  -0.77314 
 H                     1.02345   3.45861  -0.01963 
 H                    -1.32623   3.4059    0.74458 
 H                    -0.06894  -2.36955  -0.75432 
 H                    -1.31733  -4.50245  -0.74361 
 H                    -3.66701  -4.55515   0.02061 
 H                    -4.76831  -2.47496   0.77412 
 Cl                   -3.23064   1.25829   0.96866 
 Cl                   -3.8274    0.23871   0.97378 
 

 GradGradGradGradGradGradGradGradGradGradGradGradGradGradGradGradGradGrad
 Berny optimization.
 Initialization pass.
                           ----------------------------
                           !    Initial Parameters    !
                           ! (Angstroms and Degrees)  !
 --------------------------                            --------------------------
 ! Name  Definition              Value          Derivative Info.                !
 --------------------------------------------------------------------------------
 ! R1    R(1,2)                  1.4014         estimate D2E/DX2                !
 ! R2    R(1,6)                  1.4014         estimate D2E/DX2                !
 ! R3    R(1,7)                  1.54           estimate D2E/DX2                !
 ! R4    R(2,3)                  1.4014         estimate D2E/DX2                !
 ! R5    R(2,13)                 1.07           estimate D2E/DX2                !
 ! R6    R(3,4)                  1.4014         estimate D2E/DX2                !
 ! R7    R(3,14)                 1.07           estimate D2E/DX2                !
 ! R8    R(4,5)                  1.4014         estimate D2E/DX2                !
 ! R9    R(4,15)                 1.07           estimate D2E/DX2                !
 ! R10   R(5,6)                  1.4014         estimate D2E/DX2                !
 ! R11   R(5,16)                 1.07           estimate D2E/DX2                !
 ! R12   R(6,21)                 1.76           estimate D2E/DX2                !
 ! R13   R(7,8)                  1.4014         estimate D2E/DX2                !
 ! R14   R(7,12)                 1.4014         estimate D2E/DX2                !
 ! R15   R(8,9)                  1.4014         estimate D2E/DX2                !
 ! R16   R(8,17)                 1.07           estimate D2E/DX2                !
 ! R17   R(9,10)                 1.4014         estimate D2E/DX2                !
 ! R18   R(9,18)                 1.07           estimate D2E/DX2                !
 ! R19   R(10,11)                1.4014         estimate D2E/DX2                !
 ! R20   R(10,19)                1.07           estimate D2E/DX2                !
 ! R21   R(11,12)                1.4014         estimate D2E/DX2                !
 ! R22   R(11,20)                1.07           estimate D2E/DX2                !
 ! R23   R(12,22)                1.76           estimate D2E/DX2                !
 ! R24   R(21,22)                1.1814         estimate D2E/DX2                !
 ! A1    A(2,1,6)              120.0            estimate D2E/DX2                !
 ! A2    A(2,1,7)              120.0            estimate D2E/DX2                !
 ! A3    A(6,1,7)              120.0            estimate D2E/DX2                !
 ! A4    A(1,2,3)              120.0            estimate D2E/DX2                !
 ! A5    A(1,2,13)             120.0            estimate D2E/DX2                !
 ! A6    A(3,2,13)             120.0            estimate D2E/DX2                !
 ! A7    A(2,3,4)              120.0            estimate D2E/DX2                !
 ! A8    A(2,3,14)             120.0            estimate D2E/DX2                !
 ! A9    A(4,3,14)             120.0            estimate D2E/DX2                !
 ! A10   A(3,4,5)              120.0            estimate D2E/DX2                !
 ! A11   A(3,4,15)             120.0            estimate D2E/DX2                !
 ! A12   A(5,4,15)             120.0            estimate D2E/DX2                !
 ! A13   A(4,5,6)              120.0            estimate D2E/DX2                !
 ! A14   A(4,5,16)             120.0            estimate D2E/DX2                !
 ! A15   A(6,5,16)             120.0            estimate D2E/DX2                !
 ! A16   A(1,6,5)              120.0            estimate D2E/DX2                !
 ! A17   A(1,6,21)             120.0            estimate D2E/DX2                !
 ! A18   A(5,6,21)             120.0            estimate D2E/DX2                !
 ! A19   A(1,7,8)              120.0            estimate D2E/DX2                !
 ! A20   A(1,7,12)             120.0            estimate D2E/DX2                !
 ! A21   A(8,7,12)             120.0            estimate D2E/DX2                !
 ! A22   A(7,8,9)              120.0            estimate D2E/DX2                !
 ! A23   A(7,8,17)             120.0            estimate D2E/DX2                !
 ! A24   A(9,8,17)             120.0            estimate D2E/DX2                !
 ! A25   A(8,9,10)             120.0            estimate D2E/DX2                !
 ! A26   A(8,9,18)             120.0            estimate D2E/DX2                !
 ! A27   A(10,9,18)            120.0            estimate D2E/DX2                !
 ! A28   A(9,10,11)            120.0            estimate D2E/DX2                !
 ! A29   A(9,10,19)            120.0            estimate D2E/DX2                !
 ! A30   A(11,10,19)           120.0            estimate D2E/DX2                !
 ! A31   A(10,11,12)           120.0            estimate D2E/DX2                !
 ! A32   A(10,11,20)           120.0            estimate D2E/DX2                !
 ! A33   A(12,11,20)           120.0            estimate D2E/DX2                !
 ! A34   A(7,12,11)            120.0            estimate D2E/DX2                !
 ! A35   A(7,12,22)            120.0            estimate D2E/DX2                !
 ! A36   A(11,12,22)           120.0            estimate D2E/DX2                !
 ! A37   A(6,21,22)            120.0            estimate D2E/DX2                !
 ! A38   A(12,22,21)           120.0            estimate D2E/DX2                !
 ! D1    D(6,1,2,3)              0.0001         estimate D2E/DX2                !
 ! D2    D(6,1,2,13)           180.0            estimate D2E/DX2                !
 ! D3    D(7,1,2,3)           -180.0            estimate D2E/DX2                !
 ! D4    D(7,1,2,13)            -0.0001         estimate D2E/DX2                !
 ! D5    D(2,1,6,5)             -0.0001         estimate D2E/DX2                !
 ! D6    D(2,1,6,21)           180.0            estimate D2E/DX2                !
 ! D7    D(7,1,6,5)            180.0            estimate D2E/DX2                !
 ! D8    D(7,1,6,21)             0.0            estimate D2E/DX2                !
 ! D9    D(2,1,7,8)             -0.0001         estimate D2E/DX2                !
 ! D10   D(2,1,7,12)           179.9998         estimate D2E/DX2                !
 ! D11   D(6,1,7,8)            179.9999         estimate D2E/DX2                !
 ! D12   D(6,1,7,12)            -0.0002         estimate D2E/DX2                !
 ! D13   D(1,2,3,4)              0.0            estimate D2E/DX2                !
 ! D14   D(1,2,3,14)           180.0            estimate D2E/DX2                !
 ! D15   D(13,2,3,4)          -179.9999         estimate D2E/DX2                !
 ! D16   D(13,2,3,14)            0.0001         estimate D2E/DX2                !
 ! D17   D(2,3,4,5)             -0.0001         estimate D2E/DX2                !
 ! D18   D(2,3,4,15)           180.0            estimate D2E/DX2                !
 ! D19   D(14,3,4,5)           179.9999         estimate D2E/DX2                !
 ! D20   D(14,3,4,15)            0.0            estimate D2E/DX2                !
 ! D21   D(3,4,5,6)              0.0001         estimate D2E/DX2                !
 ! D22   D(3,4,5,16)          -179.9999         estimate D2E/DX2                !
 ! D23   D(15,4,5,6)          -180.0            estimate D2E/DX2                !
 ! D24   D(15,4,5,16)            0.0            estimate D2E/DX2                !
 ! D25   D(4,5,6,1)              0.0            estimate D2E/DX2                !
 ! D26   D(4,5,6,21)           179.9999         estimate D2E/DX2                !
 ! D27   D(16,5,6,1)           180.0            estimate D2E/DX2                !
 ! D28   D(16,5,6,21)           -0.0001         estimate D2E/DX2                !
 ! D29   D(1,6,21,22)            0.0006         estimate D2E/DX2                !
 ! D30   D(5,6,21,22)         -179.9994         estimate D2E/DX2                !
 ! D31   D(1,7,8,9)            179.9999         estimate D2E/DX2                !
 ! D32   D(1,7,8,17)             0.0001         estimate D2E/DX2                !
 ! D33   D(12,7,8,9)             0.0001         estimate D2E/DX2                !
 ! D34   D(12,7,8,17)         -179.9998         estimate D2E/DX2                !
 ! D35   D(1,7,12,11)         -179.9999         estimate D2E/DX2                !
 ! D36   D(1,7,12,22)            0.0            estimate D2E/DX2                !
 ! D37   D(8,7,12,11)           -0.0001         estimate D2E/DX2                !
 ! D38   D(8,7,12,22)          179.9999         estimate D2E/DX2                !
 ! D39   D(7,8,9,10)             0.0            estimate D2E/DX2                !
 ! D40   D(7,8,9,18)           180.0            estimate D2E/DX2                !
 ! D41   D(17,8,9,10)          179.9998         estimate D2E/DX2                !
 ! D42   D(17,8,9,18)           -0.0002         estimate D2E/DX2                !
 ! D43   D(8,9,10,11)            0.0            estimate D2E/DX2                !
 ! D44   D(8,9,10,19)         -179.9999         estimate D2E/DX2                !
 ! D45   D(18,9,10,11)         180.0            estimate D2E/DX2                !
 ! D46   D(18,9,10,19)           0.0001         estimate D2E/DX2                !
 ! D47   D(9,10,11,12)           0.0            estimate D2E/DX2                !
 ! D48   D(9,10,11,20)        -179.9998         estimate D2E/DX2                !
 ! D49   D(19,10,11,12)        179.9999         estimate D2E/DX2                !
 ! D50   D(19,10,11,20)          0.0001         estimate D2E/DX2                !
 ! D51   D(10,11,12,7)           0.0            estimate D2E/DX2                !
 ! D52   D(10,11,12,22)       -179.9999         estimate D2E/DX2                !
 ! D53   D(20,11,12,7)         179.9999         estimate D2E/DX2                !
 ! D54   D(20,11,12,22)         -0.0001         estimate D2E/DX2                !
 ! D55   D(7,12,22,21)           0.0005         estimate D2E/DX2                !
 ! D56   D(11,12,22,21)       -179.9995         estimate D2E/DX2                !
 ! D57   D(6,21,22,12)          -0.0008         estimate D2E/DX2                !
 --------------------------------------------------------------------------------
 Trust Radius=3.00D-01 FncErr=1.00D-07 GrdErr=1.00D-06 EigMax=2.50D+02 EigMin=1.00D-04
 Number of steps in this run=    129 maximum allowed number of steps=    132.
 GradGradGradGradGradGradGradGradGradGradGradGradGradGradGradGradGradGrad

                          Input orientation:                          
 ---------------------------------------------------------------------
 Center     Atomic      Atomic             Coordinates (Angstroms)
 Number     Number       Type             X           Y           Z
 ---------------------------------------------------------------------
      1          6           0       -0.932830    0.116262   -0.002851
      2          6           0        0.399551    0.146148   -0.436198
      3          6           0        1.107445    1.355599   -0.442270
      4          6           0        0.482957    2.535164   -0.014995
      5          6           0       -0.849424    2.505279    0.418350
      6          6           0       -1.557318    1.295828    0.424422
      7          6           0       -1.710735   -1.212805    0.003823
      8          6           0       -1.086247   -2.392370   -0.423452
      9          6           0       -1.794140   -3.601822   -0.417378
     10          6           0       -3.126520   -3.631708    0.015972
     11          6           0       -3.751008   -2.452143    0.443247
     12          6           0       -3.043115   -1.242692    0.437173
     13          1           0        0.876362   -0.754477   -0.762430
     14          1           0        2.124748    1.378417   -0.773139
     15          1           0        1.023450    3.458607   -0.019631
     16          1           0       -1.326235    3.405903    0.744581
     17          1           0       -0.068945   -2.369552   -0.754322
     18          1           0       -1.317330   -4.502446   -0.743612
     19          1           0       -3.667012   -4.555151    0.020612
     20          1           0       -4.768308   -2.474962    0.774122
     21         17           0       -3.230638    1.258294    0.968656
     22         17           0       -3.827399    0.238708    0.973785
 ---------------------------------------------------------------------
                    Distance matrix (angstroms):
                    1          2          3          4          5
     1  C    0.000000
     2  C    1.401400   0.000000
     3  C    2.427296   1.401400   0.000000
     4  C    2.802800   2.427296   1.401400   0.000000
     5  C    2.427296   2.802800   2.427296   1.401400   0.000000
     6  C    1.401400   2.427296   2.802800   2.427296   1.401400
     7  C    1.540000   2.548270   3.838989   4.342800   3.838989
     8  C    2.548270   2.941400   4.342800   5.187469   4.975106
     9  C    3.838989   4.342800   5.744200   6.558176   6.235992
    10  C    4.342800   5.187469   6.558176   7.145600   6.558176
    11  C    3.838989   4.975106   6.235992   6.558176   5.744200
    12  C    2.548270   3.813607   4.975106   5.187469   4.342800
    13  H    2.146700   1.070000   2.146700   3.396345   3.872800
    14  H    3.396345   2.146700   1.070000   2.146700   3.396345
    15  H    3.872800   3.396345   2.146700   1.070000   2.146700
    16  H    3.396345   3.872800   3.396345   2.146700   1.070000
    17  H    2.736837   2.578650   3.918930   4.990735   5.074276
    18  H    4.693509   4.965039   6.347206   7.300676   7.118798
    19  H    5.412800   6.232802   7.612271   8.215600   7.612271
    20  H    4.693509   5.919617   7.118798   7.300676   6.347206
    21  Cl   2.743718   4.048303   4.562800   4.048303   2.743718
    22  Cl   3.057342   4.456874   5.254079   4.983028   3.783409
                    6          7          8          9         10
     6  C    0.000000
     7  C    2.548270   0.000000
     8  C    3.813607   1.401400   0.000000
     9  C    4.975106   2.427296   1.401400   0.000000
    10  C    5.187469   2.802800   2.427296   1.401400   0.000000
    11  C    4.342800   2.427296   2.802800   2.427296   1.401400
    12  C    2.941400   1.401400   2.427296   2.802800   2.427296
    13  H    3.396345   2.736837   2.578650   3.918930   4.990735
    14  H    3.872800   4.693509   4.965039   6.347206   7.300676
    15  H    3.396345   5.412800   6.232802   7.612271   8.215600
    16  H    2.146700   4.693509   5.919617   7.118798   7.300676
    17  H    4.127917   2.146700   1.070000   2.146700   3.396345
    18  H    5.919617   3.396345   2.146700   1.070000   2.146700
    19  H    6.232802   3.872800   3.396345   2.146700   1.070000
    20  H    4.965039   3.396345   3.872800   3.396345   2.146700
    21  Cl   1.760000   3.057342   4.456874   5.254079   4.983028
    22  Cl   2.563702   2.743718   4.048303   4.562800   4.048303
                   11         12         13         14         15
    11  C    0.000000
    12  C    1.401400   0.000000
    13  H    5.074276   4.127917   0.000000
    14  H    7.118798   5.919617   2.471400   0.000000
    15  H    7.612271   6.232802   4.280590   2.471400   0.000000
    16  H    6.347206   4.965039   4.942800   4.280590   2.471400
    17  H    3.872800   3.396345   1.871400   4.342800   5.974992
    18  H    3.396345   3.872800   4.342800   6.814200   8.329571
    19  H    2.146700   3.396345   5.974992   8.329571   9.285600
    20  H    1.070000   2.146700   6.097816   8.047159   8.329571
    21  Cl   3.783409   2.563702   4.890332   5.632800   4.890332
    22  Cl   2.743718   1.760000   5.111382   6.307038   5.906383
                   16         17         18         19         20
    16  H    0.000000
    17  H    6.097816   0.000000
    18  H    8.047159   2.471400   0.000000
    19  H    8.329571   4.280590   2.471400   0.000000
    20  H    6.814200   4.942800   4.280590   2.471400   0.000000
    21  Cl   2.879094   5.111382   6.307038   5.906383   4.042212
    22  Cl   4.042212   4.890332   5.632800   4.890332   2.879094
                   21         22
    21  Cl   0.000000
    22  Cl   1.181400   0.000000
 Stoichiometry    C12H8Cl2
 Framework group  C1[X(C12H8Cl2)]
 Deg. of freedom    60
 Full point group                 C1      NOp   1
 Largest Abelian subgroup         C1      NOp   1
 Largest concise Abelian subgroup C1      NOp   1
                         Standard orientation:                         
 ---------------------------------------------------------------------
 Center     Atomic      Atomic             Coordinates (Angstroms)
 Number     Number       Type             X           Y           Z
 ---------------------------------------------------------------------
      1          6           0       -0.770000    0.779004   -0.000001
      2          6           0       -1.470700    1.992652    0.000001
      3          6           0       -2.872100    1.992652    0.000002
      4          6           0       -3.572800    0.779004    0.000003
      5          6           0       -2.872100   -0.434644   -0.000001
      6          6           0       -1.470700   -0.434644   -0.000002
      7          6           0        0.770000    0.779004   -0.000002
      8          6           0        1.470700    1.992652   -0.000002
      9          6           0        2.872100    1.992652   -0.000002
     10          6           0        3.572800    0.779004    0.000000
     11          6           0        2.872100   -0.434644    0.000001
     12          6           0        1.470700   -0.434644    0.000001
     13          1           0       -0.935700    2.919299    0.000002
     14          1           0       -3.407100    2.919299    0.000004
     15          1           0       -4.642800    0.779004    0.000004
     16          1           0       -3.407100   -1.361292   -0.000002
     17          1           0        0.935700    2.919299   -0.000001
     18          1           0        3.407100    2.919299   -0.000003
     19          1           0        4.642800    0.779004    0.000002
     20          1           0        3.407100   -1.361292    0.000006
     21         17           0       -0.590700   -1.958849   -0.000005
     22         17           0        0.590700   -1.958849    0.000005
 ---------------------------------------------------------------------
 Rotational constants (GHZ):           0.9436665           0.5394897           0.3432534
 Standard basis: 6-311+G(d,p) (5D, 7F)
 There are   386 symmetry adapted cartesian basis functions of A   symmetry.
 There are   372 symmetry adapted basis functions of A   symmetry.
   372 basis functions,   602 primitive gaussians,   386 cartesian basis functions
    57 alpha electrons       57 beta electrons
       nuclear repulsion energy      1117.4701959996 Hartrees.
 NAtoms=   22 NActive=   22 NUniq=   22 SFac= 1.00D+00 NAtFMM=   60 NAOKFM=F Big=F
 Integral buffers will be    131072 words long.
 Raffenetti 2 integral format.
 Two-electron integral symmetry is turned on.
 One-electron integrals computed using PRISM.
 NBasis=   372 RedAO= T EigKep=  1.33D-06  NBF=   372
 NBsUse=   368 1.00D-06 EigRej=  9.74D-07 NBFU=   368
 ExpMin= 4.38D-02 ExpMax= 1.06D+05 ExpMxC= 3.62D+03 IAcc=3 IRadAn=         5 AccDes= 0.00D+00
 Harris functional with IExCor=  402 and IRadAn=       5 diagonalized for initial guess.
 HarFok:  IExCor=  402 AccDes= 0.00D+00 IRadAn=         5 IDoV= 1 UseB2=F ITyADJ=14
 ICtDFT=  3500011 ScaDFX=  1.000000  1.000000  1.000000  1.000000
 FoFCou: FMM=F IPFlag=           0 FMFlag=      100000 FMFlg1=           0
         NFxFlg=           0 DoJE=T BraDBF=F KetDBF=T FulRan=T
         wScrn=  0.000000 ICntrl=       500 IOpCl=  0 I1Cent=   200000004 NGrid=           0
         NMat0=    1 NMatS0=      1 NMatT0=    0 NMatD0=    1 NMtDS0=    0 NMtDT0=    0
 Petite list used in FoFCou.
 Requested convergence on RMS density matrix=1.00D-08 within  32 cycles.
 Requested convergence on MAX density matrix=1.00D-06.
 Requested convergence on             energy=1.00D-06.
 No special actions if energy rises.
 SCF Done:  E(RB3LYP) =  -1381.03288195     A.U. after   18 cycles
            NFock= 18  Conv=0.54D-08     -V/T= 1.9973
 QCSCF skips out because SCF is already converged.

 **********************************************************************

            Population analysis using the SCF Density.

 **********************************************************************

 Orbital symmetries:
       Occupied  (A) (A) (A) (A) (A) (A) (A) (A) (A) (A) (A) (A)
                 (A) (A) (A) (A) (A) (A) (A) (A) (A) (A) (A) (A)
                 (A) (A) (A) (A) (A) (A) (A) (A) (A) (A) (A) (A)
                 (A) (A) (A) (A) (A) (A) (A) (A) (A) (A) (A) (A)
                 (A) (A) (A) (A) (A) (A) (A) (A) (A)
       Virtual   (A) (A) (A) (A) (A) (A) (A) (A) (A) (A) (A) (A)
                 (A) (A) (A) (A) (A) (A) (A) (A) (A) (A) (A) (A)
                 (A) (A) (A) (A) (A) (A) (A) (A) (A) (A) (A) (A)
                 (A) (A) (A) (A) (A) (A) (A) (A) (A) (A) (A) (A)
                 (A) (A) (A) (A) (A) (A) (A) (A) (A) (A) (A) (A)
                 (A) (A) (A) (A) (A) (A) (A) (A) (A) (A) (A) (A)
                 (A) (A) (A) (A) (A) (A) (A) (A) (A) (A) (A) (A)
                 (A) (A) (A) (A) (A) (A) (A) (A) (A) (A) (A) (A)
                 (A) (A) (A) (A) (A) (A) (A) (A) (A) (A) (A) (A)
                 (A) (A) (A) (A) (A) (A) (A) (A) (A) (A) (A) (A)
                 (A) (A) (A) (A) (A) (A) (A) (A) (A) (A) (A) (A)
                 (A) (A) (A) (A) (A) (A) (A) (A) (A) (A) (A) (A)
                 (A) (A) (A) (A) (A) (A) (A) (A) (A) (A) (A) (A)
                 (A) (A) (A) (A) (A) (A) (A) (A) (A) (A) (A) (A)
                 (A) (A) (A) (A) (A) (A) (A) (A) (A) (A) (A) (A)
                 (A) (A) (A) (A) (A) (A) (A) (A) (A) (A) (A) (A)
                 (A) (A) (A) (A) (A) (A) (A) (A) (A) (A) (A) (A)
                 (A) (A) (A) (A) (A) (A) (A) (A) (A) (A) (A) (A)
                 (A) (A) (A) (A) (A) (A) (A) (A) (A) (A) (A) (A)
                 (A) (A) (A) (A) (A) (A) (A) (A) (A) (A) (A) (A)
                 (A) (A) (A) (A) (A) (A) (A) (A) (A) (A) (A) (A)
                 (A) (A) (A) (A) (A) (A) (A) (A) (A) (A) (A) (A)
                 (A) (A) (A) (A) (A) (A) (A) (A) (A) (A) (A) (A)
                 (A) (A) (A) (A) (A) (A) (A) (A) (A) (A) (A) (A)
                 (A) (A) (A) (A) (A) (A) (A) (A) (A) (A) (A) (A)
                 (A) (A) (A) (A) (A) (A) (A) (A) (A) (A) (A)
 The electronic state is 1-A.
 Alpha  occ. eigenvalues -- -101.64425-101.64425 -10.18718 -10.18697 -10.17630
 Alpha  occ. eigenvalues --  -10.17629 -10.17571 -10.17570 -10.17329 -10.17328
 Alpha  occ. eigenvalues --  -10.17275 -10.17275 -10.15441 -10.15441  -9.63182
 Alpha  occ. eigenvalues --   -9.61056  -7.41600  -7.36610  -7.36599  -7.36165
 Alpha  occ. eigenvalues --   -7.35985  -7.35562  -1.37516  -0.87512  -0.85734
 Alpha  occ. eigenvalues --   -0.80211  -0.79633  -0.77051  -0.73011  -0.71135
 Alpha  occ. eigenvalues --   -0.70805  -0.69698  -0.64105  -0.61324  -0.58863
 Alpha  occ. eigenvalues --   -0.57697  -0.56205  -0.51018  -0.48758  -0.46620
 Alpha  occ. eigenvalues --   -0.45879  -0.43912  -0.43045  -0.42382  -0.39587
 Alpha  occ. eigenvalues --   -0.38731  -0.37939  -0.36601  -0.36509  -0.33998
 Alpha  occ. eigenvalues --   -0.32832  -0.29200  -0.28543  -0.26181  -0.23567
 Alpha  occ. eigenvalues --   -0.19468  -0.14196
 Alpha virt. eigenvalues --   -0.04623  -0.03334  -0.01327  -0.00032   0.00873
 Alpha virt. eigenvalues --    0.01145   0.02357   0.02415   0.02653   0.02753
 Alpha virt. eigenvalues --    0.03065   0.04333   0.04523   0.06432   0.06826
 Alpha virt. eigenvalues --    0.06950   0.07010   0.07657   0.07719   0.09353
 Alpha virt. eigenvalues --    0.09700   0.10457   0.10541   0.10765   0.12014
 Alpha virt. eigenvalues --    0.12319   0.12874   0.13108   0.13446   0.14131
 Alpha virt. eigenvalues --    0.14600   0.15146   0.15319   0.16245   0.16406
 Alpha virt. eigenvalues --    0.17206   0.17664   0.17963   0.18287   0.18381
 Alpha virt. eigenvalues --    0.18473   0.18689   0.19230   0.19398   0.20131
 Alpha virt. eigenvalues --    0.20281   0.20788   0.20823   0.20974   0.21541
 Alpha virt. eigenvalues --    0.22682   0.22744   0.22810   0.22873   0.24137
 Alpha virt. eigenvalues --    0.24897   0.24904   0.25558   0.26049   0.26566
 Alpha virt. eigenvalues --    0.27679   0.27770   0.28595   0.29061   0.29498
 Alpha virt. eigenvalues --    0.29635   0.29798   0.30493   0.30784   0.31769
 Alpha virt. eigenvalues --    0.32083   0.33855   0.34043   0.36795   0.37091
 Alpha virt. eigenvalues --    0.37167   0.38337   0.40151   0.43806   0.44484
 Alpha virt. eigenvalues --    0.45731   0.46277   0.46515   0.47925   0.49023
 Alpha virt. eigenvalues --    0.50726   0.51321   0.53497   0.53768   0.54644
 Alpha virt. eigenvalues --    0.54846   0.55436   0.55730   0.56049   0.56337
 Alpha virt. eigenvalues --    0.56565   0.57975   0.59068   0.59765   0.60446
 Alpha virt. eigenvalues --    0.60773   0.62363   0.63559   0.63618   0.64424
 Alpha virt. eigenvalues --    0.64582   0.66797   0.67347   0.68379   0.68797
 Alpha virt. eigenvalues --    0.69401   0.69797   0.70630   0.72194   0.72525
 Alpha virt. eigenvalues --    0.73336   0.74448   0.75102   0.76054   0.77920
 Alpha virt. eigenvalues --    0.78681   0.81021   0.81107   0.81714   0.81851
 Alpha virt. eigenvalues --    0.83121   0.84678   0.84973   0.86561   0.87448
 Alpha virt. eigenvalues --    0.89251   0.90181   0.91864   0.92182   0.93481
 Alpha virt. eigenvalues --    0.94930   0.96264   0.96404   0.96850   0.98442
 Alpha virt. eigenvalues --    0.99546   0.99783   1.02188   1.02973   1.04020
 Alpha virt. eigenvalues --    1.06173   1.07099   1.08930   1.09864   1.10328
 Alpha virt. eigenvalues --    1.10401   1.11144   1.13219   1.13272   1.14063
 Alpha virt. eigenvalues --    1.19063   1.23851   1.23981   1.25216   1.31403
 Alpha virt. eigenvalues --    1.32132   1.34747   1.35636   1.40442   1.43800
 Alpha virt. eigenvalues --    1.46008   1.47821   1.49945   1.51956   1.52410
 Alpha virt. eigenvalues --    1.52882   1.54205   1.54652   1.56701   1.57014
 Alpha virt. eigenvalues --    1.57421   1.57501   1.60394   1.61761   1.65290
 Alpha virt. eigenvalues --    1.66129   1.66550   1.68026   1.70154   1.71792
 Alpha virt. eigenvalues --    1.74976   1.76096   1.76339   1.77768   1.78036
 Alpha virt. eigenvalues --    1.80799   1.86441   1.86654   1.88077   1.88915
 Alpha virt. eigenvalues --    1.91076   1.91508   1.92564   1.92852   1.94451
 Alpha virt. eigenvalues --    1.96559   1.96788   1.96863   1.99562   1.99969
 Alpha virt. eigenvalues --    2.02155   2.02181   2.03308   2.03865   2.07174
 Alpha virt. eigenvalues --    2.09457   2.10782   2.11266   2.12341   2.21456
 Alpha virt. eigenvalues --    2.24162   2.25403   2.27398   2.29433   2.29572
 Alpha virt. eigenvalues --    2.31759   2.35459   2.35976   2.38431   2.39063
 Alpha virt. eigenvalues --    2.43021   2.43811   2.44942   2.46894   2.48031
 Alpha virt. eigenvalues --    2.52130   2.53703   2.58662   2.64741   2.65898
 Alpha virt. eigenvalues --    2.67023   2.67363   2.69816   2.71079   2.71273
 Alpha virt. eigenvalues --    2.73471   2.74705   2.74777   2.75611   2.75784
 Alpha virt. eigenvalues --    2.76059   2.77627   2.78618   2.81955   2.82484
 Alpha virt. eigenvalues --    2.83079   2.84504   2.85708   2.87116   2.87650
 Alpha virt. eigenvalues --    2.88795   2.89805   2.94798   2.95910   2.97510
 Alpha virt. eigenvalues --    3.08031   3.09047   3.10303   3.16353   3.18564
 Alpha virt. eigenvalues --    3.21614   3.24116   3.35860   3.36778   3.38712
 Alpha virt. eigenvalues --    3.39323   3.47349   3.53615   3.54699   3.54758
 Alpha virt. eigenvalues --    3.59155   3.64385   3.70905   3.88202   3.92605
 Alpha virt. eigenvalues --    4.05800   4.06160   4.10571   4.11957   4.16271
 Alpha virt. eigenvalues --    4.24551   4.51602   4.83300   4.86374   9.80772
 Alpha virt. eigenvalues --   10.55951  23.50873  23.66535  23.92150  23.93677
 Alpha virt. eigenvalues --   23.96947  23.97991  24.05424  24.06811  24.07957
 Alpha virt. eigenvalues --   24.08927  24.16829  24.17387  25.42647  26.02190
 Alpha virt. eigenvalues --   26.21194  27.09778  27.40012  28.44816 215.90900
 Alpha virt. eigenvalues --  216.87782
          Condensed to atoms (all electrons):
               1          2          3          4          5          6
     1  C   11.724119  -0.651840  -0.686502  -1.083450   0.292422  -2.311679
     2  C   -0.651840  10.715482  -2.184032   0.601311   2.040195  -3.193768
     3  C   -0.686502  -2.184032  10.582035  -0.204410  -1.340094   1.304234
     4  C   -1.083450   0.601311  -0.204410   8.762137   1.742889  -5.885432
     5  C    0.292422   2.040195  -1.340094   1.742889  16.417460 -16.934593
     6  C   -2.311679  -3.193768   1.304234  -5.885432 -16.934593  54.184225
     7  C    3.105760  -0.753523  -0.062440  -0.227476  -0.425508  -1.866435
     8  C   -0.753524   0.998739  -0.127040  -0.171953   0.443588  -2.391512
     9  C   -0.062440  -0.127040  -0.251918  -0.107598   0.152747   0.275545
    10  C   -0.227476  -0.171953  -0.107598   0.061445   0.154509  -0.903225
    11  C   -0.425508   0.443588   0.152747   0.154509   0.439303  -6.549205
    12  C   -1.866435  -2.391512   0.275544  -0.903225  -6.549205  21.240137
    13  H    0.070131   0.424444  -0.236828   0.016468   0.015043  -0.076821
    14  H    0.028078  -0.149936   0.491336  -0.032133  -0.011613   0.012002
    15  H    0.045583  -0.003226  -0.018315   0.471987  -0.076683  -0.088907
    16  H    0.077925  -0.000066  -0.042259  -0.074995   0.356417   0.132294
    17  H    0.026281   0.046734   0.019092   0.003779   0.001801  -0.033497
    18  H    0.004278   0.004073   0.000132  -0.000031   0.000226   0.002550
    19  H    0.002187   0.003100   0.000169   0.000017   0.000306  -0.004822
    20  H    0.003110   0.001281   0.000656  -0.000284  -0.005347   0.024124
    21  Cl  -1.385184   0.232105  -0.505695   2.386298   6.743791 -20.184880
    22  Cl   0.089585   0.243723  -0.689920   0.752231   2.934824 -10.949470
               7          8          9         10         11         12
     1  C    3.105760  -0.753524  -0.062440  -0.227476  -0.425508  -1.866435
     2  C   -0.753523   0.998739  -0.127040  -0.171953   0.443588  -2.391512
     3  C   -0.062440  -0.127040  -0.251918  -0.107598   0.152747   0.275544
     4  C   -0.227476  -0.171953  -0.107598   0.061445   0.154509  -0.903225
     5  C   -0.425508   0.443588   0.152747   0.154509   0.439303  -6.549205
     6  C   -1.866435  -2.391512   0.275545  -0.903225  -6.549205  21.240137
     7  C   11.724120  -0.651840  -0.686502  -1.083450   0.292422  -2.311680
     8  C   -0.651840  10.715482  -2.184032   0.601311   2.040195  -3.193768
     9  C   -0.686502  -2.184032  10.582034  -0.204410  -1.340094   1.304234
    10  C   -1.083450   0.601311  -0.204410   8.762137   1.742889  -5.885431
    11  C    0.292422   2.040195  -1.340094   1.742889  16.417459 -16.934592
    12  C   -2.311680  -3.193768   1.304234  -5.885431 -16.934592  54.184223
    13  H    0.026281   0.046734   0.019092   0.003779   0.001801  -0.033497
    14  H    0.004278   0.004073   0.000132  -0.000031   0.000226   0.002550
    15  H    0.002187   0.003100   0.000169   0.000017   0.000306  -0.004822
    16  H    0.003110   0.001281   0.000656  -0.000284  -0.005347   0.024124
    17  H    0.070131   0.424444  -0.236828   0.016468   0.015043  -0.076821
    18  H    0.028078  -0.149936   0.491336  -0.032133  -0.011613   0.012002
    19  H    0.045583  -0.003226  -0.018315   0.471987  -0.076683  -0.088907
    20  H    0.077925  -0.000066  -0.042259  -0.074995   0.356417   0.132294
    21  Cl   0.089585   0.243723  -0.689920   0.752231   2.934824 -10.949472
    22  Cl  -1.385184   0.232106  -0.505695   2.386297   6.743790 -20.184878
              13         14         15         16         17         18
     1  C    0.070131   0.028078   0.045583   0.077925   0.026281   0.004278
     2  C    0.424444  -0.149936  -0.003226  -0.000066   0.046734   0.004073
     3  C   -0.236828   0.491336  -0.018315  -0.042259   0.019092   0.000132
     4  C    0.016468  -0.032133   0.471987  -0.074995   0.003779  -0.000031
     5  C    0.015043  -0.011613  -0.076683   0.356417   0.001801   0.000226
     6  C   -0.076821   0.012002  -0.088907   0.132294  -0.033497   0.002550
     7  C    0.026281   0.004278   0.002187   0.003110   0.070131   0.028078
     8  C    0.046734   0.004073   0.003100   0.001281   0.424444  -0.149936
     9  C    0.019092   0.000132   0.000169   0.000656  -0.236828   0.491336
    10  C    0.003779  -0.000031   0.000017  -0.000284   0.016468  -0.032133
    11  C    0.001801   0.000226   0.000306  -0.005347   0.015043  -0.011613
    12  C   -0.033497   0.002550  -0.004822   0.024124  -0.076821   0.012002
    13  H    0.586817  -0.007915  -0.000229   0.000044   0.004177   0.000011
    14  H   -0.007915   0.544240  -0.007680  -0.000269   0.000011  -0.000000
    15  H   -0.000229  -0.007680   0.551260  -0.009422   0.000001  -0.000000
    16  H    0.000044  -0.000269  -0.009422   0.542771  -0.000003   0.000000
    17  H    0.004177   0.000011   0.000001  -0.000003   0.586817  -0.007915
    18  H    0.000011  -0.000000  -0.000000   0.000000  -0.007915   0.544240
    19  H    0.000001  -0.000000   0.000000  -0.000000  -0.000229  -0.007680
    20  H   -0.000003   0.000000  -0.000000   0.000002   0.000044  -0.000269
    21  Cl   0.014426   0.001697   0.012733  -0.141062   0.015098  -0.001779
    22  Cl   0.015098  -0.001779   0.000911   0.009152   0.014426   0.001697
              19         20         21         22
     1  C    0.002187   0.003110  -1.385184   0.089585
     2  C    0.003100   0.001281   0.232105   0.243723
     3  C    0.000169   0.000656  -0.505695  -0.689920
     4  C    0.000017  -0.000284   2.386298   0.752231
     5  C    0.000306  -0.005347   6.743791   2.934824
     6  C   -0.004822   0.024124 -20.184880 -10.949470
     7  C    0.045583   0.077925   0.089585  -1.385184
     8  C   -0.003226  -0.000066   0.243723   0.232106
     9  C   -0.018315  -0.042259  -0.689920  -0.505695
    10  C    0.471987  -0.074995   0.752231   2.386297
    11  C   -0.076683   0.356417   2.934824   6.743790
    12  C   -0.088907   0.132294 -10.949472 -20.184878
    13  H    0.000001  -0.000003   0.014426   0.015098
    14  H   -0.000000   0.000000   0.001697  -0.001779
    15  H    0.000000  -0.000000   0.012733   0.000911
    16  H   -0.000000   0.000002  -0.141062   0.009152
    17  H   -0.000229   0.000044   0.015098   0.014426
    18  H   -0.007680  -0.000269  -0.001779   0.001697
    19  H    0.551260  -0.009422   0.000911   0.012733
    20  H   -0.009422   0.542771   0.009152  -0.141062
    21  Cl   0.000911   0.009152  32.579032   4.355392
    22  Cl   0.012733  -0.141062   4.355392  32.579031
 Mulliken charges:
               1
     1  C   -0.015424
     2  C   -0.127878
     3  C   -0.368896
     4  C   -0.262083
     5  C   -0.392480
     6  C    0.199134
     7  C   -0.015424
     8  C   -0.127878
     9  C   -0.368896
    10  C   -0.262083
    11  C   -0.392480
    12  C    0.199134
    13  H    0.110945
    14  H    0.122730
    15  H    0.121029
    16  H    0.125931
    17  H    0.110945
    18  H    0.122730
    19  H    0.121029
    20  H    0.125931
    21  Cl   0.486991
    22  Cl   0.486991
 Sum of Mulliken charges =  -0.00000
 Mulliken charges with hydrogens summed into heavy atoms:
               1
     1  C   -0.015424
     2  C   -0.016933
     3  C   -0.246166
     4  C   -0.141054
     5  C   -0.266549
     6  C    0.199134
     7  C   -0.015424
     8  C   -0.016933
     9  C   -0.246166
    10  C   -0.141054
    11  C   -0.266549
    12  C    0.199134
    21  Cl   0.486991
    22  Cl   0.486991
 Electronic spatial extent (au):  <R**2>=           3051.3658
 Charge=             -0.0000 electrons
 Dipole moment (field-independent basis, Debye):
    X=             -0.0000    Y=             -1.3779    Z=              0.0000  Tot=              1.3779
 Quadrupole moment (field-independent basis, Debye-Ang):
   XX=            -91.0240   YY=            -83.8024   ZZ=           -100.2360
   XY=              0.0000   XZ=              0.0000   YZ=              0.0000
 Traceless Quadrupole moment (field-independent basis, Debye-Ang):
   XX=              0.6635   YY=              7.8851   ZZ=             -8.5486
   XY=              0.0000   XZ=              0.0000   YZ=              0.0000
 Octapole moment (field-independent basis, Debye-Ang**2):
  XXX=             -0.0000  YYY=            -23.0236  ZZZ=              0.0000  XYY=             -0.0000
  XXY=             -0.0587  XXZ=              0.0001  XZZ=             -0.0000  YZZ=            -17.1350
  YYZ=              0.0000  XYZ=             -0.0000
 Hexadecapole moment (field-independent basis, Debye-Ang**3):
 XXXX=          -2503.6736 YYYY=          -1322.1412 ZZZZ=           -124.3241 XXXY=              0.0000
 XXXZ=              0.0002 YYYX=              0.0000 YYYZ=              0.0001 ZZZX=              0.0001
 ZZZY=              0.0000 XXYY=           -660.6625 XXZZ=           -533.8566 YYZZ=           -276.7743
 XXYZ=              0.0001 YYXZ=             -0.0000 ZZXY=             -0.0000
 N-N= 1.117470196000D+03 E-N=-5.494594458887D+03  KE= 1.384706174193D+03
 Calling FoFJK, ICntrl=      2127 FMM=F ISym2X=0 I1Cent= 0 IOpClX= 0 NMat=1 NMatS=1 NMatT=0.
 ***** Axes restored to original set *****
 -------------------------------------------------------------------
 Center     Atomic                   Forces (Hartrees/Bohr)
 Number     Number              X              Y              Z
 -------------------------------------------------------------------
      1        6           0.002390612   -0.029051475   -0.006243715
      2        6          -0.003375294    0.018436415    0.004574748
      3        6          -0.014412170   -0.000591688    0.004637144
      4        6          -0.007955864   -0.012366800    0.000298279
      5        6           0.006541406   -0.020664192   -0.006035868
      6        6           0.105653046   -0.004599632   -0.035672455
      7        6           0.026472999    0.012093813   -0.006450363
      8        6          -0.017707387   -0.006050128    0.004697541
      9        6          -0.006521229    0.012890260    0.004569325
     10        6           0.006888032    0.012994162    0.000171138
     11        6           0.021193643    0.004369568   -0.006161708
     12        6           0.055590813   -0.090132686   -0.035242090
     13        1           0.006633115   -0.005088125   -0.003140980
     14        1           0.009337871    0.000251723   -0.003029125
     15        1           0.005518976    0.009120336   -0.000105359
     16        1          -0.006919401    0.011327528    0.004407071
     17        1           0.007670642   -0.003315469   -0.003149920
     18        1           0.004339852   -0.008287519   -0.002986228
     19        1          -0.005249870   -0.009278435   -0.000013019
     20        1          -0.013245381    0.000519479    0.004461306
     21       17           1.531682216    2.826839344    0.026257185
     22       17          -1.714526629   -2.719416479    0.054157092
 -------------------------------------------------------------------
 Cartesian Forces:  Max     2.826839344 RMS     0.560111333

 GradGradGradGradGradGradGradGradGradGradGradGradGradGradGradGradGradGrad
 Berny optimization.
 FormGI is forming the generalized inverse of G from B-inverse, IUseBI=4.
 Internal  Forces:  Max     3.116591900 RMS     0.292445880
 Search for a local minimum.
 Step number   1 out of a maximum of  129
 All quantities printed in internal units (Hartrees-Bohrs-Radians)
 Mixed Optimization -- RFO/linear search
 Second derivative matrix not updated -- first step.
 ITU=  0
     Eigenvalues ---    0.01035   0.01214   0.01489   0.01712   0.01738
     Eigenvalues ---    0.01829   0.02070   0.02070   0.02070   0.02070
     Eigenvalues ---    0.02070   0.02070   0.02070   0.02070   0.02070
     Eigenvalues ---    0.02070   0.02070   0.02070   0.03966   0.16000
     Eigenvalues ---    0.16000   0.16000   0.16000   0.16000   0.16000
     Eigenvalues ---    0.16000   0.16000   0.22000   0.22000   0.22577
     Eigenvalues ---    0.22607   0.24497   0.24506   0.25000   0.25000
     Eigenvalues ---    0.25000   0.28334   0.29040   0.29447   0.37230
     Eigenvalues ---    0.37230   0.37230   0.37230   0.37230   0.37230
     Eigenvalues ---    0.37230   0.37230   0.39888   0.40719   0.41366
     Eigenvalues ---    0.41371   0.44568   0.45129   0.45389   0.45389
     Eigenvalues ---    0.45389   0.45389   0.45389   0.45389  16.61567
 RFO step:  Lambda=-6.25411802D-01 EMin= 1.03510890D-02
 Linear search not attempted -- first point.
 Iteration  1 RMS(Cart)=  0.02982553 RMS(Int)=  0.00049555
 Iteration  2 RMS(Cart)=  0.00114852 RMS(Int)=  0.00022888
 Iteration  3 RMS(Cart)=  0.00000057 RMS(Int)=  0.00022888
 Variable       Old X    -DE/DX   Delta X   Delta X   Delta X     New X
                                 (Linear)    (Quad)   (Total)
    R1        2.64826   0.01911   0.00000   0.00311   0.00305   2.65131
    R2        2.64826   0.10258   0.00000   0.01742   0.01710   2.66536
    R3        2.91018   0.12038   0.00000  -0.01172  -0.01222   2.89796
    R4        2.64826  -0.00901   0.00000  -0.00604  -0.00603   2.64223
    R5        2.02201   0.00820   0.00000   0.00821   0.00821   2.03022
    R6        2.64826  -0.02765   0.00000  -0.00871  -0.00864   2.63962
    R7        2.02201   0.00982   0.00000   0.00984   0.00984   2.03185
    R8        2.64826  -0.02395   0.00000  -0.00759  -0.00753   2.64073
    R9        2.02201   0.01066   0.00000   0.01068   0.01068   2.03269
   R10        2.64826  -0.00613   0.00000  -0.00798  -0.00800   2.64027
   R11        2.02201   0.01396   0.00000   0.01399   0.01399   2.03600
   R12        3.32592   0.04988   0.00000   0.12534   0.12557   3.45149
   R13        2.64826   0.01911   0.00000   0.00311   0.00305   2.65131
   R14        2.64826   0.10258   0.00000   0.01742   0.01710   2.66536
   R15        2.64826  -0.00901   0.00000  -0.00604  -0.00603   2.64223
   R16        2.02201   0.00820   0.00000   0.00821   0.00821   2.03022
   R17        2.64826  -0.02765   0.00000  -0.00871  -0.00864   2.63962
   R18        2.02201   0.00982   0.00000   0.00984   0.00984   2.03185
   R19        2.64826  -0.02395   0.00000  -0.00759  -0.00753   2.64073
   R20        2.02201   0.01066   0.00000   0.01068   0.01068   2.03269
   R21        2.64826  -0.00613   0.00000  -0.00798  -0.00800   2.64027
   R22        2.02201   0.01396   0.00000   0.01399   0.01399   2.03600
   R23        3.32592   0.04988   0.00000   0.12534   0.12557   3.45149
   R24        2.23252   3.11659   0.00000   0.18077   0.18127   2.41379
    A1        2.09440  -0.08107   0.00000  -0.01158  -0.01130   2.08309
    A2        2.09440  -0.16490   0.00000  -0.00022   0.00043   2.09482
    A3        2.09440   0.24598   0.00000   0.01180   0.01088   2.10527
    A4        2.09440   0.04726   0.00000   0.00695   0.00679   2.10118
    A5        2.09440  -0.02004   0.00000   0.00109   0.00117   2.09557
    A6        2.09440  -0.02721   0.00000  -0.00804  -0.00796   2.08644
    A7        2.09440   0.00752   0.00000   0.00094   0.00091   2.09531
    A8        2.09440  -0.00372   0.00000  -0.00042  -0.00040   2.09399
    A9        2.09440  -0.00380   0.00000  -0.00053  -0.00051   2.09388
   A10        2.09440  -0.00822   0.00000  -0.00167  -0.00165   2.09274
   A11        2.09440   0.00394   0.00000   0.00062   0.00061   2.09501
   A12        2.09440   0.00428   0.00000   0.00105   0.00104   2.09544
   A13        2.09440   0.02094   0.00000   0.00782   0.00776   2.10216
   A14        2.09440  -0.00963   0.00000  -0.00284  -0.00281   2.09158
   A15        2.09440  -0.01131   0.00000  -0.00498  -0.00495   2.08945
   A16        2.09440   0.01358   0.00000  -0.00246  -0.00251   2.09189
   A17        2.09440   0.06913   0.00000   0.03096   0.03077   2.12517
   A18        2.09440  -0.08271   0.00000  -0.02850  -0.02826   2.06613
   A19        2.09440  -0.16490   0.00000  -0.00022   0.00043   2.09482
   A20        2.09440   0.24598   0.00000   0.01180   0.01088   2.10527
   A21        2.09440  -0.08107   0.00000  -0.01158  -0.01130   2.08309
   A22        2.09440   0.04726   0.00000   0.00695   0.00679   2.10118
   A23        2.09440  -0.02004   0.00000   0.00109   0.00117   2.09557
   A24        2.09440  -0.02721   0.00000  -0.00804  -0.00796   2.08644
   A25        2.09440   0.00752   0.00000   0.00094   0.00091   2.09531
   A26        2.09440  -0.00372   0.00000  -0.00042  -0.00040   2.09399
   A27        2.09440  -0.00380   0.00000  -0.00053  -0.00051   2.09388
   A28        2.09440  -0.00822   0.00000  -0.00167  -0.00165   2.09274
   A29        2.09440   0.00394   0.00000   0.00062   0.00061   2.09501
   A30        2.09440   0.00428   0.00000   0.00105   0.00104   2.09544
   A31        2.09440   0.02094   0.00000   0.00782   0.00776   2.10216
   A32        2.09440  -0.00963   0.00000  -0.00284  -0.00281   2.09158
   A33        2.09440  -0.01131   0.00000  -0.00498  -0.00495   2.08945
   A34        2.09440   0.01358   0.00000  -0.00246  -0.00251   2.09189
   A35        2.09440   0.06913   0.00000   0.03096   0.03077   2.12517
   A36        2.09440  -0.08271   0.00000  -0.02850  -0.02826   2.06613
   A37        2.09440  -0.31511   0.00000  -0.04275  -0.04165   2.05275
   A38        2.09440  -0.31511   0.00000  -0.04275  -0.04165   2.05275
    D1        0.00000   0.00000   0.00000   0.00000   0.00000   0.00000
    D2        3.14159   0.00000   0.00000   0.00000   0.00000   3.14159
    D3       -3.14159   0.00000   0.00000   0.00000   0.00000  -3.14159
    D4       -0.00000   0.00000   0.00000   0.00000   0.00000  -0.00000
    D5       -0.00000  -0.00000   0.00000  -0.00000  -0.00000  -0.00000
    D6        3.14159  -0.00000   0.00000   0.00000   0.00000   3.14159
    D7        3.14159  -0.00000   0.00000  -0.00000  -0.00000   3.14159
    D8        0.00000  -0.00000   0.00000   0.00000   0.00000   0.00000
    D9       -0.00000  -0.00000   0.00000  -0.00000  -0.00000  -0.00000
   D10        3.14159  -0.00000   0.00000  -0.00000  -0.00000   3.14159
   D11        3.14159  -0.00000   0.00000  -0.00000  -0.00000   3.14159
   D12       -0.00000  -0.00000   0.00000  -0.00000  -0.00000  -0.00000
   D13        0.00000  -0.00000   0.00000   0.00000   0.00000   0.00000
   D14        3.14159  -0.00000   0.00000   0.00000   0.00000   3.14159
   D15       -3.14159   0.00000   0.00000  -0.00000  -0.00000  -3.14159
   D16        0.00000   0.00000   0.00000  -0.00000  -0.00000   0.00000
   D17       -0.00000  -0.00000   0.00000   0.00000   0.00000  -0.00000
   D18        3.14159   0.00000   0.00000  -0.00000  -0.00000   3.14159
   D19        3.14159  -0.00000   0.00000   0.00000   0.00000   3.14159
   D20        0.00000   0.00000   0.00000  -0.00000  -0.00000   0.00000
   D21        0.00000   0.00000   0.00000  -0.00000  -0.00000   0.00000
   D22       -3.14159   0.00000   0.00000  -0.00000  -0.00000  -3.14159
   D23       -3.14159  -0.00000   0.00000  -0.00000  -0.00000  -3.14159
   D24        0.00000   0.00000   0.00000  -0.00000  -0.00000   0.00000
   D25       -0.00000   0.00000   0.00000   0.00000   0.00000  -0.00000
   D26        3.14159   0.00000   0.00000  -0.00000  -0.00000   3.14159
   D27        3.14159  -0.00000   0.00000   0.00000   0.00000   3.14159
   D28       -0.00000   0.00000   0.00000  -0.00000  -0.00000  -0.00000
   D29        0.00001  -0.00000   0.00000  -0.00000  -0.00000   0.00001
   D30       -3.14158  -0.00000   0.00000  -0.00000  -0.00000  -3.14158
   D31        3.14159   0.00000   0.00000   0.00000   0.00000   3.14159
   D32        0.00000   0.00000   0.00000   0.00000   0.00000   0.00000
   D33        0.00000   0.00000   0.00000   0.00000   0.00000   0.00000
   D34       -3.14159   0.00000   0.00000  -0.00000  -0.00000  -3.14159
   D35       -3.14159  -0.00000   0.00000  -0.00000  -0.00000  -3.14159
   D36        0.00000  -0.00000   0.00000   0.00000   0.00000   0.00000
   D37       -0.00000  -0.00000   0.00000  -0.00000  -0.00000  -0.00000
   D38        3.14159  -0.00000   0.00000   0.00000   0.00000   3.14159
   D39       -0.00000  -0.00000   0.00000   0.00000   0.00000  -0.00000
   D40        3.14159  -0.00000   0.00000  -0.00000  -0.00000   3.14159
   D41        3.14159   0.00000   0.00000   0.00000   0.00000   3.14159
   D42       -0.00000   0.00000   0.00000   0.00000   0.00000  -0.00000
   D43       -0.00000  -0.00000   0.00000  -0.00000  -0.00000  -0.00000
   D44       -3.14159  -0.00000   0.00000  -0.00000  -0.00000  -3.14159
   D45        3.14159  -0.00000   0.00000   0.00000   0.00000   3.14159
   D46        0.00000   0.00000   0.00000  -0.00000  -0.00000   0.00000
   D47        0.00000   0.00000   0.00000  -0.00000  -0.00000   0.00000
   D48       -3.14159   0.00000   0.00000  -0.00000  -0.00000  -3.14159
   D49        3.14159  -0.00000   0.00000   0.00000   0.00000   3.14159
   D50        0.00000   0.00000   0.00000  -0.00000  -0.00000   0.00000
   D51        0.00000   0.00000   0.00000   0.00000   0.00000   0.00000
   D52       -3.14159   0.00000   0.00000  -0.00000  -0.00000  -3.14159
   D53        3.14159   0.00000   0.00000   0.00000   0.00000   3.14159
   D54       -0.00000   0.00000   0.00000  -0.00000  -0.00000  -0.00000
   D55        0.00001  -0.00000   0.00000  -0.00000  -0.00000   0.00001
   D56       -3.14158  -0.00000   0.00000  -0.00000  -0.00000  -3.14158
   D57       -0.00001   0.00000   0.00000   0.00000   0.00000  -0.00001
         Item               Value     Threshold  Converged?
 Maximum Force            3.116592     0.000450     NO 
 RMS     Force            0.292446     0.000300     NO 
 Maximum Displacement     0.192375     0.001800     NO 
 RMS     Displacement     0.029250     0.001200     NO 
 Predicted change in Energy=-3.343909D-01
 GradGradGradGradGradGradGradGradGradGradGradGradGradGradGradGradGradGrad

                          Input orientation:                          
 ---------------------------------------------------------------------
 Center     Atomic      Atomic             Coordinates (Angstroms)
 Number     Number       Type             X           Y           Z
 ---------------------------------------------------------------------
      1          6           0       -0.936019    0.114387   -0.002152
      2          6           0        0.397916    0.144895   -0.435894
      3          6           0        1.111355    1.347354   -0.445107
      4          6           0        0.497465    2.528228   -0.021078
      5          6           0       -0.830837    2.506163    0.412392
      6          6           0       -1.551607    1.309330    0.425076
      7          6           0       -1.710659   -1.209101    0.004494
      8          6           0       -1.085954   -2.390329   -0.423165
      9          6           0       -1.785049   -3.601215   -0.420259
     10          6           0       -3.113396   -3.641007    0.009902
     11          6           0       -3.742703   -2.468827    0.437378
     12          6           0       -3.052088   -1.254277    0.437954
     13          1           0        0.878105   -0.758512   -0.763762
     14          1           0        2.133337    1.363125   -0.778841
     15          1           0        1.046582    3.453134   -0.028280
     16          1           0       -1.303290    3.417629    0.739224
     17          1           0       -0.064578   -2.369106   -0.755677
     18          1           0       -1.299816   -4.502489   -0.749390
     19          1           0       -3.650951   -4.572704    0.012023
     20          1           0       -4.767320   -2.500749    0.768954
     21         17           0       -3.283984    1.345262    1.002564
     22         17           0       -3.929199    0.242890    1.008109
 ---------------------------------------------------------------------
                    Distance matrix (angstroms):
                    1          2          3          4          5
     1  C    0.000000
     2  C    1.403014   0.000000
     3  C    2.430670   1.398209   0.000000
     4  C    2.807466   2.421211   1.396827   0.000000
     5  C    2.429713   2.793746   2.418730   1.397415   0.000000
     6  C    1.410447   2.428544   2.801791   2.425586   1.397169
     7  C    1.533535   2.544275   3.834236   4.340979   3.839747
     8  C    2.544275   2.937582   4.335772   5.182769   4.973819
     9  C    3.834236   4.335772   5.733943   6.552808   6.237299
    10  C    4.340979   5.182769   6.552808   7.148338   6.569610
    11  C    3.839747   4.973819   6.237299   6.569610   5.764557
    12  C    2.558257   3.824111   4.988240   5.207436   4.367553
    13  H    2.152452   1.074347   2.142573   3.391037   3.868065
    14  H    3.403460   2.147878   1.075208   2.146566   3.392919
    15  H    3.883120   3.395786   2.147615   1.075654   2.148405
    16  H    3.405281   3.871150   3.393994   2.147513   1.077405
    17  H    2.737690   2.576113   3.910415   4.983915   5.071468
    18  H    4.691083   4.957696   6.334587   7.293260   7.119753
    19  H    5.416630   6.232953   7.611545   8.223971   7.630446
    20  H    4.702383   5.927121   7.130264   7.323437   6.379045
    21  Cl   2.835039   4.131154   4.627609   4.092262   2.777395
    22  Cl   3.161688   4.562749   5.360864   5.086979   3.882929
                    6          7          8          9         10
     6  C    0.000000
     7  C    2.558257   0.000000
     8  C    3.824111   1.403014   0.000000
     9  C    4.988240   2.430670   1.398209   0.000000
    10  C    5.207436   2.807466   2.421211   1.396827   0.000000
    11  C    4.367553   2.429713   2.793746   2.418730   1.397415
    12  C    2.970470   1.410447   2.428544   2.801791   2.425586
    13  H    3.404822   2.737690   2.576113   3.910415   4.983915
    14  H    3.876999   4.691083   4.957696   6.334587   7.293260
    15  H    3.398825   5.416630   6.232953   7.611545   8.223971
    16  H    2.145991   4.702383   5.927121   7.130264   7.323437
    17  H    4.139604   2.152452   1.074347   2.142573   3.391037
    18  H    5.934645   3.403460   2.147878   1.075208   2.146566
    19  H    6.259088   3.883120   3.395786   2.147615   1.075654
    20  H    4.997576   3.405281   3.871150   3.393994   2.147513
    21  Cl   1.826448   3.161688   4.562749   5.360864   5.086979
    22  Cl   2.670237   2.835039   4.131154   4.627609   4.092262
                   11         12         13         14         15
    11  C    0.000000
    12  C    1.397169   0.000000
    13  H    5.071468   4.139604   0.000000
    14  H    7.119753   5.934645   2.465193   0.000000
    15  H    7.630446   6.259088   4.278701   2.472350   0.000000
    16  H    6.379045   4.997576   4.945464   4.282046   2.472291
    17  H    3.868065   3.404822   1.866207   4.331387   5.971788
    18  H    3.392919   3.876999   4.331387   6.796531   8.325714
    19  H    2.148405   3.398825   5.971788   8.325714   9.299598
    20  H    1.077405   2.145991   6.103723   8.058800   8.359770
    21  Cl   3.882929   2.670237   4.986859   5.702726   4.925400
    22  Cl   2.777395   1.826448   5.220394   6.418914   6.011503
                   16         17         18         19         20
    16  H    0.000000
    17  H    6.103723   0.000000
    18  H    8.058800   2.465193   0.000000
    19  H    8.359770   4.278701   2.472350   0.000000
    20  H    6.857667   4.945464   4.282046   2.472291   0.000000
    21  Cl   2.878750   5.220394   6.418914   6.011503   4.128761
    22  Cl   4.128761   4.986859   5.702726   4.925400   2.878750
                   21         22
    21  Cl   0.000000
    22  Cl   1.277324   0.000000
 Stoichiometry    C12H8Cl2
 Framework group  C1[X(C12H8Cl2)]
 Deg. of freedom    60
 Full point group                 C1      NOp   1
 Largest Abelian subgroup         C1      NOp   1
 Largest concise Abelian subgroup C1      NOp   1
                         Standard orientation:                         
 ---------------------------------------------------------------------
 Center     Atomic      Atomic             Coordinates (Angstroms)
 Number     Number       Type             X           Y           Z
 ---------------------------------------------------------------------
      1          6           0       -0.766768    0.800828   -0.000001
      2          6           0       -1.468791    2.015575    0.000001
      3          6           0       -2.866972    2.024471    0.000002
      4          6           0       -3.574169    0.819897    0.000003
      5          6           0       -2.882279   -0.394211   -0.000001
      6          6           0       -1.485235   -0.412912   -0.000002
      7          6           0        0.766768    0.800828   -0.000002
      8          6           0        1.468791    2.015575   -0.000002
      9          6           0        2.866972    2.024471   -0.000002
     10          6           0        3.574169    0.819897   -0.000000
     11          6           0        2.882279   -0.394211    0.000001
     12          6           0        1.485235   -0.412912    0.000001
     13          1           0       -0.933104    2.946844    0.000002
     14          1           0       -3.398265    2.959244    0.000004
     15          1           0       -4.649799    0.827066    0.000004
     16          1           0       -3.428833   -1.322693   -0.000002
     17          1           0        0.933104    2.946844   -0.000001
     18          1           0        3.398265    2.959244   -0.000003
     19          1           0        4.649799    0.827066    0.000002
     20          1           0        3.428833   -1.322693    0.000006
     21         17           0       -0.638662   -2.031315   -0.000005
     22         17           0        0.638662   -2.031315    0.000005
 ---------------------------------------------------------------------
 Rotational constants (GHZ):           0.8978421           0.5359797           0.3356241
 Standard basis: 6-311+G(d,p) (5D, 7F)
 There are   386 symmetry adapted cartesian basis functions of A   symmetry.
 There are   372 symmetry adapted basis functions of A   symmetry.
   372 basis functions,   602 primitive gaussians,   386 cartesian basis functions
    57 alpha electrons       57 beta electrons
       nuclear repulsion energy      1097.1103584185 Hartrees.
 NAtoms=   22 NActive=   22 NUniq=   22 SFac= 1.00D+00 NAtFMM=   60 NAOKFM=F Big=F
 Integral buffers will be    131072 words long.
 Raffenetti 2 integral format.
 Two-electron integral symmetry is turned on.
 One-electron integrals computed using PRISM.
 NBasis=   372 RedAO= T EigKep=  1.05D-06  NBF=   372
 NBsUse=   369 1.00D-06 EigRej=  8.34D-07 NBFU=   369
 Initial guess from the checkpoint file:  "/scratch/pkc/Gau-2695.chk"
 B after Tr=     0.000000    0.000000    0.000000
         Rot=    1.000000    0.000000   -0.000000    0.000000 Ang=  -0.00 deg.
 ExpMin= 4.38D-02 ExpMax= 1.06D+05 ExpMxC= 3.62D+03 IAcc=3 IRadAn=         5 AccDes= 0.00D+00
 Harris functional with IExCor=  402 and IRadAn=       5 diagonalized for initial guess.
 HarFok:  IExCor=  402 AccDes= 0.00D+00 IRadAn=         5 IDoV= 1 UseB2=F ITyADJ=14
 ICtDFT=  3500011 ScaDFX=  1.000000  1.000000  1.000000  1.000000
 FoFCou: FMM=F IPFlag=           0 FMFlag=      100000 FMFlg1=           0
         NFxFlg=           0 DoJE=T BraDBF=F KetDBF=T FulRan=T
         wScrn=  0.000000 ICntrl=       500 IOpCl=  0 I1Cent=   200000004 NGrid=           0
         NMat0=    1 NMatS0=      1 NMatT0=    0 NMatD0=    1 NMtDS0=    0 NMtDT0=    0
 Petite list used in FoFCou.
 Requested convergence on RMS density matrix=1.00D-08 within  32 cycles.
 Requested convergence on MAX density matrix=1.00D-06.
 Requested convergence on             energy=1.00D-06.
 No special actions if energy rises.
 SCF Done:  E(RB3LYP) =  -1381.54016009     A.U. after   17 cycles
            NFock= 17  Conv=0.52D-08     -V/T= 1.9991
 QCSCF skips out because SCF is already converged.
 Calling FoFJK, ICntrl=      2127 FMM=F ISym2X=0 I1Cent= 0 IOpClX= 0 NMat=1 NMatS=1 NMatT=0.
 ***** Axes restored to original set *****
 -------------------------------------------------------------------
 Center     Atomic                   Forces (Hartrees/Bohr)
 Number     Number              X              Y              Z
 -------------------------------------------------------------------
      1        6          -0.000840947   -0.023315305   -0.004101792
      2        6          -0.002317964    0.013101418    0.003224412
      3        6          -0.008931697   -0.001155389    0.002725706
      4        6          -0.003538231   -0.005964802    0.000045229
      5        6          -0.000095739   -0.014920141   -0.002770470
      6        6           0.088813965   -0.017221226   -0.032494990
      7        6           0.019898657    0.012118709   -0.004279678
      8        6          -0.012543994   -0.004369868    0.003312019
      9        6          -0.003354427    0.008373604    0.002677729
     10        6           0.003468320    0.006005876   -0.000014663
     11        6           0.012949693    0.007368309   -0.002882460
     12        6           0.058363479   -0.069246941   -0.032233200
     13        1           0.004930737   -0.002958020   -0.002180065
     14        1           0.005859708    0.000002039   -0.001930119
     15        1           0.003515803    0.005744050   -0.000079505
     16        1          -0.004404324    0.007662095    0.002890075
     17        1           0.004984003   -0.002866985   -0.002180568
     18        1           0.002859170   -0.005124464   -0.001904357
     19        1          -0.003286924   -0.005878517   -0.000021195
     20        1          -0.008824592    0.000110023    0.002927928
     21       17           0.942930527    1.791846840    0.025854169
     22       17          -1.100435223   -1.699311304    0.043415795
 -------------------------------------------------------------------
 Cartesian Forces:  Max     1.791846840 RMS     0.352955707

 GradGradGradGradGradGradGradGradGradGradGradGradGradGradGradGradGradGrad
 Berny optimization.
 Using GEDIIS/GDIIS optimizer.
 FormGI is forming the generalized inverse of G from B-inverse, IUseBI=4.
 Internal  Forces:  Max     1.969402634 RMS     0.184807385
 Search for a local minimum.
 Step number   2 out of a maximum of  129
 All quantities printed in internal units (Hartrees-Bohrs-Radians)
 Mixed Optimization -- RFO/linear search
 Update second derivatives using D2CorX and points    1    2
 DE= -5.07D-01 DEPred=-3.34D-01 R= 1.52D+00
 TightC=F SS=  1.41D+00  RLast= 2.73D-01 DXNew= 5.0454D-01 8.1852D-01
 Trust test= 1.52D+00 RLast= 2.73D-01 DXMaxT set to 5.05D-01
 ITU=  1  0
 Use linear search instead of GDIIS.
 Linear search step of   0.546 exceeds DXMaxT=   0.505 but not scaled.
 Quartic linear search produced a step of  2.00000.
 Iteration  1 RMS(Cart)=  0.03919883 RMS(Int)=  0.01596634
 Iteration  2 RMS(Cart)=  0.02174919 RMS(Int)=  0.00126734
 Iteration  3 RMS(Cart)=  0.00020389 RMS(Int)=  0.00126278
 Iteration  4 RMS(Cart)=  0.00000007 RMS(Int)=  0.00126278
 Variable       Old X    -DE/DX   Delta X   Delta X   Delta X     New X
                                 (Linear)    (Quad)   (Total)
    R1        2.65131   0.01265   0.00610   0.00000   0.00578   2.65709
    R2        2.66536   0.06074   0.03419   0.00000   0.03243   2.69779
    R3        2.89796   0.06160  -0.02443   0.00000  -0.02703   2.87093
    R4        2.64223  -0.00615  -0.01206   0.00000  -0.01198   2.63025
    R5        2.03022   0.00536   0.01643   0.00000   0.01643   2.04665
    R6        2.63962  -0.01713  -0.01728   0.00000  -0.01688   2.62274
    R7        2.03185   0.00617   0.01969   0.00000   0.01969   2.05153
    R8        2.64073  -0.01355  -0.01506   0.00000  -0.01473   2.62600
    R9        2.03269   0.00673   0.02137   0.00000   0.02137   2.05406
   R10        2.64027  -0.00528  -0.01599   0.00000  -0.01606   2.62421
   R11        2.03600   0.00929   0.02799   0.00000   0.02799   2.06399
   R12        3.45149   0.06189   0.25114   0.00000   0.25216   3.70364
   R13        2.65131   0.01265   0.00610   0.00000   0.00578   2.65709
   R14        2.66536   0.06074   0.03419   0.00000   0.03243   2.69779
   R15        2.64223  -0.00615  -0.01206   0.00000  -0.01198   2.63025
   R16        2.03022   0.00536   0.01643   0.00000   0.01643   2.04665
   R17        2.63962  -0.01713  -0.01728   0.00000  -0.01688   2.62274
   R18        2.03185   0.00617   0.01969   0.00000   0.01969   2.05153
   R19        2.64073  -0.01355  -0.01506   0.00000  -0.01473   2.62600
   R20        2.03269   0.00673   0.02137   0.00000   0.02137   2.05406
   R21        2.64027  -0.00528  -0.01599   0.00000  -0.01606   2.62421
   R22        2.03600   0.00929   0.02799   0.00000   0.02799   2.06399
   R23        3.45149   0.06189   0.25114   0.00000   0.25216   3.70364
   R24        2.41379   1.96940   0.36254   0.00000   0.36514   2.77893
    A1        2.08309  -0.04877  -0.02260   0.00000  -0.02112   2.06197
    A2        2.09482  -0.09746   0.00085   0.00000   0.00440   2.09922
    A3        2.10527   0.14623   0.02175   0.00000   0.01672   2.12200
    A4        2.10118   0.02937   0.01357   0.00000   0.01270   2.11389
    A5        2.09557  -0.01162   0.00234   0.00000   0.00278   2.09834
    A6        2.08644  -0.01775  -0.01592   0.00000  -0.01548   2.07096
    A7        2.09531   0.00403   0.00183   0.00000   0.00170   2.09701
    A8        2.09399  -0.00210  -0.00080   0.00000  -0.00074   2.09325
    A9        2.09388  -0.00192  -0.00103   0.00000  -0.00096   2.09292
   A10        2.09274  -0.00625  -0.00331   0.00000  -0.00318   2.08956
   A11        2.09501   0.00302   0.00122   0.00000   0.00116   2.09617
   A12        2.09544   0.00322   0.00208   0.00000   0.00202   2.09746
   A13        2.10216   0.01464   0.01552   0.00000   0.01516   2.11731
   A14        2.09158  -0.00692  -0.00562   0.00000  -0.00544   2.08614
   A15        2.08945  -0.00772  -0.00990   0.00000  -0.00972   2.07973
   A16        2.09189   0.00698  -0.00502   0.00000  -0.00526   2.08663
   A17        2.12517   0.05526   0.06155   0.00000   0.06036   2.18552
   A18        2.06613  -0.06225  -0.05653   0.00000  -0.05510   2.01103
   A19        2.09482  -0.09746   0.00085   0.00000   0.00440   2.09922
   A20        2.10527   0.14623   0.02175   0.00000   0.01672   2.12200
   A21        2.08309  -0.04877  -0.02260   0.00000  -0.02112   2.06197
   A22        2.10118   0.02937   0.01357   0.00000   0.01270   2.11389
   A23        2.09557  -0.01162   0.00234   0.00000   0.00278   2.09834
   A24        2.08644  -0.01775  -0.01592   0.00000  -0.01548   2.07096
   A25        2.09531   0.00403   0.00183   0.00000   0.00170   2.09701
   A26        2.09399  -0.00210  -0.00080   0.00000  -0.00074   2.09325
   A27        2.09388  -0.00192  -0.00103   0.00000  -0.00096   2.09292
   A28        2.09274  -0.00625  -0.00331   0.00000  -0.00318   2.08956
   A29        2.09501   0.00302   0.00122   0.00000   0.00116   2.09617
   A30        2.09544   0.00322   0.00208   0.00000   0.00202   2.09746
   A31        2.10216   0.01464   0.01552   0.00000   0.01516   2.11731
   A32        2.09158  -0.00692  -0.00562   0.00000  -0.00544   2.08614
   A33        2.08945  -0.00772  -0.00990   0.00000  -0.00972   2.07973
   A34        2.09189   0.00698  -0.00502   0.00000  -0.00526   2.08663
   A35        2.12517   0.05526   0.06155   0.00000   0.06036   2.18552
   A36        2.06613  -0.06225  -0.05653   0.00000  -0.05510   2.01103
   A37        2.05275  -0.20150  -0.08330   0.00000  -0.07708   1.97567
   A38        2.05275  -0.20150  -0.08330   0.00000  -0.07708   1.97567
    D1        0.00000   0.00000   0.00000   0.00000   0.00000   0.00000
    D2        3.14159   0.00000   0.00000   0.00000   0.00000   3.14159
    D3       -3.14159   0.00000   0.00000   0.00000   0.00000  -3.14159
    D4       -0.00000   0.00000   0.00000   0.00000   0.00000  -0.00000
    D5       -0.00000  -0.00000  -0.00000   0.00000  -0.00000  -0.00000
    D6        3.14159  -0.00000   0.00000   0.00000   0.00000   3.14159
    D7        3.14159  -0.00000  -0.00000   0.00000  -0.00000   3.14159
    D8        0.00000  -0.00000   0.00000   0.00000   0.00000   0.00000
    D9       -0.00000  -0.00000  -0.00000   0.00000  -0.00000  -0.00000
   D10        3.14159  -0.00000  -0.00000   0.00000  -0.00000   3.14159
   D11        3.14159  -0.00000  -0.00000   0.00000  -0.00000   3.14159
   D12       -0.00000  -0.00000  -0.00000   0.00000  -0.00000  -0.00000
   D13        0.00000  -0.00000   0.00000   0.00000   0.00000   0.00000
   D14        3.14159  -0.00000   0.00000   0.00000   0.00000   3.14159
   D15       -3.14159   0.00000  -0.00000   0.00000  -0.00000  -3.14159
   D16        0.00000   0.00000  -0.00000   0.00000  -0.00000   0.00000
   D17       -0.00000  -0.00000   0.00000   0.00000   0.00000  -0.00000
   D18        3.14159   0.00000  -0.00000   0.00000  -0.00000   3.14159
   D19        3.14159  -0.00000   0.00000   0.00000   0.00000   3.14159
   D20        0.00000   0.00000  -0.00000   0.00000  -0.00000   0.00000
   D21        0.00000   0.00000  -0.00000   0.00000  -0.00000   0.00000
   D22       -3.14159   0.00000  -0.00000   0.00000  -0.00000  -3.14159
   D23       -3.14159  -0.00000  -0.00000   0.00000  -0.00000  -3.14159
   D24        0.00000   0.00000  -0.00000   0.00000  -0.00000   0.00000
   D25       -0.00000   0.00000   0.00000   0.00000   0.00000  -0.00000
   D26        3.14159   0.00000  -0.00000   0.00000  -0.00000   3.14159
   D27        3.14159  -0.00000   0.00000   0.00000   0.00000   3.14159
   D28       -0.00000   0.00000  -0.00000   0.00000  -0.00000  -0.00000
   D29        0.00001  -0.00000  -0.00000   0.00000  -0.00000   0.00001
   D30       -3.14158  -0.00000  -0.00000   0.00000  -0.00000  -3.14158
   D31        3.14159   0.00000   0.00000   0.00000   0.00000   3.14159
   D32        0.00000   0.00000   0.00000   0.00000   0.00000   0.00000
   D33        0.00000   0.00000   0.00000   0.00000   0.00000   0.00000
   D34       -3.14159   0.00000  -0.00000   0.00000  -0.00000  -3.14159
   D35       -3.14159  -0.00000  -0.00000   0.00000  -0.00000  -3.14159
   D36        0.00000  -0.00000   0.00000   0.00000   0.00000   0.00000
   D37       -0.00000  -0.00000  -0.00000   0.00000  -0.00000  -0.00000
   D38        3.14159  -0.00000   0.00000   0.00000   0.00000   3.14159
   D39       -0.00000  -0.00000   0.00000   0.00000   0.00000  -0.00000
   D40        3.14159  -0.00000  -0.00000   0.00000  -0.00000   3.14159
   D41        3.14159   0.00000   0.00000   0.00000   0.00000   3.14159
   D42       -0.00000   0.00000   0.00000   0.00000   0.00000  -0.00000
   D43       -0.00000  -0.00000  -0.00000   0.00000  -0.00000  -0.00000
   D44       -3.14159  -0.00000  -0.00000   0.00000  -0.00000  -3.14159
   D45        3.14159  -0.00000   0.00000   0.00000   0.00000   3.14159
   D46        0.00000   0.00000  -0.00000   0.00000  -0.00000   0.00000
   D47        0.00000   0.00000  -0.00000   0.00000  -0.00000   0.00000
   D48       -3.14159   0.00000  -0.00000   0.00000  -0.00000  -3.14159
   D49        3.14159  -0.00000   0.00000   0.00000   0.00000   3.14159
   D50        0.00000   0.00000  -0.00000   0.00000  -0.00000   0.00000
   D51        0.00000   0.00000   0.00000   0.00000   0.00000   0.00000
   D52       -3.14159   0.00000  -0.00000   0.00000  -0.00000  -3.14159
   D53        3.14159   0.00000   0.00000   0.00000   0.00000   3.14159
   D54       -0.00000   0.00000  -0.00000   0.00000  -0.00000  -0.00000
   D55        0.00001  -0.00000  -0.00000   0.00000  -0.00000   0.00001
   D56       -3.14158  -0.00000  -0.00000   0.00000  -0.00000  -3.14158
   D57       -0.00001   0.00000   0.00000   0.00000   0.00000  -0.00001
         Item               Value     Threshold  Converged?
 Maximum Force            1.969403     0.000450     NO 
 RMS     Force            0.184807     0.000300     NO 
 Maximum Displacement     0.370622     0.001800     NO 
 RMS     Displacement     0.054631     0.001200     NO 
 Predicted change in Energy=-3.663756D-01
 GradGradGradGradGradGradGradGradGradGradGradGradGradGradGradGradGradGrad

                          Input orientation:                          
 ---------------------------------------------------------------------
 Center     Atomic      Atomic             Coordinates (Angstroms)
 Number     Number       Type             X           Y           Z
 ---------------------------------------------------------------------
      1          6           0       -0.937432    0.106923   -0.003089
      2          6           0        0.399608    0.143582   -0.436698
      3          6           0        1.119070    1.335007   -0.449967
      4          6           0        0.520852    2.515276   -0.031215
      5          6           0       -0.799632    2.502667    0.401454
      6          6           0       -1.540242    1.328207    0.424877
      7          6           0       -1.704846   -1.204222    0.003495
      8          6           0       -1.083984   -2.391167   -0.423972
      9          6           0       -1.770527   -3.601932   -0.425178
     10          6           0       -3.090695   -3.655131   -0.000230
     11          6           0       -3.724422   -2.494404    0.426552
     12          6           0       -3.062982   -1.273432    0.437946
     13          1           0        0.890197   -0.763135   -0.768613
     14          1           0        2.150510    1.341264   -0.788604
     15          1           0        1.083435    3.445260   -0.041901
     16          1           0       -1.267236    3.433335    0.730295
     17          1           0       -0.054648   -2.377421   -0.760510
[...]
     11          6           0        2.963516   -0.291304    0.458090
     12          6           0        1.580231   -0.325193    0.612973
     13          1           0       -0.707547    2.164577    1.492349
     14          1           0       -3.163398    2.249634    1.785580
     15          1           0       -4.611893    0.661074    0.529573
     16          1           0       -3.580065   -0.986040   -1.013925
     17          1           0        0.707716    2.164000   -1.493249
     18          1           0        3.163574    2.248888   -1.786311
     19          1           0        4.611952    0.660848   -0.529576
     20          1           0        3.579950   -0.985728    1.014483
     21         17           0       -0.897472   -1.502781   -1.726942
     22         17           0        0.897389   -1.502186    1.727391
 ---------------------------------------------------------------------
 Rotational constants (GHZ):           0.8411716           0.4066096           0.4006057

 **********************************************************************

            Population analysis using the SCF Density.

 **********************************************************************

 Orbital symmetries:
       Occupied  (A) (A) (A) (A) (A) (A) (A) (A) (A) (A) (A) (A)
                 (A) (A) (A) (A) (A) (A) (A) (A) (A) (A) (A) (A)
                 (A) (A) (A) (A) (A) (A) (A) (A) (A) (A) (A) (A)
                 (A) (A) (A) (A) (A) (A) (A) (A) (A) (A) (A) (A)
                 (A) (A) (A) (A) (A) (A) (A) (A) (A)
       Virtual   (A) (A) (A) (A) (A) (A) (A) (A) (A) (A) (A) (A)
                 (A) (A) (A) (A) (A) (A) (A) (A) (A) (A) (A) (A)
                 (A) (A) (A) (A) (A) (A) (A) (A) (A) (A) (A) (A)
                 (A) (A) (A) (A) (A) (A) (A) (A) (A) (A) (A) (A)
                 (A) (A) (A) (A) (A) (A) (A) (A) (A) (A) (A) (A)
                 (A) (A) (A) (A) (A) (A) (A) (A) (A) (A) (A) (A)
                 (A) (A) (A) (A) (A) (A) (A) (A) (A) (A) (A) (A)
                 (A) (A) (A) (A) (A) (A) (A) (A) (A) (A) (A) (A)
                 (A) (A) (A) (A) (A) (A) (A) (A) (A) (A) (A) (A)
                 (A) (A) (A) (A) (A) (A) (A) (A) (A) (A) (A) (A)
                 (A) (A) (A) (A) (A) (A) (A) (A) (A) (A) (A) (A)
                 (A) (A) (A) (A) (A) (A) (A) (A) (A) (A) (A) (A)
                 (A) (A) (A) (A) (A) (A) (A) (A) (A) (A) (A) (A)
                 (A) (A) (A) (A) (A) (A) (A) (A) (A) (A) (A) (A)
                 (A) (A) (A) (A) (A) (A) (A) (A) (A) (A) (A) (A)
                 (A) (A) (A) (A) (A) (A) (A) (A) (A) (A) (A) (A)
                 (A) (A) (A) (A) (A) (A) (A) (A) (A) (A) (A) (A)
                 (A) (A) (A) (A) (A) (A) (A) (A) (A) (A) (A) (A)
                 (A) (A) (A) (A) (A) (A) (A) (A) (A) (A) (A) (A)
                 (A) (A) (A) (A) (A) (A) (A) (A) (A) (A) (A) (A)
                 (A) (A) (A) (A) (A) (A) (A) (A) (A) (A) (A) (A)
                 (A) (A) (A) (A) (A) (A) (A) (A) (A) (A) (A) (A)
                 (A) (A) (A) (A) (A) (A) (A) (A) (A) (A) (A) (A)
                 (A) (A) (A) (A) (A) (A) (A) (A) (A) (A) (A) (A)
                 (A) (A) (A) (A) (A) (A) (A) (A) (A) (A) (A) (A)
                 (A) (A) (A) (A) (A) (A) (A) (A) (A) (A) (A) (A)
                 (A) (A)
 The electronic state is 1-A.
 Alpha  occ. eigenvalues -- -101.55411-101.55411 -10.24609 -10.24608 -10.20819
 Alpha  occ. eigenvalues --  -10.20790 -10.19398 -10.19398 -10.19324 -10.19324
 Alpha  occ. eigenvalues --  -10.19270 -10.19270 -10.18952 -10.18951  -9.46884
 Alpha  occ. eigenvalues --   -9.46884  -7.23342  -7.23342  -7.22371  -7.22371
 Alpha  occ. eigenvalues --   -7.22326  -7.22326  -0.91269  -0.89245  -0.84643
 Alpha  occ. eigenvalues --   -0.84386  -0.79880  -0.75510  -0.74734  -0.73390
 Alpha  occ. eigenvalues --   -0.64616  -0.62110  -0.61960  -0.59531  -0.54267
 Alpha  occ. eigenvalues --   -0.51574  -0.48967  -0.48498  -0.47949  -0.46231
 Alpha  occ. eigenvalues --   -0.44143  -0.44002  -0.43998  -0.40412  -0.40326
 Alpha  occ. eigenvalues --   -0.39357  -0.37310  -0.37129  -0.36420  -0.34570
 Alpha  occ. eigenvalues --   -0.33602  -0.31777  -0.31761  -0.27446  -0.27026
 Alpha  occ. eigenvalues --   -0.25735  -0.25504
 Alpha virt. eigenvalues --   -0.03816  -0.03566  -0.02647  -0.02320  -0.00192
 Alpha virt. eigenvalues --   -0.00185   0.01303   0.01850   0.02028   0.02417
 Alpha virt. eigenvalues --    0.03310   0.04084   0.04716   0.05023   0.05385
 Alpha virt. eigenvalues --    0.05934   0.06580   0.07068   0.07075   0.08799
 Alpha virt. eigenvalues --    0.09273   0.09685   0.10050   0.10349   0.10846
 Alpha virt. eigenvalues --    0.11070   0.11223   0.11491   0.13225   0.13229
 Alpha virt. eigenvalues --    0.13791   0.14056   0.14521   0.14620   0.15061
 Alpha virt. eigenvalues --    0.15072   0.15619   0.16526   0.16677   0.17171
 Alpha virt. eigenvalues --    0.18082   0.18276   0.18393   0.18715   0.19250
 Alpha virt. eigenvalues --    0.19510   0.19724   0.20201   0.20598   0.20699
 Alpha virt. eigenvalues --    0.21155   0.21595   0.21736   0.22025   0.22185
 Alpha virt. eigenvalues --    0.22804   0.23987   0.24035   0.24284   0.25018
 Alpha virt. eigenvalues --    0.25448   0.25999   0.26621   0.26953   0.27300
 Alpha virt. eigenvalues --    0.27772   0.28029   0.28235   0.29230   0.29551
 Alpha virt. eigenvalues --    0.29674   0.31313   0.31543   0.32159   0.32463
 Alpha virt. eigenvalues --    0.32929   0.33970   0.34369   0.36248   0.37648
 Alpha virt. eigenvalues --    0.42819   0.44007   0.45220   0.46556   0.47205
 Alpha virt. eigenvalues --    0.48374   0.50509   0.51183   0.51456   0.51934
 Alpha virt. eigenvalues --    0.52280   0.52895   0.53239   0.54538   0.55695
 Alpha virt. eigenvalues --    0.55906   0.56723   0.57543   0.58192   0.58486
 Alpha virt. eigenvalues --    0.58823   0.58981   0.60053   0.62641   0.62812
 Alpha virt. eigenvalues --    0.64658   0.64833   0.65392   0.66349   0.67240
 Alpha virt. eigenvalues --    0.67749   0.67843   0.68265   0.69232   0.70807
 Alpha virt. eigenvalues --    0.71074   0.71236   0.72142   0.72340   0.73156
 Alpha virt. eigenvalues --    0.74315   0.74826   0.76996   0.79979   0.81577
 Alpha virt. eigenvalues --    0.81893   0.82391   0.82905   0.83602   0.83878
 Alpha virt. eigenvalues --    0.84015   0.85757   0.86152   0.87442   0.88624
 Alpha virt. eigenvalues --    0.88921   0.90068   0.90146   0.90718   0.91356
 Alpha virt. eigenvalues --    0.95424   0.96231   0.97331   0.97486   0.98279
 Alpha virt. eigenvalues --    0.98503   0.98797   1.00997   1.01277   1.01806
 Alpha virt. eigenvalues --    1.02954   1.03380   1.04251   1.06095   1.06099
 Alpha virt. eigenvalues --    1.09154   1.10217   1.15253   1.16156   1.17107
 Alpha virt. eigenvalues --    1.19462   1.23557   1.27045   1.27629   1.30886
 Alpha virt. eigenvalues --    1.31302   1.32647   1.33608   1.38948   1.39670
 Alpha virt. eigenvalues --    1.43526   1.47935   1.48864   1.49783   1.50140
 Alpha virt. eigenvalues --    1.52956   1.53075   1.56109   1.56119   1.57419
 Alpha virt. eigenvalues --    1.57914   1.58704   1.59507   1.64219   1.65341
 Alpha virt. eigenvalues --    1.65432   1.66938   1.67520   1.69240   1.69835
 Alpha virt. eigenvalues --    1.73861   1.74075   1.76583   1.77982   1.80559
 Alpha virt. eigenvalues --    1.82638   1.83010   1.85088   1.87267   1.88241
 Alpha virt. eigenvalues --    1.88594   1.89622   1.91052   1.94578   1.94827
 Alpha virt. eigenvalues --    1.95002   1.95720   1.97380   1.98867   2.00952
 Alpha virt. eigenvalues --    2.01629   2.03001   2.04854   2.04943   2.05253
 Alpha virt. eigenvalues --    2.06996   2.13463   2.21474   2.22045   2.23210
 Alpha virt. eigenvalues --    2.28673   2.29261   2.30686   2.31629   2.32951
 Alpha virt. eigenvalues --    2.38076   2.38314   2.38698   2.39549   2.40151
 Alpha virt. eigenvalues --    2.43441   2.45818   2.50855   2.52696   2.54868
 Alpha virt. eigenvalues --    2.57426   2.57815   2.60176   2.60879   2.61769
 Alpha virt. eigenvalues --    2.68514   2.69001   2.70302   2.70878   2.71444
 Alpha virt. eigenvalues --    2.72990   2.73640   2.75576   2.75712   2.77906
 Alpha virt. eigenvalues --    2.78118   2.78326   2.79835   2.81093   2.82216
 Alpha virt. eigenvalues --    2.84920   2.85046   2.85566   2.86664   2.86794
 Alpha virt. eigenvalues --    2.89289   2.92095   3.00956   3.01100   3.10733
 Alpha virt. eigenvalues --    3.10867   3.14638   3.15150   3.20860   3.22503
 Alpha virt. eigenvalues --    3.27315   3.33898   3.34284   3.39260   3.39922
 Alpha virt. eigenvalues --    3.51430   3.52796   3.55603   3.56749   3.63491
 Alpha virt. eigenvalues --    3.73307   3.82289   3.88922   4.02008   4.03252
 Alpha virt. eigenvalues --    4.06634   4.08362   4.13886   4.14041   4.37264
 Alpha virt. eigenvalues --    4.82624   4.83591   9.82193   9.83689  23.47976
 Alpha virt. eigenvalues --   23.63374  23.89865  23.90880  23.92767  23.97870
 Alpha virt. eigenvalues --   24.01023  24.06440  24.07300  24.10785  24.16754
 Alpha virt. eigenvalues --   24.18279  25.87103  25.96893  26.24623  26.29510
 Alpha virt. eigenvalues --   26.65816  26.80617 215.82398 215.83713
          Condensed to atoms (all electrons):
               1          2          3          4          5          6
     1  C   26.019952  -5.504731  -1.239072  -2.827999  -1.368259  -3.450479
     2  C   -5.504731  24.192457  -1.069178   2.185305 -10.239149  -1.296127
     3  C   -1.239072  -1.069178   8.152218  -0.095599   2.815002  -3.493596
     4  C   -2.827999   2.185305  -0.095599   7.205223   0.326145   0.082605
     5  C   -1.368259 -10.239149   2.815002   0.326145  25.893840  -9.720826
     6  C   -3.450479  -1.296127  -3.493596   0.082605  -9.720826  33.070052
     7  C    1.068458  -2.574354   0.551443  -0.903929   0.483278  -4.885188
     8  C   -2.576724   0.231542   0.174205  -0.264457  -0.560048  -0.159389
     9  C    0.551547   0.174342   0.001221   0.015408  -0.097621   0.218877
    10  C   -0.904004  -0.264495   0.015409  -0.023263   0.096459  -0.054362
    11  C    0.485165  -0.560377  -0.097439   0.096412   0.467017   0.066622
    12  C   -4.883303  -0.160569   0.219112  -0.054416   0.066991  -3.999514
    13  H    0.039343   0.275626  -0.049102  -0.019807   0.022661  -0.076586
    14  H   -0.009963  -0.000333   0.352811   0.017396  -0.029793   0.015870
    15  H    0.037762  -0.058555   0.052971   0.333939   0.033649  -0.056319
    16  H    0.104442   0.016918  -0.033337  -0.054461   0.275709   0.037398
    17  H    0.091782  -0.003503  -0.012197   0.005948   0.010877   0.068067
    18  H    0.001031  -0.001049  -0.000413   0.000061   0.000130   0.002592
    19  H    0.006813  -0.000764  -0.000099   0.000003   0.000044   0.000662
    20  H    0.007474  -0.000696  -0.000382   0.000045   0.000248   0.002766
    21  Cl  -0.014881   0.903787  -0.089852   0.141628  -1.487081   0.412277
    22  Cl  -0.724905   0.473976   0.065541  -0.067711  -0.450320  -0.353171
               7          8          9         10         11         12
     1  C    1.068458  -2.576724   0.551547  -0.904004   0.485165  -4.883303
     2  C   -2.574354   0.231542   0.174342  -0.264495  -0.560377  -0.160569
     3  C    0.551443   0.174205   0.001221   0.015409  -0.097439   0.219112
     4  C   -0.903929  -0.264457   0.015408  -0.023263   0.096412  -0.054416
     5  C    0.483278  -0.560048  -0.097621   0.096459   0.467017   0.066991
     6  C   -4.885188  -0.159389   0.218877  -0.054362   0.066622  -3.999514
     7  C   26.021145  -5.502313  -1.239528  -2.827641  -1.372027  -3.450127
     8  C   -5.502313  24.195219  -1.068708   2.185137 -10.241121  -1.299251
     9  C   -1.239528  -1.068708   8.152264  -0.095629   2.815350  -3.493823
    10  C   -2.827641   2.185137  -0.095629   7.205369   0.326358   0.082254
    11  C   -1.372027 -10.241121   2.815350   0.326358  25.896862  -9.719367
    12  C   -3.450127  -1.299251  -3.493823   0.082254  -9.719367  33.072230
    13  H    0.091774  -0.003486  -0.012199   0.005952   0.010875   0.068067
    14  H    0.001034  -0.001048  -0.000413   0.000061   0.000130   0.002590
    15  H    0.006810  -0.000763  -0.000099   0.000003   0.000044   0.000662
    16  H    0.007479  -0.000693  -0.000381   0.000045   0.000248   0.002762
    17  H    0.039336   0.275619  -0.049099  -0.019808   0.022663  -0.076569
    18  H   -0.009949  -0.000351   0.352824   0.017385  -0.029790   0.015872
    19  H    0.037757  -0.058547   0.052960   0.333938   0.033648  -0.056312
    20  H    0.104455   0.016919  -0.033335  -0.054462   0.275681   0.037411
    21  Cl  -0.724464   0.473830   0.065600  -0.067740  -0.450262  -0.353491
    22  Cl  -0.014018   0.904206  -0.089870   0.141541  -1.487610   0.411482
              13         14         15         16         17         18
     1  C    0.039343  -0.009963   0.037762   0.104442   0.091782   0.001031
     2  C    0.275626  -0.000333  -0.058555   0.016918  -0.003503  -0.001049
     3  C   -0.049102   0.352811   0.052971  -0.033337  -0.012197  -0.000413
     4  C   -0.019807   0.017396   0.333939  -0.054461   0.005948   0.000061
     5  C    0.022661  -0.029793   0.033649   0.275709   0.010877   0.000130
     6  C   -0.076586   0.015870  -0.056319   0.037398   0.068067   0.002592
     7  C    0.091774   0.001034   0.006810   0.007479   0.039336  -0.009949
     8  C   -0.003486  -0.001048  -0.000763  -0.000693   0.275619  -0.000351
     9  C   -0.012199  -0.000413  -0.000099  -0.000381  -0.049099   0.352824
    10  C    0.005952   0.000061   0.000003   0.000045  -0.019808   0.017385
    11  C    0.010875   0.000130   0.000044   0.000248   0.022663  -0.029790
    12  C    0.068067   0.002590   0.000662   0.002762  -0.076569   0.015872
    13  H    0.537420  -0.007351  -0.000272   0.000054  -0.000232   0.000005
    14  H   -0.007351   0.534610  -0.007717  -0.000209   0.000005   0.000000
    15  H   -0.000272  -0.007717   0.532649  -0.007893  -0.000003  -0.000000
    16  H    0.000054  -0.000209  -0.007893   0.515471   0.000003   0.000000
    17  H   -0.000232   0.000005  -0.000003   0.000003   0.537419  -0.007351
    18  H    0.000005   0.000000  -0.000000   0.000000  -0.007351   0.534611
    19  H   -0.000003  -0.000000  -0.000000  -0.000000  -0.000273  -0.007718
    20  H    0.000003   0.000000  -0.000000   0.000000   0.000054  -0.000209
    21  Cl  -0.003654   0.001107  -0.000102  -0.010543  -0.005932  -0.000322
    22  Cl  -0.005935  -0.000322  -0.000133  -0.000983  -0.003653   0.001107
              19         20         21         22
     1  C    0.006813   0.007474  -0.014881  -0.724905
     2  C   -0.000764  -0.000696   0.903787   0.473976
     3  C   -0.000099  -0.000382  -0.089852   0.065541
     4  C    0.000003   0.000045   0.141628  -0.067711
     5  C    0.000044   0.000248  -1.487081  -0.450320
     6  C    0.000662   0.002766   0.412277  -0.353171
     7  C    0.037757   0.104455  -0.724464  -0.014018
     8  C   -0.058547   0.016919   0.473830   0.904206
     9  C    0.052960  -0.033335   0.065600  -0.089870
    10  C    0.333938  -0.054462  -0.067740   0.141541
    11  C    0.033648   0.275681  -0.450262  -1.487610
    12  C   -0.056312   0.037411  -0.353491   0.411482
    13  H   -0.000003   0.000003  -0.003654  -0.005935
    14  H   -0.000000   0.000000   0.001107  -0.000322
    15  H   -0.000000  -0.000000  -0.000102  -0.000133
    16  H   -0.000000   0.000000  -0.010543  -0.000983
    17  H   -0.000273   0.000054  -0.005932  -0.003653
    18  H   -0.007718  -0.000209  -0.000322   0.001107
    19  H    0.532650  -0.007892  -0.000133  -0.000102
    20  H   -0.007892   0.515472  -0.000983  -0.010542
    21  Cl  -0.000133  -0.000983  17.696450   0.135486
    22  Cl  -0.000102  -0.010542   0.135486  17.696630
 Mulliken charges:
               1
     1  C    1.090550
     2  C   -0.720072
     3  C   -0.219668
     4  C   -0.098478
     5  C   -0.538952
     6  C   -0.432231
     7  C    1.090570
     8  C   -0.719777
     9  C   -0.219685
    10  C   -0.098506
    11  C   -0.539080
    12  C   -0.432691
    13  H    0.126849
    14  H    0.131535
    15  H    0.133366
    16  H    0.147971
    17  H    0.126846
    18  H    0.131534
    19  H    0.133366
    20  H    0.147973
    21  Cl   0.379274
    22  Cl   0.379305
 Sum of Mulliken charges =  -0.00000
 Mulliken charges with hydrogens summed into heavy atoms:
               1
     1  C    1.090550
     2  C   -0.593223
     3  C   -0.088133
     4  C    0.034888
     5  C   -0.390980
     6  C   -0.432231
     7  C    1.090570
     8  C   -0.592931
     9  C   -0.088151
    10  C    0.034860
    11  C   -0.391107
    12  C   -0.432691
    21  Cl   0.379274
    22  Cl   0.379305
 Electronic spatial extent (au):  <R**2>=           3175.5521
 Charge=             -0.0000 electrons
 Dipole moment (field-independent basis, Debye):
    X=              0.0000    Y=              2.1641    Z=             -0.0002  Tot=              2.1641
 Quadrupole moment (field-independent basis, Debye-Ang):
   XX=            -79.8075   YY=            -94.2467   ZZ=            -97.4773
   XY=             -0.0004   XZ=             -3.0820   YZ=             -0.0008
 Traceless Quadrupole moment (field-independent basis, Debye-Ang):
   XX=             10.7030   YY=             -3.7362   ZZ=             -6.9668
   XY=             -0.0004   XZ=             -3.0820   YZ=             -0.0008
 Octapole moment (field-independent basis, Debye-Ang**2):
  XXX=             -0.0016  YYY=             -9.3815  ZZZ=             -0.0012  XYY=             -0.0048
  XXY=             -1.8731  XXZ=              0.0025  XZZ=              0.0057  YZZ=              2.8657
  YYZ=              0.0035  XYZ=            -13.8634
 Hexadecapole moment (field-independent basis, Debye-Ang**3):
 XXXX=          -2357.6432 YYYY=           -888.3786 ZZZZ=           -821.9943 XXXY=              0.0058
 XXXZ=            -15.0605 YYYX=             -0.0142 YYYZ=              0.0170 ZZZX=              2.7723
 ZZZY=             -0.0181 XXYY=           -593.9091 XXZZ=           -590.5112 YYZZ=           -253.6372
 XXYZ=             -0.0034 YYXZ=            -25.6439 ZZXY=              0.0078
 N-N= 1.018113911808D+03 E-N=-5.296266794266D+03  KE= 1.378410858425D+03
 1\1\GINC-DAMODAR\FOpt\RB3LYP\6-311+G(d,p)\C12H8Cl2\PKC\14-Mar-2022\0\\
 # opt b3lyp/6-311+g(d,p) scf=xqc\\Title Card Required\\0,1\C,-0.985711
 7139,0.1186433538,0.0563187232\C,0.3440668711,0.1030345769,0.495771569
 4\C,1.1034277429,1.2676782928,0.5531524958\C,0.5393436999,2.4807673534
 ,0.1651580885\C,-0.7782462732,2.5241396355,-0.2806782715\C,-1.52548479
 06,1.3504216922,-0.3316636023\C,-1.7575580619,-1.1566656439,-0.0116446
 301\C,-1.5900460475,-2.0123127125,-1.1077582206\C,-2.2754935179,-3.219
 9670436,-1.1974405753\C,-3.1480658928,-3.5970948983,-0.1792357734\C,-3
 .3292899013,-2.7683231646,0.9239191887\C,-2.6369111915,-1.5626637093,0
 .9988336987\H,0.7761866275,-0.8426981458,0.8023680433\H,2.1289600553,1
 .2272553274,0.9009543179\H,1.1202043324,3.3949313437,0.2061105894\H,-1
 .2297757446,3.4580974077,-0.5899078215\H,-0.9144834594,-1.7111524206,-
 1.900257152\H,-2.1298397597,-3.8610536531,-2.0588975733\H,-3.688364340
 9,-4.5348628272,-0.237898985\H,-4.0003343791,-3.0490280101,1.725600176
 4\Cl,-3.1825097776,1.4447540625,-0.9139352507\Cl,-2.8827661669,-0.5498
 187671,2.4155954446\\Version=EM64L-G16RevB.01\State=1-A\HF=-1382.66165
 06\RMSD=6.165e-09\RMSF=7.561e-06\Dipole=0.6881674,-0.4003908,-0.301721
 3\Quadrupole=0.1946923,4.889661,-5.0843533,5.1664288,-0.0761179,1.6082
 206\PG=C01 [X(C12H8Cl2)]\\@


 THE ATTENTION SPAN OF A COMPUTER IS AS LONG
 AS ITS EXTENSION CORD.
 Job cpu time:       0 days 19 hours 21 minutes 35.6 seconds.
 Elapsed time:       0 days  5 hours 41 minutes  6.0 seconds.
 File lengths (MBytes):  RWF=    122 Int=      0 D2E=      0 Chk=     15 Scr=      1
 Normal termination of Gaussian 16 at Mon Mar 14 22:42:48 2022.
