 Entering Gaussian System, Link 0=g16
 Input=2,2prime,3,4prime-Tetrachlorobipheny.gjf
 Output=2,2prime,3,4prime-Tetrachlorobipheny.log
 Initial command:
 /usr/local/g16/l1.exe "/scratch/pkc/Gau-34554.inp" -scrdir="/scratch/pkc/"
 Entering Link 1 = /usr/local/g16/l1.exe PID=     34555.
  
 Copyright (c) 1988-2017, Gaussian, Inc.  All Rights Reserved.
  
 This is part of the Gaussian(R) 16 program.  It is based on
 the Gaussian(R) 09 system (copyright 2009, Gaussian, Inc.),
 the Gaussian(R) 03 system (copyright 2003, Gaussian, Inc.),
 the Gaussian(R) 98 system (copyright 1998, Gaussian, Inc.),
 the Gaussian(R) 94 system (copyright 1995, Gaussian, Inc.),
 the Gaussian 92(TM) system (copyright 1992, Gaussian, Inc.),
 the Gaussian 90(TM) system (copyright 1990, Gaussian, Inc.),
 the Gaussian 88(TM) system (copyright 1988, Gaussian, Inc.),
 the Gaussian 86(TM) system (copyright 1986, Carnegie Mellon
 University), and the Gaussian 82(TM) system (copyright 1983,
 Carnegie Mellon University). Gaussian is a federally registered
 trademark of Gaussian, Inc.
  
 This software contains proprietary and confidential information,
 including trade secrets, belonging to Gaussian, Inc.
  
 This software is provided under written license and may be
 used, copied, transmitted, or stored only in accord with that
 written license.
  
 The following legend is applicable only to US Government
 contracts under FAR:
  
                    RESTRICTED RIGHTS LEGEND
  
 Use, reproduction and disclosure by the US Government is
 subject to restrictions as set forth in subparagraphs (a)
 and (c) of the Commercial Computer Software - Restricted
 Rights clause in FAR 52.227-19.
  
 Gaussian, Inc.
 340 Quinnipiac St., Bldg. 40, Wallingford CT 06492
  
  
 ---------------------------------------------------------------
 Warning -- This program may not be used in any manner that
 competes with the business of Gaussian, Inc. or will provide
 assistance to any competitor of Gaussian, Inc.  The licensee
 of this program is prohibited from giving any competitor of
 Gaussian, Inc. access to this program.  By using this program,
 the user acknowledges that Gaussian, Inc. is engaged in the
 business of creating and licensing software in the field of
 computational chemistry and represents and warrants to the
 licensee that it is not a competitor of Gaussian, Inc. and that
 it will not use this program in any manner prohibited above.
 ---------------------------------------------------------------
  

 Cite this work as:
 Gaussian 16, Revision B.01,
 M. J. Frisch, G. W. Trucks, H. B. Schlegel, G. E. Scuseria, 
 M. A. Robb, J. R. Cheeseman, G. Scalmani, V. Barone, 
 G. A. Petersson, H. Nakatsuji, X. Li, M. Caricato, A. V. Marenich, 
 J. Bloino, B. G. Janesko, R. Gomperts, B. Mennucci, H. P. Hratchian, 
 J. V. Ortiz, A. F. Izmaylov, J. L. Sonnenberg, D. Williams-Young, 
 F. Ding, F. Lipparini, F. Egidi, J. Goings, B. Peng, A. Petrone, 
 T. Henderson, D. Ranasinghe, V. G. Zakrzewski, J. Gao, N. Rega, 
 G. Zheng, W. Liang, M. Hada, M. Ehara, K. Toyota, R. Fukuda, 
 J. Hasegawa, M. Ishida, T. Nakajima, Y. Honda, O. Kitao, H. Nakai, 
 T. Vreven, K. Throssell, J. A. Montgomery, Jr., J. E. Peralta, 
 F. Ogliaro, M. J. Bearpark, J. J. Heyd, E. N. Brothers, K. N. Kudin, 
 V. N. Staroverov, T. A. Keith, R. Kobayashi, J. Normand, 
 K. Raghavachari, A. P. Rendell, J. C. Burant, S. S. Iyengar, 
 J. Tomasi, M. Cossi, J. M. Millam, M. Klene, C. Adamo, R. Cammi, 
 J. W. Ochterski, R. L. Martin, K. Morokuma, O. Farkas, 
 J. B. Foresman, and D. J. Fox, Gaussian, Inc., Wallingford CT, 2016.
 
 ******************************************
 Gaussian 16:  EM64L-G16RevB.01 20-Dec-2017
                15-Mar-2022 
 ******************************************
 %mem=10GB
 %nprocshared=4
 Will use up to    4 processors via shared memory.
 --------------------------------
 # opt b3lyp/6-311+g(d,p) scf=xqc
 --------------------------------
 1/18=20,19=15,26=3,38=1/1,3;
 2/9=110,12=2,17=6,18=5,40=1/2;
 3/5=4,6=6,7=111,11=2,25=1,30=1,71=1,74=-5/1,2,3;
 4//1;
 5/5=2,8=3,13=1,38=5/2,8;
 6/7=2,8=2,9=2,10=2,28=1/1;
 7//1,2,3,16;
 1/18=20,19=15,26=3/3(2);
 2/9=110/2;
 99//99;
 2/9=110/2;
 3/5=4,6=6,7=111,11=2,25=1,30=1,71=1,74=-5/1,2,3;
 4/5=5,16=3,69=1/1;
 5/5=2,8=3,13=1,38=5/2,8;
 7//1,2,3,16;
 1/18=20,19=15,26=3/3(-5);
 2/9=110/2;
 6/7=2,8=2,9=2,10=2,19=2,28=1/1;
 99/9=1/99;
 -------------------
 Title Card Required
 -------------------
 Symbolic Z-matrix:
 Charge =  0 Multiplicity = 1
 C                    -0.14594   0.36216  -0.00285 
 C                     1.18644   0.39205  -0.4362 
 C                     1.89433   1.6015   -0.44227 
 C                     1.26984   2.78107  -0.015 
 C                    -0.06254   2.75118   0.41835 
 C                    -0.77043   1.54173   0.42442 
 C                    -0.92385  -0.9669    0.00382 
 C                    -0.29936  -2.14647  -0.42345 
 C                    -1.00725  -3.35592  -0.41738 
 C                    -2.33964  -3.38581   0.01597 
 C                    -2.96412  -2.20624   0.44325 
 C                    -2.25623  -0.99679   0.43717 
 H                     1.66325  -0.50857  -0.76243 
 H                     2.91163   1.62432  -0.77314 
 H                    -0.53935   3.6518    0.74458 
 H                     0.71794  -2.12365  -0.75432 
 H                    -0.53045  -4.25654  -0.74361 
 H                    -2.88013  -4.30925   0.02061 
 Cl                   -3.04051   0.48461   0.97378 
 Cl                   -2.44375   1.5042    0.96866 
 Cl                   -4.63744  -2.24378   0.98749 
 Cl                    2.15888   4.3      -0.02262 
 

 GradGradGradGradGradGradGradGradGradGradGradGradGradGradGradGradGradGrad
 Berny optimization.
 Initialization pass.
                           ----------------------------
                           !    Initial Parameters    !
                           ! (Angstroms and Degrees)  !
 --------------------------                            --------------------------
 ! Name  Definition              Value          Derivative Info.                !
 --------------------------------------------------------------------------------
 ! R1    R(1,2)                  1.4014         estimate D2E/DX2                !
 ! R2    R(1,6)                  1.4014         estimate D2E/DX2                !
 ! R3    R(1,7)                  1.54           estimate D2E/DX2                !
 ! R4    R(2,3)                  1.4014         estimate D2E/DX2                !
 ! R5    R(2,13)                 1.07           estimate D2E/DX2                !
 ! R6    R(3,4)                  1.4014         estimate D2E/DX2                !
 ! R7    R(3,14)                 1.07           estimate D2E/DX2                !
 ! R8    R(4,5)                  1.4014         estimate D2E/DX2                !
 ! R9    R(4,22)                 1.76           estimate D2E/DX2                !
 ! R10   R(5,6)                  1.4014         estimate D2E/DX2                !
 ! R11   R(5,15)                 1.07           estimate D2E/DX2                !
 ! R12   R(6,20)                 1.76           estimate D2E/DX2                !
 ! R13   R(7,8)                  1.4014         estimate D2E/DX2                !
 ! R14   R(7,12)                 1.4014         estimate D2E/DX2                !
 ! R15   R(8,9)                  1.4014         estimate D2E/DX2                !
 ! R16   R(8,16)                 1.07           estimate D2E/DX2                !
 ! R17   R(9,10)                 1.4014         estimate D2E/DX2                !
 ! R18   R(9,17)                 1.07           estimate D2E/DX2                !
 ! R19   R(10,11)                1.4014         estimate D2E/DX2                !
 ! R20   R(10,18)                1.07           estimate D2E/DX2                !
 ! R21   R(11,12)                1.4014         estimate D2E/DX2                !
 ! R22   R(11,21)                1.76           estimate D2E/DX2                !
 ! R23   R(12,19)                1.76           estimate D2E/DX2                !
 ! R24   R(19,20)                1.1814         estimate D2E/DX2                !
 ! A1    A(2,1,6)              120.0            estimate D2E/DX2                !
 ! A2    A(2,1,7)              120.0            estimate D2E/DX2                !
 ! A3    A(6,1,7)              120.0            estimate D2E/DX2                !
 ! A4    A(1,2,3)              120.0            estimate D2E/DX2                !
 ! A5    A(1,2,13)             120.0            estimate D2E/DX2                !
 ! A6    A(3,2,13)             120.0            estimate D2E/DX2                !
 ! A7    A(2,3,4)              120.0            estimate D2E/DX2                !
 ! A8    A(2,3,14)             120.0            estimate D2E/DX2                !
 ! A9    A(4,3,14)             120.0            estimate D2E/DX2                !
 ! A10   A(3,4,5)              120.0            estimate D2E/DX2                !
 ! A11   A(3,4,22)             120.0            estimate D2E/DX2                !
 ! A12   A(5,4,22)             120.0            estimate D2E/DX2                !
 ! A13   A(4,5,6)              120.0            estimate D2E/DX2                !
 ! A14   A(4,5,15)             120.0            estimate D2E/DX2                !
 ! A15   A(6,5,15)             120.0            estimate D2E/DX2                !
 ! A16   A(1,6,5)              120.0            estimate D2E/DX2                !
 ! A17   A(1,6,20)             120.0            estimate D2E/DX2                !
 ! A18   A(5,6,20)             120.0            estimate D2E/DX2                !
 ! A19   A(1,7,8)              120.0            estimate D2E/DX2                !
 ! A20   A(1,7,12)             120.0            estimate D2E/DX2                !
 ! A21   A(8,7,12)             120.0            estimate D2E/DX2                !
 ! A22   A(7,8,9)              120.0            estimate D2E/DX2                !
 ! A23   A(7,8,16)             120.0            estimate D2E/DX2                !
 ! A24   A(9,8,16)             120.0            estimate D2E/DX2                !
 ! A25   A(8,9,10)             120.0            estimate D2E/DX2                !
 ! A26   A(8,9,17)             120.0            estimate D2E/DX2                !
 ! A27   A(10,9,17)            120.0            estimate D2E/DX2                !
 ! A28   A(9,10,11)            120.0            estimate D2E/DX2                !
 ! A29   A(9,10,18)            120.0            estimate D2E/DX2                !
 ! A30   A(11,10,18)           120.0            estimate D2E/DX2                !
 ! A31   A(10,11,12)           120.0            estimate D2E/DX2                !
 ! A32   A(10,11,21)           120.0            estimate D2E/DX2                !
 ! A33   A(12,11,21)           120.0            estimate D2E/DX2                !
 ! A34   A(7,12,11)            120.0            estimate D2E/DX2                !
 ! A35   A(7,12,19)            120.0            estimate D2E/DX2                !
 ! A36   A(11,12,19)           120.0            estimate D2E/DX2                !
 ! A37   A(12,19,20)           120.0            estimate D2E/DX2                !
 ! A38   A(6,20,19)            120.0            estimate D2E/DX2                !
 ! D1    D(6,1,2,3)              0.0001         estimate D2E/DX2                !
 ! D2    D(6,1,2,13)           180.0            estimate D2E/DX2                !
 ! D3    D(7,1,2,3)           -180.0            estimate D2E/DX2                !
 ! D4    D(7,1,2,13)            -0.0001         estimate D2E/DX2                !
 ! D5    D(2,1,6,5)             -0.0001         estimate D2E/DX2                !
 ! D6    D(2,1,6,20)           180.0            estimate D2E/DX2                !
 ! D7    D(7,1,6,5)            180.0            estimate D2E/DX2                !
 ! D8    D(7,1,6,20)             0.0            estimate D2E/DX2                !
 ! D9    D(2,1,7,8)             -0.0001         estimate D2E/DX2                !
 ! D10   D(2,1,7,12)           179.9998         estimate D2E/DX2                !
 ! D11   D(6,1,7,8)            179.9999         estimate D2E/DX2                !
 ! D12   D(6,1,7,12)            -0.0002         estimate D2E/DX2                !
 ! D13   D(1,2,3,4)              0.0            estimate D2E/DX2                !
 ! D14   D(1,2,3,14)           180.0            estimate D2E/DX2                !
 ! D15   D(13,2,3,4)          -179.9999         estimate D2E/DX2                !
 ! D16   D(13,2,3,14)            0.0001         estimate D2E/DX2                !
 ! D17   D(2,3,4,5)             -0.0001         estimate D2E/DX2                !
 ! D18   D(2,3,4,22)           180.0            estimate D2E/DX2                !
 ! D19   D(14,3,4,5)           179.9999         estimate D2E/DX2                !
 ! D20   D(14,3,4,22)            0.0            estimate D2E/DX2                !
 ! D21   D(3,4,5,6)              0.0001         estimate D2E/DX2                !
 ! D22   D(3,4,5,15)          -179.9999         estimate D2E/DX2                !
 ! D23   D(22,4,5,6)          -180.0            estimate D2E/DX2                !
 ! D24   D(22,4,5,15)            0.0            estimate D2E/DX2                !
 ! D25   D(4,5,6,1)              0.0            estimate D2E/DX2                !
 ! D26   D(4,5,6,20)           179.9999         estimate D2E/DX2                !
 ! D27   D(15,5,6,1)           180.0            estimate D2E/DX2                !
 ! D28   D(15,5,6,20)           -0.0001         estimate D2E/DX2                !
 ! D29   D(1,6,20,19)            0.0006         estimate D2E/DX2                !
 ! D30   D(5,6,20,19)         -179.9994         estimate D2E/DX2                !
 ! D31   D(1,7,8,9)            179.9999         estimate D2E/DX2                !
 ! D32   D(1,7,8,16)             0.0001         estimate D2E/DX2                !
 ! D33   D(12,7,8,9)             0.0001         estimate D2E/DX2                !
 ! D34   D(12,7,8,16)         -179.9998         estimate D2E/DX2                !
 ! D35   D(1,7,12,11)         -179.9999         estimate D2E/DX2                !
 ! D36   D(1,7,12,19)            0.0            estimate D2E/DX2                !
 ! D37   D(8,7,12,11)           -0.0001         estimate D2E/DX2                !
 ! D38   D(8,7,12,19)          179.9999         estimate D2E/DX2                !
 ! D39   D(7,8,9,10)             0.0            estimate D2E/DX2                !
 ! D40   D(7,8,9,17)           180.0            estimate D2E/DX2                !
 ! D41   D(16,8,9,10)          179.9998         estimate D2E/DX2                !
 ! D42   D(16,8,9,17)           -0.0002         estimate D2E/DX2                !
 ! D43   D(8,9,10,11)            0.0            estimate D2E/DX2                !
 ! D44   D(8,9,10,18)         -179.9999         estimate D2E/DX2                !
 ! D45   D(17,9,10,11)         180.0            estimate D2E/DX2                !
 ! D46   D(17,9,10,18)           0.0001         estimate D2E/DX2                !
 ! D47   D(9,10,11,12)           0.0            estimate D2E/DX2                !
 ! D48   D(9,10,11,21)        -179.9998         estimate D2E/DX2                !
 ! D49   D(18,10,11,12)        179.9999         estimate D2E/DX2                !
 ! D50   D(18,10,11,21)          0.0001         estimate D2E/DX2                !
 ! D51   D(10,11,12,7)           0.0            estimate D2E/DX2                !
 ! D52   D(10,11,12,19)       -179.9999         estimate D2E/DX2                !
 ! D53   D(21,11,12,7)         179.9999         estimate D2E/DX2                !
 ! D54   D(21,11,12,19)         -0.0001         estimate D2E/DX2                !
 ! D55   D(7,12,19,20)           0.0005         estimate D2E/DX2                !
 ! D56   D(11,12,19,20)       -179.9995         estimate D2E/DX2                !
 ! D57   D(12,19,20,6)          -0.0008         estimate D2E/DX2                !
 --------------------------------------------------------------------------------
 Trust Radius=3.00D-01 FncErr=1.00D-07 GrdErr=1.00D-06 EigMax=2.50D+02 EigMin=1.00D-04
 Number of steps in this run=    129 maximum allowed number of steps=    132.
 GradGradGradGradGradGradGradGradGradGradGradGradGradGradGradGradGradGrad

                          Input orientation:                          
 ---------------------------------------------------------------------
 Center     Atomic      Atomic             Coordinates (Angstroms)
 Number     Number       Type             X           Y           Z
 ---------------------------------------------------------------------
      1          6           0       -0.145945    0.362164   -0.002851
      2          6           0        1.186436    0.392050   -0.436198
      3          6           0        1.894330    1.601501   -0.442270
      4          6           0        1.269843    2.781066   -0.014995
      5          6           0       -0.062539    2.751180    0.418350
      6          6           0       -0.770433    1.541729    0.424422
      7          6           0       -0.923849   -0.966903    0.003823
      8          6           0       -0.299362   -2.146469   -0.423452
      9          6           0       -1.007255   -3.355920   -0.417378
     10          6           0       -2.339635   -3.385806    0.015972
     11          6           0       -2.964122   -2.206241    0.443247
     12          6           0       -2.256229   -0.996790    0.437173
     13          1           0        1.663247   -0.508575   -0.762430
     14          1           0        2.911633    1.624319   -0.773139
     15          1           0       -0.539350    3.651805    0.744581
     16          1           0        0.717941   -2.123650   -0.754322
     17          1           0       -0.530445   -4.256544   -0.743612
     18          1           0       -2.880127   -4.309250    0.020612
     19         17           0       -3.040514    0.484610    0.973785
     20         17           0       -2.443753    1.504196    0.968656
     21         17           0       -4.637440   -2.243776    0.987490
     22         17           0        2.158877    4.299999   -0.022621
 ---------------------------------------------------------------------
                    Distance matrix (angstroms):
                    1          2          3          4          5
     1  C    0.000000
     2  C    1.401400   0.000000
     3  C    2.427296   1.401400   0.000000
     4  C    2.802800   2.427296   1.401400   0.000000
     5  C    2.427296   2.802800   2.427296   1.401400   0.000000
     6  C    1.401400   2.427296   2.802800   2.427296   1.401400
     7  C    1.540000   2.548270   3.838989   4.342800   3.838989
     8  C    2.548270   2.941400   4.342800   5.187469   4.975106
     9  C    3.838989   4.342800   5.744200   6.558176   6.235992
    10  C    4.342800   5.187469   6.558176   7.145600   6.558176
    11  C    3.838989   4.975106   6.235992   6.558176   5.744200
    12  C    2.548270   3.813607   4.975106   5.187469   4.342800
    13  H    2.146700   1.070000   2.146700   3.396345   3.872800
    14  H    3.396345   2.146700   1.070000   2.146700   3.396345
    15  H    3.396345   3.872800   3.396345   2.146700   1.070000
    16  H    2.736837   2.578650   3.918930   4.990735   5.074276
    17  H    4.693509   4.965039   6.347206   7.300676   7.118798
    18  H    5.412800   6.232802   7.612271   8.215600   7.612271
    19  Cl   3.057342   4.456874   5.254079   4.983028   3.783409
    20  Cl   2.743718   4.048303   4.562800   4.048303   2.743718
    21  Cl   5.286324   6.549198   7.713260   7.819846   6.797295
    22  Cl   4.562800   4.048303   2.743718   1.760000   2.743718
                    6          7          8          9         10
     6  C    0.000000
     7  C    2.548270   0.000000
     8  C    3.813607   1.401400   0.000000
     9  C    4.975106   2.427296   1.401400   0.000000
    10  C    5.187469   2.802800   2.427296   1.401400   0.000000
    11  C    4.342800   2.427296   2.802800   2.427296   1.401400
    12  C    2.941400   1.401400   2.427296   2.802800   2.427296
    13  H    3.396345   2.736837   2.578650   3.918930   4.990735
    14  H    3.872800   4.693509   4.965039   6.347206   7.300676
    15  H    2.146700   4.693509   5.919617   7.118798   7.300676
    16  H    4.127917   2.146700   1.070000   2.146700   3.396345
    17  H    5.919617   3.396345   2.146700   1.070000   2.146700
    18  H    6.232802   3.872800   3.396345   2.146700   1.070000
    19  Cl   2.563702   2.743718   4.048303   4.562800   4.048303
    20  Cl   1.760000   3.057342   4.456874   5.254079   4.983028
    21  Cl   5.440665   4.048303   4.562800   4.048303   2.743718
    22  Cl   4.048303   6.102800   6.910901   8.294174   8.905600
                   11         12         13         14         15
    11  C    0.000000
    12  C    1.401400   0.000000
    13  H    5.074276   4.127917   0.000000
    14  H    7.118798   5.919617   2.471400   0.000000
    15  H    6.347206   4.965039   4.942800   4.280590   0.000000
    16  H    3.872800   3.396345   1.871400   4.342800   6.097816
    17  H    3.396345   3.872800   4.342800   6.814200   8.047159
    18  H    2.146700   3.396345   5.974992   8.329571   8.329571
    19  Cl   2.743718   1.760000   5.111382   6.307038   4.042212
    20  Cl   3.783409   2.563702   4.890332   5.632800   2.879094
    21  Cl   1.760000   2.743718   6.765486   8.663168   7.184095
    22  Cl   8.294174   6.910901   4.890332   2.879094   2.879094
                   16         17         18         19         20
    16  H    0.000000
    17  H    2.471400   0.000000
    18  H    4.280590   2.471400   0.000000
    19  Cl   4.890332   5.632800   4.890332   0.000000
    20  Cl   5.111382   6.307038   5.906383   1.181400   0.000000
    21  Cl   5.632800   4.890332   2.879094   3.161400   4.342800
    22  Cl   6.623817   8.998151   9.975600   6.525618   5.475705
                   21         22
    21  Cl   0.000000
    22  Cl   9.488480   0.000000
 Stoichiometry    C12H6Cl4
 Framework group  C1[X(C12H6Cl4)]
 Deg. of freedom    60
 Full point group                 C1      NOp   1
 Largest Abelian subgroup         C1      NOp   1
 Largest concise Abelian subgroup C1      NOp   1
                         Standard orientation:                         
 ---------------------------------------------------------------------
 Center     Atomic      Atomic             Coordinates (Angstroms)
 Number     Number       Type             X           Y           Z
 ---------------------------------------------------------------------
      1          6           0        0.773256    0.766722    0.000002
      2          6           0        1.713871    1.805550   -0.000000
      3          6           0        3.083831    1.510367   -0.000002
      4          6           0        3.513175    0.176356   -0.000002
      5          6           0        2.572559   -0.862472    0.000002
      6          6           0        1.202599   -0.567289    0.000004
      7          6           0       -0.732194    1.091099    0.000003
      8          6           0       -1.161538    2.425110    0.000003
      9          6           0       -2.531498    2.720293    0.000002
     10          6           0       -3.472113    1.681465    0.000001
     11          6           0       -3.042770    0.347454    0.000000
     12          6           0       -1.672810    0.052271    0.000001
     13          1           0        1.386058    2.824097   -0.000002
     14          1           0        3.802012    2.303535   -0.000004
     15          1           0        2.900372   -1.881020    0.000005
     16          1           0       -0.443357    3.218278    0.000001
     17          1           0       -2.859311    3.738840    0.000003
     18          1           0       -4.518108    1.906844   -0.000001
     19         17           0       -1.133603   -1.623097   -0.000002
     20         17           0        0.021292   -1.871940    0.000007
     21         17           0       -4.224077   -0.957197   -0.000006
     22         17           0        5.233689   -0.194361   -0.000004
 ---------------------------------------------------------------------
 Rotational constants (GHZ):           0.8597393           0.2045069           0.1652086
 Standard basis: 6-311+G(d,p) (5D, 7F)
 There are   436 symmetry adapted cartesian basis functions of A   symmetry.
 There are   420 symmetry adapted basis functions of A   symmetry.
   420 basis functions,   692 primitive gaussians,   436 cartesian basis functions
    73 alpha electrons       73 beta electrons
       nuclear repulsion energy      1567.3445712603 Hartrees.
 NAtoms=   22 NActive=   22 NUniq=   22 SFac= 1.00D+00 NAtFMM=   60 NAOKFM=F Big=F
 Integral buffers will be    131072 words long.
 Raffenetti 2 integral format.
 Two-electron integral symmetry is turned on.
 One-electron integrals computed using PRISM.
 NBasis=   420 RedAO= T EigKep=  1.05D-06  NBF=   420
 NBsUse=   415 1.00D-06 EigRej=  6.60D-07 NBFU=   415
 ExpMin= 4.38D-02 ExpMax= 1.06D+05 ExpMxC= 3.62D+03 IAcc=3 IRadAn=         5 AccDes= 0.00D+00
 Harris functional with IExCor=  402 and IRadAn=       5 diagonalized for initial guess.
 HarFok:  IExCor=  402 AccDes= 0.00D+00 IRadAn=         5 IDoV= 1 UseB2=F ITyADJ=14
 ICtDFT=  3500011 ScaDFX=  1.000000  1.000000  1.000000  1.000000
 FoFCou: FMM=F IPFlag=           0 FMFlag=      100000 FMFlg1=           0
         NFxFlg=           0 DoJE=T BraDBF=F KetDBF=T FulRan=T
         wScrn=  0.000000 ICntrl=       500 IOpCl=  0 I1Cent=   200000004 NGrid=           0
         NMat0=    1 NMatS0=      1 NMatT0=    0 NMatD0=    1 NMtDS0=    0 NMtDT0=    0
 Petite list used in FoFCou.
 Requested convergence on RMS density matrix=1.00D-08 within  32 cycles.
 Requested convergence on MAX density matrix=1.00D-06.
 Requested convergence on             energy=1.00D-06.
 No special actions if energy rises.
 SCF Done:  E(RB3LYP) =  -2300.27988049     A.U. after   20 cycles
            NFock= 20  Conv=0.62D-08     -V/T= 1.9993
 QCSCF skips out because SCF is already converged.

 **********************************************************************

            Population analysis using the SCF Density.

 **********************************************************************

 Orbital symmetries:
       Occupied  (A) (A) (A) (A) (A) (A) (A) (A) (A) (A) (A) (A)
                 (A) (A) (A) (A) (A) (A) (A) (A) (A) (A) (A) (A)
                 (A) (A) (A) (A) (A) (A) (A) (A) (A) (A) (A) (A)
                 (A) (A) (A) (A) (A) (A) (A) (A) (A) (A) (A) (A)
                 (A) (A) (A) (A) (A) (A) (A) (A) (A) (A) (A) (A)
                 (A) (A) (A) (A) (A) (A) (A) (A) (A) (A) (A) (A)
                 (A)
       Virtual   (A) (A) (A) (A) (A) (A) (A) (A) (A) (A) (A) (A)
                 (A) (A) (A) (A) (A) (A) (A) (A) (A) (A) (A) (A)
                 (A) (A) (A) (A) (A) (A) (A) (A) (A) (A) (A) (A)
                 (A) (A) (A) (A) (A) (A) (A) (A) (A) (A) (A) (A)
                 (A) (A) (A) (A) (A) (A) (A) (A) (A) (A) (A) (A)
                 (A) (A) (A) (A) (A) (A) (A) (A) (A) (A) (A) (A)
                 (A) (A) (A) (A) (A) (A) (A) (A) (A) (A) (A) (A)
                 (A) (A) (A) (A) (A) (A) (A) (A) (A) (A) (A) (A)
                 (A) (A) (A) (A) (A) (A) (A) (A) (A) (A) (A) (A)
                 (A) (A) (A) (A) (A) (A) (A) (A) (A) (A) (A) (A)
                 (A) (A) (A) (A) (A) (A) (A) (A) (A) (A) (A) (A)
                 (A) (A) (A) (A) (A) (A) (A) (A) (A) (A) (A) (A)
                 (A) (A) (A) (A) (A) (A) (A) (A) (A) (A) (A) (A)
                 (A) (A) (A) (A) (A) (A) (A) (A) (A) (A) (A) (A)
                 (A) (A) (A) (A) (A) (A) (A) (A) (A) (A) (A) (A)
                 (A) (A) (A) (A) (A) (A) (A) (A) (A) (A) (A) (A)
                 (A) (A) (A) (A) (A) (A) (A) (A) (A) (A) (A) (A)
                 (A) (A) (A) (A) (A) (A) (A) (A) (A) (A) (A) (A)
                 (A) (A) (A) (A) (A) (A) (A) (A) (A) (A) (A) (A)
                 (A) (A) (A) (A) (A) (A) (A) (A) (A) (A) (A) (A)
                 (A) (A) (A) (A) (A) (A) (A) (A) (A) (A) (A) (A)
                 (A) (A) (A) (A) (A) (A) (A) (A) (A) (A) (A) (A)
                 (A) (A) (A) (A) (A) (A) (A) (A) (A) (A) (A) (A)
                 (A) (A) (A) (A) (A) (A) (A) (A) (A) (A) (A) (A)
                 (A) (A) (A) (A) (A) (A) (A) (A) (A) (A) (A) (A)
                 (A) (A) (A) (A) (A) (A) (A) (A) (A) (A) (A) (A)
                 (A) (A) (A) (A) (A) (A) (A) (A) (A) (A) (A) (A)
                 (A) (A) (A) (A) (A) (A) (A) (A) (A) (A) (A) (A)
                 (A) (A) (A) (A) (A) (A)
 The electronic state is 1-A.
 Alpha  occ. eigenvalues -- -101.65811-101.65528-101.55880-101.55661 -10.24695
 Alpha  occ. eigenvalues --  -10.24363 -10.20472 -10.20248 -10.19531 -10.19247
 Alpha  occ. eigenvalues --  -10.19189 -10.19122 -10.18897 -10.18535 -10.17369
 Alpha  occ. eigenvalues --  -10.17117  -9.64495  -9.62354  -9.47353  -9.47108
 Alpha  occ. eigenvalues --   -7.42888  -7.37945  -7.37881  -7.37477  -7.37270
 Alpha  occ. eigenvalues --   -7.36821  -7.23786  -7.23562  -7.22846  -7.22815
 Alpha  occ. eigenvalues --   -7.22596  -7.22561  -1.38913  -0.90535  -0.89840
 Alpha  occ. eigenvalues --   -0.86412  -0.84287  -0.81631  -0.80553  -0.76862
 Alpha  occ. eigenvalues --   -0.73767  -0.72117  -0.71993  -0.70997  -0.65315
 Alpha  occ. eigenvalues --   -0.62902  -0.59778  -0.58752  -0.57351  -0.52146
 Alpha  occ. eigenvalues --   -0.49698  -0.49119  -0.47262  -0.46405  -0.44891
 Alpha  occ. eigenvalues --   -0.44010  -0.41400  -0.41280  -0.40270  -0.40205
 Alpha  occ. eigenvalues --   -0.38836  -0.36357  -0.35843  -0.34926  -0.33681
 Alpha  occ. eigenvalues --   -0.32378  -0.31870  -0.30577  -0.28446  -0.26999
 Alpha  occ. eigenvalues --   -0.24234  -0.20858  -0.15777
 Alpha virt. eigenvalues --   -0.06139  -0.04870  -0.02180  -0.01388   0.00103
 Alpha virt. eigenvalues --    0.00361   0.00665   0.01077   0.01286   0.02066
 Alpha virt. eigenvalues --    0.02451   0.02833   0.03524   0.04694   0.05160
 Alpha virt. eigenvalues --    0.05445   0.06119   0.06333   0.06644   0.07125
 Alpha virt. eigenvalues --    0.07986   0.08047   0.08938   0.09586   0.09677
 Alpha virt. eigenvalues --    0.09858   0.10418   0.11003   0.11552   0.11570
 Alpha virt. eigenvalues --    0.12208   0.12523   0.13032   0.13780   0.14133
 Alpha virt. eigenvalues --    0.14518   0.15048   0.15511   0.15951   0.16068
 Alpha virt. eigenvalues --    0.16141   0.16362   0.17116   0.17262   0.17517
 Alpha virt. eigenvalues --    0.17956   0.18199   0.18430   0.19338   0.19735
 Alpha virt. eigenvalues --    0.19841   0.20086   0.20740   0.21018   0.21546
 Alpha virt. eigenvalues --    0.21585   0.22508   0.22725   0.22821   0.23168
 Alpha virt. eigenvalues --    0.23388   0.24107   0.24378   0.24722   0.25276
 Alpha virt. eigenvalues --    0.25908   0.26248   0.27384   0.27561   0.28145
 Alpha virt. eigenvalues --    0.28342   0.28747   0.28984   0.29795   0.30635
 Alpha virt. eigenvalues --    0.31282   0.31925   0.33244   0.33572   0.34301
 Alpha virt. eigenvalues --    0.35050   0.35229   0.36351   0.37155   0.38266
 Alpha virt. eigenvalues --    0.40344   0.41420   0.44020   0.44187   0.44979
 Alpha virt. eigenvalues --    0.45533   0.45676   0.46445   0.46637   0.47253
 Alpha virt. eigenvalues --    0.49564   0.49811   0.50429   0.51335   0.52349
 Alpha virt. eigenvalues --    0.52728   0.53244   0.54613   0.54936   0.55211
 Alpha virt. eigenvalues --    0.55738   0.56407   0.57676   0.57764   0.58361
 Alpha virt. eigenvalues --    0.59267   0.59384   0.61770   0.62101   0.62139
 Alpha virt. eigenvalues --    0.63270   0.63375   0.64545   0.65804   0.65976
 Alpha virt. eigenvalues --    0.67191   0.67366   0.68304   0.68771   0.69604
 Alpha virt. eigenvalues --    0.71138   0.71306   0.72343   0.72655   0.74107
 Alpha virt. eigenvalues --    0.76002   0.78045   0.79145   0.81163   0.81543
 Alpha virt. eigenvalues --    0.82689   0.83815   0.83919   0.84536   0.85061
 Alpha virt. eigenvalues --    0.85476   0.86130   0.86503   0.86786   0.87041
 Alpha virt. eigenvalues --    0.87993   0.89321   0.90665   0.91161   0.92022
 Alpha virt. eigenvalues --    0.92417   0.93549   0.94267   0.95034   0.95673
 Alpha virt. eigenvalues --    0.96245   0.96927   0.97695   0.97895   0.98919
 Alpha virt. eigenvalues --    1.00825   1.01003   1.02509   1.04361   1.05279
 Alpha virt. eigenvalues --    1.06457   1.07838   1.09398   1.10271   1.10608
 Alpha virt. eigenvalues --    1.10787   1.12183   1.14960   1.16629   1.19034
 Alpha virt. eigenvalues --    1.21615   1.25575   1.26778   1.26955   1.28532
 Alpha virt. eigenvalues --    1.29128   1.29311   1.31855   1.33061   1.35991
 Alpha virt. eigenvalues --    1.36707   1.40855   1.43383   1.44588   1.48839
 Alpha virt. eigenvalues --    1.50579   1.51011   1.51566   1.51720   1.54143
 Alpha virt. eigenvalues --    1.55391   1.56562   1.57291   1.59716   1.61541
 Alpha virt. eigenvalues --    1.61883   1.62594   1.66546   1.67765   1.70090
 Alpha virt. eigenvalues --    1.70202   1.73463   1.74708   1.75204   1.78846
 Alpha virt. eigenvalues --    1.80566   1.82679   1.84657   1.86239   1.88292
 Alpha virt. eigenvalues --    1.89686   1.90813   1.92103   1.92754   1.92883
 Alpha virt. eigenvalues --    1.95415   1.96503   1.97228   1.98174   1.99961
 Alpha virt. eigenvalues --    2.00987   2.01728   2.02725   2.04321   2.08043
 Alpha virt. eigenvalues --    2.09070   2.09564   2.14522   2.16605   2.18433
 Alpha virt. eigenvalues --    2.22888   2.25327   2.25676   2.26571   2.27277
 Alpha virt. eigenvalues --    2.28661   2.29541   2.31134   2.33640   2.35033
 Alpha virt. eigenvalues --    2.37100   2.37271   2.40705   2.41976   2.42900
 Alpha virt. eigenvalues --    2.45619   2.48203   2.49124   2.53177   2.55786
 Alpha virt. eigenvalues --    2.57090   2.59898   2.62925   2.63879   2.65321
 Alpha virt. eigenvalues --    2.65322   2.66328   2.69770   2.71411   2.73597
 Alpha virt. eigenvalues --    2.74503   2.74928   2.75321   2.76529   2.76695
 Alpha virt. eigenvalues --    2.78376   2.80907   2.81612   2.82149   2.83534
 Alpha virt. eigenvalues --    2.85548   2.87005   2.87043   2.93274   2.93708
 Alpha virt. eigenvalues --    2.95712   3.02806   3.07627   3.09072   3.09303
 Alpha virt. eigenvalues --    3.16322   3.17603   3.19780   3.22676   3.23222
 Alpha virt. eigenvalues --    3.34823   3.36285   3.39078   3.42226   3.46577
 Alpha virt. eigenvalues --    3.52664   3.56596   3.59402   3.66225   3.75208
 Alpha virt. eigenvalues --    3.80161   3.89291   3.98870   4.07666   4.09275
 Alpha virt. eigenvalues --    4.12845   4.21153   4.48958   4.81628   4.84766
 Alpha virt. eigenvalues --    9.75994   9.78548   9.82656  10.55723  23.43518
 Alpha virt. eigenvalues --   23.59161  23.85898  23.89365  23.92353  23.95684
 Alpha virt. eigenvalues --   24.00978  24.03477  24.05277  24.06067  24.13112
 Alpha virt. eigenvalues --   24.14445  25.41521  25.82726  25.83086  25.98179
 Alpha virt. eigenvalues --   26.13304  26.21364  26.21536  26.60869  26.64473
 Alpha virt. eigenvalues --   27.10665  27.41539  28.45603 215.76467 215.78198
 Alpha virt. eigenvalues --  215.91577 216.87701
          Condensed to atoms (all electrons):
               1          2          3          4          5          6
     1  C   26.083453  -1.850643   3.642490 -11.043569  -6.213751   1.246103
     2  C   -1.850643  18.261606  -3.067194   1.815615  -2.469443  -4.992955
     3  C    3.642490  -3.067194  20.888618  -3.307509  -4.469127  -4.841836
     4  C  -11.043569   1.815615  -3.307509  25.015588   1.375345  -8.250146
     5  C   -6.213751  -2.469443  -4.469127   1.375345  20.553953  -5.160056
     6  C    1.246103  -4.992955  -4.841836  -8.250146  -5.160056  39.354385
     7  C    7.450687  -2.142243  -1.006027  -1.998955  -2.612080  -0.082546
     8  C    1.985552   5.426846   2.622035  -1.620871  -1.286941 -10.838788
     9  C   -1.365330  -2.273319  -0.235140  -0.269553  -0.001195   1.258243
    10  C   -0.645181   1.094904  -0.142957   0.101700   0.149394  -0.782095
    11  C    0.635754   0.435998   0.395792  -0.487783  -0.778596  -2.202352
    12  C    1.337820  -4.154424  -1.533487  -1.472064  -3.941309  11.872605
    13  H    0.063452   0.363503  -0.240418   0.007364  -0.047353   0.091099
    14  H    0.026004  -0.098925   0.322982   0.045046   0.052741  -0.003962
    15  H    0.064783  -0.015958   0.032650   0.040613   0.267519  -0.003571
    16  H    0.088608  -0.009892  -0.024294   0.009497   0.002738   0.068292
    17  H   -0.008976   0.017153   0.002723  -0.000103  -0.000309  -0.007277
    18  H    0.007586  -0.000553  -0.000320   0.000192   0.000767   0.006052
    19  Cl  -3.980899  -0.395778  -1.196432   0.686471   0.810298   2.332725
    20  Cl -11.476555   0.126839  -1.475177   5.581111  10.359031 -11.878789
    21  Cl   0.295128  -0.029434   0.064116  -0.069133  -0.252954  -0.223687
    22  Cl  -0.325102   0.236218   0.027990  -0.841050   0.311156  -0.131280
               7          8          9         10         11         12
     1  C    7.450687   1.985552  -1.365330  -0.645181   0.635754   1.337820
     2  C   -2.142243   5.426846  -2.273319   1.094904   0.435998  -4.154424
     3  C   -1.006027   2.622035  -0.235140  -0.142957   0.395792  -1.533487
     4  C   -1.998955  -1.620871  -0.269553   0.101700  -0.487783  -1.472064
     5  C   -2.612080  -1.286941  -0.001195   0.149394  -0.778596  -3.941309
     6  C   -0.082546 -10.838788   1.258243  -0.782095  -2.202352  11.872605
     7  C   17.386872  -4.179261  -1.165031  -3.534812   0.901472   4.856941
     8  C   -4.179261  27.611231  -4.536181   3.606961   2.463231  -9.867121
     9  C   -1.165031  -4.536181  12.070424   0.339753  -1.694427   3.424872
    10  C   -3.534812   3.606961   0.339753  16.390501  -4.864690  -7.606782
    11  C    0.901472   2.463231  -1.694427  -4.864690  20.893626  -7.562718
    12  C    4.856941  -9.867121   3.424872  -7.606782  -7.562718  41.491910
    13  H    0.069916  -0.071165   0.014304  -0.000856  -0.021205   0.047664
    14  H   -0.003237   0.015898  -0.000448   0.000330   0.000142   0.000089
    15  H    0.005780  -0.002445   0.000819  -0.000219   0.002250   0.022613
    16  H    0.097373   0.190453  -0.137043  -0.014998  -0.084576   0.081569
    17  H   -0.004300   0.022512   0.368398   0.011384  -0.003320  -0.047813
    18  H    0.049650  -0.021434  -0.051371   0.402050  -0.126084   0.095792
    19  Cl  -4.689189  -3.235711   0.616862   3.163234   0.208595 -10.454782
    20  Cl  -3.972921  -2.635608   0.085048   1.023504  -2.310751 -12.782448
    21  Cl   0.549918   0.497572  -0.215967  -2.348991  -0.304946   3.552823
    22  Cl  -0.056850  -0.029534  -0.004222   0.000028  -0.001207  -0.030701
              13         14         15         16         17         18
     1  C    0.063452   0.026004   0.064783   0.088608  -0.008976   0.007586
     2  C    0.363503  -0.098925  -0.015958  -0.009892   0.017153  -0.000553
     3  C   -0.240418   0.322982   0.032650  -0.024294   0.002723  -0.000320
     4  C    0.007364   0.045046   0.040613   0.009497  -0.000103   0.000192
     5  C   -0.047353   0.052741   0.267519   0.002738  -0.000309   0.000767
     6  C    0.091099  -0.003962  -0.003571   0.068292  -0.007277   0.006052
     7  C    0.069916  -0.003237   0.005780   0.097373  -0.004300   0.049650
     8  C   -0.071165   0.015898  -0.002445   0.190453   0.022512  -0.021434
     9  C    0.014304  -0.000448   0.000819  -0.137043   0.368398  -0.051371
    10  C   -0.000856   0.000330  -0.000219  -0.014998   0.011384   0.402050
    11  C   -0.021205   0.000142   0.002250  -0.084576  -0.003320  -0.126084
    12  C    0.047664   0.000089   0.022613   0.081569  -0.047813   0.095792
    13  H    0.578193  -0.008102   0.000067   0.004993  -0.000036   0.000003
    14  H   -0.008102   0.519602  -0.000359   0.000026   0.000000  -0.000000
    15  H    0.000067  -0.000359   0.518473  -0.000001   0.000000  -0.000000
    16  H    0.004993   0.000026  -0.000001   0.585151  -0.007971  -0.000075
    17  H   -0.000036   0.000000   0.000000  -0.007971   0.536283  -0.008119
    18  H    0.000003  -0.000000  -0.000000  -0.000075  -0.008119   0.529571
    19  Cl   0.012457  -0.000789   0.043511   0.024612  -0.000781   0.018706
    20  Cl   0.017390   0.001982  -0.103120   0.015758  -0.001932   0.007395
    21  Cl  -0.000430  -0.000001   0.000109  -0.002919   0.001527  -0.045017
    22  Cl   0.000417  -0.013077  -0.014828   0.000064  -0.000001   0.000000
              19         20         21         22
     1  C   -3.980899 -11.476555   0.295128  -0.325102
     2  C   -0.395778   0.126839  -0.029434   0.236218
     3  C   -1.196432  -1.475177   0.064116   0.027990
     4  C    0.686471   5.581111  -0.069133  -0.841050
     5  C    0.810298  10.359031  -0.252954   0.311156
     6  C    2.332725 -11.878789  -0.223687  -0.131280
     7  C   -4.689189  -3.972921   0.549918  -0.056850
     8  C   -3.235711  -2.635608   0.497572  -0.029534
     9  C    0.616862   0.085048  -0.215967  -0.004222
    10  C    3.163234   1.023504  -2.348991   0.000028
    11  C    0.208595  -2.310751  -0.304946  -0.001207
    12  C  -10.454782 -12.782448   3.552823  -0.030701
    13  H    0.012457   0.017390  -0.000430   0.000417
    14  H   -0.000789   0.001982  -0.000001  -0.013077
    15  H    0.043511  -0.103120   0.000109  -0.014828
    16  H    0.024612   0.015758  -0.002919   0.000064
    17  H   -0.000781  -0.001932   0.001527  -0.000001
    18  H    0.018706   0.007395  -0.045017   0.000000
    19  Cl  31.669757   3.120889  -2.542603  -0.020126
    20  Cl   3.120889  44.661293  -1.820347   0.014281
    21  Cl  -2.542603  -1.820347  19.360757  -0.000207
    22  Cl  -0.020126   0.014281  -0.000207  17.459821
 Mulliken charges:
               1
     1  C   -0.017414
     2  C   -0.277919
     3  C   -0.459476
     4  C    0.682193
     5  C   -0.649828
     6  C   -0.830165
     7  C    0.078843
     8  C   -0.117231
     9  C   -0.229494
    10  C   -0.342162
    11  C    0.505796
    12  C   -1.331048
    13  H    0.118744
    14  H    0.144056
    15  H    0.141313
    16  H    0.112635
    17  H    0.130958
    18  H    0.135209
    19  Cl   0.808972
    20  Cl   0.443127
    21  Cl   0.534687
    22  Cl   0.418205
 Sum of Mulliken charges =  -0.00000
 Mulliken charges with hydrogens summed into heavy atoms:
               1
     1  C   -0.017414
     2  C   -0.159176
     3  C   -0.315420
     4  C    0.682193
     5  C   -0.508515
     6  C   -0.830165
     7  C    0.078843
     8  C   -0.004596
     9  C   -0.098536
    10  C   -0.206954
    11  C    0.505796
    12  C   -1.331048
    19  Cl   0.808972
    20  Cl   0.443127
    21  Cl   0.534687
    22  Cl   0.418205
 Electronic spatial extent (au):  <R**2>=           5814.4794
 Charge=             -0.0000 electrons
 Dipole moment (field-independent basis, Debye):
    X=             -0.9258    Y=             -0.1912    Z=              0.0000  Tot=              0.9453
 Quadrupole moment (field-independent basis, Debye-Ang):
   XX=           -134.3542   YY=           -104.6717   ZZ=           -123.1554
   XY=             -0.6641   XZ=             -0.0000   YZ=             -0.0000
 Traceless Quadrupole moment (field-independent basis, Debye-Ang):
   XX=            -13.6271   YY=             16.0554   ZZ=             -2.4283
   XY=             -0.6641   XZ=             -0.0000   YZ=             -0.0000
 Octapole moment (field-independent basis, Debye-Ang**2):
  XXX=            -39.9310  YYY=            -18.1564  ZZZ=             -0.0000  XYY=             -7.2000
  XXY=             16.7351  XXZ=              0.0000  XZZ=             -1.7545  YZZ=            -18.9105
  YYZ=             -0.0000  XYZ=             -0.0000
 Hexadecapole moment (field-independent basis, Debye-Ang**3):
 XXXX=          -6323.8998 YYYY=          -1464.9940 ZZZZ=           -148.1697 XXXY=            -31.3950
 XXXZ=              0.0002 YYYX=             31.2954 YYYZ=             -0.0002 ZZZX=              0.0000
 ZZZY=             -0.0001 XXYY=          -1199.2030 XXZZ=          -1083.3470 YYZZ=           -313.9974
 XXYZ=             -0.0001 YYXZ=              0.0000 ZZXY=             18.6953
 N-N= 1.567344571260D+03 E-N=-8.579096141947D+03  KE= 2.301798483679D+03
 Calling FoFJK, ICntrl=      2127 FMM=F ISym2X=0 I1Cent= 0 IOpClX= 0 NMat=1 NMatS=1 NMatT=0.
 ***** Axes restored to original set *****
 -------------------------------------------------------------------
 Center     Atomic                   Forces (Hartrees/Bohr)
 Number     Number              X              Y              Z
 -------------------------------------------------------------------
      1        6           0.001165341   -0.030696026   -0.006148888
      2        6          -0.006319288    0.020690672    0.005968034
      3        6          -0.008936921    0.000690865    0.003074166
      4        6          -0.008935748   -0.012461149    0.000603383
      5        6           0.005111388   -0.015470577   -0.004589347
      6        6           0.110755345   -0.005492065   -0.037520998
      7        6           0.025288468    0.008707917   -0.006696044
      8        6          -0.016174561   -0.004925218    0.004403817
      9        6          -0.008011531    0.016740534    0.005783430
     10        6           0.003304384    0.008357967    0.000481067
     11        6           0.029200877    0.005598460   -0.008568995
     12        6           0.048528202   -0.095436668   -0.033911349
     13        1           0.007380836   -0.004209153   -0.003222242
     14        1           0.008608013    0.000930414   -0.002661202
     15        1          -0.006023691    0.011235024    0.004094593
     16        1           0.007495965   -0.003442873   -0.003116296
     17        1           0.003226593   -0.008388616   -0.002638446
     18        1          -0.005773859   -0.008661212    0.000275533
     19       17          -1.716022868   -2.711352401    0.056164560
     20       17           1.531793014    2.829315422    0.026685664
     21       17          -0.005797904   -0.001225025    0.001680084
     22       17           0.000137944   -0.000506292   -0.000140523
 -------------------------------------------------------------------
 Cartesian Forces:  Max     2.829315422 RMS     0.559802469

 GradGradGradGradGradGradGradGradGradGradGradGradGradGradGradGradGradGrad
 Berny optimization.
 FormGI is forming the generalized inverse of G from B-inverse, IUseBI=4.
 Internal  Forces:  Max     3.117797459 RMS     0.292592894
 Search for a local minimum.
 Step number   1 out of a maximum of  129
 All quantities printed in internal units (Hartrees-Bohrs-Radians)
 Mixed Optimization -- RFO/linear search
 Second derivative matrix not updated -- first step.
 ITU=  0
     Eigenvalues ---    0.01035   0.01214   0.01489   0.01712   0.01738
     Eigenvalues ---    0.01829   0.02070   0.02070   0.02070   0.02070
     Eigenvalues ---    0.02070   0.02070   0.02070   0.02070   0.02070
     Eigenvalues ---    0.02070   0.02070   0.02070   0.03966   0.16000
     Eigenvalues ---    0.16000   0.16000   0.16000   0.16000   0.16000
     Eigenvalues ---    0.22099   0.22443   0.23514   0.23532   0.24620
     Eigenvalues ---    0.24915   0.25000   0.25000   0.25000   0.25000
     Eigenvalues ---    0.25000   0.28335   0.29043   0.29447   0.29539
     Eigenvalues ---    0.29539   0.37230   0.37230   0.37230   0.37230
     Eigenvalues ---    0.37230   0.37230   0.39940   0.40810   0.41412
     Eigenvalues ---    0.41549   0.44573   0.45130   0.45389   0.45389
     Eigenvalues ---    0.45389   0.45389   0.45389   0.45389  16.61567
 RFO step:  Lambda=-6.28221277D-01 EMin= 1.03510892D-02
 Linear search not attempted -- first point.
 Iteration  1 RMS(Cart)=  0.03265864 RMS(Int)=  0.00051465
 Iteration  2 RMS(Cart)=  0.00126381 RMS(Int)=  0.00023649
 Iteration  3 RMS(Cart)=  0.00000064 RMS(Int)=  0.00023649
 Variable       Old X    -DE/DX   Delta X   Delta X   Delta X     New X
                                 (Linear)    (Quad)   (Total)
    R1        2.64826   0.01863   0.00000   0.00268   0.00262   2.65088
    R2        2.64826   0.10239   0.00000   0.01720   0.01687   2.66514
    R3        2.91018   0.11935   0.00000  -0.01284  -0.01336   2.89682
    R4        2.64826  -0.01066   0.00000  -0.00756  -0.00755   2.64072
    R5        2.02201   0.00781   0.00000   0.00781   0.00781   2.02982
    R6        2.64826  -0.03042   0.00000  -0.01128  -0.01120   2.63706
    R7        2.02201   0.00903   0.00000   0.00902   0.00902   2.03103
    R8        2.64826  -0.02731   0.00000  -0.01070  -0.01064   2.63762
    R9        3.32592  -0.00037   0.00000  -0.00040  -0.00040   3.32552
   R10        2.64826  -0.00786   0.00000  -0.00956  -0.00957   2.63869
   R11        2.02201   0.01339   0.00000   0.01338   0.01338   2.03539
   R12        3.32592   0.04992   0.00000   0.12498   0.12524   3.45115
   R13        2.64826   0.01833   0.00000   0.00238   0.00231   2.65057
   R14        2.64826   0.10259   0.00000   0.01742   0.01707   2.66533
   R15        2.64826  -0.00983   0.00000  -0.00681  -0.00680   2.64146
   R16        2.02201   0.00802   0.00000   0.00801   0.00801   2.03002
   R17        2.64826  -0.03072   0.00000  -0.01155  -0.01148   2.63679
   R18        2.02201   0.00930   0.00000   0.00930   0.00930   2.03130
   R19        2.64826  -0.02674   0.00000  -0.01015  -0.01008   2.63818
   R20        2.02201   0.01039   0.00000   0.01039   0.01039   2.03239
   R21        2.64826  -0.00906   0.00000  -0.01065  -0.01065   2.63761
   R22        3.32592   0.00606   0.00000   0.00656   0.00656   3.33248
   R23        3.32592   0.05909   0.00000   0.13497   0.13519   3.46111
   R24        2.23252   3.11780   0.00000   0.18081   0.18133   2.41385
    A1        2.09440  -0.08204   0.00000  -0.01252  -0.01223   2.08216
    A2        2.09440  -0.16577   0.00000  -0.00122  -0.00056   2.09383
    A3        2.09440   0.24781   0.00000   0.01374   0.01280   2.10719
    A4        2.09440   0.04829   0.00000   0.00819   0.00803   2.10243
    A5        2.09440  -0.01945   0.00000   0.00185   0.00193   2.09633
    A6        2.09440  -0.02883   0.00000  -0.01004  -0.00996   2.08443
    A7        2.09440   0.00411   0.00000  -0.00310  -0.00312   2.09127
    A8        2.09440  -0.00130   0.00000   0.00251   0.00252   2.09692
    A9        2.09440  -0.00281   0.00000   0.00059   0.00060   2.09499
   A10        2.09440  -0.00259   0.00000   0.00475   0.00478   2.09917
   A11        2.09440   0.00063   0.00000  -0.00314  -0.00315   2.09124
   A12        2.09440   0.00196   0.00000  -0.00162  -0.00163   2.09277
   A13        2.09440   0.01721   0.00000   0.00339   0.00333   2.09773
   A14        2.09440  -0.00854   0.00000  -0.00161  -0.00158   2.09282
   A15        2.09440  -0.00868   0.00000  -0.00178  -0.00175   2.09264
   A16        2.09440   0.01502   0.00000  -0.00072  -0.00079   2.09361
   A17        2.09440   0.06980   0.00000   0.03154   0.03138   2.12577
   A18        2.09440  -0.08482   0.00000  -0.03082  -0.03059   2.06380
   A19        2.09440  -0.16758   0.00000  -0.00331  -0.00263   2.09176
   A20        2.09440   0.24622   0.00000   0.01198   0.01102   2.10542
   A21        2.09440  -0.07864   0.00000  -0.00867  -0.00839   2.08600
   A22        2.09440   0.04671   0.00000   0.00633   0.00615   2.10054
   A23        2.09440  -0.01964   0.00000   0.00154   0.00164   2.09603
   A24        2.09440  -0.02707   0.00000  -0.00788  -0.00778   2.08661
   A25        2.09440   0.00821   0.00000   0.00177   0.00174   2.09613
   A26        2.09440  -0.00300   0.00000   0.00052   0.00053   2.09493
   A27        2.09440  -0.00521   0.00000  -0.00229  -0.00227   2.09212
   A28        2.09440  -0.01162   0.00000  -0.00564  -0.00560   2.08879
   A29        2.09440   0.00647   0.00000   0.00365   0.00364   2.09803
   A30        2.09440   0.00515   0.00000   0.00198   0.00197   2.09636
   A31        2.09440   0.02823   0.00000   0.01592   0.01588   2.11027
   A32        2.09440  -0.01597   0.00000  -0.01007  -0.01005   2.08435
   A33        2.09440  -0.01227   0.00000  -0.00585  -0.00583   2.08856
   A34        2.09440   0.00711   0.00000  -0.00972  -0.00976   2.08463
   A35        2.09440   0.06716   0.00000   0.02862   0.02840   2.12279
   A36        2.09440  -0.07426   0.00000  -0.01889  -0.01863   2.07576
   A37        2.09440  -0.31479   0.00000  -0.04211  -0.04099   2.05341
   A38        2.09440  -0.31619   0.00000  -0.04377  -0.04261   2.05179
    D1        0.00000   0.00000   0.00000   0.00000   0.00000   0.00000
    D2        3.14159   0.00000   0.00000   0.00000   0.00000   3.14159
    D3       -3.14159   0.00000   0.00000   0.00000   0.00000  -3.14159
    D4       -0.00000   0.00000   0.00000   0.00000   0.00000  -0.00000
    D5       -0.00000  -0.00000   0.00000  -0.00000  -0.00000  -0.00000
    D6        3.14159  -0.00000   0.00000   0.00000   0.00000   3.14159
    D7        3.14159  -0.00000   0.00000  -0.00000  -0.00000   3.14159
    D8        0.00000  -0.00000   0.00000   0.00000   0.00000   0.00000
    D9       -0.00000  -0.00000   0.00000  -0.00000  -0.00000  -0.00000
   D10        3.14159  -0.00000   0.00000  -0.00000  -0.00000   3.14159
   D11        3.14159  -0.00000   0.00000  -0.00000  -0.00000   3.14159
   D12       -0.00000  -0.00000   0.00000  -0.00000  -0.00000  -0.00000
   D13        0.00000  -0.00000   0.00000  -0.00000  -0.00000   0.00000
   D14        3.14159  -0.00000   0.00000   0.00000   0.00000   3.14159
   D15       -3.14159   0.00000   0.00000  -0.00000  -0.00000  -3.14159
   D16        0.00000   0.00000   0.00000  -0.00000  -0.00000   0.00000
   D17       -0.00000  -0.00000   0.00000   0.00000   0.00000  -0.00000
   D18        3.14159   0.00000   0.00000  -0.00000  -0.00000   3.14159
   D19        3.14159  -0.00000   0.00000   0.00000   0.00000   3.14159
   D20        0.00000   0.00000   0.00000  -0.00000  -0.00000   0.00000
   D21        0.00000   0.00000   0.00000  -0.00000  -0.00000   0.00000
   D22       -3.14159   0.00000   0.00000  -0.00000  -0.00000  -3.14159
   D23       -3.14159  -0.00000   0.00000  -0.00000  -0.00000  -3.14159
   D24        0.00000   0.00000   0.00000   0.00000   0.00000   0.00000
   D25       -0.00000   0.00000   0.00000   0.00000   0.00000  -0.00000
   D26        3.14159   0.00000   0.00000   0.00000   0.00000   3.14159
   D27        3.14159  -0.00000   0.00000   0.00000   0.00000   3.14159
   D28       -0.00000   0.00000   0.00000  -0.00000  -0.00000  -0.00000
   D29        0.00001  -0.00000   0.00000  -0.00000  -0.00000   0.00001
   D30       -3.14158  -0.00000   0.00000  -0.00000  -0.00000  -3.14158
   D31        3.14159   0.00000   0.00000   0.00000   0.00000   3.14159
   D32        0.00000   0.00000   0.00000   0.00000   0.00000   0.00000
   D33        0.00000   0.00000   0.00000   0.00000   0.00000   0.00000
   D34       -3.14159   0.00000   0.00000  -0.00000  -0.00000  -3.14159
   D35       -3.14159  -0.00000   0.00000  -0.00000  -0.00000  -3.14159
   D36        0.00000  -0.00000   0.00000   0.00000   0.00000   0.00000
   D37       -0.00000  -0.00000   0.00000  -0.00000  -0.00000  -0.00000
   D38        3.14159  -0.00000   0.00000   0.00000   0.00000   3.14159
   D39       -0.00000  -0.00000   0.00000   0.00000   0.00000  -0.00000
   D40        3.14159  -0.00000   0.00000  -0.00000  -0.00000   3.14159
   D41        3.14159   0.00000   0.00000   0.00000   0.00000   3.14159
   D42       -0.00000   0.00000   0.00000   0.00000   0.00000  -0.00000
   D43       -0.00000  -0.00000   0.00000  -0.00000  -0.00000  -0.00000
   D44       -3.14159  -0.00000   0.00000  -0.00000  -0.00000  -3.14159
   D45        3.14159  -0.00000   0.00000   0.00000   0.00000   3.14159
   D46        0.00000   0.00000   0.00000  -0.00000  -0.00000   0.00000
   D47        0.00000   0.00000   0.00000  -0.00000  -0.00000   0.00000
   D48       -3.14159   0.00000   0.00000  -0.00000  -0.00000  -3.14159
   D49        3.14159  -0.00000   0.00000   0.00000   0.00000   3.14159
   D50        0.00000   0.00000   0.00000  -0.00000  -0.00000   0.00000
   D51        0.00000   0.00000   0.00000   0.00000   0.00000   0.00000
   D52       -3.14159   0.00000   0.00000  -0.00000  -0.00000  -3.14159
   D53        3.14159   0.00000   0.00000   0.00000   0.00000   3.14159
   D54       -0.00000   0.00000   0.00000  -0.00000  -0.00000  -0.00000
   D55        0.00001  -0.00000   0.00000  -0.00000  -0.00000   0.00001
   D56       -3.14158  -0.00000   0.00000  -0.00000  -0.00000  -3.14158
   D57       -0.00001   0.00000   0.00000   0.00000   0.00000  -0.00001
         Item               Value     Threshold  Converged?
 Maximum Force            3.117797     0.000450     NO 
 RMS     Force            0.292593     0.000300     NO 
 Maximum Displacement     0.196183     0.001800     NO 
 RMS     Displacement     0.031952     0.001200     NO 
 Predicted change in Energy=-3.366416D-01
 GradGradGradGradGradGradGradGradGradGradGradGradGradGradGradGradGradGrad

                          Input orientation:                          
 ---------------------------------------------------------------------
 Center     Atomic      Atomic             Coordinates (Angstroms)
 Number     Number       Type             X           Y           Z
 ---------------------------------------------------------------------
      1          6           0       -0.152536    0.361332   -0.000835
      2          6           0        1.181110    0.389745   -0.434876
      3          6           0        1.897230    1.589664   -0.445448
      4          6           0        1.282430    2.768490   -0.021504
      5          6           0       -0.044006    2.753531    0.412685
      6          6           0       -0.765155    1.557902    0.425720
      7          6           0       -0.927521   -0.961254    0.006093
      8          6           0       -0.300010   -2.140336   -0.422087
      9          6           0       -0.996763   -3.352101   -0.420117
     10          6           0       -2.323783   -3.395572    0.008915
     11          6           0       -2.951029   -2.223632    0.435668
     12          6           0       -2.268923   -1.005901    0.439644
     13          1           0        1.660525   -0.513895   -0.762532
     14          1           0        2.918806    1.605605   -0.779017
     15          1           0       -0.512748    3.666842    0.738641
     16          1           0        0.721341   -2.116932   -0.754181
     17          1           0       -0.510804   -4.252605   -0.749343
     18          1           0       -2.861534   -4.326975    0.011157
     19         17           0       -3.144330    0.498189    1.010538
     20         17           0       -2.496944    1.599318    1.004044
     21         17           0       -4.628346   -2.286278    0.976512
     22         17           0        2.184299    4.279555   -0.034836
 ---------------------------------------------------------------------
                    Distance matrix (angstroms):
                    1          2          3          4          5
     1  C    0.000000
     2  C    1.402786   0.000000
     3  C    2.430642   1.397407   0.000000
     4  C    2.802493   2.416521   1.395471   0.000000
     5  C    2.430101   2.794057   2.420615   1.395771   0.000000
     6  C    1.410330   2.427584   2.801471   2.420359   1.396336
     7  C    1.532933   2.542827   3.832791   4.335393   3.839992
     8  C    2.541170   2.931754   4.329123   5.173119   4.971148
     9  C    3.831201   4.329521   5.726856   6.543336   6.235387
    10  C    4.339209   5.177822   6.547974   7.141523   6.570531
    11  C    3.834598   4.966100   6.230827   6.561438   5.763980
    12  C    2.557820   3.823001   4.987702   5.202960   4.368560
    13  H    2.152532   1.074133   2.140451   3.386168   3.868156
    14  H    3.403957   2.148567   1.074774   2.145659   3.393544
    15  H    3.406314   3.871132   3.394810   2.146514   1.077081
    16  H    2.733677   2.568418   3.900883   4.971820   5.066434
    17  H    4.687967   4.951047   6.326380   7.282940   7.117173
    18  H    5.414705   6.228110   7.606637   8.217002   7.631071
    19  Cl   3.161081   4.561842   5.359901   5.080904   3.880207
    20  Cl   2.835249   4.130574   4.627082   4.086855   2.774675
    21  Cl   5.291306   6.550029   7.721919   7.841173   6.836209
    22  Cl   4.562283   4.036960   2.736151   1.759790   2.737584
                    6          7          8          9         10
     6  C    0.000000
     7  C    2.559022   0.000000
     8  C    3.822578   1.402620   0.000000
     9  C    4.987706   2.429527   1.397800   0.000000
    10  C    5.209601   2.806325   2.420131   1.395327   0.000000
    11  C    4.367854   2.423370   2.787577   2.413496   1.396065
    12  C    2.972305   1.410432   2.430255   2.803967   2.428798
    13  H    3.404146   2.736584   2.570001   3.903055   4.977338
    14  H    3.876240   4.690351   4.951792   6.327664   7.288164
    15  H    2.146918   4.704034   5.925864   7.130396   7.327348
    16  H    4.135970   2.152291   1.074240   2.142224   3.389692
    17  H    5.933587   3.402547   2.147839   1.074920   2.143910
    18  H    6.260866   3.881818   3.395658   2.147963   1.075497
    19  Cl   2.669359   2.837803   4.135745   4.635035   4.103403
    20  Cl   1.826272   3.164731   4.565674   5.366127   5.095997
    21  Cl   5.477713   4.048890   4.551030   4.034222   2.734555
    22  Cl   4.039652   6.095176   6.894690   8.277063   8.901251
                   11         12         13         14         15
    11  C    0.000000
    12  C    1.395763   0.000000
    13  H    5.062145   4.138581   0.000000
    14  H    7.112909   5.934444   2.464919   0.000000
    15  H    6.382374   5.000808   4.945220   4.281069   0.000000
    16  H    3.861791   3.406066   1.857919   4.322818   6.099471
    17  H    3.387577   3.878886   4.323516   6.788352   8.058023
    18  H    2.147619   3.400635   5.965499   8.320589   8.363440
    19  Cl   2.788575   1.831542   5.220605   6.417982   4.127894
    20  Cl   3.891554   2.675389   4.987084   5.701728   2.877869
    21  Cl   1.763471   2.737603   6.761325   8.671110   7.241158
    22  Cl   8.299663   6.927652   4.876581   2.871117   2.871890
                   16         17         18         19         20
    16  H    0.000000
    17  H    2.465624   0.000000
    18  H    4.278671   2.471805   0.000000
    19  Cl   4.989640   5.709876   4.935680   0.000000
    20  Cl   5.221037   6.423715   6.019941   1.277354   0.000000
    21  Cl   5.625223   4.878439   2.866702   3.155427   4.431871
    22  Cl   6.600966   8.976182   9.976718   6.617085   5.493358
                   21         22
    21  Cl   0.000000
    22  Cl   9.515520   0.000000
 Stoichiometry    C12H6Cl4
 Framework group  C1[X(C12H6Cl4)]
 Deg. of freedom    60
 Full point group                 C1      NOp   1
 Largest Abelian subgroup         C1      NOp   1
 Largest concise Abelian subgroup C1      NOp   1
                         Standard orientation:                         
 ---------------------------------------------------------------------
 Center     Atomic      Atomic             Coordinates (Angstroms)
 Number     Number       Type             X           Y           Z
 ---------------------------------------------------------------------
      1          6           0        0.775813    0.771680    0.000002
      2          6           0        1.719645    1.809461   -0.000000
      3          6           0        3.087394    1.523088   -0.000002
      4          6           0        3.518517    0.195883   -0.000002
      5          6           0        2.589452   -0.845758    0.000002
      6          6           0        1.221340   -0.566429    0.000004
      7          6           0       -0.721830    1.098708    0.000003
      8          6           0       -1.144340    2.436179    0.000003
      9          6           0       -2.507291    2.746352    0.000002
     10          6           0       -3.457480    1.724550    0.000001
     11          6           0       -3.039979    0.392375    0.000000
     12          6           0       -1.682831    0.066334    0.000001
     13          1           0        1.394795    2.833295   -0.000002
     14          1           0        3.806140    2.322177   -0.000004
     15          1           0        2.928718   -1.868012    0.000005
     16          1           0       -0.420326    3.229776    0.000002
     17          1           0       -2.825332    3.773144    0.000003
     18          1           0       -4.506616    1.961210   -0.000001
     19         17           0       -1.195724   -1.699246   -0.000003
     20         17           0        0.052650   -1.969793    0.000007
     21         17           0       -4.246589   -0.893675   -0.000006
     22         17           0        5.240967   -0.164705   -0.000004
 ---------------------------------------------------------------------
 Rotational constants (GHZ):           0.8269461           0.2033684           0.1632265
 Standard basis: 6-311+G(d,p) (5D, 7F)
 There are   436 symmetry adapted cartesian basis functions of A   symmetry.
 There are   420 symmetry adapted basis functions of A   symmetry.
   420 basis functions,   692 primitive gaussians,   436 cartesian basis functions
    73 alpha electrons       73 beta electrons
       nuclear repulsion energy      1546.2737774026 Hartrees.
 NAtoms=   22 NActive=   22 NUniq=   22 SFac= 1.00D+00 NAtFMM=   60 NAOKFM=F Big=F
 Integral buffers will be    131072 words long.
 Raffenetti 2 integral format.
 Two-electron integral symmetry is turned on.
 One-electron integrals computed using PRISM.
 NBasis=   420 RedAO= T EigKep=  1.13D-06  NBF=   420
 NBsUse=   415 1.00D-06 EigRej=  6.91D-07 NBFU=   415
 Initial guess from the checkpoint file:  "/scratch/pkc/Gau-34555.chk"
 B after Tr=    -0.000000    0.000000   -0.000000
         Rot=    0.999999   -0.000000   -0.000000    0.001343 Ang=  -0.15 deg.
 ExpMin= 4.38D-02 ExpMax= 1.06D+05 ExpMxC= 3.62D+03 IAcc=3 IRadAn=         5 AccDes= 0.00D+00
 Harris functional with IExCor=  402 and IRadAn=       5 diagonalized for initial guess.
 HarFok:  IExCor=  402 AccDes= 0.00D+00 IRadAn=         5 IDoV= 1 UseB2=F ITyADJ=14
 ICtDFT=  3500011 ScaDFX=  1.000000  1.000000  1.000000  1.000000
 FoFCou: FMM=F IPFlag=           0 FMFlag=      100000 FMFlg1=           0
         NFxFlg=           0 DoJE=T BraDBF=F KetDBF=T FulRan=T
         wScrn=  0.000000 ICntrl=       500 IOpCl=  0 I1Cent=   200000004 NGrid=           0
         NMat0=    1 NMatS0=      1 NMatT0=    0 NMatD0=    1 NMtDS0=    0 NMtDT0=    0
 Petite list used in FoFCou.
 Requested convergence on RMS density matrix=1.00D-08 within  32 cycles.
 Requested convergence on MAX density matrix=1.00D-06.
 Requested convergence on             energy=1.00D-06.
 No special actions if energy rises.
 SCF Done:  E(RB3LYP) =  -2300.78931834     A.U. after   17 cycles
            NFock= 17  Conv=0.47D-08     -V/T= 2.0004
 QCSCF skips out because SCF is already converged.
 Calling FoFJK, ICntrl=      2127 FMM=F ISym2X=0 I1Cent= 0 IOpClX= 0 NMat=1 NMatS=1 NMatT=0.
 ***** Axes restored to original set *****
 -------------------------------------------------------------------
 Center     Atomic                   Forces (Hartrees/Bohr)
 Number     Number              X              Y              Z
 -------------------------------------------------------------------
      1        6          -0.002257189   -0.024688276   -0.003893056
      2        6          -0.004673897    0.014917370    0.004341642
      3        6          -0.004330075   -0.000447666    0.001342591
      4        6          -0.005295729   -0.007639537    0.000309709
      5        6          -0.001728438   -0.010170996   -0.001340651
      6        6           0.091355283   -0.018053362   -0.033488487
      7        6           0.018723320    0.009835909   -0.004321213
      8        6          -0.011171178   -0.003694729    0.002986544
      9        6          -0.003769122    0.011494101    0.003400405
     10        6          -0.000175407    0.001918305    0.000418094
     11        6           0.023866081    0.008932396   -0.006185233
     12        6           0.051269921   -0.074803840   -0.030939776
     13        1           0.005518210   -0.002209770   -0.002233082
     14        1           0.005302577    0.000610797   -0.001632238
     15        1          -0.003540411    0.007501874    0.002575357
     16        1           0.004703899   -0.003027961   -0.002118516
     17        1           0.002085699   -0.005307603   -0.001683929
     18        1          -0.003694277   -0.005283619    0.000224739
     19       17          -1.104453850   -1.690502149    0.046394203
     20       17           0.948676696    1.791115917    0.023823753
     21       17          -0.006998714   -0.001003636    0.002117271
     22       17           0.000586601    0.000506475   -0.000098128
 -------------------------------------------------------------------
 Cartesian Forces:  Max     1.791115917 RMS     0.352701268

 GradGradGradGradGradGradGradGradGradGradGradGradGradGradGradGradGradGrad
 Berny optimization.
 Using GEDIIS/GDIIS optimizer.
 FormGI is forming the generalized inverse of G from B-inverse, IUseBI=4.
 Internal  Forces:  Max     1.970086284 RMS     0.184884727
 Search for a local minimum.
 Step number   2 out of a maximum of  129
 All quantities printed in internal units (Hartrees-Bohrs-Radians)
 Mixed Optimization -- RFO/linear search
 Update second derivatives using D2CorX and points    1    2
 DE= -5.09D-01 DEPred=-3.37D-01 R= 1.51D+00
 TightC=F SS=  1.41D+00  RLast= 2.77D-01 DXNew= 5.0454D-01 8.3230D-01
 Trust test= 1.51D+00 RLast= 2.77D-01 DXMaxT set to 5.05D-01
 ITU=  1  0
 Use linear search instead of GDIIS.
 Linear search step of   0.555 exceeds DXMaxT=   0.505 but not scaled.
 Quartic linear search produced a step of  2.00000.
 Iteration  1 RMS(Cart)=  0.04087157 RMS(Int)=  0.01650560
 Iteration  2 RMS(Cart)=  0.02360635 RMS(Int)=  0.00130896
 Iteration  3 RMS(Cart)=  0.00024091 RMS(Int)=  0.00130318
 Iteration  4 RMS(Cart)=  0.00000011 RMS(Int)=  0.00130318
 Variable       Old X    -DE/DX   Delta X   Delta X   Delta X     New X
                                 (Linear)    (Quad)   (Total)
    R1        2.65088   0.01254   0.00524   0.00000   0.00491   2.65579
    R2        2.66514   0.06065   0.03375   0.00000   0.03199   2.69713
    R3        2.89682   0.06160  -0.02671   0.00000  -0.02938   2.86744
    R4        2.64072  -0.00693  -0.01509   0.00000  -0.01501   2.62571
    R5        2.02982   0.00500   0.01562   0.00000   0.01562   2.04544
    R6        2.63706  -0.01881  -0.02241   0.00000  -0.02199   2.61507
    R7        2.03103   0.00556   0.01804   0.00000   0.01804   2.04907
    R8        2.63762  -0.01588  -0.02127   0.00000  -0.02094   2.61669
    R9        3.32552   0.00074  -0.00079   0.00000  -0.00079   3.32473
   R10        2.63869  -0.00608  -0.01914   0.00000  -0.01921   2.61948
   R11        2.03539   0.00868   0.02676   0.00000   0.02676   2.06215
   R12        3.45115   0.05994   0.25047   0.00000   0.25158   3.70274
   R13        2.65057   0.01237   0.00461   0.00000   0.00421   2.65478
   R14        2.66533   0.06095   0.03414   0.00000   0.03223   2.69756
   R15        2.64146  -0.00670  -0.01361   0.00000  -0.01358   2.62788
   R16        2.03002   0.00506   0.01603   0.00000   0.01603   2.04604
   R17        2.63679  -0.01859  -0.02295   0.00000  -0.02252   2.61427
   R18        2.03130   0.00590   0.01860   0.00000   0.01860   2.04990
   R19        2.63818  -0.01549  -0.02016   0.00000  -0.01976   2.61842
   R20        2.03239   0.00642   0.02077   0.00000   0.02077   2.05317
   R21        2.63761  -0.00839  -0.02131   0.00000  -0.02132   2.61629
   R22        3.33248   0.00734   0.01312   0.00000   0.01312   3.34560
   R23        3.46111   0.06849   0.27039   0.00000   0.27138   3.73249
   R24        2.41385   1.97009   0.36265   0.00000   0.36533   2.77918
    A1        2.08216  -0.05003  -0.02447   0.00000  -0.02296   2.05920
    A2        2.09383  -0.09770  -0.00113   0.00000   0.00248   2.09631
    A3        2.10719   0.14773   0.02559   0.00000   0.02048   2.12767
    A4        2.10243   0.03041   0.01606   0.00000   0.01518   2.11761
    A5        2.09633  -0.01124   0.00387   0.00000   0.00431   2.10063
    A6        2.08443  -0.01918  -0.01993   0.00000  -0.01949   2.06494
    A7        2.09127   0.00147  -0.00624   0.00000  -0.00635   2.08492
    A8        2.09692  -0.00019   0.00504   0.00000   0.00510   2.10202
    A9        2.09499  -0.00128   0.00120   0.00000   0.00126   2.09625
   A10        2.09917  -0.00207   0.00956   0.00000   0.00970   2.10887
   A11        2.09124   0.00060  -0.00630   0.00000  -0.00637   2.08487
   A12        2.09277   0.00147  -0.00326   0.00000  -0.00333   2.08944
   A13        2.09773   0.01153   0.00667   0.00000   0.00631   2.10403
   A14        2.09282  -0.00605  -0.00316   0.00000  -0.00298   2.08984
   A15        2.09264  -0.00548  -0.00351   0.00000  -0.00333   2.08932
   A16        2.09361   0.00868  -0.00158   0.00000  -0.00187   2.09173
   A17        2.12577   0.05533   0.06276   0.00000   0.06167   2.18744
   A18        2.06380  -0.06401  -0.06118   0.00000  -0.05979   2.00401
   A19        2.09176  -0.09928  -0.00526   0.00000  -0.00151   2.09026
   A20        2.10542   0.14646   0.02204   0.00000   0.01683   2.12225
   A21        2.08600  -0.04717  -0.01678   0.00000  -0.01532   2.07068
   A22        2.10054   0.02892   0.01229   0.00000   0.01125   2.11179
   A23        2.09603  -0.01122   0.00327   0.00000   0.00380   2.09983
   A24        2.08661  -0.01770  -0.01556   0.00000  -0.01504   2.07157
   A25        2.09613   0.00449   0.00347   0.00000   0.00329   2.09942
   A26        2.09493  -0.00154   0.00107   0.00000   0.00116   2.09609
   A27        2.09212  -0.00295  -0.00454   0.00000  -0.00445   2.08767
   A28        2.08879  -0.00916  -0.01121   0.00000  -0.01101   2.07778
   A29        2.09803   0.00519   0.00727   0.00000   0.00718   2.10521
   A30        2.09636   0.00397   0.00394   0.00000   0.00384   2.10020
   A31        2.11027   0.02057   0.03175   0.00000   0.03147   2.14174
   A32        2.08435  -0.01154  -0.02009   0.00000  -0.01995   2.06440
   A33        2.08856  -0.00903  -0.01166   0.00000  -0.01152   2.07704
   A34        2.08463   0.00235  -0.01952   0.00000  -0.01967   2.06496
   A35        2.12279   0.05263   0.05679   0.00000   0.05539   2.17818
   A36        2.07576  -0.05498  -0.03727   0.00000  -0.03572   2.04004
   A37        2.05341  -0.20094  -0.08197   0.00000  -0.07566   1.97775
   A38        2.05179  -0.20121  -0.08522   0.00000  -0.07870   1.97308
    D1        0.00000   0.00000   0.00000   0.00000   0.00000   0.00000
    D2        3.14159   0.00000   0.00000   0.00000   0.00000   3.14159
    D3       -3.14159   0.00000   0.00000   0.00000   0.00000  -3.14159
    D4       -0.00000   0.00000   0.00000   0.00000   0.00000  -0.00000
    D5       -0.00000  -0.00000  -0.00000   0.00000  -0.00000  -0.00000
    D6        3.14159  -0.00000   0.00000   0.00000   0.00000   3.14159
    D7        3.14159  -0.00000  -0.00000   0.00000  -0.00000   3.14159
    D8        0.00000  -0.00000   0.00000   0.00000   0.00000   0.00000
    D9       -0.00000  -0.00000  -0.00000   0.00000  -0.00000  -0.00000
   D10        3.14159  -0.00000  -0.00000   0.00000  -0.00000   3.14159
   D11        3.14159  -0.00000  -0.00000   0.00000  -0.00000   3.14159
   D12       -0.00000  -0.00000  -0.00000   0.00000  -0.00000  -0.00000
   D13        0.00000  -0.00000  -0.00000   0.00000  -0.00000   0.00000
   D14        3.14159  -0.00000   0.00000   0.00000   0.00000   3.14159
   D15       -3.14159   0.00000  -0.00000   0.00000  -0.00000  -3.14159
   D16        0.00000   0.00000  -0.00000   0.00000  -0.00000   0.00000
   D17       -0.00000  -0.00000   0.00000   0.00000   0.00000  -0.00000
   D18        3.14159   0.00000  -0.00000   0.00000  -0.00000   3.14159
   D19        3.14159  -0.00000   0.00000   0.00000   0.00000   3.14159
   D20        0.00000   0.00000  -0.00000   0.00000  -0.00000   0.00000
   D21        0.00000   0.00000  -0.00000   0.00000  -0.00000   0.00000
   D22       -3.14159   0.00000  -0.00000   0.00000  -0.00000  -3.14159
   D23       -3.14159  -0.00000  -0.00000   0.00000  -0.00000  -3.14159
   D24        0.00000   0.00000   0.00000   0.00000   0.00000   0.00000
   D25       -0.00000   0.00000   0.00000   0.00000   0.00000  -0.00000
   D26        3.14159   0.00000   0.00000   0.00000  -0.00000   3.14159
   D27        3.14159  -0.00000   0.00000   0.00000   0.00000   3.14159
   D28       -0.00000   0.00000  -0.00000   0.00000  -0.00000  -0.00000
   D29        0.00001  -0.00000  -0.00000   0.00000  -0.00000   0.00001
   D30       -3.14158  -0.00000  -0.00000   0.00000  -0.00000  -3.14158
   D31        3.14159   0.00000   0.00000   0.00000   0.00000   3.14159
   D32        0.00000   0.00000   0.00000   0.00000   0.00000   0.00000
   D33        0.00000   0.00000   0.00000   0.00000   0.00000   0.00000
   D34       -3.14159   0.00000  -0.00000   0.00000  -0.00000  -3.14159
   D35       -3.14159  -0.00000  -0.00000   0.00000  -0.00000  -3.14159
   D36        0.00000  -0.00000   0.00000   0.00000   0.00000   0.00000
   D37       -0.00000  -0.00000  -0.00000   0.00000  -0.00000  -0.00000
   D38        3.14159  -0.00000   0.00000   0.00000   0.00000   3.14159
   D39       -0.00000  -0.00000   0.00000   0.00000   0.00000  -0.00000
   D40        3.14159  -0.00000  -0.00000   0.00000  -0.00000   3.14159
   D41        3.14159   0.00000   0.00000   0.00000   0.00000   3.14159
   D42       -0.00000   0.00000   0.00000   0.00000   0.00000  -0.00000
   D43       -0.00000  -0.00000  -0.00000   0.00000  -0.00000  -0.00000
   D44       -3.14159  -0.00000  -0.00000   0.00000  -0.00000  -3.14159
   D45        3.14159  -0.00000   0.00000   0.00000   0.00000   3.14159
   D46        0.00000   0.00000  -0.00000   0.00000  -0.00000   0.00000
   D47        0.00000   0.00000  -0.00000   0.00000  -0.00000   0.00000
   D48       -3.14159   0.00000  -0.00000   0.00000  -0.00000  -3.14159
   D49        3.14159  -0.00000   0.00000   0.00000   0.00000   3.14159
   D50        0.00000   0.00000  -0.00000   0.00000  -0.00000   0.00000
   D51        0.00000   0.00000   0.00000   0.00000   0.00000   0.00000
   D52       -3.14159   0.00000  -0.00000   0.00000  -0.00000  -3.14159
   D53        3.14159   0.00000   0.00000   0.00000   0.00000   3.14159
   D54       -0.00000   0.00000  -0.00000   0.00000  -0.00000  -0.00000
   D55        0.00001  -0.00000  -0.00000   0.00000  -0.00000   0.00001
   D56       -3.14158  -0.00000  -0.00000   0.00000  -0.00000  -3.14158
   D57       -0.00001   0.00000   0.00000   0.00000   0.00000  -0.00001
         Item               Value     Threshold  Converged?
 Maximum Force            1.970086     0.000450     NO 
 RMS     Force            0.184885     0.000300     NO 
 Maximum Displacement     0.377850     0.001800     NO 
 RMS     Displacement     0.059180     0.001200     NO 
 Predicted change in Energy=-3.677776D-01
 GradGradGradGradGradGradGradGradGradGradGradGradGradGradGradGradGradGrad

                          Input orientation:                          
 ---------------------------------------------------------------------
 Center     Atomic      Atomic             Coordinates (Angstroms)
 Number     Number       Type             X           Y           Z
 ---------------------------------------------------------------------
      1          6           0       -0.160631    0.355440    0.000725
      2          6           0        1.175560    0.386083   -0.433735
[...]

 Orbital symmetries:
       Occupied  (A) (A) (A) (A) (A) (A) (A) (A) (A) (A) (A) (A)
                 (A) (A) (A) (A) (A) (A) (A) (A) (A) (A) (A) (A)
                 (A) (A) (A) (A) (A) (A) (A) (A) (A) (A) (A) (A)
                 (A) (A) (A) (A) (A) (A) (A) (A) (A) (A) (A) (A)
                 (A) (A) (A) (A) (A) (A) (A) (A) (A) (A) (A) (A)
                 (A) (A) (A) (A) (A) (A) (A) (A) (A) (A) (A) (A)
                 (A)
       Virtual   (A) (A) (A) (A) (A) (A) (A) (A) (A) (A) (A) (A)
                 (A) (A) (A) (A) (A) (A) (A) (A) (A) (A) (A) (A)
                 (A) (A) (A) (A) (A) (A) (A) (A) (A) (A) (A) (A)
                 (A) (A) (A) (A) (A) (A) (A) (A) (A) (A) (A) (A)
                 (A) (A) (A) (A) (A) (A) (A) (A) (A) (A) (A) (A)
                 (A) (A) (A) (A) (A) (A) (A) (A) (A) (A) (A) (A)
                 (A) (A) (A) (A) (A) (A) (A) (A) (A) (A) (A) (A)
                 (A) (A) (A) (A) (A) (A) (A) (A) (A) (A) (A) (A)
                 (A) (A) (A) (A) (A) (A) (A) (A) (A) (A) (A) (A)
                 (A) (A) (A) (A) (A) (A) (A) (A) (A) (A) (A) (A)
                 (A) (A) (A) (A) (A) (A) (A) (A) (A) (A) (A) (A)
                 (A) (A) (A) (A) (A) (A) (A) (A) (A) (A) (A) (A)
                 (A) (A) (A) (A) (A) (A) (A) (A) (A) (A) (A) (A)
                 (A) (A) (A) (A) (A) (A) (A) (A) (A) (A) (A) (A)
                 (A) (A) (A) (A) (A) (A) (A) (A) (A) (A) (A) (A)
                 (A) (A) (A) (A) (A) (A) (A) (A) (A) (A) (A) (A)
                 (A) (A) (A) (A) (A) (A) (A) (A) (A) (A) (A) (A)
                 (A) (A) (A) (A) (A) (A) (A) (A) (A) (A) (A) (A)
                 (A) (A) (A) (A) (A) (A) (A) (A) (A) (A) (A) (A)
                 (A) (A) (A) (A) (A) (A) (A) (A) (A) (A) (A) (A)
                 (A) (A) (A) (A) (A) (A) (A) (A) (A) (A) (A) (A)
                 (A) (A) (A) (A) (A) (A) (A) (A) (A) (A) (A) (A)
                 (A) (A) (A) (A) (A) (A) (A) (A) (A) (A) (A) (A)
                 (A) (A) (A) (A) (A) (A) (A) (A) (A) (A) (A) (A)
                 (A) (A) (A) (A) (A) (A) (A) (A) (A) (A) (A) (A)
                 (A) (A) (A) (A) (A) (A) (A) (A) (A) (A) (A) (A)
                 (A) (A) (A) (A) (A) (A) (A) (A) (A) (A) (A) (A)
                 (A) (A) (A) (A) (A) (A) (A) (A) (A) (A) (A) (A)
                 (A) (A) (A) (A) (A) (A) (A) (A)
 The electronic state is 1-A.
 Alpha  occ. eigenvalues -- -101.56776-101.56716-101.56679-101.56667 -10.26353
 Alpha  occ. eigenvalues --  -10.26223 -10.26165 -10.26017 -10.22292 -10.22081
 Alpha  occ. eigenvalues --  -10.21075 -10.20951 -10.20759 -10.20636 -10.20422
 Alpha  occ. eigenvalues --  -10.20359  -9.48231  -9.48177  -9.48154  -9.48138
 Alpha  occ. eigenvalues --   -7.24697  -7.24657  -7.24634  -7.24605  -7.23712
 Alpha  occ. eigenvalues --   -7.23675  -7.23659  -7.23640  -7.23621  -7.23601
 Alpha  occ. eigenvalues --   -7.23574  -7.23570  -0.93641  -0.92268  -0.88992
 Alpha  occ. eigenvalues --   -0.87180  -0.85936  -0.84367  -0.79454  -0.76811
 Alpha  occ. eigenvalues --   -0.75007  -0.74081  -0.65428  -0.64050  -0.62415
 Alpha  occ. eigenvalues --   -0.60703  -0.55079  -0.52376  -0.51488  -0.50985
 Alpha  occ. eigenvalues --   -0.48906  -0.47499  -0.45728  -0.45553  -0.45422
 Alpha  occ. eigenvalues --   -0.43145  -0.42860  -0.41551  -0.39661  -0.39539
 Alpha  occ. eigenvalues --   -0.38546  -0.37633  -0.35847  -0.35121  -0.33984
 Alpha  occ. eigenvalues --   -0.33662  -0.33365  -0.32712  -0.31792  -0.27834
 Alpha  occ. eigenvalues --   -0.27598  -0.26462  -0.26391
 Alpha virt. eigenvalues --   -0.05177  -0.04854  -0.04181  -0.03684  -0.02079
 Alpha virt. eigenvalues --   -0.01219  -0.00464   0.00835   0.01668   0.01815
 Alpha virt. eigenvalues --    0.02127   0.02791   0.03177   0.03940   0.04760
 Alpha virt. eigenvalues --    0.04906   0.05410   0.05959   0.06099   0.06862
 Alpha virt. eigenvalues --    0.06954   0.08314   0.08345   0.08801   0.09280
 Alpha virt. eigenvalues --    0.09597   0.09954   0.10249   0.10474   0.11015
 Alpha virt. eigenvalues --    0.11850   0.12005   0.12184   0.12352   0.12680
 Alpha virt. eigenvalues --    0.13199   0.13482   0.14038   0.14447   0.14814
 Alpha virt. eigenvalues --    0.15321   0.15897   0.16044   0.16345   0.17383
 Alpha virt. eigenvalues --    0.17533   0.17623   0.18292   0.18540   0.18738
 Alpha virt. eigenvalues --    0.18941   0.19062   0.19487   0.20095   0.20192
 Alpha virt. eigenvalues --    0.20513   0.20734   0.21667   0.22079   0.22455
 Alpha virt. eigenvalues --    0.22702   0.23114   0.23722   0.23877   0.24657
 Alpha virt. eigenvalues --    0.24893   0.25408   0.25610   0.25788   0.26767
 Alpha virt. eigenvalues --    0.27000   0.27225   0.28094   0.28485   0.28656
 Alpha virt. eigenvalues --    0.28809   0.29304   0.29960   0.30166   0.30966
 Alpha virt. eigenvalues --    0.31601   0.32616   0.33332   0.33980   0.34410
 Alpha virt. eigenvalues --    0.36817   0.41150   0.42545   0.42781   0.44146
 Alpha virt. eigenvalues --    0.44740   0.45434   0.45913   0.46425   0.47343
 Alpha virt. eigenvalues --    0.47724   0.48431   0.49059   0.50085   0.50814
 Alpha virt. eigenvalues --    0.51327   0.51610   0.52825   0.54107   0.54195
 Alpha virt. eigenvalues --    0.54833   0.56238   0.56713   0.57224   0.58112
 Alpha virt. eigenvalues --    0.58389   0.59020   0.59117   0.61364   0.61970
 Alpha virt. eigenvalues --    0.63353   0.63431   0.64160   0.64395   0.64776
 Alpha virt. eigenvalues --    0.65093   0.66027   0.67363   0.68207   0.68977
 Alpha virt. eigenvalues --    0.69238   0.69761   0.70100   0.70943   0.71616
 Alpha virt. eigenvalues --    0.72446   0.73922   0.75624   0.78800   0.80761
 Alpha virt. eigenvalues --    0.81078   0.81537   0.82605   0.83135   0.83523
 Alpha virt. eigenvalues --    0.84072   0.84421   0.84718   0.85054   0.85131
 Alpha virt. eigenvalues --    0.85451   0.86117   0.86949   0.87580   0.88055
 Alpha virt. eigenvalues --    0.88907   0.89466   0.89861   0.90868   0.92505
 Alpha virt. eigenvalues --    0.92663   0.94324   0.94781   0.95146   0.95612
 Alpha virt. eigenvalues --    0.96814   0.97007   0.97830   0.98142   0.98333
 Alpha virt. eigenvalues --    0.99623   1.00268   1.01731   1.02155   1.03570
 Alpha virt. eigenvalues --    1.04888   1.05658   1.08060   1.11842   1.12958
 Alpha virt. eigenvalues --    1.13843   1.16551   1.18862   1.20279   1.23884
 Alpha virt. eigenvalues --    1.24203   1.24535   1.25697   1.26735   1.27100
 Alpha virt. eigenvalues --    1.30199   1.31622   1.31871   1.34131   1.35877
 Alpha virt. eigenvalues --    1.39628   1.40074   1.43225   1.48609   1.49092
 Alpha virt. eigenvalues --    1.49508   1.51653   1.54529   1.55230   1.55708
 Alpha virt. eigenvalues --    1.56332   1.58182   1.60262   1.60619   1.62525
 Alpha virt. eigenvalues --    1.64381   1.65948   1.68622   1.69554   1.71616
 Alpha virt. eigenvalues --    1.72112   1.73579   1.76605   1.78915   1.81506
 Alpha virt. eigenvalues --    1.82538   1.83510   1.85921   1.87471   1.88396
 Alpha virt. eigenvalues --    1.90681   1.90900   1.92686   1.93679   1.94210
 Alpha virt. eigenvalues --    1.95179   1.96809   1.99630   2.00489   2.00807
 Alpha virt. eigenvalues --    2.02802   2.03838   2.05717   2.07228   2.14208
 Alpha virt. eigenvalues --    2.15212   2.17933   2.19931   2.23499   2.25512
 Alpha virt. eigenvalues --    2.26762   2.27069   2.28902   2.30057   2.31963
 Alpha virt. eigenvalues --    2.32340   2.35795   2.36251   2.39185   2.39668
 Alpha virt. eigenvalues --    2.41470   2.44395   2.45277   2.48589   2.50126
 Alpha virt. eigenvalues --    2.50981   2.53221   2.54447   2.55854   2.56557
 Alpha virt. eigenvalues --    2.59230   2.61502   2.67517   2.67712   2.69089
 Alpha virt. eigenvalues --    2.69177   2.70373   2.71752   2.72770   2.74214
 Alpha virt. eigenvalues --    2.74651   2.75749   2.76422   2.78059   2.78184
 Alpha virt. eigenvalues --    2.78986   2.83257   2.83769   2.84669   2.84931
 Alpha virt. eigenvalues --    2.88033   2.90807   2.98307   2.98954   3.09517
 Alpha virt. eigenvalues --    3.09701   3.12015   3.13322   3.14121   3.18213
 Alpha virt. eigenvalues --    3.21109   3.21769   3.27257   3.32401   3.35433
 Alpha virt. eigenvalues --    3.38939   3.44088   3.51339   3.54678   3.59563
 Alpha virt. eigenvalues --    3.69195   3.72486   3.79470   3.84432   3.95414
 Alpha virt. eigenvalues --    4.04348   4.06199   4.09839   4.12426   4.34641
 Alpha virt. eigenvalues --    4.81226   4.82057   9.76872   9.78038   9.81586
 Alpha virt. eigenvalues --    9.83724  23.41176  23.56361  23.86190  23.88927
 Alpha virt. eigenvalues --   23.89223  23.92602  23.96462  24.02239  24.05253
 Alpha virt. eigenvalues --   24.08304  24.13724  24.16130  25.80699  25.82268
 Alpha virt. eigenvalues --   25.88052  25.96724  26.10319  26.16286  26.20786
 Alpha virt. eigenvalues --   26.33331  26.56674  26.57705  26.70393  26.87998
 Alpha virt. eigenvalues --  215.75962 215.77339 215.81784 215.83913
          Condensed to atoms (all electrons):
               1          2          3          4          5          6
     1  C   34.271442  -4.817412  -1.894586  -4.325892   1.056315  -1.691666
     2  C   -4.817412  15.640489  -1.013947  -0.165459   1.534349  -7.524489
     3  C   -1.894586  -1.013947  18.972923  -2.983942  -9.707443   1.668550
     4  C   -4.325892  -0.165459  -2.983942  18.020142  -0.489278  -1.812921
     5  C    1.056315   1.534349  -9.707443  -0.489278  22.259281  -4.162171
     6  C   -1.691666  -7.524489   1.668550  -1.812921  -4.162171  30.377260
     7  C    0.612794   0.313774   0.232299  -1.044466  -2.347054  -4.634553
     8  C   -2.435979   0.138142   0.534673  -0.283991  -0.398083  -2.187723
     9  C    1.658864  -0.654150   0.135619  -0.014268   0.087816   0.492642
    10  C   -3.386901   0.782246  -0.125584   0.033758  -0.080962  -0.414435
    11  C    1.428020  -0.698941   0.055952   0.009972  -0.062285   0.358901
    12  C  -12.265422   2.645667  -0.235281  -0.114168  -1.531260  -3.359269
    13  H   -0.020166   0.356197  -0.064183  -0.008755  -0.039547  -0.038160
    14  H    0.006833  -0.051818   0.294651   0.045133   0.060111  -0.012009
    15  H    0.080098  -0.031378   0.077316   0.009110   0.215872  -0.016882
    16  H    0.148482  -0.007456  -0.009058   0.005988   0.017153   0.060138
    17  H   -0.001799  -0.001075  -0.000510   0.000026   0.000008   0.001586
    18  H    0.019003  -0.001780  -0.000033   0.000004   0.000181   0.001220
    19  Cl  -2.512237   0.626906   0.052293  -0.058461  -0.323400  -0.393260
    20  Cl  -0.834085  -0.529789   0.488533  -0.397599  -0.373031   0.564629
    21  Cl   0.017780  -0.018001   0.006716  -0.000292   0.000314  -0.055731
    22  Cl  -0.117478   0.165056   0.170173  -1.255255   0.545693  -0.147208
               7          8          9         10         11         12
     1  C    0.612794  -2.435979   1.658864  -3.386901   1.428020 -12.265422
     2  C    0.313774   0.138142  -0.654150   0.782246  -0.698941   2.645667
     3  C    0.232299   0.534673   0.135619  -0.125584   0.055952  -0.235281
     4  C   -1.044466  -0.283991  -0.014268   0.033758   0.009972  -0.114168
     5  C   -2.347054  -0.398083   0.087816  -0.080962  -0.062285  -1.531260
     6  C   -4.634553  -2.187723   0.492642  -0.414435   0.358901  -3.359269
     7  C   22.938426  -4.859809  -1.938602  -3.849915   2.329253  -0.403169
     8  C   -4.859809  16.258303  -0.384099   3.091887  -1.816162  -2.182140
     9  C   -1.938602  -0.384099   8.257968   0.568867  -0.723433  -1.470756
    10  C   -3.849915   3.091887   0.568867  16.448773  -7.189098  -0.437508
    11  C    2.329253  -1.816162  -0.723433  -7.189098  17.136924  -5.109432
    12  C   -0.403169  -2.182140  -1.470756  -0.437508  -5.109432  31.110783
    13  H    0.088906   0.009434  -0.008673   0.004207  -0.003047   0.078165
    14  H    0.011343  -0.001368  -0.000595   0.000194  -0.000130   0.004694
    15  H    0.020517   0.000209  -0.000426   0.000125  -0.000118   0.003972
    16  H   -0.001753   0.298436  -0.036598  -0.033702   0.010654  -0.096581
    17  H    0.003978   0.015643   0.362947   0.004607  -0.023845  -0.012917
    18  H    0.079287  -0.071716  -0.012047   0.217698   0.120017   0.000163
    19  Cl  -1.242356   0.222081   0.024498   1.354057  -0.127482   0.569330
    20  Cl  -0.159553   0.291297   0.107780  -0.134471   0.160406  -0.379814
    21  Cl  -0.263476   0.118718  -0.011809  -0.373930  -0.668270   0.789687
    22  Cl  -0.090437   0.002800   0.004042  -0.001699   0.002360  -0.044293
              13         14         15         16         17         18
     1  C   -0.020166   0.006833   0.080098   0.148482  -0.001799   0.019003
     2  C    0.356197  -0.051818  -0.031378  -0.007456  -0.001075  -0.001780
     3  C   -0.064183   0.294651   0.077316  -0.009058  -0.000510  -0.000033
     4  C   -0.008755   0.045133   0.009110   0.005988   0.000026   0.000004
     5  C   -0.039547   0.060111   0.215872   0.017153   0.000008   0.000181
     6  C   -0.038160  -0.012009  -0.016882   0.060138   0.001586   0.001220
     7  C    0.088906   0.011343   0.020517  -0.001753   0.003978   0.079287
     8  C    0.009434  -0.001368   0.000209   0.298436   0.015643  -0.071716
     9  C   -0.008673  -0.000595  -0.000426  -0.036598   0.362947  -0.012047
    10  C    0.004207   0.000194   0.000125  -0.033702   0.004607   0.217698
    11  C   -0.003047  -0.000130  -0.000118   0.010654  -0.023845   0.120017
    12  C    0.078165   0.004694   0.003972  -0.096581  -0.012917   0.000163
    13  H    0.526619  -0.007173   0.000052  -0.000281   0.000005  -0.000002
    14  H   -0.007173   0.509246  -0.000274   0.000005   0.000000  -0.000000
    15  H    0.000052  -0.000274   0.493465  -0.000001   0.000000  -0.000000
    16  H   -0.000281   0.000005  -0.000001   0.530613  -0.006990  -0.000221
    17  H    0.000005   0.000000   0.000000  -0.006990   0.526462  -0.007617
    18  H   -0.000002  -0.000000  -0.000000  -0.000221  -0.007617   0.509926
    19  Cl  -0.007741  -0.000302  -0.000762  -0.004126   0.001093  -0.002888
    20  Cl  -0.001297   0.000722  -0.006768  -0.005727  -0.000523  -0.000175
    21  Cl   0.000368  -0.000003  -0.000007   0.000180  -0.000280  -0.004162
    22  Cl  -0.000334  -0.012749  -0.013349   0.000093  -0.000001   0.000000
              19         20         21         22
     1  C   -2.512237  -0.834085   0.017780  -0.117478
     2  C    0.626906  -0.529789  -0.018001   0.165056
     3  C    0.052293   0.488533   0.006716   0.170173
     4  C   -0.058461  -0.397599  -0.000292  -1.255255
     5  C   -0.323400  -0.373031   0.000314   0.545693
     6  C   -0.393260   0.564629  -0.055731  -0.147208
     7  C   -1.242356  -0.159553  -0.263476  -0.090437
     8  C    0.222081   0.291297   0.118718   0.002800
     9  C    0.024498   0.107780  -0.011809   0.004042
    10  C    1.354057  -0.134471  -0.373930  -0.001699
    11  C   -0.127482   0.160406  -0.668270   0.002360
    12  C    0.569330  -0.379814   0.789687  -0.044293
    13  H   -0.007741  -0.001297   0.000368  -0.000334
    14  H   -0.000302   0.000722  -0.000003  -0.012749
    15  H   -0.000762  -0.006768  -0.000007  -0.013349
    16  H   -0.004126  -0.005727   0.000180   0.000093
    17  H    0.001093  -0.000523  -0.000280  -0.000001
    18  H   -0.002888  -0.000175  -0.004162   0.000000
    19  Cl  18.417719   0.097406  -0.261368   0.002528
    20  Cl   0.097406  17.761547  -0.002474  -0.023582
    21  Cl  -0.261368  -0.002474  17.281718   0.000047
    22  Cl   0.002528  -0.023582   0.000047  17.406988
 Mulliken charges:
               1
     1  C    1.003993
     2  C   -0.687131
     3  C   -0.655130
     4  C    0.830616
     5  C   -0.262576
     6  C   -1.074449
     7  C    0.204566
     8  C   -0.360551
     9  C   -0.445588
    10  C   -0.478214
    11  C    0.809783
    12  C   -1.560450
    13  H    0.135405
    14  H    0.153488
    15  H    0.169230
    16  H    0.130750
    17  H    0.139201
    18  H    0.153139
    19  Cl   0.566472
    20  Cl   0.376568
    21  Cl   0.444273
    22  Cl   0.406605
 Sum of Mulliken charges =  -0.00000
 Mulliken charges with hydrogens summed into heavy atoms:
               1
     1  C    1.003993
     2  C   -0.551726
     3  C   -0.501641
     4  C    0.830616
     5  C   -0.093346
     6  C   -1.074449
     7  C    0.204566
     8  C   -0.229802
     9  C   -0.306387
    10  C   -0.325075
    11  C    0.809783
    12  C   -1.560450
    19  Cl   0.566472
    20  Cl   0.376568
    21  Cl   0.444273
    22  Cl   0.406605
 Electronic spatial extent (au):  <R**2>=           5988.9899
 Charge=              0.0000 electrons
 Dipole moment (field-independent basis, Debye):
    X=             -0.3267    Y=              2.4134    Z=             -1.6346  Tot=              2.9331
 Quadrupole moment (field-independent basis, Debye-Ang):
   XX=           -122.2934   YY=           -116.7825   ZZ=           -117.6149
   XY=             -6.3731   XZ=              0.3917   YZ=             -2.1574
 Traceless Quadrupole moment (field-independent basis, Debye-Ang):
   XX=             -3.3964   YY=              2.1144   ZZ=              1.2820
   XY=             -6.3731   XZ=              0.3917   YZ=             -2.1574
 Octapole moment (field-independent basis, Debye-Ang**2):
  XXX=            -37.8543  YYY=             -0.2951  ZZZ=              2.4517  XYY=            -17.1117
  XXY=             16.9733  XXZ=              4.9137  XZZ=             15.2801  YZZ=             -8.0438
  YYZ=             -0.0631  XYZ=              4.1032
 Hexadecapole moment (field-independent basis, Debye-Ang**3):
 XXXX=          -6090.6106 YYYY=           -971.3183 ZZZZ=           -857.2085 XXXY=            -58.5809
 XXXZ=             32.3485 YYYX=             -9.5856 YYYZ=            -16.5087 ZZZX=            -35.9775
 ZZZY=             15.4704 XXYY=          -1151.9433 XXZZ=          -1142.4667 YYZZ=           -339.9600
 XXYZ=            -11.4820 YYXZ=             11.3656 ZZXY=              8.3427
 N-N= 1.462410879376D+03 E-N=-8.369456304423D+03  KE= 2.295551929031D+03
 1\1\GINC-DAMODAR\FOpt\RB3LYP\6-311+G(d,p)\C12H6Cl4\PKC\15-Mar-2022\0\\
 # opt b3lyp/6-311+g(d,p) scf=xqc\\Title Card Required\\0,1\C,-0.206581
 3231,0.3665310068,0.0553991495\C,1.1041849576,0.3460681031,0.544841437
 7\C,1.8782767,1.4989400137,0.6202733855\C,1.3288443963,2.7030974208,0.
 1939804403\C,0.0328527534,2.7684562104,-0.3028902897\C,-0.7191948591,1
 .598418224,-0.3664778431\C,-0.9882096834,-0.9024725354,-0.0313492639\C
 ,-0.813449018,-1.7422412792,-1.1342451634\C,-1.5114240974,-2.940841032
 9,-1.2390128558\C,-2.3964430301,-3.3199715328,-0.2372471817\C,-2.58077
 04024,-2.4979130235,0.8714570423\C,-1.8801193861,-1.2908895228,0.98032
 40944\H,1.5203053818,-0.5968622916,0.8799492508\H,2.8890318481,1.46397
 67551,1.0047485392\H,-0.3868220946,3.7073596715,-0.6362396659\H,-0.127
 105837,-1.4397237928,-1.9160316954\H,-1.3691226094,-3.5809403831,-2.10
 13832765\H,-2.9486499937,-4.2485632357,-0.3023114063\Cl,-2.1017470354,
 -0.2620917471,2.3737572514\Cl,-2.3500478223,1.7051257256,-1.0048705376
 \Cl,-3.6976626696,-3.0133645427,2.1136577385\Cl,2.2851636745,4.1725955
 285,0.2785135199\\Version=EM64L-G16RevB.01\State=1-A\HF=-2301.900015\R
 MSD=2.092e-09\RMSF=2.976e-06\Dipole=0.6189036,-0.7247343,-0.6506843\Qu
 adrupole=-1.0996683,1.8296588,-0.7299905,-2.2242904,1.7843522,4.394362
 5\PG=C01 [X(C12H6Cl4)]\\@


 WE HAVE LEARNED THAT NOTHING IS SIMPLE AND
 RATIONAL EXCEPT WHAT WE OURSELVES HAVE INVENTED;
 THAT GOD THINKS IN TERMS NEITHER OF EUCLID OR RIEMANN; THAT SCIENCE HAS "EXPLAINED" NOTHING;
 THAT THE MORE WE KNOW THE MORE FANTASTIC THE WORLD BECOMES
 AND THE PROFOUNDER THE SURROUNDING DARKNESS.
   --  ALDOUS HUXLEY
 Job cpu time:       1 days  4 hours 19 minutes 51.9 seconds.
 Elapsed time:       0 days  7 hours  6 minutes 13.1 seconds.
 File lengths (MBytes):  RWF=    117 Int=      0 D2E=      0 Chk=     17 Scr=      1
 Normal termination of Gaussian 16 at Tue Mar 15 18:19:58 2022.
