 Entering Gaussian System, Link 0=g16
 Input=2,2prime,3,3prime,4,5,5prime-Heptachlorobiphenyl.gjf
 Output=2,2prime,3,3prime,4,5,5prime-Heptachlorobiphenyl.log
 Initial command:
 /home/apps/g16/l1.exe "./Gau-81926.inp" -scrdir="./"
 Entering Link 1 = /home/apps/g16/l1.exe PID=     81927.
  
 Copyright (c) 1988-2017, Gaussian, Inc.  All Rights Reserved.
  
 This is part of the Gaussian(R) 16 program.  It is based on
 the Gaussian(R) 09 system (copyright 2009, Gaussian, Inc.),
 the Gaussian(R) 03 system (copyright 2003, Gaussian, Inc.),
 the Gaussian(R) 98 system (copyright 1998, Gaussian, Inc.),
 the Gaussian(R) 94 system (copyright 1995, Gaussian, Inc.),
 the Gaussian 92(TM) system (copyright 1992, Gaussian, Inc.),
 the Gaussian 90(TM) system (copyright 1990, Gaussian, Inc.),
 the Gaussian 88(TM) system (copyright 1988, Gaussian, Inc.),
 the Gaussian 86(TM) system (copyright 1986, Carnegie Mellon
 University), and the Gaussian 82(TM) system (copyright 1983,
 Carnegie Mellon University). Gaussian is a federally registered
 trademark of Gaussian, Inc.
  
 This software contains proprietary and confidential information,
 including trade secrets, belonging to Gaussian, Inc.
  
 This software is provided under written license and may be
 used, copied, transmitted, or stored only in accord with that
 written license.
  
 The following legend is applicable only to US Government
 contracts under FAR:
  
                    RESTRICTED RIGHTS LEGEND
  
 Use, reproduction and disclosure by the US Government is
 subject to restrictions as set forth in subparagraphs (a)
 and (c) of the Commercial Computer Software - Restricted
 Rights clause in FAR 52.227-19.
  
 Gaussian, Inc.
 340 Quinnipiac St., Bldg. 40, Wallingford CT 06492
  
  
 ---------------------------------------------------------------
 Warning -- This program may not be used in any manner that
 competes with the business of Gaussian, Inc. or will provide
 assistance to any competitor of Gaussian, Inc.  The licensee
 of this program is prohibited from giving any competitor of
 Gaussian, Inc. access to this program.  By using this program,
 the user acknowledges that Gaussian, Inc. is engaged in the
 business of creating and licensing software in the field of
 computational chemistry and represents and warrants to the
 licensee that it is not a competitor of Gaussian, Inc. and that
 it will not use this program in any manner prohibited above.
 ---------------------------------------------------------------
  

 Cite this work as:
 Gaussian 16, Revision B.01,
 M. J. Frisch, G. W. Trucks, H. B. Schlegel, G. E. Scuseria, 
 M. A. Robb, J. R. Cheeseman, G. Scalmani, V. Barone, 
 G. A. Petersson, H. Nakatsuji, X. Li, M. Caricato, A. V. Marenich, 
 J. Bloino, B. G. Janesko, R. Gomperts, B. Mennucci, H. P. Hratchian, 
 J. V. Ortiz, A. F. Izmaylov, J. L. Sonnenberg, D. Williams-Young, 
 F. Ding, F. Lipparini, F. Egidi, J. Goings, B. Peng, A. Petrone, 
 T. Henderson, D. Ranasinghe, V. G. Zakrzewski, J. Gao, N. Rega, 
 G. Zheng, W. Liang, M. Hada, M. Ehara, K. Toyota, R. Fukuda, 
 J. Hasegawa, M. Ishida, T. Nakajima, Y. Honda, O. Kitao, H. Nakai, 
 T. Vreven, K. Throssell, J. A. Montgomery, Jr., J. E. Peralta, 
 F. Ogliaro, M. J. Bearpark, J. J. Heyd, E. N. Brothers, K. N. Kudin, 
 V. N. Staroverov, T. A. Keith, R. Kobayashi, J. Normand, 
 K. Raghavachari, A. P. Rendell, J. C. Burant, S. S. Iyengar, 
 J. Tomasi, M. Cossi, J. M. Millam, M. Klene, C. Adamo, R. Cammi, 
 J. W. Ochterski, R. L. Martin, K. Morokuma, O. Farkas, 
 J. B. Foresman, and D. J. Fox, Gaussian, Inc., Wallingford CT, 2016.
 
 ******************************************
 Gaussian 16:  EM64L-G16RevB.01 20-Dec-2017
                 2-Apr-2022 
 ******************************************
 %mem=32GB
 %nprocshared=16
 Will use up to   16 processors via shared memory.
 --------------------------------
 # opt b3lyp/6-311+g(d,p) scf=xqc
 --------------------------------
 1/18=20,19=15,26=3,38=1/1,3;
 2/9=110,12=2,17=6,18=5,40=1/2;
 3/5=4,6=6,7=111,11=2,25=1,30=1,71=1,74=-5/1,2,3;
 4//1;
 5/5=2,8=3,13=1,38=5/2,8;
 6/7=2,8=2,9=2,10=2,28=1/1;
 7//1,2,3,16;
 1/18=20,19=15,26=3/3(2);
 2/9=110/2;
 99//99;
 2/9=110/2;
 3/5=4,6=6,7=111,11=2,25=1,30=1,71=1,74=-5/1,2,3;
 4/5=5,16=3,69=1/1;
 5/5=2,8=3,13=1,38=5/2,8;
 7//1,2,3,16;
 1/18=20,19=15,26=3/3(-5);
 2/9=110/2;
 6/7=2,8=2,9=2,10=2,19=2,28=1/1;
 99/9=1/99;
 -------------------
 Title Card Required
 -------------------
 Symbolic Z-matrix:
 Charge =  0 Multiplicity = 1
 C                     0.65032   0.34475  -0.00392 
 C                     1.9827    0.37463  -0.43726 
 C                     2.6906    1.58408  -0.44333 
 C                     2.06611   2.76365  -0.01606 
 C                     0.73373   2.73376   0.41728 
 C                     0.02583   1.52431   0.42336 
 C                    -0.37585  -1.4085    0.00489 
 C                     0.24863  -2.58807  -0.42239 
 C                    -0.45926  -3.79752  -0.41631 
 C                    -1.79164  -3.8274    0.01704 
 C                    -2.41613  -2.64784   0.44431 
 C                    -1.70823  -1.43839   0.43824 
 H                     2.45951  -0.52599  -0.76349 
 H                     2.6066    3.68709  -0.0207 
 H                     1.26594  -2.56525  -0.75326 
 Cl                   -2.49252   0.04301   0.97485 
 Cl                   -1.64749   1.48678   0.96759 
 Cl                   -4.08944  -2.68537   0.98855 
 Cl                   -0.05056   4.21516   0.95389 
 Cl                   -2.68067  -5.34634   0.02467 
 Cl                    0.32503  -5.27892  -0.95292 
 Cl                    4.36392   1.62162  -0.98757 
 

 GradGradGradGradGradGradGradGradGradGradGradGradGradGradGradGradGradGrad
 Berny optimization.
 Initialization pass.
                           ----------------------------
                           !    Initial Parameters    !
                           ! (Angstroms and Degrees)  !
 --------------------------                            --------------------------
 ! Name  Definition              Value          Derivative Info.                !
 --------------------------------------------------------------------------------
 ! R1    R(1,2)                  1.4014         estimate D2E/DX2                !
 ! R2    R(1,6)                  1.4014         estimate D2E/DX2                !
 ! R3    R(2,3)                  1.4014         estimate D2E/DX2                !
 ! R4    R(2,13)                 1.07           estimate D2E/DX2                !
 ! R5    R(3,4)                  1.4014         estimate D2E/DX2                !
 ! R6    R(3,22)                 1.76           estimate D2E/DX2                !
 ! R7    R(4,5)                  1.4014         estimate D2E/DX2                !
 ! R8    R(4,14)                 1.07           estimate D2E/DX2                !
 ! R9    R(5,6)                  1.4014         estimate D2E/DX2                !
 ! R10   R(5,19)                 1.76           estimate D2E/DX2                !
 ! R11   R(6,17)                 1.76           estimate D2E/DX2                !
 ! R12   R(7,8)                  1.4014         estimate D2E/DX2                !
 ! R13   R(7,12)                 1.4014         estimate D2E/DX2                !
 ! R14   R(8,9)                  1.4014         estimate D2E/DX2                !
 ! R15   R(8,15)                 1.07           estimate D2E/DX2                !
 ! R16   R(9,10)                 1.4014         estimate D2E/DX2                !
 ! R17   R(9,21)                 1.76           estimate D2E/DX2                !
 ! R18   R(10,11)                1.4014         estimate D2E/DX2                !
 ! R19   R(10,20)                1.76           estimate D2E/DX2                !
 ! R20   R(11,12)                1.4014         estimate D2E/DX2                !
 ! R21   R(11,18)                1.76           estimate D2E/DX2                !
 ! R22   R(12,16)                1.76           estimate D2E/DX2                !
 ! R23   R(16,17)                1.6729         estimate D2E/DX2                !
 ! A1    A(2,1,6)              120.0            estimate D2E/DX2                !
 ! A2    A(1,2,3)              120.0            estimate D2E/DX2                !
 ! A3    A(1,2,13)             120.0            estimate D2E/DX2                !
 ! A4    A(3,2,13)             120.0            estimate D2E/DX2                !
 ! A5    A(2,3,4)              120.0            estimate D2E/DX2                !
 ! A6    A(2,3,22)             120.0            estimate D2E/DX2                !
 ! A7    A(4,3,22)             120.0            estimate D2E/DX2                !
 ! A8    A(3,4,5)              120.0            estimate D2E/DX2                !
 ! A9    A(3,4,14)             120.0            estimate D2E/DX2                !
 ! A10   A(5,4,14)             120.0            estimate D2E/DX2                !
 ! A11   A(4,5,6)              120.0            estimate D2E/DX2                !
 ! A12   A(4,5,19)             120.0            estimate D2E/DX2                !
 ! A13   A(6,5,19)             120.0            estimate D2E/DX2                !
 ! A14   A(1,6,5)              120.0            estimate D2E/DX2                !
 ! A15   A(1,6,17)             120.0            estimate D2E/DX2                !
 ! A16   A(5,6,17)             120.0            estimate D2E/DX2                !
 ! A17   A(8,7,12)             120.0            estimate D2E/DX2                !
 ! A18   A(7,8,9)              120.0            estimate D2E/DX2                !
 ! A19   A(7,8,15)             120.0            estimate D2E/DX2                !
 ! A20   A(9,8,15)             120.0            estimate D2E/DX2                !
 ! A21   A(8,9,10)             120.0            estimate D2E/DX2                !
 ! A22   A(8,9,21)             120.0            estimate D2E/DX2                !
 ! A23   A(10,9,21)            120.0            estimate D2E/DX2                !
 ! A24   A(9,10,11)            120.0            estimate D2E/DX2                !
 ! A25   A(9,10,20)            120.0            estimate D2E/DX2                !
 ! A26   A(11,10,20)           120.0            estimate D2E/DX2                !
 ! A27   A(10,11,12)           120.0            estimate D2E/DX2                !
 ! A28   A(10,11,18)           120.0            estimate D2E/DX2                !
 ! A29   A(12,11,18)           120.0            estimate D2E/DX2                !
 ! A30   A(7,12,11)            120.0            estimate D2E/DX2                !
 ! A31   A(7,12,16)            120.0            estimate D2E/DX2                !
 ! A32   A(11,12,16)           120.0            estimate D2E/DX2                !
 ! A33   A(12,16,17)           120.0            estimate D2E/DX2                !
 ! A34   A(6,17,16)            120.0            estimate D2E/DX2                !
 ! D1    D(6,1,2,3)              0.0001         estimate D2E/DX2                !
 ! D2    D(6,1,2,13)           180.0            estimate D2E/DX2                !
 ! D3    D(2,1,6,5)             -0.0001         estimate D2E/DX2                !
 ! D4    D(2,1,6,17)           180.0            estimate D2E/DX2                !
 ! D5    D(1,2,3,4)              0.0            estimate D2E/DX2                !
 ! D6    D(1,2,3,22)           180.0            estimate D2E/DX2                !
 ! D7    D(13,2,3,4)          -179.9999         estimate D2E/DX2                !
 ! D8    D(13,2,3,22)            0.0001         estimate D2E/DX2                !
 ! D9    D(2,3,4,5)             -0.0001         estimate D2E/DX2                !
 ! D10   D(2,3,4,14)           180.0            estimate D2E/DX2                !
 ! D11   D(22,3,4,5)           179.9999         estimate D2E/DX2                !
 ! D12   D(22,3,4,14)            0.0            estimate D2E/DX2                !
 ! D13   D(3,4,5,6)              0.0001         estimate D2E/DX2                !
 ! D14   D(3,4,5,19)          -179.9999         estimate D2E/DX2                !
 ! D15   D(14,4,5,6)          -180.0            estimate D2E/DX2                !
 ! D16   D(14,4,5,19)            0.0            estimate D2E/DX2                !
 ! D17   D(4,5,6,1)              0.0            estimate D2E/DX2                !
 ! D18   D(4,5,6,17)           179.9999         estimate D2E/DX2                !
 ! D19   D(19,5,6,1)           180.0            estimate D2E/DX2                !
 ! D20   D(19,5,6,17)           -0.0001         estimate D2E/DX2                !
 ! D21   D(1,6,17,16)            0.0004         estimate D2E/DX2                !
 ! D22   D(5,6,17,16)         -179.9996         estimate D2E/DX2                !
 ! D23   D(12,7,8,9)             0.0001         estimate D2E/DX2                !
 ! D24   D(12,7,8,15)         -179.9998         estimate D2E/DX2                !
 ! D25   D(8,7,12,11)           -0.0001         estimate D2E/DX2                !
 ! D26   D(8,7,12,16)          179.9999         estimate D2E/DX2                !
 ! D27   D(7,8,9,10)             0.0            estimate D2E/DX2                !
 ! D28   D(7,8,9,21)           180.0            estimate D2E/DX2                !
 ! D29   D(15,8,9,10)          179.9998         estimate D2E/DX2                !
 ! D30   D(15,8,9,21)           -0.0002         estimate D2E/DX2                !
 ! D31   D(8,9,10,11)            0.0            estimate D2E/DX2                !
 ! D32   D(8,9,10,20)         -179.9999         estimate D2E/DX2                !
 ! D33   D(21,9,10,11)         180.0            estimate D2E/DX2                !
 ! D34   D(21,9,10,20)           0.0001         estimate D2E/DX2                !
 ! D35   D(9,10,11,12)           0.0            estimate D2E/DX2                !
 ! D36   D(9,10,11,18)        -179.9998         estimate D2E/DX2                !
 ! D37   D(20,10,11,12)        179.9999         estimate D2E/DX2                !
 ! D38   D(20,10,11,18)          0.0001         estimate D2E/DX2                !
 ! D39   D(10,11,12,7)           0.0            estimate D2E/DX2                !
 ! D40   D(10,11,12,16)       -179.9999         estimate D2E/DX2                !
 ! D41   D(18,11,12,7)         179.9999         estimate D2E/DX2                !
 ! D42   D(18,11,12,16)         -0.0001         estimate D2E/DX2                !
 ! D43   D(7,12,16,17)           0.0004         estimate D2E/DX2                !
 ! D44   D(11,12,16,17)       -179.9997         estimate D2E/DX2                !
 ! D45   D(12,16,17,6)          -0.0006         estimate D2E/DX2                !
 --------------------------------------------------------------------------------
 Trust Radius=3.00D-01 FncErr=1.00D-07 GrdErr=1.00D-06 EigMax=2.50D+02 EigMin=1.00D-04
 Number of steps in this run=    112 maximum allowed number of steps=    132.
 GradGradGradGradGradGradGradGradGradGradGradGradGradGradGradGradGradGrad

                          Input orientation:                          
 ---------------------------------------------------------------------
 Center     Atomic      Atomic             Coordinates (Angstroms)
 Number     Number       Type             X           Y           Z
 ---------------------------------------------------------------------
      1          6           0        0.650323    0.344745   -0.003916
      2          6           0        1.982704    0.374631   -0.437263
      3          6           0        2.690598    1.584082   -0.443335
      4          6           0        2.066110    2.763647   -0.016060
      5          6           0        0.733729    2.733762    0.417284
      6          6           0        0.025835    1.524311    0.423357
      7          6           0       -0.375855   -1.408501    0.004888
      8          6           0        0.248633   -2.588067   -0.422387
      9          6           0       -0.459260   -3.797518   -0.416313
     10          6           0       -1.791640   -3.827404    0.017037
     11          6           0       -2.416128   -2.647839    0.444312
     12          6           0       -1.708235   -1.438388    0.438238
     13          1           0        2.459515   -0.525993   -0.763494
     14          1           0        2.606603    3.687090   -0.020696
     15          1           0        1.265935   -2.565248   -0.753257
     16         17           0       -2.492519    0.043012    0.974849
     17         17           0       -1.647485    1.486778    0.967590
     18         17           0       -4.089445   -2.685374    0.988555
     19         17           0       -0.050558    4.215163    0.953890
     20         17           0       -2.680673   -5.346339    0.024668
     21         17           0        0.325025   -5.278918   -0.952922
     22         17           0        4.363918    1.621615   -0.987568
 ---------------------------------------------------------------------
                    Distance matrix (angstroms):
                    1          2          3          4          5
     1  C    0.000000
     2  C    1.401400   0.000000
     3  C    2.427296   1.401400   0.000000
     4  C    2.802800   2.427296   1.401400   0.000000
     5  C    2.427296   2.802800   2.427296   1.401400   0.000000
     6  C    1.401400   2.427296   2.802800   2.427296   1.401400
     7  C    2.031500   2.989625   4.308084   4.834300   4.308084
     8  C    2.989625   3.432900   4.834300   5.666495   5.409457
     9  C    4.308084   4.834300   6.235700   7.041774   6.691466
    10  C    4.834300   5.666495   7.041774   7.637100   7.041774
    11  C    4.308084   5.409457   6.691466   7.041774   6.235700
    12  C    2.989625   4.204351   5.409457   5.666495   4.834300
    13  H    2.146700   1.070000   2.146700   3.396345   3.872800
    14  H    3.872800   3.396345   2.146700   1.070000   2.146700
    15  H    3.067336   3.042450   4.398029   5.438829   5.452790
    16  Cl   3.305523   4.704429   5.590246   5.400450   4.237887
    17  Cl   2.743718   4.048303   4.562800   4.048303   2.743718
    18  Cl   5.712445   6.947487   8.139259   8.282025   7.277114
    19  Cl   4.048303   4.562800   4.048303   2.743718   1.760000
    20  Cl   6.594300   7.395266   8.780678   9.397100   8.780678
    21  Cl   5.712445   5.914087   7.277114   8.282025   8.139259
    22  Cl   4.048303   2.743718   1.760000   2.743718   4.048303
                    6          7          8          9         10
     6  C    0.000000
     7  C    2.989625   0.000000
     8  C    4.204351   1.401400   0.000000
     9  C    5.409457   2.427296   1.401400   0.000000
    10  C    5.666495   2.802800   2.427296   1.401400   0.000000
    11  C    4.834300   2.427296   2.802800   2.427296   1.401400
    12  C    3.432900   1.401400   2.427296   2.802800   2.427296
    13  H    3.396345   3.067336   3.042450   4.398029   5.438829
    14  H    3.396345   5.904300   6.715576   8.097863   8.707100
    15  H    4.432467   2.146700   1.070000   2.146700   3.396345
    16  Cl   2.973298   2.743718   4.048303   4.562800   4.048303
    17  Cl   1.760000   3.305523   4.704429   5.590246   5.400450
    18  Cl   5.914087   4.048303   4.562800   4.048303   2.743718
    19  Cl   2.743718   5.712445   6.947487   8.139259   8.282026
    20  Cl   7.395266   4.562800   4.048303   2.743718   1.760000
    21  Cl   6.947487   4.048303   2.743718   1.760000   2.743718
    22  Cl   4.562800   5.712445   5.914087   7.277114   8.282025
                   11         12         13         14         15
    11  C    0.000000
    12  C    1.401400   0.000000
    13  H    5.452790   4.432466   0.000000
    14  H    8.097863   6.715576   4.280590   0.000000
    15  H    3.872800   3.396345   2.362900   6.436285   0.000000
    16  Cl   2.743718   1.760000   5.279038   6.345980   4.890332
    17  Cl   4.237887   2.973298   4.890332   4.890332   5.279038
    18  Cl   1.760000   2.743718   7.114877   9.298599   5.632800
    19  Cl   7.277114   5.914087   5.632800   2.879094   7.114877
    20  Cl   2.743718   4.048303   7.090731  10.467100   4.890332
    21  Cl   4.048303   4.562800   5.213657   9.298599   2.879094
    22  Cl   8.139259   6.947487   2.879094   2.879094   5.213657
                   16         17         18         19         20
    16  Cl   0.000000
    17  Cl   1.672900   0.000000
    18  Cl   3.161400   4.834300   0.000000
    19  Cl   4.834300   3.161400   7.995700   0.000000
    20  Cl   5.475705   6.974816   3.161400   9.960084   0.000000
    21  Cl   6.322800   7.304369   5.475705   9.690953   3.161400
    22  Cl   7.304369   6.322800   9.690953   5.475705   9.960084
                   21         22
    21  Cl   0.000000
    22  Cl   7.995700   0.000000
 Stoichiometry    C12H3Cl7
 Framework group  C1[X(C12H3Cl7)]
 Deg. of freedom    60
 Full point group                 C1      NOp   1
 Largest Abelian subgroup         C1      NOp   1
 Largest concise Abelian subgroup C1      NOp   1
                         Standard orientation:                         
 ---------------------------------------------------------------------
 Center     Atomic      Atomic             Coordinates (Angstroms)
 Number     Number       Type             X           Y           Z
 ---------------------------------------------------------------------
      1          6           0        1.464325    0.503891    0.000001
      2          6           0        2.126656    1.738897   -0.000000
      3          6           0        3.527368    1.782805   -0.000002
      4          6           0        4.265749    0.591707   -0.000003
      5          6           0        3.603418   -0.643299    0.000001
      6          6           0        2.202706   -0.687207    0.000003
      7          6           0       -0.566178    0.440242    0.000003
      8          6           0       -1.304559    1.631340    0.000003
      9          6           0       -2.705271    1.587433    0.000003
     10          6           0       -3.367602    0.352427    0.000002
     11          6           0       -2.629221   -0.838671    0.000000
     12          6           0       -1.228509   -0.794764    0.000000
     13          1           0        1.562885    2.648327   -0.000002
     14          1           0        5.335223    0.625231   -0.000005
     15          1           0       -0.798855    2.574295    0.000002
     16         17           0       -0.301186   -2.290649   -0.000003
     17         17           0        1.370893   -2.238235    0.000005
     18         17           0       -3.461034   -2.389699   -0.000006
     19         17           0        4.530741   -2.139184    0.000003
     20         17           0       -5.126738    0.297284   -0.000002
     21         17           0       -3.632594    3.083318    0.000005
     22         17           0        4.359180    3.333833   -0.000005
 ---------------------------------------------------------------------
 Rotational constants (GHZ):           0.3098869           0.1177153           0.0853093
 Standard basis: 6-311+G(d,p) (5D, 7F)
 There are   511 symmetry adapted cartesian basis functions of A   symmetry.
 There are   492 symmetry adapted basis functions of A   symmetry.
   492 basis functions,   827 primitive gaussians,   511 cartesian basis functions
    97 alpha electrons       97 beta electrons
       nuclear repulsion energy      2312.6806720766 Hartrees.
 NAtoms=   22 NActive=   22 NUniq=   22 SFac= 1.00D+00 NAtFMM=   60 NAOKFM=F Big=F
 Integral buffers will be    131072 words long.
 Raffenetti 2 integral format.
 Two-electron integral symmetry is turned on.
 One-electron integrals computed using PRISM.
 NBasis=   492 RedAO= T EigKep=  1.56D-06  NBF=   492
 NBsUse=   485 1.00D-06 EigRej=  8.75D-07 NBFU=   485
 ExpMin= 4.38D-02 ExpMax= 1.06D+05 ExpMxC= 3.62D+03 IAcc=3 IRadAn=         5 AccDes= 0.00D+00
 Harris functional with IExCor=  402 and IRadAn=       5 diagonalized for initial guess.
 HarFok:  IExCor=  402 AccDes= 0.00D+00 IRadAn=         5 IDoV= 1 UseB2=F ITyADJ=14
 ICtDFT=  3500011 ScaDFX=  1.000000  1.000000  1.000000  1.000000
 FoFCou: FMM=F IPFlag=           0 FMFlag=      100000 FMFlg1=           0
         NFxFlg=           0 DoJE=T BraDBF=F KetDBF=T FulRan=T
         wScrn=  0.000000 ICntrl=       500 IOpCl=  0 I1Cent=   200000004 NGrid=           0
         NMat0=    1 NMatS0=      1 NMatT0=    0 NMatD0=    1 NMtDS0=    0 NMtDT0=    0
 Petite list used in FoFCou.
 Requested convergence on RMS density matrix=1.00D-08 within  32 cycles.
 Requested convergence on MAX density matrix=1.00D-06.
 Requested convergence on             energy=1.00D-06.
 No special actions if energy rises.
 EnCoef did     4 forward-backward iterations
 EnCoef did     2 forward-backward iterations
 EnCoef did   100 forward-backward iterations
 EnCoef did     1 forward-backward iterations
 EnCoef did     3 forward-backward iterations
 Restarting incremental Fock formation.
 SCF Done:  E(RB3LYP) =  -3680.19225969     A.U. after   28 cycles
            NFock= 28  Conv=0.41D-08     -V/T= 2.0021
 QCSCF skips out because SCF is already converged.

 **********************************************************************

            Population analysis using the SCF Density.

 **********************************************************************

 Orbital symmetries:
       Occupied  (A) (A) (A) (A) (A) (A) (A) (A) (A) (A) (A) (A)
                 (A) (A) (A) (A) (A) (A) (A) (A) (A) (A) (A) (A)
                 (A) (A) (A) (A) (A) (A) (A) (A) (A) (A) (A) (A)
                 (A) (A) (A) (A) (A) (A) (A) (A) (A) (A) (A) (A)
                 (A) (A) (A) (A) (A) (A) (A) (A) (A) (A) (A) (A)
                 (A) (A) (A) (A) (A) (A) (A) (A) (A) (A) (A) (A)
                 (A) (A) (A) (A) (A) (A) (A) (A) (A) (A) (A) (A)
                 (A) (A) (A) (A) (A) (A) (A) (A) (A) (A) (A) (A)
                 (A)
       Virtual   (A) (A) (A) (A) (A) (A) (A) (A) (A) (A) (A) (A)
                 (A) (A) (A) (A) (A) (A) (A) (A) (A) (A) (A) (A)
                 (A) (A) (A) (A) (A) (A) (A) (A) (A) (A) (A) (A)
                 (A) (A) (A) (A) (A) (A) (A) (A) (A) (A) (A) (A)
                 (A) (A) (A) (A) (A) (A) (A) (A) (A) (A) (A) (A)
                 (A) (A) (A) (A) (A) (A) (A) (A) (A) (A) (A) (A)
                 (A) (A) (A) (A) (A) (A) (A) (A) (A) (A) (A) (A)
                 (A) (A) (A) (A) (A) (A) (A) (A) (A) (A) (A) (A)
                 (A) (A) (A) (A) (A) (A) (A) (A) (A) (A) (A) (A)
                 (A) (A) (A) (A) (A) (A) (A) (A) (A) (A) (A) (A)
                 (A) (A) (A) (A) (A) (A) (A) (A) (A) (A) (A) (A)
                 (A) (A) (A) (A) (A) (A) (A) (A) (A) (A) (A) (A)
                 (A) (A) (A) (A) (A) (A) (A) (A) (A) (A) (A) (A)
                 (A) (A) (A) (A) (A) (A) (A) (A) (A) (A) (A) (A)
                 (A) (A) (A) (A) (A) (A) (A) (A) (A) (A) (A) (A)
                 (A) (A) (A) (A) (A) (A) (A) (A) (A) (A) (A) (A)
                 (A) (A) (A) (A) (A) (A) (A) (A) (A) (A) (A) (A)
                 (A) (A) (A) (A) (A) (A) (A) (A) (A) (A) (A) (A)
                 (A) (A) (A) (A) (A) (A) (A) (A) (A) (A) (A) (A)
                 (A) (A) (A) (A) (A) (A) (A) (A) (A) (A) (A) (A)
                 (A) (A) (A) (A) (A) (A) (A) (A) (A) (A) (A) (A)
                 (A) (A) (A) (A) (A) (A) (A) (A) (A) (A) (A) (A)
                 (A) (A) (A) (A) (A) (A) (A) (A) (A) (A) (A) (A)
                 (A) (A) (A) (A) (A) (A) (A) (A) (A) (A) (A) (A)
                 (A) (A) (A) (A) (A) (A) (A) (A) (A) (A) (A) (A)
                 (A) (A) (A) (A) (A) (A) (A) (A) (A) (A) (A) (A)
                 (A) (A) (A) (A) (A) (A) (A) (A) (A) (A) (A) (A)
                 (A) (A) (A) (A) (A) (A) (A) (A) (A) (A) (A) (A)
                 (A) (A) (A) (A) (A) (A) (A) (A) (A) (A) (A) (A)
                 (A) (A) (A) (A) (A) (A) (A) (A) (A) (A) (A) (A)
                 (A) (A) (A) (A) (A) (A) (A) (A) (A) (A) (A) (A)
                 (A) (A) (A) (A) (A) (A) (A) (A) (A) (A) (A) (A)
                 (A) (A) (A) (A)
 The electronic state is 1-A.
 Alpha  occ. eigenvalues -- -101.63734-101.62732-101.58069-101.58047-101.57068
 Alpha  occ. eigenvalues -- -101.56560-101.56384 -10.29088 -10.28720 -10.27848
 Alpha  occ. eigenvalues --  -10.27683 -10.27189 -10.27049 -10.25711 -10.24736
 Alpha  occ. eigenvalues --  -10.24357 -10.22825 -10.22572 -10.22235  -9.56359
 Alpha  occ. eigenvalues --   -9.55455  -9.49517  -9.49490  -9.48497  -9.48072
 Alpha  occ. eigenvalues --   -9.47839  -7.32941  -7.32200  -7.31777  -7.31382
 Alpha  occ. eigenvalues --   -7.30757  -7.30360  -7.25998  -7.25970  -7.24993
 Alpha  occ. eigenvalues --   -7.24986  -7.24970  -7.24940  -7.24928  -7.24530
 Alpha  occ. eigenvalues --   -7.24327  -7.23980  -7.23919  -7.23561  -7.23496
 Alpha  occ. eigenvalues --   -7.23332  -7.23244  -1.12467  -0.94580  -0.94083
 Alpha  occ. eigenvalues --   -0.90585  -0.89549  -0.87612  -0.86428  -0.85010
 Alpha  occ. eigenvalues --   -0.83729  -0.78673  -0.77851  -0.75390  -0.73723
 Alpha  occ. eigenvalues --   -0.67285  -0.65451  -0.63134  -0.61324  -0.59470
 Alpha  occ. eigenvalues --   -0.55941  -0.52928  -0.52777  -0.52196  -0.51516
 Alpha  occ. eigenvalues --   -0.50100  -0.48431  -0.47464  -0.45740  -0.45211
 Alpha  occ. eigenvalues --   -0.44877  -0.44312  -0.43364  -0.42809  -0.40497
 Alpha  occ. eigenvalues --   -0.39524  -0.38338  -0.36591  -0.36513  -0.35997
 Alpha  occ. eigenvalues --   -0.34773  -0.34540  -0.34160  -0.34070  -0.33165
 Alpha  occ. eigenvalues --   -0.32803  -0.31031  -0.29214  -0.28294  -0.26854
 Alpha  occ. eigenvalues --   -0.25838  -0.13121
 Alpha virt. eigenvalues --   -0.09743  -0.07291  -0.06780  -0.05859  -0.05022
 Alpha virt. eigenvalues --   -0.03482  -0.02660  -0.01694  -0.00354   0.00021
 Alpha virt. eigenvalues --    0.00482   0.00749   0.01303   0.02497   0.02821
 Alpha virt. eigenvalues --    0.03145   0.03556   0.03655   0.04868   0.04979
 Alpha virt. eigenvalues --    0.05487   0.05794   0.06658   0.06791   0.07346
 Alpha virt. eigenvalues --    0.07428   0.07607   0.08098   0.08206   0.08955
 Alpha virt. eigenvalues --    0.09093   0.09390   0.09520   0.09821   0.10314
 Alpha virt. eigenvalues --    0.10478   0.10717   0.10988   0.11809   0.11905
 Alpha virt. eigenvalues --    0.12149   0.12487   0.13238   0.13405   0.13802
 Alpha virt. eigenvalues --    0.14122   0.14210   0.14618   0.14684   0.15318
 Alpha virt. eigenvalues --    0.15555   0.16133   0.16816   0.17155   0.17456
 Alpha virt. eigenvalues --    0.17964   0.18375   0.18634   0.19021   0.19145
 Alpha virt. eigenvalues --    0.19967   0.20092   0.20524   0.20694   0.20975
 Alpha virt. eigenvalues --    0.21190   0.21730   0.22342   0.22980   0.23479
 Alpha virt. eigenvalues --    0.23966   0.24849   0.24898   0.24943   0.25670
 Alpha virt. eigenvalues --    0.25779   0.26359   0.26496   0.27074   0.27143
 Alpha virt. eigenvalues --    0.27651   0.28036   0.28782   0.29575   0.30109
 Alpha virt. eigenvalues --    0.30874   0.31099   0.31472   0.31990   0.33741
 Alpha virt. eigenvalues --    0.34769   0.35207   0.35562   0.36751   0.37932
 Alpha virt. eigenvalues --    0.39657   0.40859   0.41046   0.42103   0.42541
 Alpha virt. eigenvalues --    0.42695   0.43363   0.43931   0.44447   0.44511
 Alpha virt. eigenvalues --    0.44803   0.45026   0.45663   0.45880   0.46075
 Alpha virt. eigenvalues --    0.47811   0.48170   0.48202   0.48824   0.49211
 Alpha virt. eigenvalues --    0.49768   0.50019   0.50123   0.51614   0.51755
 Alpha virt. eigenvalues --    0.52526   0.53415   0.55940   0.56313   0.57000
 Alpha virt. eigenvalues --    0.57148   0.57272   0.57837   0.58370   0.59156
 Alpha virt. eigenvalues --    0.59374   0.59699   0.60865   0.61084   0.61459
 Alpha virt. eigenvalues --    0.61812   0.63478   0.63676   0.64492   0.64697
 Alpha virt. eigenvalues --    0.66059   0.67383   0.67660   0.69199   0.69861
 Alpha virt. eigenvalues --    0.71277   0.72796   0.75519   0.76026   0.77397
 Alpha virt. eigenvalues --    0.80390   0.81311   0.81830   0.82339   0.82561
 Alpha virt. eigenvalues --    0.83063   0.83342   0.83872   0.83945   0.84154
 Alpha virt. eigenvalues --    0.84491   0.84567   0.84941   0.85037   0.85871
 Alpha virt. eigenvalues --    0.85947   0.86339   0.86884   0.87118   0.87608
 Alpha virt. eigenvalues --    0.87932   0.88909   0.89469   0.89515   0.90753
 Alpha virt. eigenvalues --    0.91051   0.91820   0.93143   0.93564   0.94051
 Alpha virt. eigenvalues --    0.94679   0.94932   0.95271   0.95609   0.96007
 Alpha virt. eigenvalues --    0.96172   0.96630   0.97506   0.98229   0.99070
 Alpha virt. eigenvalues --    0.99645   1.01106   1.02302   1.03552   1.03836
 Alpha virt. eigenvalues --    1.04421   1.04677   1.07139   1.07324   1.12388
 Alpha virt. eigenvalues --    1.13612   1.16811   1.17110   1.17613   1.20182
 Alpha virt. eigenvalues --    1.20951   1.21470   1.21542   1.23488   1.23897
 Alpha virt. eigenvalues --    1.24101   1.25212   1.25870   1.26729   1.26980
 Alpha virt. eigenvalues --    1.28396   1.28911   1.29104   1.29123   1.31057
 Alpha virt. eigenvalues --    1.33335   1.36074   1.41886   1.45493   1.46060
 Alpha virt. eigenvalues --    1.48314   1.49392   1.50363   1.54901   1.56109
 Alpha virt. eigenvalues --    1.58137   1.58510   1.59508   1.60408   1.61553
 Alpha virt. eigenvalues --    1.63847   1.66710   1.69168   1.71564   1.74830
 Alpha virt. eigenvalues --    1.75174   1.78562   1.79636   1.81484   1.82977
 Alpha virt. eigenvalues --    1.83641   1.84205   1.85374   1.85920   1.86635
 Alpha virt. eigenvalues --    1.87549   1.88081   1.92069   1.93719   1.94462
 Alpha virt. eigenvalues --    1.97520   1.98672   2.04450   2.05900   2.08649
 Alpha virt. eigenvalues --    2.09127   2.09948   2.15731   2.16609   2.18413
 Alpha virt. eigenvalues --    2.21402   2.21883   2.22731   2.23890   2.25365
 Alpha virt. eigenvalues --    2.26120   2.26154   2.26501   2.28441   2.29164
 Alpha virt. eigenvalues --    2.29333   2.31588   2.32337   2.33709   2.35439
 Alpha virt. eigenvalues --    2.39282   2.40420   2.41280   2.42546   2.43336
 Alpha virt. eigenvalues --    2.44800   2.50546   2.51736   2.52611   2.53372
 Alpha virt. eigenvalues --    2.54710   2.57766   2.58779   2.58817   2.58818
 Alpha virt. eigenvalues --    2.60579   2.60584   2.61613   2.66323   2.67798
 Alpha virt. eigenvalues --    2.69471   2.70839   2.72804   2.73200   2.73592
 Alpha virt. eigenvalues --    2.75209   2.76038   2.77689   2.78958   2.83189
 Alpha virt. eigenvalues --    2.84555   2.86405   2.88121   2.88836   3.03412
 Alpha virt. eigenvalues --    3.06478   3.06612   3.07974   3.09018   3.13458
 Alpha virt. eigenvalues --    3.14970   3.18657   3.19875   3.21994   3.27812
 Alpha virt. eigenvalues --    3.30001   3.33817   3.39081   3.42302   3.50919
 Alpha virt. eigenvalues --    3.62434   3.65338   3.69283   3.76519   3.78781
 Alpha virt. eigenvalues --    3.90330   3.99737   4.04035   4.11847   4.78219
 Alpha virt. eigenvalues --    4.80896   9.66912   9.75088   9.75729   9.78142
 Alpha virt. eigenvalues --    9.79583   9.81388   9.98116  23.29323  23.36745
 Alpha virt. eigenvalues --   23.78884  23.79967  23.82913  23.84706  23.93226
 Alpha virt. eigenvalues --   23.94874  23.96674  24.00364  24.05379  24.06911
 Alpha virt. eigenvalues --   25.73541  25.76949  25.79897  25.80457  25.82721
 Alpha virt. eigenvalues --   25.88576  25.98786  26.07358  26.08712  26.12221
 Alpha virt. eigenvalues --   26.13764  26.24356  26.25730  26.45654  26.53378
 Alpha virt. eigenvalues --   26.58141  26.64092  26.78577  26.94483  26.98753
 Alpha virt. eigenvalues --   27.01839 215.67329 215.74277 215.75514 215.78208
 Alpha virt. eigenvalues --  215.79552 215.81398 216.04490
          Condensed to atoms (all electrons):
               1          2          3          4          5          6
     1  C   26.247469  -1.497988  -6.875637   5.245334  -4.977770  -0.971790
     2  C   -1.497988   9.876334   1.578329  -3.451649   0.443570   0.970208
     3  C   -6.875637   1.578329  19.383003  -7.727600  -1.584647   3.216330
     4  C    5.245334  -3.451649  -7.727600  27.433714  -5.117071  -8.312222
     5  C   -4.977770   0.443570  -1.584647  -5.117071  16.752825  -1.285856
     6  C   -0.971790   0.970208   3.216330  -8.312222  -1.285856  22.080911
     7  C    5.657350  -0.854406  -2.564182  -0.102813  -1.483585  -1.191249
     8  C   -0.896972  -0.519057  -0.593087   0.935137  -0.331276  -0.932697
     9  C   -1.662144  -0.367034   0.310727   0.024021  -0.459056  -1.263258
    10  C   -1.240621   0.631943  -0.227707   0.143087   0.044989  -0.274986
    11  C   -1.865560  -0.226340  -0.188621  -0.031777   0.014157   0.700324
    12  C   -3.778837  -0.693274  -0.374897  -0.262133   1.746912  -4.862500
    13  H    0.085772   0.258575  -0.086281   0.026013   0.012941  -0.006013
    14  H   -0.022413   0.033064   0.059445   0.150020   0.046242   0.056557
    15  H    0.005396   0.021414   0.008330   0.001343  -0.004717  -0.020925
    16  Cl   6.702675   0.034088  -1.082394   1.932831  -5.512710  10.750084
    17  Cl -12.280812   0.001713   2.490078  -2.392982   7.585943 -12.506687
    18  Cl   0.188982  -0.044351   0.009698  -0.005297   0.001874  -0.088281
    19  Cl  -0.430762   0.112337  -0.139674  -1.163635  -0.259679   1.002318
    20  Cl  -0.134006  -0.002405  -0.004703   0.002121  -0.003811   0.000939
    21  Cl  -0.179656  -0.045217   0.013367  -0.000115  -0.008260  -0.053212
    22  Cl  -0.623652   0.423513  -0.517314  -0.469644   0.183713   0.371241
               7          8          9         10         11         12
     1  C    5.657350  -0.896972  -1.662144  -1.240621  -1.865560  -3.778837
     2  C   -0.854406  -0.519057  -0.367034   0.631943  -0.226340  -0.693274
     3  C   -2.564182  -0.593087   0.310727  -0.227707  -0.188621  -0.374897
     4  C   -0.102813   0.935137   0.024021   0.143087  -0.031777  -0.262133
     5  C   -1.483585  -0.331276  -0.459056   0.044989   0.014157   1.746912
     6  C   -1.191249  -0.932697  -1.263258  -0.274986   0.700324  -4.862500
     7  C   25.154317  -0.547806  -5.933325   5.627069  -3.110924  -4.586326
     8  C   -0.547806  10.385238  -1.102471  -1.976166   2.948604  -0.112483
     9  C   -5.933325  -1.102471  24.520817 -11.078639  -4.413304   5.823572
    10  C    5.627069  -1.976166 -11.078639  26.046049  -1.597232  -6.418555
    11  C   -3.110924   2.948604  -4.413304  -1.597232  15.284159  -2.618529
    12  C   -4.586326  -0.112483   5.823572  -6.418555  -2.618529  27.926495
    13  H    0.029378   0.019546   0.010638  -0.004534  -0.003258  -0.011065
    14  H    0.000549  -0.000801  -0.000074   0.000012   0.000096   0.002148
    15  H    0.039487   0.259455  -0.012981  -0.018631  -0.024131   0.052662
    16  Cl -10.701995  -0.159567   2.295261  -3.709741   3.741332 -22.571997
    17  Cl   2.988642  -0.320014  -1.163778   1.570115  -1.013539  16.607832
    18  Cl  -0.195209   0.155328   0.192899  -0.436596  -1.278120   0.843462
    19  Cl   0.067296  -0.045274   0.005582  -0.004783  -0.001436   0.013660
    20  Cl  -0.366227  -0.345824  -0.689373  -0.146376   0.783646  -0.211096
    21  Cl  -1.116269   0.129243   0.585091  -0.620536  -0.262005   0.632694
    22  Cl  -0.115709  -0.066623  -0.005549  -0.005140  -0.001084  -0.024319
              13         14         15         16         17         18
     1  C    0.085772  -0.022413   0.005396   6.702675 -12.280812   0.188982
     2  C    0.258575   0.033064   0.021414   0.034088   0.001713  -0.044351
     3  C   -0.086281   0.059445   0.008330  -1.082394   2.490078   0.009698
     4  C    0.026013   0.150020   0.001343   1.932831  -2.392982  -0.005297
     5  C    0.012941   0.046242  -0.004717  -5.512710   7.585943   0.001874
     6  C   -0.006013   0.056557  -0.020925  10.750084 -12.506687  -0.088281
     7  C    0.029378   0.000549   0.039487 -10.701995   2.988642  -0.195209
     8  C    0.019546  -0.000801   0.259455  -0.159567  -0.320014   0.155328
     9  C    0.010638  -0.000074  -0.012981   2.295261  -1.163778   0.192899
    10  C   -0.004534   0.000012  -0.018631  -3.709741   1.570115  -0.436596
    11  C   -0.003258   0.000096  -0.024131   3.741332  -1.013539  -1.278120
    12  C   -0.011065   0.002148   0.052662 -22.571997  16.607832   0.843462
    13  H    0.524535  -0.000242   0.001850  -0.014124   0.017848   0.000036
    14  H   -0.000242   0.489727  -0.000002  -0.005081   0.018991   0.000000
    15  H    0.001850  -0.000002   0.534989   0.043912  -0.025560   0.001469
    16  Cl  -0.014124  -0.005081   0.043912  91.440809 -56.773272  -0.511655
    17  Cl   0.017848   0.018991  -0.025560 -56.773272  71.205087  -0.361713
    18  Cl   0.000036   0.000000   0.001469  -0.511655  -0.361713  18.193494
    19  Cl   0.000939   0.001238  -0.000007  -0.678379   0.135866  -0.003282
    20  Cl   0.000027  -0.000000   0.000681   0.333844  -0.084846  -0.321914
    21  Cl  -0.000108  -0.000000  -0.007925   0.066263  -0.018926   0.003112
    22  Cl  -0.016421  -0.000878  -0.000379  -0.018322   0.037837   0.000030
              19         20         21         22
     1  C   -0.430762  -0.134006  -0.179656  -0.623652
     2  C    0.112337  -0.002405  -0.045217   0.423513
     3  C   -0.139674  -0.004703   0.013367  -0.517314
     4  C   -1.163635   0.002121  -0.000115  -0.469644
     5  C   -0.259679  -0.003811  -0.008260   0.183713
     6  C    1.002318   0.000939  -0.053212   0.371241
     7  C    0.067296  -0.366227  -1.116269  -0.115709
     8  C   -0.045274  -0.345824   0.129243  -0.066623
     9  C    0.005582  -0.689373   0.585091  -0.005549
    10  C   -0.004783  -0.146376  -0.620536  -0.005140
    11  C   -0.001436   0.783646  -0.262005  -0.001084
    12  C    0.013660  -0.211096   0.632694  -0.024319
    13  H    0.000939   0.000027  -0.000108  -0.016421
    14  H    0.001238  -0.000000  -0.000000  -0.000878
    15  H   -0.000007   0.000681  -0.007925  -0.000379
    16  Cl  -0.678379   0.333844   0.066263  -0.018322
    17  Cl   0.135866  -0.084846  -0.018926   0.037837
    18  Cl  -0.003282  -0.321914   0.003112   0.000030
    19  Cl  17.840690  -0.000112   0.000016  -0.015575
    20  Cl  -0.000112  17.735898  -0.173709  -0.000067
    21  Cl   0.000016  -0.173709  17.510664  -0.000370
    22  Cl  -0.015575  -0.000067  -0.000370  17.428549
 Mulliken charges:
               1
     1  C   -0.694356
     2  C   -0.683368
     3  C    0.897435
     4  C   -0.856682
     5  C    0.195273
     6  C   -1.379236
     7  C   -0.694064
     8  C   -0.882433
     9  C    0.382377
    10  C   -0.303022
    11  C   -0.836459
    12  C   -1.123426
    13  H    0.153946
    14  H    0.171402
    15  H    0.144270
    16  Cl   1.398137
    17  Cl   1.282177
    18  Cl   0.656033
    19  Cl   0.562656
    20  Cl   0.627313
    21  Cl   0.545861
    22  Cl   0.436162
 Sum of Mulliken charges =  -0.00000
 Mulliken charges with hydrogens summed into heavy atoms:
               1
     1  C   -0.694356
     2  C   -0.529422
     3  C    0.897435
     4  C   -0.685279
     5  C    0.195273
     6  C   -1.379236
     7  C   -0.694064
     8  C   -0.738162
     9  C    0.382377
    10  C   -0.303022
    11  C   -0.836459
    12  C   -1.123426
    16  Cl   1.398137
    17  Cl   1.282177
    18  Cl   0.656033
    19  Cl   0.562656
    20  Cl   0.627313
    21  Cl   0.545861
    22  Cl   0.436162
 Electronic spatial extent (au):  <R**2>=          10788.1935
 Charge=             -0.0000 electrons
 Dipole moment (field-independent basis, Debye):
    X=              3.1135    Y=             -0.6895    Z=             -0.0000  Tot=              3.1889
 Quadrupole moment (field-independent basis, Debye-Ang):
   XX=           -171.7564   YY=           -155.1739   ZZ=           -159.1431
   XY=              0.0708   XZ=             -0.0000   YZ=             -0.0000
 Traceless Quadrupole moment (field-independent basis, Debye-Ang):
   XX=             -9.7319   YY=              6.8505   ZZ=              2.8814
   XY=              0.0708   XZ=             -0.0000   YZ=             -0.0000
 Octapole moment (field-independent basis, Debye-Ang**2):
  XXX=             48.8263  YYY=            -28.0693  ZZZ=             -0.0000  XYY=             -1.6878
  XXY=             -1.7706  XXZ=             -0.0001  XZZ=             -5.3343  YZZ=            -10.1841
  YYZ=             -0.0000  XYZ=              0.0001
 Hexadecapole moment (field-independent basis, Debye-Ang**3):
 XXXX=         -10232.3429 YYYY=          -3738.3641 ZZZZ=           -186.0982 XXXY=             19.3769
 XXXZ=             -0.0001 YYYX=            -32.8060 YYYZ=             -0.0001 ZZZX=              0.0001
 ZZZY=             -0.0000 XXYY=          -2408.0547 XXZZ=          -1766.4570 YYZZ=           -683.5237
 XXYZ=              0.0000 YYXZ=             -0.0001 ZZXY=             -7.6215
 N-N= 2.312680672077D+03 E-N=-1.334562695924D+04  KE= 3.672494046262D+03
 Calling FoFJK, ICntrl=      2127 FMM=F ISym2X=0 I1Cent= 0 IOpClX= 0 NMat=1 NMatS=1 NMatT=0.
 ***** Axes restored to original set *****
 -------------------------------------------------------------------
 Center     Atomic                   Forces (Hartrees/Bohr)
 Number     Number              X              Y              Z
 -------------------------------------------------------------------
      1        6          -0.017775695   -0.015797881    0.002889583
      2        6          -0.013314466    0.006509415    0.005609076
      3        6          -0.012902343    0.000869181    0.004414048
      4        6          -0.002912621   -0.007443306   -0.000438532
      5        6          -0.002929442   -0.009535758   -0.000825571
      6        6           0.046587163   -0.002315610   -0.015783181
      7        6          -0.011651603    0.018574623    0.007326989
      8        6          -0.013075679    0.011698839    0.006505159
      9        6          -0.000045385    0.005873739    0.001118108
     10        6          -0.006510027   -0.001877586    0.001792107
     11        6           0.020526945    0.010579619   -0.004775861
     12        6           0.023606090   -0.104991646   -0.027495471
     13        1           0.004633751   -0.007254138   -0.002889057
     14        1           0.003993495    0.007794984    0.000148254
     15        1           0.009293645   -0.001899213   -0.003418651
     16       17          -0.262701055   -0.415756409    0.008469405
     17       17           0.236828814    0.498454309    0.015585521
     18       17          -0.007797147   -0.004419162    0.001738839
     19       17           0.007887801    0.005337757   -0.001596159
     20       17           0.001447904   -0.000751634   -0.000618180
     21       17           0.001253853    0.005774520    0.000671385
     22       17          -0.004443997    0.000575357    0.001572191
 -------------------------------------------------------------------
 Cartesian Forces:  Max     0.498454309 RMS     0.092497810

 GradGradGradGradGradGradGradGradGradGradGradGradGradGradGradGradGradGrad
 Berny optimization.
 FormGI is forming the generalized inverse of G from B-inverse, IUseBI=4.
 Internal  Forces:  Max     0.535882830 RMS     0.059486088
 Search for a local minimum.
 Step number   1 out of a maximum of  112
 All quantities printed in internal units (Hartrees-Bohrs-Radians)
 Mixed Optimization -- RFO/linear search
 Second derivative matrix not updated -- first step.
 ITU=  0
     Eigenvalues ---    0.00238   0.00238   0.01655   0.01655   0.02070
     Eigenvalues ---    0.02070   0.02070   0.02070   0.02070   0.02070
     Eigenvalues ---    0.02070   0.02070   0.02070   0.02070   0.02070
     Eigenvalues ---    0.02070   0.02070   0.02070   0.04301   0.16000
     Eigenvalues ---    0.16000   0.16000   0.23315   0.23353   0.23491
     Eigenvalues ---    0.25000   0.25000   0.25000   0.25000   0.25000
     Eigenvalues ---    0.25000   0.25000   0.25000   0.25000   0.25000
     Eigenvalues ---    0.25000   0.25000   0.29539   0.29539   0.29539
     Eigenvalues ---    0.29539   0.29539   0.29539   0.29539   0.37230
     Eigenvalues ---    0.37230   0.37230   0.41669   0.41671   0.42042
     Eigenvalues ---    0.42184   0.45389   0.45389   0.45389   0.45389
     Eigenvalues ---    0.45389   0.45389   0.45389   0.45389   1.32680
 RFO step:  Lambda=-3.06859358D-01 EMin= 2.37798977D-03
 Linear search not attempted -- first point.
 Maximum step size (   0.300) exceeded in Quadratic search.
    -- Step size scaled by   0.514
 Iteration  1 RMS(Cart)=  0.30634338 RMS(Int)=  0.01497766
 Iteration  2 RMS(Cart)=  0.22287770 RMS(Int)=  0.00414919
 Iteration  3 RMS(Cart)=  0.00676593 RMS(Int)=  0.00000697
 Iteration  4 RMS(Cart)=  0.00000310 RMS(Int)=  0.00000695
 Iteration  5 RMS(Cart)=  0.00000000 RMS(Int)=  0.00000695
 Variable       Old X    -DE/DX   Delta X   Delta X   Delta X     New X
                                 (Linear)    (Quad)   (Total)
    R1        2.64826  -0.01710   0.00000  -0.01161  -0.01161   2.63665
    R2        2.64826  -0.00505   0.00000  -0.00348  -0.00348   2.64478
    R3        2.64826  -0.00252   0.00000  -0.00169  -0.00170   2.64656
    R4        2.02201   0.00905   0.00000   0.00685   0.00685   2.02885
    R5        2.64826  -0.00529   0.00000  -0.00351  -0.00351   2.64475
    R6        3.32592  -0.00470   0.00000  -0.00401  -0.00401   3.32191
    R7        2.64826  -0.00919   0.00000  -0.00615  -0.00615   2.64212
    R8        2.02201   0.00874   0.00000   0.00661   0.00661   2.02862
    R9        2.64826  -0.00528   0.00000  -0.00358  -0.00357   2.64469
   R10        3.32592   0.00049   0.00000   0.00042   0.00042   3.32634
   R11        3.32592   0.01007   0.00000   0.00859   0.00859   3.33451
   R12        2.64826  -0.02003   0.00000  -0.01378  -0.01378   2.63448
   R13        2.64826  -0.02078   0.00000  -0.01441  -0.01440   2.63386
   R14        2.64826  -0.00566   0.00000  -0.00370  -0.00371   2.64455
   R15        2.02201   0.00985   0.00000   0.00745   0.00745   2.02946
   R16        2.64826   0.00433   0.00000   0.00331   0.00330   2.65156
   R17        3.32592  -0.00451   0.00000  -0.00384  -0.00384   3.32207
   R18        2.64826  -0.00106   0.00000  -0.00046  -0.00046   2.64780
   R19        3.32592  -0.00009   0.00000  -0.00007  -0.00007   3.32585
   R20        2.64826  -0.01192   0.00000  -0.00818  -0.00816   2.64010
   R21        3.32592   0.00804   0.00000   0.00686   0.00686   3.33278
   R22        3.32592   0.06454   0.00000   0.05506   0.05506   3.38098
   R23        3.16132   0.53588   0.00000   0.16854   0.16854   3.32986
    A1        2.09440  -0.00979   0.00000  -0.00919  -0.00919   2.08521
    A2        2.09440  -0.00401   0.00000  -0.00391  -0.00392   2.09047
    A3        2.09440   0.00273   0.00000   0.00275   0.00276   2.09715
    A4        2.09440   0.00128   0.00000   0.00116   0.00117   2.09556
    A5        2.09440   0.01097   0.00000   0.01030   0.01029   2.10468
    A6        2.09440  -0.00434   0.00000  -0.00409  -0.00409   2.09031
    A7        2.09440  -0.00663   0.00000  -0.00620  -0.00620   2.08820
    A8        2.09440  -0.00356   0.00000  -0.00320  -0.00320   2.09119
    A9        2.09440   0.00231   0.00000   0.00218   0.00219   2.09658
   A10        2.09440   0.00125   0.00000   0.00101   0.00102   2.09541
   A11        2.09440  -0.01303   0.00000  -0.01188  -0.01187   2.08253
   A12        2.09440  -0.00952   0.00000  -0.00886  -0.00886   2.08553
   A13        2.09440   0.02255   0.00000   0.02073   0.02073   2.11513
   A14        2.09440   0.01942   0.00000   0.01788   0.01790   2.11229
   A15        2.09440  -0.07081   0.00000  -0.06532  -0.06533   2.02907
   A16        2.09440   0.05139   0.00000   0.04744   0.04743   2.14183
   A17        2.09440  -0.00164   0.00000  -0.00268  -0.00267   2.09172
   A18        2.09440  -0.00410   0.00000  -0.00408  -0.00410   2.09030
   A19        2.09440   0.00422   0.00000   0.00442   0.00443   2.09883
   A20        2.09440  -0.00012   0.00000  -0.00035  -0.00034   2.09406
   A21        2.09440   0.00592   0.00000   0.00627   0.00625   2.10064
   A22        2.09440  -0.00942   0.00000  -0.00909  -0.00908   2.08532
   A23        2.09440   0.00349   0.00000   0.00282   0.00283   2.09723
   A24        2.09440  -0.00608   0.00000  -0.00462  -0.00463   2.08977
   A25        2.09440   0.00014   0.00000  -0.00036  -0.00036   2.09403
   A26        2.09440   0.00594   0.00000   0.00498   0.00499   2.09938
   A27        2.09440  -0.01204   0.00000  -0.01083  -0.01081   2.08358
   A28        2.09440  -0.00116   0.00000  -0.00121  -0.00122   2.09318
   A29        2.09440   0.01320   0.00000   0.01204   0.01203   2.10642
   A30        2.09440   0.01793   0.00000   0.01594   0.01597   2.11036
   A31        2.09440  -0.08042   0.00000  -0.07390  -0.07391   2.02049
   A32        2.09440   0.06249   0.00000   0.05796   0.05794   2.15234
   A33        2.09440  -0.09657   0.00000  -0.08910  -0.08910   2.00529
   A34        2.09440  -0.19477   0.00000  -0.17970  -0.17970   1.91469
    D1        0.00000   0.00000   0.00000   0.00000   0.00000   0.00000
    D2        3.14159   0.00000   0.00000   0.00000   0.00000   3.14159
    D3       -0.00000  -0.00000   0.00000  -0.00000  -0.00000  -0.00000
    D4        3.14159   0.00000   0.00000   0.00000   0.00000   3.14159
    D5        0.00000  -0.00000   0.00000   0.00000   0.00000   0.00000
    D6        3.14159  -0.00000   0.00000  -0.00000  -0.00000   3.14159
    D7       -3.14159  -0.00000   0.00000  -0.00000  -0.00000  -3.14159
    D8        0.00000  -0.00000   0.00000  -0.00000  -0.00000   0.00000
    D9       -0.00000   0.00000   0.00000   0.00000   0.00000  -0.00000
   D10        3.14159  -0.00000   0.00000  -0.00000  -0.00000   3.14159
   D11        3.14159   0.00000   0.00000   0.00000   0.00000   3.14159
   D12        0.00000   0.00000   0.00000   0.00000   0.00000   0.00000
   D13        0.00000  -0.00000   0.00000  -0.00000  -0.00000   0.00000
   D14       -3.14159  -0.00000   0.00000  -0.00000  -0.00000  -3.14159
   D15       -3.14159  -0.00000   0.00000  -0.00000  -0.00000  -3.14159
   D16        0.00000  -0.00000   0.00000  -0.00000  -0.00000   0.00000
   D17       -0.00000   0.00000   0.00000   0.00000   0.00000  -0.00000
   D18        3.14159  -0.00000   0.00000  -0.00000  -0.00000   3.14159
   D19        3.14159   0.00000   0.00000   0.00000   0.00000   3.14159
   D20       -0.00000  -0.00000   0.00000  -0.00000  -0.00000  -0.00000
   D21        0.00001  -0.00000   0.00000  -0.00000  -0.00000   0.00001
   D22       -3.14159  -0.00000   0.00000  -0.00000  -0.00000  -3.14159
   D23        0.00000   0.00000   0.00000   0.00000   0.00000   0.00000
   D24       -3.14159  -0.00000   0.00000  -0.00000  -0.00000  -3.14159
   D25       -0.00000  -0.00000   0.00000  -0.00000  -0.00000  -0.00000
   D26        3.14159   0.00000   0.00000   0.00000   0.00000   3.14159
   D27       -0.00000  -0.00000   0.00000  -0.00000  -0.00000  -0.00000
   D28        3.14159  -0.00000   0.00000  -0.00000  -0.00000   3.14159
   D29        3.14159   0.00000   0.00000   0.00000   0.00000   3.14159
   D30       -0.00000   0.00000   0.00000   0.00000   0.00000  -0.00000
   D31       -0.00000  -0.00000   0.00000  -0.00000  -0.00000  -0.00000
   D32       -3.14159  -0.00000   0.00000  -0.00000  -0.00000  -3.14159
   D33        3.14159   0.00000   0.00000   0.00000   0.00000   3.14159
   D34        0.00000   0.00000   0.00000   0.00000   0.00000   0.00000
   D35        0.00000  -0.00000   0.00000  -0.00000  -0.00000   0.00000
   D36       -3.14159  -0.00000   0.00000  -0.00000  -0.00000  -3.14159
   D37        3.14159   0.00000   0.00000   0.00000   0.00000   3.14159
   D38        0.00000  -0.00000   0.00000  -0.00000  -0.00000   0.00000
   D39        0.00000   0.00000   0.00000   0.00000   0.00000   0.00000
   D40       -3.14159  -0.00000   0.00000  -0.00000  -0.00000  -3.14159
   D41        3.14159   0.00000   0.00000   0.00000   0.00000   3.14159
   D42       -0.00000  -0.00000   0.00000  -0.00000  -0.00000  -0.00000
   D43        0.00001  -0.00000   0.00000  -0.00000  -0.00000   0.00001
   D44       -3.14159  -0.00000   0.00000  -0.00000  -0.00000  -3.14159
   D45       -0.00001  -0.00000   0.00000  -0.00000  -0.00000  -0.00001
         Item               Value     Threshold  Converged?
 Maximum Force            0.535883     0.000450     NO 
 RMS     Force            0.059486     0.000300     NO 
 Maximum Displacement     1.847212     0.001800     NO 
 RMS     Displacement     0.528290     0.001200     NO 
 Predicted change in Energy=-1.309684D-01
 GradGradGradGradGradGradGradGradGradGradGradGradGradGradGradGradGradGrad

                          Input orientation:                          
 ---------------------------------------------------------------------
 Center     Atomic      Atomic             Coordinates (Angstroms)
 Number     Number       Type             X           Y           Z
 ---------------------------------------------------------------------
      1          6           0        0.158134    0.179297    0.127168
      2          6           0        1.445446   -0.078244   -0.345310
      3          6           0        2.369217    0.968873   -0.452994
      4          6           0        2.013002    2.272939   -0.090723
      5          6           0        0.724052    2.535285    0.383195
      6          6           0       -0.194463    1.484630    0.488482
      7          6           0       -0.421663   -0.932650    0.109346
      8          6           0        0.405463   -1.954291   -0.355031
      9          6           0       -0.085800   -3.261986   -0.438776
     10          6           0       -1.405332   -3.549557   -0.058051
     11          6           0       -2.234055   -2.520468    0.408251
     12          6           0       -1.732283   -1.219008    0.487363
     13          1           0        1.727672   -1.075474   -0.625576
     14          1           0        2.727020    3.069972   -0.176270
     15          1           0        1.416409   -1.741000   -0.648036
     16         17           0       -2.696384    0.172507    1.066336
     17         17           0       -1.842906    1.714083    1.074660
     18         17           0       -3.893449   -2.876126    0.888163
     19         17           0        0.285172    4.178565    0.836402
     20         17           0       -2.012858   -5.197711   -0.167431
     21         17           0        0.963703   -4.544502   -1.025412
     22         17           0        3.991031    0.644112   -1.048298
 ---------------------------------------------------------------------
                    Distance matrix (angstroms):
                    1          2          3          4          5
     1  C    0.000000
     2  C    1.395254   0.000000
     3  C    2.418451   1.400501   0.000000
     4  C    2.805592   2.432076   1.399542   0.000000
     5  C    2.436492   2.807430   2.420626   1.398147   0.000000
     6  C    1.399560   2.413935   2.779359   2.414500   1.399512
     7  C    1.254156   2.103050   3.423599   4.030313   3.662545
     8  C    2.201336   2.145043   3.522899   4.530288   4.561005
     9  C    3.496029   3.534071   4.891572   5.929713   5.910994
    10  C    4.047602   4.501051   5.900797   6.751854   6.461755
    11  C    3.618053   4.480072   5.840151   6.423645   5.857617
    12  C    2.378797   3.477448   4.742720   5.153157   4.487666
    13  H    2.145815   1.073624   2.149585   3.402844   3.881038
    14  H    3.879079   3.403274   2.149236   1.073500   2.147271
    15  H    2.423166   1.690338   2.879114   4.096123   4.453023
    16  Cl   3.005056   4.382964   5.348166   5.284781   4.212931
    17  Cl   2.693970   4.005247   4.542141   4.066750   2.782404
    18  Cl   5.131282   6.152512   7.470188   7.896661   7.131598
    19  Cl   4.063656   4.567615   4.038306   2.734295   1.760222
    20  Cl   5.806221   6.180651   7.570395   8.486698   8.221502
    21  Cl   4.928656   4.543355   5.718429   6.960759   7.222533
    22  Cl   4.035947   2.737882   1.757878   2.735439   4.037185
                    6          7          8          9         10
     6  C    0.000000
     7  C    2.457357   0.000000
     8  C    3.591323   1.394106   0.000000
     9  C    4.837559   2.416412   1.399435   0.000000
    10  C    5.206528   2.800683   2.431470   1.403144   0.000000
    11  C    4.495240   2.428019   2.805390   2.425346   1.401158
    12  C    3.110394   1.393779   2.412514   2.782516   2.415746
    13  H    3.389669   2.275995   1.610513   2.846825   4.032231
    14  H    3.389730   5.100664   5.537581   6.933582   7.804388
    15  H    3.780379   2.146058   1.073944   2.147980   3.403113
    16  Cl   2.883607   2.703989   4.020573   4.569054   4.096928
    17  Cl   1.764544   3.155465   4.533888   5.489915   5.401889
    18  Cl   5.732228   4.054251   4.569022   4.050661   2.745826
    19  Cl   2.758330   5.210830   6.248672   7.558141   7.961263
    20  Cl   6.956325   4.560620   4.050092   2.744852   1.759961
    21  Cl   6.323262   4.031425   2.733173   1.757966   2.745547
    22  Cl   4.537237   4.826820   4.482033   5.678880   6.905663
                   11         12         13         14         15
    11  C    0.000000
    12  C    1.397080   0.000000
    13  H    4.341900   3.637378   0.000000
    14  H    7.497130   6.222632   4.287808   0.000000
    15  H    3.879330   3.387604   0.735061   5.008564   0.000000
    16  Cl   2.810505   1.789138   4.898193   6.273172   4.849293
    17  Cl   4.304477   2.993356   4.839572   4.928234   5.052564
    18  Cl   1.763632   2.752694   6.093502   8.962127   5.642961
    19  Cl   7.169858   5.772846   5.641198   2.866550   6.206811
    20  Cl   2.747356   4.041974   5.585186   9.530011   4.892821
    21  Cl   4.046944   4.540455   3.574587   7.861968   2.864782
    22  Cl   7.133569   6.211746   2.873754   2.871054   3.532372
                   16         17         18         19         20
    16  Cl   0.000000
    17  Cl   1.762087   0.000000
    18  Cl   3.280072   5.030858   0.000000
    19  Cl   4.999104   3.264836   8.199526   0.000000
    20  Cl   5.552354   7.024569   3.168700   9.705832   0.000000
    21  Cl   6.326280   7.173370   5.480618   8.945314   3.165869
    22  Cl   7.029624   6.299731   8.849124   5.456908   8.423153
                   21         22
    21  Cl   0.000000
    22  Cl   6.007242   0.000000
 Stoichiometry    C12H3Cl7
 Framework group  C1[X(C12H3Cl7)]
 Deg. of freedom    60
 Full point group                 C1      NOp   1
 Largest Abelian subgroup         C1      NOp   1
 Largest concise Abelian subgroup C1      NOp   1
                         Standard orientation:                         
 ---------------------------------------------------------------------
 Center     Atomic      Atomic             Coordinates (Angstroms)
 Number     Number       Type             X           Y           Z
 ---------------------------------------------------------------------
      1          6           0        1.032462    0.140295   -0.000001
      2          6           0        1.321840    1.505210   -0.000004
      3          6           0        2.655260    1.933458   -0.000005
      4          6           0        3.701746    1.004166   -0.000004
      5          6           0        3.416092   -0.364489    0.000001
      6          6           0        2.081581   -0.786051    0.000002
      7          6           0       -0.219992    0.074976    0.000005
      8          6           0       -0.816443    1.335047    0.000007
      9          6           0       -2.211688    1.443258    0.000006
     10          6           0       -3.012334    0.290965    0.000002
     11          6           0       -2.409729   -0.973990   -0.000000
     12          6           0       -1.015897   -1.069207    0.000001
     13          1           0        0.525590    2.225385   -0.000007
     14          1           0        4.721136    1.340689   -0.000006
     15          1           0       -0.209458    2.221008    0.000008
     16         17           0       -0.137280   -2.627748   -0.000005
     17         17           0        1.619334   -2.488973    0.000007
     18         17           0       -3.411126   -2.425747   -0.000010
     19         17           0        4.738863   -1.525806    0.000006
     20         17           0       -4.766089    0.438644   -0.000002
     21         17           0       -2.955889    3.035931    0.000010
     22         17           0        3.019559    3.653174   -0.000010
 ---------------------------------------------------------------------
 Rotational constants (GHZ):           0.2940783           0.1461043           0.0976097
 Standard basis: 6-311+G(d,p) (5D, 7F)
 There are   511 symmetry adapted cartesian basis functions of A   symmetry.
 There are   492 symmetry adapted basis functions of A   symmetry.
   492 basis functions,   827 primitive gaussians,   511 cartesian basis functions
    97 alpha electrons       97 beta electrons
       nuclear repulsion energy      2394.9523644973 Hartrees.
 NAtoms=   22 NActive=   22 NUniq=   22 SFac= 1.00D+00 NAtFMM=   60 NAOKFM=F Big=F
 Integral buffers will be    131072 words long.
 Raffenetti 2 integral format.
 Two-electron integral symmetry is turned on.
 One-electron integrals computed using PRISM.
 NBasis=   492 RedAO= T EigKep=  1.25D-06  NBF=   492
 NBsUse=   484 1.00D-06 EigRej=  8.42D-07 NBFU=   484
 Initial guess from the checkpoint file:  "./Gau-81927.chk"
 B after Tr=    -0.000000   -0.000000    0.000000
         Rot=    0.999544   -0.000000   -0.000000   -0.030210 Ang=  -3.46 deg.
 ExpMin= 4.38D-02 ExpMax= 1.06D+05 ExpMxC= 3.62D+03 IAcc=3 IRadAn=         5 AccDes= 0.00D+00
 Harris functional with IExCor=  402 and IRadAn=       5 diagonalized for initial guess.
 HarFok:  IExCor=  402 AccDes= 0.00D+00 IRadAn=         5 IDoV= 1 UseB2=F ITyADJ=14
 ICtDFT=  3500011 ScaDFX=  1.000000  1.000000  1.000000  1.000000
 FoFCou: FMM=F IPFlag=           0 FMFlag=      100000 FMFlg1=           0
         NFxFlg=           0 DoJE=T BraDBF=F KetDBF=T FulRan=T
         wScrn=  0.000000 ICntrl=       500 IOpCl=  0 I1Cent=   200000004 NGrid=           0
         NMat0=    1 NMatS0=      1 NMatT0=    0 NMatD0=    1 NMtDS0=    0 NMtDT0=    0
 Petite list used in FoFCou.
 Requested convergence on RMS density matrix=1.00D-08 within  32 cycles.
 Requested convergence on MAX density matrix=1.00D-06.
 Requested convergence on             energy=1.00D-06.
 No special actions if energy rises.
 EnCoef did     5 forward-backward iterations
 Restarting incremental Fock formation.
 SCF Done:  E(RB3LYP) =  -3680.11283802     A.U. after   28 cycles
            NFock= 28  Conv=0.31D-08     -V/T= 2.0017
 QCSCF skips out because SCF is already converged.
 Calling FoFJK, ICntrl=      2127 FMM=F ISym2X=0 I1Cent= 0 IOpClX= 0 NMat=1 NMatS=1 NMatT=0.
 ***** Axes restored to original set *****
 -------------------------------------------------------------------
 Center     Atomic                   Forces (Hartrees/Bohr)
 Number     Number              X              Y              Z
 -------------------------------------------------------------------
      1        6           0.138489639    0.185424127   -0.010802010
      2        6           0.095822661    0.153338249   -0.002769676
      3        6          -0.017468215   -0.001991504    0.005381085
      4        6          -0.000915369   -0.002571824   -0.000181696
      5        6          -0.007196970    0.003564954    0.003040584
      6        6          -0.002641405   -0.043372741   -0.007275114
      7        6          -0.125447387   -0.190513299    0.005548881
      8        6          -0.081751576   -0.144299203   -0.000168219
      9        6          -0.000650426    0.009942121    0.002081477
     10        6          -0.011546165   -0.007923968    0.002315974
     11        6           0.021793737   -0.001730399   -0.007504722
     12        6          -0.015283645   -0.129554797   -0.019296385
     13        1           0.087494899    0.177221233    0.004461977
     14        1           0.002088430    0.006212472    0.000478719
     15        1          -0.085232459   -0.179015473   -0.005544048
     16       17          -0.133349900   -0.290608303   -0.010643506
     17       17           0.132290644    0.456633776    0.042172986
     18       17           0.002425943    0.002246253   -0.000377234
     19       17           0.003893677   -0.007714538   -0.002731616
     20       17           0.000987907   -0.002465176   -0.000788774
     21       17          -0.000726422    0.005634792    0.001297559
     22       17          -0.003077599    0.001543247    0.001303759
 -------------------------------------------------------------------
 Cartesian Forces:  Max     0.456633776 RMS     0.094971914

 GradGradGradGradGradGradGradGradGradGradGradGradGradGradGradGradGradGrad
 Berny optimization.
 Using GEDIIS/GDIIS optimizer.
 FormGI is forming the generalized inverse of G from B-inverse, IUseBI=4.
 Internal  Forces:  Max     4.416145244 RMS     0.662110342
 Search for a local minimum.
 Step number   2 out of a maximum of  112
 All quantities printed in internal units (Hartrees-Bohrs-Radians)
 Mixed Optimization -- RFO/linear search
 Update second derivatives using D2CorX and points    2    1
 DE=  7.94D-02 DEPred=-1.31D-01 R=-6.06D-01
 Trust test=-6.06D-01 RLast= 3.00D-01 DXMaxT set to 1.50D-01
 ITU= -1  0
 Use linear search instead of GDIIS.
     Eigenvalues ---    0.00238   0.00238   0.01671   0.01671   0.02070
     Eigenvalues ---    0.02070   0.02070   0.02070   0.02070   0.02070
     Eigenvalues ---    0.02070   0.02070   0.02070   0.02070   0.02070
     Eigenvalues ---    0.02070   0.02070   0.02070   0.04301   0.15171
     Eigenvalues ---    0.16000   0.16000   0.16821   0.23334   0.23373
     Eigenvalues ---    0.23507   0.25000   0.25000   0.25000   0.25000
     Eigenvalues ---    0.25000   0.25000   0.25000   0.25000   0.25000
     Eigenvalues ---    0.25000   0.27784   0.29537   0.29539   0.29539
     Eigenvalues ---    0.29539   0.29539   0.29539   0.37060   0.37224
     Eigenvalues ---    0.37230   0.40588   0.41641   0.41684   0.42011
     Eigenvalues ---    0.42876   0.45305   0.45389   0.45389   0.45389
     Eigenvalues ---    0.45389   0.45389   0.45389   0.48490  33.44485
 RFO step:  Lambda=-2.15349313D+00 EMin= 2.37798977D-03
 Quartic linear search produced a step of -0.40693.
 Maximum step size (   0.150) exceeded in Quadratic search.
    -- Step size scaled by   0.163
 Iteration  1 RMS(Cart)=  0.21787540 RMS(Int)=  0.00297581
 Iteration  2 RMS(Cart)=  0.01736729 RMS(Int)=  0.00002206
 Iteration  3 RMS(Cart)=  0.00006281 RMS(Int)=  0.00000233
 Iteration  4 RMS(Cart)=  0.00000000 RMS(Int)=  0.00000233
 Variable       Old X    -DE/DX   Delta X   Delta X   Delta X     New X
                                 (Linear)    (Quad)   (Total)
    R1        2.63665   0.23379   0.00473  -0.00292   0.00180   2.63845
    R2        2.64478  -0.15194   0.00142  -0.00510  -0.00369   2.64110
    R3        2.64656  -0.12052   0.00069  -0.00342  -0.00272   2.64384
    R4        2.02885  -0.14278  -0.00279   0.00151  -0.00127   2.02758
    R5        2.64475  -0.25244   0.00143  -0.00713  -0.00570   2.63905
    R6        3.32191  -0.00357   0.00163  -0.00259  -0.00096   3.32095
    R7        2.64212  -0.14773   0.00250  -0.00678  -0.00428   2.63783
    R8        2.02862   0.00596  -0.00269   0.00431   0.00162   2.03024
    R9        2.64469   0.10540   0.00145  -0.00024   0.00121   2.64590
   R10        3.32634  -0.00888  -0.00017   0.00008  -0.00009   3.32625
   R11        3.33451   0.21868  -0.00349   0.00987   0.00637   3.34088
   R12        2.63448   0.26592   0.00561  -0.00368   0.00193   2.63641
   R13        2.63386  -0.13908   0.00586  -0.01182  -0.00596   2.62790
   R14        2.64455  -0.11616   0.00151  -0.00463  -0.00312   2.64143
   R15        2.02946  -0.11427  -0.00303   0.00246  -0.00057   2.02889
   R16        2.65156  -0.24045  -0.00134  -0.00257  -0.00390   2.64766
   R17        3.32207  -0.00498   0.00156  -0.00252  -0.00095   3.32112
   R18        2.64780  -0.13815   0.00019  -0.00297  -0.00279   2.64502
   R19        3.32585   0.00202   0.00003  -0.00000   0.00003   3.32587
   R20        2.64010   0.10855   0.00332  -0.00311   0.00021   2.64031
   R21        3.33278  -0.00284  -0.00279   0.00426   0.00146   3.33425
   R22        3.38098   0.34402  -0.02241   0.04165   0.01924   3.40022
   R23        3.32986   1.01996  -0.06858   0.12948   0.06089   3.39075
    A1        2.08521  -0.19737   0.00374  -0.00978  -0.00604   2.07917
    A2        2.09047   0.22681   0.00160   0.00232   0.00392   2.09440
    A3        2.09715   0.02530  -0.00112   0.00233   0.00121   2.09836
    A4        2.09556  -0.25212  -0.00047  -0.00465  -0.00513   2.09043
    A5        2.10468  -0.05799  -0.00419   0.00515   0.00097   2.10565
    A6        2.09031   0.03051   0.00166  -0.00188  -0.00022   2.09008
    A7        2.08820   0.02748   0.00252  -0.00327  -0.00075   2.08745
    A8        2.09119  -0.10086   0.00130  -0.00420  -0.00289   2.08830
    A9        2.09658   0.05323  -0.00089   0.00252   0.00163   2.09821
   A10        2.09541   0.04763  -0.00041   0.00168   0.00126   2.09667
   A11        2.08253   0.26877   0.00483  -0.00184   0.00299   2.08552
   A12        2.08553  -0.13743   0.00361  -0.00840  -0.00479   2.08074
   A13        2.11513  -0.13134  -0.00844   0.01024   0.00180   2.11693
   A14        2.11229  -0.13936  -0.00728   0.00834   0.00106   2.11335
   A15        2.02907   1.29068   0.02658  -0.01401   0.01257   2.04164
   A16        2.14183  -1.15132  -0.01930   0.00567  -0.01363   2.12820
   A17        2.09172  -0.18668   0.00109  -0.00544  -0.00435   2.08737
   A18        2.09030   0.21366   0.00167   0.00193   0.00361   2.09390
   A19        2.09883   0.05768  -0.00180   0.00407   0.00226   2.10109
   A20        2.09406  -0.27134   0.00014  -0.00600  -0.00587   2.08819
   A21        2.10064  -0.05337  -0.00254   0.00268   0.00015   2.10079
   A22        2.08532   0.02165   0.00369  -0.00517  -0.00148   2.08384
   A23        2.09723   0.03172  -0.00115   0.00249   0.00133   2.09856
   A24        2.08977  -0.09906   0.00188  -0.00507  -0.00319   2.08658
   A25        2.09403   0.04637   0.00015   0.00080   0.00094   2.09498
   A26        2.09938   0.05269  -0.00203   0.00427   0.00224   2.10163
   A27        2.08358   0.27565   0.00440  -0.00104   0.00335   2.08693
   A28        2.09318  -0.13493   0.00049  -0.00356  -0.00306   2.09012
   A29        2.10642  -0.14072  -0.00490   0.00460  -0.00029   2.10614
   A30        2.11036  -0.15021  -0.00650   0.00694   0.00043   2.11079
   A31        2.02049   1.24649   0.03008  -0.02032   0.00976   2.03025
   A32        2.15234  -1.09629  -0.02358   0.01338  -0.01020   2.14214
   A33        2.00529   4.41615   0.03626   0.03619   0.07245   2.07775
   A34        1.91469   4.15084   0.07313  -0.02599   0.04714   1.96183
    D1        0.00000  -0.00000  -0.00000  -0.00000  -0.00000   0.00000
    D2        3.14159  -0.00000  -0.00000  -0.00000  -0.00000   3.14159
    D3       -0.00000   0.00000   0.00000  -0.00000  -0.00000  -0.00000
    D4        3.14159   0.00001  -0.00000   0.00000   0.00000   3.14159
    D5        0.00000   0.00000  -0.00000   0.00000   0.00000   0.00000
    D6        3.14159   0.00000   0.00000  -0.00000   0.00000   3.14159
    D7       -3.14159   0.00000   0.00000   0.00000   0.00000  -3.14159
    D8        0.00000   0.00000   0.00000  -0.00000   0.00000   0.00000
    D9       -0.00000   0.00000  -0.00000   0.00000   0.00000  -0.00000
   D10        3.14159  -0.00000   0.00000  -0.00000  -0.00000   3.14159
   D11        3.14159   0.00000  -0.00000   0.00000   0.00000   3.14159
   D12        0.00000   0.00000  -0.00000   0.00000   0.00000   0.00000
   D13        0.00000  -0.00000   0.00000  -0.00000  -0.00000   0.00000
   D14       -3.14159  -0.00000   0.00000  -0.00000  -0.00000  -3.14159
   D15       -3.14159  -0.00000   0.00000  -0.00000  -0.00000  -3.14159
   D16        0.00000  -0.00000   0.00000  -0.00000  -0.00000   0.00000
   D17       -0.00000   0.00000  -0.00000   0.00000   0.00000  -0.00000
   D18        3.14159  -0.00001   0.00000  -0.00000  -0.00000   3.14159
   D19        3.14159   0.00000  -0.00000   0.00000   0.00000   3.14159
   D20       -0.00000  -0.00000   0.00000  -0.00000  -0.00000  -0.00000
   D21        0.00001  -0.00001   0.00000  -0.00000  -0.00000   0.00001
   D22       -3.14159  -0.00001   0.00000  -0.00000  -0.00000  -3.14159
   D23        0.00000  -0.00000  -0.00000   0.00000  -0.00000   0.00000
   D24       -3.14159  -0.00000   0.00000  -0.00000  -0.00000  -3.14159
   D25       -0.00000   0.00000   0.00000  -0.00000  -0.00000  -0.00000
   D26        3.14159   0.00001  -0.00000   0.00000   0.00000   3.14159
   D27       -0.00000   0.00000   0.00000   0.00000   0.00000  -0.00000
   D28        3.14159  -0.00000   0.00000  -0.00000  -0.00000   3.14159
   D29        3.14159   0.00000  -0.00000   0.00000   0.00000   3.14159
   D30       -0.00000   0.00000  -0.00000   0.00000   0.00000  -0.00000
   D31       -0.00000   0.00000   0.00000   0.00000   0.00000  -0.00000
   D32       -3.14159  -0.00000   0.00000  -0.00000  -0.00000  -3.14159
   D33        3.14159   0.00000  -0.00000   0.00000   0.00000   3.14159
   D34        0.00000  -0.00000  -0.00000   0.00000  -0.00000   0.00000
   D35        0.00000  -0.00000   0.00000  -0.00000  -0.00000  -0.00000
   D36       -3.14159  -0.00000   0.00000  -0.00000  -0.00000  -3.14159
   D37        3.14159   0.00000  -0.00000   0.00000   0.00000   3.14159
   D38        0.00000  -0.00000   0.00000  -0.00000  -0.00000   0.00000
   D39        0.00000   0.00000  -0.00000   0.00000   0.00000   0.00000
   D40       -3.14159  -0.00001   0.00000  -0.00000  -0.00000  -3.14159
   D41        3.14159   0.00000  -0.00000   0.00000   0.00000   3.14159
   D42       -0.00000  -0.00001   0.00000  -0.00000  -0.00000  -0.00000
   D43        0.00001  -0.00001   0.00000  -0.00000  -0.00000   0.00001
   D44       -3.14159  -0.00001   0.00000  -0.00000  -0.00000  -3.14159
   D45       -0.00001  -0.00007   0.00000  -0.00000  -0.00000  -0.00001
         Item               Value     Threshold  Converged?
 Maximum Force            4.416145     0.000450     NO 
 RMS     Force            0.662110     0.000300     NO 
 Maximum Displacement     0.759331     0.001800     NO 
 RMS     Displacement     0.234435     0.001200     NO 
 Predicted change in Energy=-4.299489D-01
 GradGradGradGradGradGradGradGradGradGradGradGradGradGradGradGradGradGrad

                          Input orientation:                          
 ---------------------------------------------------------------------
 Center     Atomic      Atomic             Coordinates (Angstroms)
 Number     Number       Type             X           Y           Z
 ---------------------------------------------------------------------
      1          6           0        0.345077    0.290890    0.086538
      2          6           0        1.654351    0.137648   -0.373586
      3          6           0        2.504785    1.246226   -0.445566
      4          6           0        2.058160    2.512192   -0.060667
      5          6           0        0.750366    2.672440    0.400284
      6          6           0       -0.096913    1.559959    0.470491
      7          6           0       -0.416957   -1.163162    0.064502
      8          6           0        0.330233   -2.251754   -0.386115
      9          6           0       -0.247877   -3.523467   -0.434489
     10          6           0       -1.576530   -3.713267   -0.032396
     11          6           0       -2.324054   -2.619517    0.419300
     12          6           0       -1.735576   -1.353065    0.463270
     13          1           0        2.012081   -0.828612   -0.672910
     14          1           0        2.717051    3.358795   -0.118742
[...]
                 (A) (A) (A) (A) (A) (A) (A) (A) (A) (A) (A) (A)
                 (A) (A) (A) (A) (A) (A) (A) (A) (A) (A) (A) (A)
                 (A) (A) (A) (A) (A) (A) (A) (A) (A) (A) (A) (A)
                 (A) (A) (A) (A) (A) (A) (A) (A) (A) (A) (A) (A)
                 (A) (A) (A) (A) (A) (A) (A) (A) (A) (A) (A) (A)
                 (A) (A) (A) (A) (A) (A) (A) (A) (A) (A) (A) (A)
                 (A) (A) (A) (A) (A) (A) (A) (A) (A) (A) (A) (A)
                 (A) (A) (A) (A) (A) (A) (A) (A) (A) (A) (A) (A)
                 (A) (A) (A) (A) (A) (A) (A) (A) (A) (A) (A) (A)
                 (A) (A) (A) (A) (A) (A) (A) (A) (A) (A) (A) (A)
                 (A) (A) (A) (A) (A) (A) (A) (A) (A) (A) (A) (A)
                 (A) (A) (A) (A) (A) (A) (A) (A) (A) (A) (A) (A)
                 (A) (A) (A) (A) (A) (A) (A) (A) (A) (A) (A) (A)
                 (A) (A) (A) (A) (A) (A) (A) (A) (A) (A) (A) (A)
                 (A) (A) (A) (A) (A) (A) (A) (A) (A) (A) (A) (A)
                 (A) (A) (A) (A) (A) (A) (A) (A) (A) (A) (A) (A)
                 (A) (A) (A) (A) (A) (A) (A) (A) (A) (A) (A) (A)
                 (A) (A) (A) (A) (A) (A) (A) (A) (A) (A) (A) (A)
                 (A) (A) (A) (A) (A) (A) (A) (A) (A) (A) (A) (A)
                 (A) (A) (A) (A) (A) (A) (A) (A) (A) (A) (A) (A)
                 (A) (A) (A) (A) (A) (A) (A) (A) (A) (A) (A) (A)
                 (A) (A) (A) (A) (A)
 The electronic state is 1-A.
 Alpha  occ. eigenvalues -- -101.58242-101.58203-101.58080-101.58043-101.57926
 Alpha  occ. eigenvalues -- -101.57869-101.57761 -10.28497 -10.28414 -10.28019
 Alpha  occ. eigenvalues --  -10.27813 -10.27784 -10.27601 -10.27143 -10.24084
 Alpha  occ. eigenvalues --  -10.24049 -10.22531 -10.22453 -10.22170  -9.49705
 Alpha  occ. eigenvalues --   -9.49670  -9.49536  -9.49518  -9.49385  -9.49339
 Alpha  occ. eigenvalues --   -9.49213  -7.26210  -7.26175  -7.26028  -7.26008
 Alpha  occ. eigenvalues --   -7.25874  -7.25825  -7.25688  -7.25186  -7.25151
 Alpha  occ. eigenvalues --   -7.25099  -7.25063  -7.25013  -7.24997  -7.24953
 Alpha  occ. eigenvalues --   -7.24926  -7.24863  -7.24819  -7.24802  -7.24753
 Alpha  occ. eigenvalues --   -7.24690  -7.24653  -0.96639  -0.95037  -0.91941
 Alpha  occ. eigenvalues --   -0.90810  -0.90240  -0.88435  -0.87099  -0.85915
 Alpha  occ. eigenvalues --   -0.84411  -0.79973  -0.76420  -0.75378  -0.74687
 Alpha  occ. eigenvalues --   -0.67696  -0.64375  -0.63355  -0.61754  -0.55365
 Alpha  occ. eigenvalues --   -0.54981  -0.53870  -0.53504  -0.50273  -0.48623
 Alpha  occ. eigenvalues --   -0.47330  -0.47242  -0.46866  -0.46415  -0.45230
 Alpha  occ. eigenvalues --   -0.44296  -0.42682  -0.41971  -0.41350  -0.40554
 Alpha  occ. eigenvalues --   -0.39683  -0.38279  -0.37092  -0.35945  -0.35778
 Alpha  occ. eigenvalues --   -0.35507  -0.35161  -0.34166  -0.33975  -0.33861
 Alpha  occ. eigenvalues --   -0.33632  -0.32877  -0.32017  -0.28855  -0.28047
 Alpha  occ. eigenvalues --   -0.27095  -0.26918
 Alpha virt. eigenvalues --   -0.06728  -0.06532  -0.05885  -0.05263  -0.05096
 Alpha virt. eigenvalues --   -0.03151  -0.01036  -0.00422  -0.00061   0.00758
 Alpha virt. eigenvalues --    0.01627   0.01885   0.01927   0.02375   0.02464
 Alpha virt. eigenvalues --    0.03459   0.03874   0.04760   0.05000   0.05505
 Alpha virt. eigenvalues --    0.05758   0.05954   0.06938   0.07252   0.07628
 Alpha virt. eigenvalues --    0.07900   0.08144   0.08429   0.08622   0.08747
 Alpha virt. eigenvalues --    0.09334   0.09453   0.09868   0.10258   0.10485
 Alpha virt. eigenvalues --    0.10862   0.11384   0.11556   0.12003   0.12337
 Alpha virt. eigenvalues --    0.12491   0.12826   0.13128   0.13562   0.14002
 Alpha virt. eigenvalues --    0.14243   0.14379   0.15134   0.15348   0.15732
 Alpha virt. eigenvalues --    0.15827   0.16971   0.17111   0.17788   0.17979
 Alpha virt. eigenvalues --    0.18118   0.18368   0.18748   0.18904   0.19067
 Alpha virt. eigenvalues --    0.19660   0.19954   0.20041   0.20707   0.21161
 Alpha virt. eigenvalues --    0.21449   0.21884   0.22543   0.22625   0.23016
 Alpha virt. eigenvalues --    0.23123   0.23625   0.24381   0.24477   0.24621
 Alpha virt. eigenvalues --    0.25285   0.25611   0.26101   0.26186   0.27229
 Alpha virt. eigenvalues --    0.27328   0.27495   0.28071   0.28277   0.28383
 Alpha virt. eigenvalues --    0.28597   0.29197   0.29852   0.29976   0.30529
 Alpha virt. eigenvalues --    0.30920   0.31304   0.32322   0.33173   0.35127
 Alpha virt. eigenvalues --    0.39715   0.40318   0.41763   0.42242   0.42607
 Alpha virt. eigenvalues --    0.43435   0.43933   0.44203   0.44601   0.44967
 Alpha virt. eigenvalues --    0.45233   0.45445   0.45652   0.46094   0.47088
 Alpha virt. eigenvalues --    0.47660   0.47822   0.47969   0.48558   0.49803
 Alpha virt. eigenvalues --    0.49982   0.50058   0.50894   0.52039   0.52442
 Alpha virt. eigenvalues --    0.54165   0.55694   0.56073   0.57049   0.57142
 Alpha virt. eigenvalues --    0.57642   0.58517   0.58913   0.59338   0.60173
 Alpha virt. eigenvalues --    0.60608   0.60965   0.62457   0.62938   0.63389
 Alpha virt. eigenvalues --    0.63782   0.64795   0.65194   0.65608   0.66066
 Alpha virt. eigenvalues --    0.66990   0.67656   0.67825   0.68285   0.69260
 Alpha virt. eigenvalues --    0.69381   0.70536   0.73852   0.75577   0.76896
 Alpha virt. eigenvalues --    0.78518   0.80218   0.81381   0.81803   0.82396
 Alpha virt. eigenvalues --    0.82663   0.83013   0.83424   0.83585   0.83848
 Alpha virt. eigenvalues --    0.83929   0.84141   0.84313   0.84693   0.84843
 Alpha virt. eigenvalues --    0.85027   0.85528   0.85631   0.86162   0.87246
 Alpha virt. eigenvalues --    0.87894   0.88507   0.88739   0.89093   0.89869
 Alpha virt. eigenvalues --    0.90507   0.91230   0.91698   0.91802   0.92350
 Alpha virt. eigenvalues --    0.93445   0.93727   0.93791   0.94308   0.94603
 Alpha virt. eigenvalues --    0.94852   0.95428   0.95819   0.97161   0.97908
 Alpha virt. eigenvalues --    0.98750   0.99081   0.99878   1.01663   1.03184
 Alpha virt. eigenvalues --    1.04209   1.04826   1.05357   1.08587   1.10042
 Alpha virt. eigenvalues --    1.12616   1.13313   1.18223   1.18354   1.19525
 Alpha virt. eigenvalues --    1.20555   1.21312   1.22060   1.22422   1.23436
 Alpha virt. eigenvalues --    1.25123   1.25987   1.26859   1.27652   1.27876
 Alpha virt. eigenvalues --    1.28364   1.29313   1.29831   1.31219   1.32822
 Alpha virt. eigenvalues --    1.35125   1.36545   1.38020   1.39575   1.42423
 Alpha virt. eigenvalues --    1.45480   1.47207   1.47816   1.54642   1.55340
 Alpha virt. eigenvalues --    1.55707   1.58715   1.59338   1.59784   1.62470
 Alpha virt. eigenvalues --    1.64293   1.65275   1.67276   1.70948   1.72270
 Alpha virt. eigenvalues --    1.74451   1.75821   1.77900   1.79490   1.81245
 Alpha virt. eigenvalues --    1.83361   1.84312   1.84409   1.85159   1.86422
 Alpha virt. eigenvalues --    1.89509   1.90482   1.91787   1.92922   1.95399
 Alpha virt. eigenvalues --    1.97754   2.01320   2.03687   2.05365   2.06180
 Alpha virt. eigenvalues --    2.07476   2.08528   2.10829   2.16141   2.19875
 Alpha virt. eigenvalues --    2.22005   2.22399   2.23649   2.24143   2.24454
 Alpha virt. eigenvalues --    2.26249   2.26850   2.27739   2.28310   2.29907
 Alpha virt. eigenvalues --    2.31001   2.31923   2.33090   2.33737   2.35459
 Alpha virt. eigenvalues --    2.38420   2.41423   2.41851   2.42304   2.42501
 Alpha virt. eigenvalues --    2.46007   2.47074   2.49635   2.50718   2.51688
 Alpha virt. eigenvalues --    2.53199   2.54603   2.55340   2.58051   2.59899
 Alpha virt. eigenvalues --    2.61938   2.63591   2.66211   2.66976   2.68453
 Alpha virt. eigenvalues --    2.69115   2.69391   2.71497   2.73380   2.74502
 Alpha virt. eigenvalues --    2.75451   2.76210   2.81832   2.82387   2.83447
 Alpha virt. eigenvalues --    2.88242   2.89680   2.96179   2.97029   3.04924
 Alpha virt. eigenvalues --    3.07032   3.07358   3.08055   3.10774   3.12562
 Alpha virt. eigenvalues --    3.14134   3.16001   3.18900   3.22772   3.24730
 Alpha virt. eigenvalues --    3.27681   3.33686   3.37083   3.42669   3.50638
 Alpha virt. eigenvalues --    3.60372   3.66383   3.66678   3.75423   3.79646
 Alpha virt. eigenvalues --    3.89839   3.96217   4.02463   4.08323   4.30437
 Alpha virt. eigenvalues --    4.80013   4.80622   9.73821   9.76031   9.77945
 Alpha virt. eigenvalues --    9.78498   9.80384   9.81851   9.83690  23.31325
 Alpha virt. eigenvalues --   23.47860  23.79156  23.82234  23.84535  23.88112
 Alpha virt. eigenvalues --   23.92791  23.94018  23.98587  24.03397  24.08270
 Alpha virt. eigenvalues --   24.13338  25.76422  25.79687  25.80233  25.81593
 Alpha virt. eigenvalues --   25.86048  25.90507  25.96836  26.06890  26.09625
 Alpha virt. eigenvalues --   26.10377  26.16812  26.17409  26.23080  26.34061
 Alpha virt. eigenvalues --   26.46707  26.57334  26.58875  26.63099  26.73718
 Alpha virt. eigenvalues --   26.85325  26.98310 215.72813 215.75114 215.77342
 Alpha virt. eigenvalues --  215.78018 215.80182 215.82350 215.84060
          Condensed to atoms (all electrons):
               1          2          3          4          5          6
     1  C   26.516870  -5.647312  -7.261391  -1.737254   1.459464   0.271655
     2  C   -5.647312  37.047687 -10.082244  -1.411937  -7.918973  10.561003
     3  C   -7.261391 -10.082244  24.208208  -2.744456  -0.914855  -5.127654
     4  C   -1.737254  -1.411937  -2.744456  29.726962  -7.759080  -5.864370
     5  C    1.459464  -7.918973  -0.914855  -7.759080  22.212850  -0.476128
     6  C    0.271655  10.561003  -5.127654  -5.864370  -0.476128  22.744796
     7  C    3.547855 -13.967807   6.511402  -3.830500  -0.179361  -7.706149
     8  C   -2.310261   0.883220  -0.741603   0.715081  -0.306463  -0.506440
     9  C   -1.002085   0.171451   0.663010  -0.315080   0.027652  -0.840740
    10  C   -0.122925   0.099299  -0.216780   0.075812  -0.017506   0.442422
    11  C   -1.803770  -0.169023  -0.345179   0.201813  -0.043574  -0.417015
    12  C   -3.135157  -4.233950   1.708993  -0.037235  -1.086096  -5.276135
    13  H    0.042027   0.069179   0.059747   0.025068   0.010527  -0.146624
    14  H    0.069419  -0.037903   0.034851   0.144263   0.098880   0.022084
    15  H    0.105035   0.046244  -0.033679   0.005005   0.007371   0.086981
    16  Cl  -0.713312  -0.474286   0.793142  -0.584952   0.133419  -0.348649
    17  Cl  -0.874526   0.997408  -0.083755   1.582807   0.362178  -1.334376
    18  Cl  -0.128471  -0.014811   0.002995   0.005250  -0.003023  -0.042082
    19  Cl  -0.202017  -0.015838  -0.079975  -0.736558  -0.348386   0.872885
    20  Cl  -0.047496  -0.015132   0.008462  -0.002032  -0.000723  -0.036694
    21  Cl  -0.238621  -0.018480   0.053919  -0.013717  -0.009751  -0.101634
    22  Cl  -0.285737   0.976227  -1.160335  -0.354994   0.044015   0.256601
               7          8          9         10         11         12
     1  C    3.547855  -2.310261  -1.002085  -0.122925  -1.803770  -3.135157
     2  C  -13.967807   0.883220   0.171451   0.099299  -0.169023  -4.233950
     3  C    6.511402  -0.741603   0.663010  -0.216780  -0.345179   1.708993
     4  C   -3.830500   0.715081  -0.315080   0.075812   0.201813  -0.037235
     5  C   -0.179361  -0.306463   0.027652  -0.017506  -0.043574  -1.086096
     6  C   -7.706149  -0.506440  -0.840740   0.442422  -0.417015  -5.276135
     7  C   33.444237  -3.827060  -8.431932   5.487956  -2.600619   0.777717
     8  C   -3.827060  10.771016   0.749142  -4.029500   3.118802   1.529608
     9  C   -8.431932   0.749142  23.111570  -9.033701  -5.593040   6.264345
    10  C    5.487956  -4.029500  -9.033701  23.352999   0.190523  -8.243433
    11  C   -2.600619   3.118802  -5.593040   0.190523  16.796837  -2.911928
    12  C    0.777717   1.529608   6.264345  -8.243433  -2.911928  22.202460
    13  H    0.219873  -0.002800  -0.022919   0.010746   0.008146   0.101645
    14  H    0.017670  -0.001680  -0.000070   0.000034   0.000002   0.002100
    15  H    0.007381   0.348699  -0.093875  -0.008577  -0.030649  -0.075941
    16  Cl   0.041556  -0.292999   1.092756  -0.914049  -0.395027  -0.495337
    17  Cl  -2.230593   0.345972   0.217066  -0.194668   0.050804  -0.851817
    18  Cl  -0.464885   0.205631  -0.102895  -0.252240  -0.234726   0.537177
    19  Cl   0.124235  -0.040112   0.007818  -0.000226  -0.010281   0.002604
    20  Cl   0.197072  -0.137431  -0.816104   0.232597   0.590703  -0.650334
    21  Cl  -0.738340   0.311516   0.281828  -0.668466  -0.221530   0.540428
    22  Cl  -0.197050   0.021348   0.007648   0.003251  -0.003365  -0.055066
              13         14         15         16         17         18
     1  C    0.042027   0.069419   0.105035  -0.713312  -0.874526  -0.128471
     2  C    0.069179  -0.037903   0.046244  -0.474286   0.997408  -0.014811
     3  C    0.059747   0.034851  -0.033679   0.793142  -0.083755   0.002995
     4  C    0.025068   0.144263   0.005005  -0.584952   1.582807   0.005250
     5  C    0.010527   0.098880   0.007371   0.133419   0.362178  -0.003023
     6  C   -0.146624   0.022084   0.086981  -0.348649  -1.334376  -0.042082
     7  C    0.219873   0.017670   0.007381   0.041556  -2.230593  -0.464885
     8  C   -0.002800  -0.001680   0.348699  -0.292999   0.345972   0.205631
     9  C   -0.022919  -0.000070  -0.093875   1.092756   0.217066  -0.102895
    10  C    0.010746   0.000034  -0.008577  -0.914049  -0.194668  -0.252240
    11  C    0.008146   0.000002  -0.030649  -0.395027   0.050804  -0.234726
    12  C    0.101645   0.002100  -0.075941  -0.495337  -0.851817   0.537177
    13  H    0.511178  -0.000209  -0.000585  -0.010869  -0.004542   0.000548
    14  H   -0.000209   0.489779  -0.000002   0.000016  -0.001726  -0.000001
    15  H   -0.000585  -0.000002   0.505399  -0.002496  -0.008507   0.000568
    16  Cl  -0.010869   0.000016  -0.002496  18.776723   0.120967  -0.304123
    17  Cl  -0.004542  -0.001726  -0.008507   0.120967  18.651458  -0.005192
    18  Cl   0.000548  -0.000001   0.000568  -0.304123  -0.005192  17.392650
    19  Cl   0.000164  -0.004140   0.000344   0.008039  -0.335516  -0.000239
    20  Cl   0.000133   0.000000  -0.001251  -0.026616   0.009335  -0.198916
    21  Cl   0.000004   0.000000  -0.009824   0.012898  -0.016289   0.007281
    22  Cl  -0.018116  -0.007768   0.000161  -0.006728  -0.004499  -0.000001
              19         20         21         22
     1  C   -0.202017  -0.047496  -0.238621  -0.285737
     2  C   -0.015838  -0.015132  -0.018480   0.976227
     3  C   -0.079975   0.008462   0.053919  -1.160335
     4  C   -0.736558  -0.002032  -0.013717  -0.354994
     5  C   -0.348386  -0.000723  -0.009751   0.044015
     6  C    0.872885  -0.036694  -0.101634   0.256601
     7  C    0.124235   0.197072  -0.738340  -0.197050
     8  C   -0.040112  -0.137431   0.311516   0.021348
     9  C    0.007818  -0.816104   0.281828   0.007648
    10  C   -0.000226   0.232597  -0.668466   0.003251
    11  C   -0.010281   0.590703  -0.221530  -0.003365
    12  C    0.002604  -0.650334   0.540428  -0.055066
    13  H    0.000164   0.000133   0.000004  -0.018116
    14  H   -0.004140   0.000000   0.000000  -0.007768
    15  H    0.000344  -0.001251  -0.009824   0.000161
    16  Cl   0.008039  -0.026616   0.012898  -0.006728
    17  Cl  -0.335516   0.009335  -0.016289  -0.004499
    18  Cl  -0.000239  -0.198916   0.007281  -0.000001
    19  Cl  17.313384   0.000023   0.000456  -0.014303
    20  Cl   0.000023  17.448653  -0.186115   0.000061
    21  Cl   0.000456  -0.186115  17.453621   0.000146
    22  Cl  -0.014303   0.000061   0.000146  17.371107
 Mulliken charges:
               1
     1  C   -0.501991
     2  C   -0.844026
     3  C    0.747176
     4  C   -1.089898
     5  C    0.707562
     6  C   -1.033740
     7  C   -0.202657
     8  C   -0.803686
     9  C   -0.341844
    10  C   -0.193569
    11  C   -0.177906
    12  C   -0.614647
    13  H    0.147677
    14  H    0.174400
    15  H    0.152200
    16  Cl   0.589928
    17  Cl   0.608010
    18  Cl   0.599504
    19  Cl   0.457638
    20  Cl   0.631804
    21  Cl   0.560668
    22  Cl   0.427396
 Sum of Mulliken charges =  -0.00000
 Mulliken charges with hydrogens summed into heavy atoms:
               1
     1  C   -0.501991
     2  C   -0.696349
     3  C    0.747176
     4  C   -0.915498
     5  C    0.707562
     6  C   -1.033740
     7  C   -0.202657
     8  C   -0.651485
     9  C   -0.341844
    10  C   -0.193569
    11  C   -0.177906
    12  C   -0.614647
    16  Cl   0.589928
    17  Cl   0.608010
    18  Cl   0.599504
    19  Cl   0.457638
    20  Cl   0.631804
    21  Cl   0.560668
    22  Cl   0.427396
 Electronic spatial extent (au):  <R**2>=           9778.7080
 Charge=             -0.0000 electrons
 Dipole moment (field-independent basis, Debye):
    X=              0.9173    Y=              1.1203    Z=              0.1464  Tot=              1.4553
 Quadrupole moment (field-independent basis, Debye-Ang):
   XX=           -157.7808   YY=           -157.8850   ZZ=           -158.8822
   XY=              1.0016   XZ=              0.0035   YZ=             -0.7616
 Traceless Quadrupole moment (field-independent basis, Debye-Ang):
   XX=              0.4019   YY=              0.2976   ZZ=             -0.6995
   XY=              1.0016   XZ=              0.0035   YZ=             -0.7616
 Octapole moment (field-independent basis, Debye-Ang**2):
  XXX=             12.6495  YYY=            -14.3326  ZZZ=             -1.6888  XYY=             -9.5687
  XXY=             -9.8184  XXZ=              0.5887  XZZ=            -10.1137  YZZ=             -4.2358
  YYZ=             -1.3355  XYZ=             -3.1376
 Hexadecapole moment (field-independent basis, Debye-Ang**3):
 XXXX=          -8488.2441 YYYY=          -2155.1709 ZZZZ=          -1901.6616 XXXY=              3.1643
 XXXZ=            -19.8974 YYYX=            -14.9492 YYYZ=            -15.7421 ZZZX=             -7.6168
 ZZZY=              1.1936 XXYY=          -1829.7489 XXZZ=          -1789.2205 YYZZ=           -639.7266
 XXYZ=            -16.1577 YYXZ=             -2.8306 ZZXY=             -6.1364
 N-N= 2.320694450461D+03 E-N=-1.336248197739D+04  KE= 3.671259095886D+03
 1\1\GINC-CN321\FOpt\RB3LYP\6-311+G(d,p)\C12H3Cl7\20CY91R06\02-Apr-2022
 \0\\# opt b3lyp/6-311+g(d,p) scf=xqc\\Title Card Required\\0,1\C,0.440
 0770793,0.1504600409,-0.0242183591\C,1.2225439469,0.4113756073,-1.1502
 137258\C,1.9232831112,1.6071976662,-1.2457125812\C,1.8644499174,2.5563
 146425,-0.234758653\C,1.088453595,2.297964621,0.891969916\C,0.37505063
 89,1.098896157,1.0070595744\C,-0.285716869,-1.152549974,0.0642651511\C
 ,0.3917751265,-2.2736376148,0.5362021523\C,-0.2371095467,-3.5093732082
 ,0.6186367297\C,-1.571731562,-3.6519823357,0.2244652887\C,-2.265518396
 ,-2.5296592152,-0.2586463387\C,-1.6199262915,-1.28772122,-0.3369853315
 \H,1.2737789312,-0.3162173566,-1.9493217635\H,2.4110794379,3.485797540
 5,-0.3122682545\H,1.4225020668,-2.1831049047,0.852305567\Cl,-2.4721010
 464,0.1073658122,-0.9409420303\Cl,-0.5907513682,0.7725359491,2.4209347
 203\Cl,-3.9200476806,-2.6857114267,-0.7604246331\Cl,1.0383326868,3.505
 8201191,2.1494184346\Cl,-2.3582769997,-5.1949873059,0.3271553195\Cl,0.
 6771911827,-4.8654663271,1.2236223327\Cl,2.8997916696,1.9259286931,-2.
 6650853255\\Version=EM64L-G16RevB.01\State=1-A\HF=-3680.7471141\RMSD=9
 .778e-09\RMSF=1.259e-05\Dipole=0.5251279,0.1214072,-0.1931927\Quadrupo
 le=1.0323131,-0.270042,-0.7622711,0.3153249,0.0967449,-0.3330536\PG=C0
 1 [X(C12H3Cl7)]\\@


 FRICTION IS A DRAG,
 AND ENTROPY AIN'T WHAT IT USED TO BE.
 Job cpu time:       1 days 16 hours 44 minutes 11.0 seconds.
 Elapsed time:       0 days 20 hours 22 minutes 16.4 seconds.
 File lengths (MBytes):  RWF=    159 Int=      0 D2E=      0 Chk=     23 Scr=      1
 Normal termination of Gaussian 16 at Sat Apr  2 21:58:43 2022.
