 Entering Gaussian System, Link 0=g16
 Input=2,2prime,3,6prime-Tetrachlorobiphenyl1.gjf
 Output=2,2prime,3,6prime-Tetrachlorobiphenyl1.log
 Initial command:
 /home/apps/g16/l1.exe "./Gau-329058.inp" -scrdir="./"
 Entering Link 1 = /home/apps/g16/l1.exe PID=    329059.
  
 Copyright (c) 1988-2017, Gaussian, Inc.  All Rights Reserved.
  
 This is part of the Gaussian(R) 16 program.  It is based on
 the Gaussian(R) 09 system (copyright 2009, Gaussian, Inc.),
 the Gaussian(R) 03 system (copyright 2003, Gaussian, Inc.),
 the Gaussian(R) 98 system (copyright 1998, Gaussian, Inc.),
 the Gaussian(R) 94 system (copyright 1995, Gaussian, Inc.),
 the Gaussian 92(TM) system (copyright 1992, Gaussian, Inc.),
 the Gaussian 90(TM) system (copyright 1990, Gaussian, Inc.),
 the Gaussian 88(TM) system (copyright 1988, Gaussian, Inc.),
 the Gaussian 86(TM) system (copyright 1986, Carnegie Mellon
 University), and the Gaussian 82(TM) system (copyright 1983,
 Carnegie Mellon University). Gaussian is a federally registered
 trademark of Gaussian, Inc.
  
 This software contains proprietary and confidential information,
 including trade secrets, belonging to Gaussian, Inc.
  
 This software is provided under written license and may be
 used, copied, transmitted, or stored only in accord with that
 written license.
  
 The following legend is applicable only to US Government
 contracts under FAR:
  
                    RESTRICTED RIGHTS LEGEND
  
 Use, reproduction and disclosure by the US Government is
 subject to restrictions as set forth in subparagraphs (a)
 and (c) of the Commercial Computer Software - Restricted
 Rights clause in FAR 52.227-19.
  
 Gaussian, Inc.
 340 Quinnipiac St., Bldg. 40, Wallingford CT 06492
  
  
 ---------------------------------------------------------------
 Warning -- This program may not be used in any manner that
 competes with the business of Gaussian, Inc. or will provide
 assistance to any competitor of Gaussian, Inc.  The licensee
 of this program is prohibited from giving any competitor of
 Gaussian, Inc. access to this program.  By using this program,
 the user acknowledges that Gaussian, Inc. is engaged in the
 business of creating and licensing software in the field of
 computational chemistry and represents and warrants to the
 licensee that it is not a competitor of Gaussian, Inc. and that
 it will not use this program in any manner prohibited above.
 ---------------------------------------------------------------
  

 Cite this work as:
 Gaussian 16, Revision B.01,
 M. J. Frisch, G. W. Trucks, H. B. Schlegel, G. E. Scuseria, 
 M. A. Robb, J. R. Cheeseman, G. Scalmani, V. Barone, 
 G. A. Petersson, H. Nakatsuji, X. Li, M. Caricato, A. V. Marenich, 
 J. Bloino, B. G. Janesko, R. Gomperts, B. Mennucci, H. P. Hratchian, 
 J. V. Ortiz, A. F. Izmaylov, J. L. Sonnenberg, D. Williams-Young, 
 F. Ding, F. Lipparini, F. Egidi, J. Goings, B. Peng, A. Petrone, 
 T. Henderson, D. Ranasinghe, V. G. Zakrzewski, J. Gao, N. Rega, 
 G. Zheng, W. Liang, M. Hada, M. Ehara, K. Toyota, R. Fukuda, 
 J. Hasegawa, M. Ishida, T. Nakajima, Y. Honda, O. Kitao, H. Nakai, 
 T. Vreven, K. Throssell, J. A. Montgomery, Jr., J. E. Peralta, 
 F. Ogliaro, M. J. Bearpark, J. J. Heyd, E. N. Brothers, K. N. Kudin, 
 V. N. Staroverov, T. A. Keith, R. Kobayashi, J. Normand, 
 K. Raghavachari, A. P. Rendell, J. C. Burant, S. S. Iyengar, 
 J. Tomasi, M. Cossi, J. M. Millam, M. Klene, C. Adamo, R. Cammi, 
 J. W. Ochterski, R. L. Martin, K. Morokuma, O. Farkas, 
 J. B. Foresman, and D. J. Fox, Gaussian, Inc., Wallingford CT, 2016.
 
 ******************************************
 Gaussian 16:  EM64L-G16RevB.01 20-Dec-2017
                22-Apr-2022 
 ******************************************
 %mem=48GB
 %nprocshared=16
 Will use up to   16 processors via shared memory.
 --------------------------------
 # opt b3lyp/6-311+g(d,p) scf=xqc
 --------------------------------
 1/18=20,19=15,26=3,38=1/1,3;
 2/9=110,12=2,17=6,18=5,40=1/2;
 3/5=4,6=6,7=111,11=2,25=1,30=1,71=1,74=-5/1,2,3;
 4//1;
 5/5=2,8=3,13=1,38=5/2,8;
 6/7=2,8=2,9=2,10=2,28=1/1;
 7//1,2,3,16;
 1/18=20,19=15,26=3/3(2);
 2/9=110/2;
 99//99;
 2/9=110/2;
 3/5=4,6=6,7=111,11=2,25=1,30=1,71=1,74=-5/1,2,3;
 4/5=5,16=3,69=1/1;
 5/5=2,8=3,13=1,38=5/2,8;
 7//1,2,3,16;
 1/18=20,19=15,26=3/3(-5);
 2/9=110/2;
 6/7=2,8=2,9=2,10=2,19=2,28=1/1;
 99/9=1/99;
 -------------------
 Title Card Required
 -------------------
 Symbolic Z-matrix:
 Charge =  0 Multiplicity = 1
 C                    -0.70222   1.5304    0.66404 
 C                     0.63016   1.56028   0.23069 
 C                     1.33805   2.76973   0.22462 
 C                     0.71357   3.9493    0.6519 
 C                    -0.61882   3.91941   1.08524 
 C                    -1.32671   2.70996   1.09131 
 C                    -1.73057  -0.22656   0.67286 
 C                    -1.10608  -1.40613   0.24559 
 C                    -1.81398  -2.61558   0.25166 
 C                    -3.14636  -2.64547   0.68501 
 C                    -3.77084  -1.4659    1.11229 
 C                    -3.06295  -0.25645   1.10621 
 H                     2.35536   2.79255  -0.10625 
 H                     1.25406   4.87274   0.64726 
 H                    -1.09563   4.82004   1.41147 
 H                    -0.08878  -1.38331  -0.08528 
 H                    -1.33717  -3.5162   -0.07457 
 H                    -3.68685  -3.56891   0.68965 
 Cl                   -3.84724   1.22495   1.64282 
 Cl                   -3.00003   2.67243   1.63555 
 Cl                   -5.44416  -1.50343   1.65653 
 Cl                    1.41445   0.07888  -0.30591 
 

 GradGradGradGradGradGradGradGradGradGradGradGradGradGradGradGradGradGrad
 Berny optimization.
 Initialization pass.
                           ----------------------------
                           !    Initial Parameters    !
                           ! (Angstroms and Degrees)  !
 --------------------------                            --------------------------
 ! Name  Definition              Value          Derivative Info.                !
 --------------------------------------------------------------------------------
 ! R1    R(1,2)                  1.4014         estimate D2E/DX2                !
 ! R2    R(1,6)                  1.4014         estimate D2E/DX2                !
 ! R3    R(2,3)                  1.4014         estimate D2E/DX2                !
 ! R4    R(2,22)                 1.76           estimate D2E/DX2                !
 ! R5    R(3,4)                  1.4014         estimate D2E/DX2                !
 ! R6    R(3,13)                 1.07           estimate D2E/DX2                !
 ! R7    R(4,5)                  1.4014         estimate D2E/DX2                !
 ! R8    R(4,14)                 1.07           estimate D2E/DX2                !
 ! R9    R(5,6)                  1.4014         estimate D2E/DX2                !
 ! R10   R(5,15)                 1.07           estimate D2E/DX2                !
 ! R11   R(6,20)                 1.76           estimate D2E/DX2                !
 ! R12   R(7,8)                  1.4014         estimate D2E/DX2                !
 ! R13   R(7,12)                 1.4014         estimate D2E/DX2                !
 ! R14   R(8,9)                  1.4014         estimate D2E/DX2                !
 ! R15   R(8,16)                 1.07           estimate D2E/DX2                !
 ! R16   R(9,10)                 1.4014         estimate D2E/DX2                !
 ! R17   R(9,17)                 1.07           estimate D2E/DX2                !
 ! R18   R(10,11)                1.4014         estimate D2E/DX2                !
 ! R19   R(10,18)                1.07           estimate D2E/DX2                !
 ! R20   R(11,12)                1.4014         estimate D2E/DX2                !
 ! R21   R(11,21)                1.76           estimate D2E/DX2                !
 ! R22   R(12,19)                1.76           estimate D2E/DX2                !
 ! R23   R(19,20)                1.6772         estimate D2E/DX2                !
 ! A1    A(2,1,6)              120.0            estimate D2E/DX2                !
 ! A2    A(1,2,3)              120.0            estimate D2E/DX2                !
 ! A3    A(1,2,22)             120.0            estimate D2E/DX2                !
 ! A4    A(3,2,22)             120.0            estimate D2E/DX2                !
 ! A5    A(2,3,4)              120.0            estimate D2E/DX2                !
 ! A6    A(2,3,13)             120.0            estimate D2E/DX2                !
 ! A7    A(4,3,13)             120.0            estimate D2E/DX2                !
 ! A8    A(3,4,5)              120.0            estimate D2E/DX2                !
 ! A9    A(3,4,14)             120.0            estimate D2E/DX2                !
 ! A10   A(5,4,14)             120.0            estimate D2E/DX2                !
 ! A11   A(4,5,6)              120.0            estimate D2E/DX2                !
 ! A12   A(4,5,15)             120.0            estimate D2E/DX2                !
 ! A13   A(6,5,15)             120.0            estimate D2E/DX2                !
 ! A14   A(1,6,5)              120.0            estimate D2E/DX2                !
 ! A15   A(1,6,20)             120.0            estimate D2E/DX2                !
 ! A16   A(5,6,20)             120.0            estimate D2E/DX2                !
 ! A17   A(8,7,12)             120.0            estimate D2E/DX2                !
 ! A18   A(7,8,9)              120.0            estimate D2E/DX2                !
 ! A19   A(7,8,16)             120.0            estimate D2E/DX2                !
 ! A20   A(9,8,16)             120.0            estimate D2E/DX2                !
 ! A21   A(8,9,10)             120.0            estimate D2E/DX2                !
 ! A22   A(8,9,17)             120.0            estimate D2E/DX2                !
 ! A23   A(10,9,17)            120.0            estimate D2E/DX2                !
 ! A24   A(9,10,11)            120.0            estimate D2E/DX2                !
 ! A25   A(9,10,18)            120.0            estimate D2E/DX2                !
 ! A26   A(11,10,18)           120.0            estimate D2E/DX2                !
 ! A27   A(10,11,12)           120.0            estimate D2E/DX2                !
 ! A28   A(10,11,21)           120.0            estimate D2E/DX2                !
 ! A29   A(12,11,21)           120.0            estimate D2E/DX2                !
 ! A30   A(7,12,11)            120.0            estimate D2E/DX2                !
 ! A31   A(7,12,19)            120.0            estimate D2E/DX2                !
 ! A32   A(11,12,19)           120.0            estimate D2E/DX2                !
 ! A33   A(12,19,20)           120.0            estimate D2E/DX2                !
 ! A34   A(6,20,19)            120.0            estimate D2E/DX2                !
 ! D1    D(6,1,2,3)              0.0001         estimate D2E/DX2                !
 ! D2    D(6,1,2,22)           180.0            estimate D2E/DX2                !
 ! D3    D(2,1,6,5)             -0.0001         estimate D2E/DX2                !
 ! D4    D(2,1,6,20)           180.0            estimate D2E/DX2                !
 ! D5    D(1,2,3,4)              0.0            estimate D2E/DX2                !
 ! D6    D(1,2,3,13)           180.0            estimate D2E/DX2                !
 ! D7    D(22,2,3,4)          -179.9999         estimate D2E/DX2                !
 ! D8    D(22,2,3,13)            0.0001         estimate D2E/DX2                !
 ! D9    D(2,3,4,5)             -0.0001         estimate D2E/DX2                !
 ! D10   D(2,3,4,14)           180.0            estimate D2E/DX2                !
 ! D11   D(13,3,4,5)           179.9999         estimate D2E/DX2                !
 ! D12   D(13,3,4,14)            0.0            estimate D2E/DX2                !
 ! D13   D(3,4,5,6)              0.0001         estimate D2E/DX2                !
 ! D14   D(3,4,5,15)          -179.9999         estimate D2E/DX2                !
 ! D15   D(14,4,5,6)          -180.0            estimate D2E/DX2                !
 ! D16   D(14,4,5,15)            0.0            estimate D2E/DX2                !
 ! D17   D(4,5,6,1)              0.0            estimate D2E/DX2                !
 ! D18   D(4,5,6,20)           179.9999         estimate D2E/DX2                !
 ! D19   D(15,5,6,1)           180.0            estimate D2E/DX2                !
 ! D20   D(15,5,6,20)           -0.0001         estimate D2E/DX2                !
 ! D21   D(1,6,20,19)            0.0004         estimate D2E/DX2                !
 ! D22   D(5,6,20,19)         -179.9996         estimate D2E/DX2                !
 ! D23   D(12,7,8,9)             0.0001         estimate D2E/DX2                !
 ! D24   D(12,7,8,16)         -179.9998         estimate D2E/DX2                !
 ! D25   D(8,7,12,11)           -0.0001         estimate D2E/DX2                !
 ! D26   D(8,7,12,19)          179.9999         estimate D2E/DX2                !
 ! D27   D(7,8,9,10)             0.0            estimate D2E/DX2                !
 ! D28   D(7,8,9,17)           180.0            estimate D2E/DX2                !
 ! D29   D(16,8,9,10)          179.9998         estimate D2E/DX2                !
 ! D30   D(16,8,9,17)           -0.0002         estimate D2E/DX2                !
 ! D31   D(8,9,10,11)            0.0            estimate D2E/DX2                !
 ! D32   D(8,9,10,18)         -179.9999         estimate D2E/DX2                !
 ! D33   D(17,9,10,11)         180.0            estimate D2E/DX2                !
 ! D34   D(17,9,10,18)           0.0001         estimate D2E/DX2                !
 ! D35   D(9,10,11,12)           0.0            estimate D2E/DX2                !
 ! D36   D(9,10,11,21)        -179.9998         estimate D2E/DX2                !
 ! D37   D(18,10,11,12)        179.9999         estimate D2E/DX2                !
 ! D38   D(18,10,11,21)          0.0001         estimate D2E/DX2                !
 ! D39   D(10,11,12,7)           0.0            estimate D2E/DX2                !
 ! D40   D(10,11,12,19)       -179.9999         estimate D2E/DX2                !
 ! D41   D(21,11,12,7)         179.9999         estimate D2E/DX2                !
 ! D42   D(21,11,12,19)         -0.0001         estimate D2E/DX2                !
 ! D43   D(7,12,19,20)           0.0004         estimate D2E/DX2                !
 ! D44   D(11,12,19,20)       -179.9997         estimate D2E/DX2                !
 ! D45   D(12,19,20,6)          -0.0006         estimate D2E/DX2                !
 --------------------------------------------------------------------------------
 Trust Radius=3.00D-01 FncErr=1.00D-07 GrdErr=1.00D-06 EigMax=2.50D+02 EigMin=1.00D-04
 Number of steps in this run=    112 maximum allowed number of steps=    132.
 GradGradGradGradGradGradGradGradGradGradGradGradGradGradGradGradGradGrad

                          Input orientation:                          
 ---------------------------------------------------------------------
 Center     Atomic      Atomic             Coordinates (Angstroms)
 Number     Number       Type             X           Y           Z
 ---------------------------------------------------------------------
      1          6           0       -0.702221    1.530396    0.664039
      2          6           0        0.630160    1.560281    0.230693
      3          6           0        1.338054    2.769732    0.224620
      4          6           0        0.713566    3.949297    0.651895
      5          6           0       -0.618816    3.919412    1.085240
      6          6           0       -1.326709    2.709961    1.091312
      7          6           0       -1.730571   -0.226562    0.672862
      8          6           0       -1.106083   -1.406127    0.245587
      9          6           0       -1.813976   -2.615579    0.251661
     10          6           0       -3.146357   -2.645465    0.685011
     11          6           0       -3.770844   -1.465900    1.112286
     12          6           0       -3.062951   -0.256449    1.106212
     13          1           0        2.355356    2.792551   -0.106249
     14          1           0        1.254059    4.872740    0.647259
     15          1           0       -1.095626    4.820036    1.411471
     16          1           0       -0.088781   -1.383309   -0.085283
     17          1           0       -1.337167   -3.516203   -0.074573
     18          1           0       -3.686848   -3.568908    0.689651
     19         17           0       -3.847235    1.224951    1.642824
     20         17           0       -3.000030    2.672428    1.635546
     21         17           0       -5.444161   -1.503435    1.656529
     22         17           0        1.414447    0.078880   -0.305913
 ---------------------------------------------------------------------
                    Distance matrix (angstroms):
                    1          2          3          4          5
     1  C    0.000000
     2  C    1.401400   0.000000
     3  C    2.427296   1.401400   0.000000
     4  C    2.802800   2.427296   1.401400   0.000000
     5  C    2.427296   2.802800   2.427296   1.401400   0.000000
     6  C    1.401400   2.427296   2.802800   2.427296   1.401400
     7  C    2.035800   2.993555   4.312210   4.838600   4.312210
     8  C    2.993555   3.437200   4.838600   5.670695   5.413300
     9  C    4.312210   4.838600   6.240000   7.046010   6.695474
    10  C    4.838600   5.670695   7.046010   7.641400   7.046010
    11  C    4.312210   5.413300   6.695474   7.046010   6.240000
    12  C    2.993555   4.207863   5.413300   5.670695   4.838600
    13  H    3.396345   2.146700   1.070000   2.146700   3.396345
    14  H    3.872800   3.396345   2.146700   1.070000   2.146700
    15  H    3.396345   3.872800   3.396345   2.146700   1.070000
    16  H    3.070418   3.046546   4.402232   5.442783   5.456181
    17  H    5.139733   5.452912   6.838077   7.776050   7.559733
    18  H    5.908600   6.719806   8.102114   8.711400   8.102114
    19  Cl   3.307934   4.706764   5.593288   5.404157   4.241900
    20  Cl   2.743718   4.048303   4.562800   4.048303   2.743718
    21  Cl   5.716219   6.951025   8.143019   8.286084   7.281319
    22  Cl   2.743718   1.760000   2.743718   4.048303   4.562800
                    6          7          8          9         10
     6  C    0.000000
     7  C    2.993555   0.000000
     8  C    4.207863   1.401400   0.000000
     9  C    5.413300   2.427296   1.401400   0.000000
    10  C    5.670695   2.802800   2.427296   1.401400   0.000000
    11  C    4.838600   2.427296   2.802800   2.427296   1.401400
    12  C    3.437200   1.401400   2.427296   2.802800   2.427296
    13  H    3.872800   5.139733   5.452912   6.838077   7.776050
    14  H    3.396345   5.908600   6.719806   8.102114   8.711400
    15  H    2.146700   5.139733   6.334391   7.559733   7.776050
    16  H    4.435279   2.146700   1.070000   2.146700   3.396345
    17  H    6.334391   3.396345   2.146700   1.070000   2.146700
    18  H    6.719806   3.872800   3.396345   2.146700   1.070000
    19  Cl   2.976990   2.743718   4.048303   4.562800   4.048303
    20  Cl   1.760000   3.307934   4.706764   5.593288   5.404157
    21  Cl   5.918242   4.048303   4.562800   4.048303   2.743718
    22  Cl   4.048303   3.307934   2.976990   4.241900   5.404157
                   11         12         13         14         15
    11  C    0.000000
    12  C    1.401400   0.000000
    13  H    7.559733   6.334391   0.000000
    14  H    8.102114   6.719806   2.471400   0.000000
    15  H    6.838077   5.452912   4.280590   2.471400   0.000000
    16  H    3.872800   3.396345   4.838600   6.440340   6.460302
    17  H    3.396345   3.872800   7.310000   8.809645   8.471101
    18  H    2.146700   3.396345   8.809645   9.781400   8.809645
    19  Cl   2.743718   1.760000   6.632403   6.349860   4.533157
    20  Cl   4.241900   2.976990   5.632800   4.890332   2.879094
    21  Cl   1.760000   2.743718   9.077189   9.302708   7.678288
    22  Cl   5.593288   4.706764   2.879094   4.890333   5.632800
                   16         17         18         19         20
    16  H    0.000000
    17  H    2.471400   0.000000
    18  H    4.280590   2.471400   0.000000
    19  Cl   4.890332   5.632800   4.890332   0.000000
    20  Cl   5.280684   6.632403   6.349860   1.677200   0.000000
    21  Cl   5.632800   4.890332   2.879094   3.161400   4.838600
    22  Cl   2.108641   4.533157   6.349860   5.726810   5.475705
                   21         22
    21  Cl   0.000000
    22  Cl   7.307216   0.000000
 Stoichiometry    C12H6Cl4
 Framework group  C1[X(C12H6Cl4)]
 Deg. of freedom    60
 Full point group                 C1      NOp   1
 Largest Abelian subgroup         C1      NOp   1
 Largest concise Abelian subgroup C1      NOp   1
                         Standard orientation:                         
 ---------------------------------------------------------------------
 Center     Atomic      Atomic             Coordinates (Angstroms)
 Number     Number       Type             X           Y           Z
 ---------------------------------------------------------------------
      1          6           0        1.498109   -0.005903    0.000001
      2          6           0        2.634457    0.814241   -0.000000
      3          6           0        3.912896    0.240206   -0.000003
      4          6           0        4.054987   -1.153972   -0.000004
      5          6           0        2.918640   -1.974115    0.000000
      6          6           0        1.640200   -1.400081    0.000002
      7          6           0       -0.359067    0.827991    0.000003
      8          6           0       -0.501158    2.222169    0.000004
      9          6           0       -1.779597    2.796204    0.000004
     10          6           0       -2.915945    1.976060    0.000003
     11          6           0       -2.773854    0.581882    0.000001
     12          6           0       -1.495415    0.007848    0.000001
     13          1           0        4.780523    0.866404   -0.000005
     14          1           0        5.031104   -1.592260   -0.000006
     15          1           0        3.027129   -3.038601    0.000002
     16          1           0        0.366469    2.848367    0.000003
     17          1           0       -1.888087    3.860689    0.000005
     18          1           0       -3.892061    2.414348    0.000001
     19         17           0       -1.316964   -1.743082   -0.000003
     20         17           0        0.213076   -2.430088    0.000005
     21         17           0       -4.200978   -0.448125   -0.000005
     22         17           0        2.456007    2.565171   -0.000003
 ---------------------------------------------------------------------
 Rotational constants (GHZ):           0.5633933           0.2720383           0.1834555
 Standard basis: 6-311+G(d,p) (5D, 7F)
 There are   436 symmetry adapted cartesian basis functions of A   symmetry.
 There are   420 symmetry adapted basis functions of A   symmetry.
   420 basis functions,   692 primitive gaussians,   436 cartesian basis functions
    73 alpha electrons       73 beta electrons
       nuclear repulsion energy      1526.7851087205 Hartrees.
 NAtoms=   22 NActive=   22 NUniq=   22 SFac= 1.00D+00 NAtFMM=   60 NAOKFM=F Big=F
 Integral buffers will be    131072 words long.
 Raffenetti 2 integral format.
 Two-electron integral symmetry is turned on.
 One-electron integrals computed using PRISM.
 NBasis=   420 RedAO= T EigKep=  1.09D-06  NBF=   420
 NBsUse=   416 1.00D-06 EigRej=  5.67D-07 NBFU=   416
 ExpMin= 4.38D-02 ExpMax= 1.06D+05 ExpMxC= 3.62D+03 IAcc=3 IRadAn=         5 AccDes= 0.00D+00
 Harris functional with IExCor=  402 and IRadAn=       5 diagonalized for initial guess.
 HarFok:  IExCor=  402 AccDes= 0.00D+00 IRadAn=         5 IDoV= 1 UseB2=F ITyADJ=14
 ICtDFT=  3500011 ScaDFX=  1.000000  1.000000  1.000000  1.000000
 FoFCou: FMM=F IPFlag=           0 FMFlag=      100000 FMFlg1=           0
         NFxFlg=           0 DoJE=T BraDBF=F KetDBF=T FulRan=T
         wScrn=  0.000000 ICntrl=       500 IOpCl=  0 I1Cent=   200000004 NGrid=           0
         NMat0=    1 NMatS0=      1 NMatT0=    0 NMatD0=    1 NMtDS0=    0 NMtDT0=    0
 Petite list used in FoFCou.
 Requested convergence on RMS density matrix=1.00D-08 within  32 cycles.
 Requested convergence on MAX density matrix=1.00D-06.
 Requested convergence on             energy=1.00D-06.
 No special actions if energy rises.
 EnCoef did     3 forward-backward iterations
 EnCoef did     2 forward-backward iterations
 EnCoef did     5 forward-backward iterations
 Restarting incremental Fock formation.
 SCF Done:  E(RB3LYP) =  -2301.33113367     A.U. after   26 cycles
            NFock= 26  Conv=0.44D-08     -V/T= 2.0019
 QCSCF skips out because SCF is already converged.

 **********************************************************************

            Population analysis using the SCF Density.

 **********************************************************************

 Orbital symmetries:
       Occupied  (A) (A) (A) (A) (A) (A) (A) (A) (A) (A) (A) (A)
                 (A) (A) (A) (A) (A) (A) (A) (A) (A) (A) (A) (A)
                 (A) (A) (A) (A) (A) (A) (A) (A) (A) (A) (A) (A)
                 (A) (A) (A) (A) (A) (A) (A) (A) (A) (A) (A) (A)
                 (A) (A) (A) (A) (A) (A) (A) (A) (A) (A) (A) (A)
                 (A) (A) (A) (A) (A) (A) (A) (A) (A) (A) (A) (A)
                 (A)
       Virtual   (A) (A) (A) (A) (A) (A) (A) (A) (A) (A) (A) (A)
                 (A) (A) (A) (A) (A) (A) (A) (A) (A) (A) (A) (A)
                 (A) (A) (A) (A) (A) (A) (A) (A) (A) (A) (A) (A)
                 (A) (A) (A) (A) (A) (A) (A) (A) (A) (A) (A) (A)
                 (A) (A) (A) (A) (A) (A) (A) (A) (A) (A) (A) (A)
                 (A) (A) (A) (A) (A) (A) (A) (A) (A) (A) (A) (A)
                 (A) (A) (A) (A) (A) (A) (A) (A) (A) (A) (A) (A)
                 (A) (A) (A) (A) (A) (A) (A) (A) (A) (A) (A) (A)
                 (A) (A) (A) (A) (A) (A) (A) (A) (A) (A) (A) (A)
                 (A) (A) (A) (A) (A) (A) (A) (A) (A) (A) (A) (A)
                 (A) (A) (A) (A) (A) (A) (A) (A) (A) (A) (A) (A)
                 (A) (A) (A) (A) (A) (A) (A) (A) (A) (A) (A) (A)
                 (A) (A) (A) (A) (A) (A) (A) (A) (A) (A) (A) (A)
                 (A) (A) (A) (A) (A) (A) (A) (A) (A) (A) (A) (A)
                 (A) (A) (A) (A) (A) (A) (A) (A) (A) (A) (A) (A)
                 (A) (A) (A) (A) (A) (A) (A) (A) (A) (A) (A) (A)
                 (A) (A) (A) (A) (A) (A) (A) (A) (A) (A) (A) (A)
                 (A) (A) (A) (A) (A) (A) (A) (A) (A) (A) (A) (A)
                 (A) (A) (A) (A) (A) (A) (A) (A) (A) (A) (A) (A)
                 (A) (A) (A) (A) (A) (A) (A) (A) (A) (A) (A) (A)
                 (A) (A) (A) (A) (A) (A) (A) (A) (A) (A) (A) (A)
                 (A) (A) (A) (A) (A) (A) (A) (A) (A) (A) (A) (A)
                 (A) (A) (A) (A) (A) (A) (A) (A) (A) (A) (A) (A)
                 (A) (A) (A) (A) (A) (A) (A) (A) (A) (A) (A) (A)
                 (A) (A) (A) (A) (A) (A) (A) (A) (A) (A) (A) (A)
                 (A) (A) (A) (A) (A) (A) (A) (A) (A) (A) (A) (A)
                 (A) (A) (A) (A) (A) (A) (A) (A) (A) (A) (A) (A)
                 (A) (A) (A) (A) (A) (A) (A) (A) (A) (A) (A) (A)
                 (A) (A) (A) (A) (A) (A) (A)
 The electronic state is 1-A.
 Alpha  occ. eigenvalues -- -101.61667-101.60132-101.56640-101.55166 -10.27410
 Alpha  occ. eigenvalues --  -10.26324 -10.24964 -10.22927 -10.22854 -10.22188
 Alpha  occ. eigenvalues --  -10.21591 -10.20964 -10.20813 -10.19188 -10.18938
 Alpha  occ. eigenvalues --  -10.18587  -9.54207  -9.52869  -9.48188  -9.46679
 Alpha  occ. eigenvalues --   -7.30707  -7.29705  -7.29603  -7.29264  -7.28171
 Alpha  occ. eigenvalues --   -7.27762  -7.24640  -7.23664  -7.23622  -7.23115
 Alpha  occ. eigenvalues --   -7.22164  -7.22132  -1.09940  -0.91548  -0.90376
 Alpha  occ. eigenvalues --   -0.87393  -0.84203  -0.83697  -0.78634  -0.75990
 Alpha  occ. eigenvalues --   -0.74219  -0.73546  -0.66555  -0.63315  -0.60899
 Alpha  occ. eigenvalues --   -0.60510  -0.57773  -0.53064  -0.52264  -0.50768
 Alpha  occ. eigenvalues --   -0.50646  -0.48884  -0.47236  -0.47191  -0.45260
 Alpha  occ. eigenvalues --   -0.43804  -0.43188  -0.42019  -0.40770  -0.40665
 Alpha  occ. eigenvalues --   -0.39689  -0.38343  -0.36413  -0.33908  -0.33841
 Alpha  occ. eigenvalues --   -0.33052  -0.31719  -0.31155  -0.29075  -0.27021
 Alpha  occ. eigenvalues --   -0.25450  -0.24671  -0.11151
 Alpha virt. eigenvalues --   -0.07319  -0.05576  -0.04878  -0.04086  -0.02782
 Alpha virt. eigenvalues --   -0.01521  -0.00701   0.00450   0.01227   0.01514
 Alpha virt. eigenvalues --    0.02271   0.02404   0.03794   0.04053   0.04458
 Alpha virt. eigenvalues --    0.04595   0.05324   0.05995   0.06475   0.06695
 Alpha virt. eigenvalues --    0.07232   0.07768   0.08130   0.08385   0.09066
 Alpha virt. eigenvalues --    0.09542   0.09611   0.10561   0.10839   0.11265
 Alpha virt. eigenvalues --    0.11356   0.11505   0.11912   0.12549   0.13653
 Alpha virt. eigenvalues --    0.14007   0.14228   0.14661   0.15071   0.15261
 Alpha virt. eigenvalues --    0.15683   0.16093   0.16441   0.16585   0.16833
 Alpha virt. eigenvalues --    0.17012   0.17549   0.17652   0.18488   0.19427
 Alpha virt. eigenvalues --    0.19596   0.19791   0.20009   0.20611   0.20631
 Alpha virt. eigenvalues --    0.21096   0.21331   0.21936   0.22717   0.23235
 Alpha virt. eigenvalues --    0.23945   0.24024   0.24377   0.24527   0.25192
 Alpha virt. eigenvalues --    0.25259   0.26187   0.26685   0.26974   0.27679
 Alpha virt. eigenvalues --    0.28085   0.28451   0.28725   0.29617   0.29978
 Alpha virt. eigenvalues --    0.30302   0.30966   0.31980   0.32771   0.33351
 Alpha virt. eigenvalues --    0.34798   0.35180   0.35735   0.38692   0.39573
 Alpha virt. eigenvalues --    0.40536   0.41608   0.41853   0.43273   0.44214
 Alpha virt. eigenvalues --    0.44589   0.44938   0.45351   0.45565   0.46135
 Alpha virt. eigenvalues --    0.48677   0.49266   0.49983   0.50465   0.50740
 Alpha virt. eigenvalues --    0.51762   0.52347   0.52836   0.53220   0.54111
 Alpha virt. eigenvalues --    0.55083   0.55923   0.56938   0.57108   0.57886
 Alpha virt. eigenvalues --    0.58237   0.58953   0.59631   0.60248   0.60657
 Alpha virt. eigenvalues --    0.60858   0.62045   0.62399   0.62988   0.64696
 Alpha virt. eigenvalues --    0.65028   0.65240   0.65931   0.66740   0.67885
 Alpha virt. eigenvalues --    0.69804   0.70519   0.70548   0.71645   0.72043
 Alpha virt. eigenvalues --    0.75387   0.77028   0.77356   0.78871   0.79989
 Alpha virt. eigenvalues --    0.81068   0.81916   0.81918   0.82371   0.83827
 Alpha virt. eigenvalues --    0.84028   0.85062   0.85195   0.85968   0.86662
 Alpha virt. eigenvalues --    0.86751   0.87725   0.88678   0.89218   0.90135
 Alpha virt. eigenvalues --    0.90970   0.91250   0.92314   0.92638   0.94369
 Alpha virt. eigenvalues --    0.94602   0.96768   0.96977   0.97175   0.97565
 Alpha virt. eigenvalues --    0.99063   0.99469   1.00552   1.00725   1.01227
 Alpha virt. eigenvalues --    1.01734   1.02554   1.03503   1.06382   1.06574
 Alpha virt. eigenvalues --    1.08454   1.09483   1.10314   1.12101   1.12841
 Alpha virt. eigenvalues --    1.14377   1.18884   1.21517   1.23118   1.23972
 Alpha virt. eigenvalues --    1.25725   1.26278   1.26613   1.27447   1.28158
 Alpha virt. eigenvalues --    1.28950   1.30119   1.32320   1.32840   1.35943
 Alpha virt. eigenvalues --    1.42255   1.46224   1.48697   1.49960   1.50823
 Alpha virt. eigenvalues --    1.52146   1.52970   1.54494   1.54988   1.56451
 Alpha virt. eigenvalues --    1.58767   1.60182   1.62167   1.62941   1.65154
 Alpha virt. eigenvalues --    1.65914   1.69571   1.71701   1.71886   1.73088
 Alpha virt. eigenvalues --    1.73828   1.76698   1.78931   1.83052   1.83905
 Alpha virt. eigenvalues --    1.85078   1.87340   1.87749   1.88130   1.88602
 Alpha virt. eigenvalues --    1.89207   1.89792   1.91055   1.91364   1.92976
 Alpha virt. eigenvalues --    1.95761   1.95889   1.98005   1.98396   2.01875
 Alpha virt. eigenvalues --    2.02559   2.04944   2.05593   2.13451   2.16884
 Alpha virt. eigenvalues --    2.20051   2.20421   2.21321   2.23120   2.26584
 Alpha virt. eigenvalues --    2.27871   2.28183   2.28724   2.29970   2.31531
 Alpha virt. eigenvalues --    2.32785   2.33903   2.36494   2.39243   2.40344
 Alpha virt. eigenvalues --    2.41381   2.43873   2.45006   2.46400   2.52570
 Alpha virt. eigenvalues --    2.55806   2.56887   2.59217   2.59549   2.61281
 Alpha virt. eigenvalues --    2.61507   2.63791   2.63799   2.64748   2.68452
 Alpha virt. eigenvalues --    2.69652   2.70142   2.73410   2.73982   2.74735
 Alpha virt. eigenvalues --    2.75362   2.76229   2.76676   2.78046   2.78474
 Alpha virt. eigenvalues --    2.79474   2.79868   2.82064   2.83347   2.84653
 Alpha virt. eigenvalues --    2.87308   2.88278   2.89777   3.04706   3.05278
 Alpha virt. eigenvalues --    3.07993   3.11703   3.14630   3.18466   3.20118
 Alpha virt. eigenvalues --    3.21724   3.28346   3.33587   3.34565   3.35626
 Alpha virt. eigenvalues --    3.39598   3.41030   3.49992   3.53563   3.67103
 Alpha virt. eigenvalues --    3.70804   3.74483   3.75251   3.97480   4.00918
 Alpha virt. eigenvalues --    4.04722   4.08940   4.10424   4.16106   4.80207
 Alpha virt. eigenvalues --    4.82799   9.71172   9.80649   9.83738   9.98973
 Alpha virt. eigenvalues --   23.40333  23.44516  23.84984  23.87877  23.89251
 Alpha virt. eigenvalues --   23.91301  23.98369  24.00296  24.01523  24.04095
 Alpha virt. eigenvalues --   24.11389  24.14006  25.76516  25.83136  25.83901
 Alpha virt. eigenvalues --   25.98386  26.14591  26.25910  26.33109  26.55719
 Alpha virt. eigenvalues --   26.71106  26.84803  26.95751  27.01312 215.72540
 Alpha virt. eigenvalues --  215.81045 215.84171 216.05043
          Condensed to atoms (all electrons):
               1          2          3          4          5          6
     1  C   38.707399  -2.290252 -11.531738   3.332403  -3.849783 -11.164820
     2  C   -2.290252  17.771494  -4.259762  -1.460533  -0.545034  -3.167871
     3  C  -11.531738  -4.259762  19.212846  -1.533378  -0.861506   5.131395
     4  C    3.332403  -1.460533  -1.533378  12.111514   0.531033  -4.459700
     5  C   -3.849783  -0.545034  -0.861506   0.531033  13.524688  -0.512086
     6  C  -11.164820  -3.167871   5.131395  -4.459700  -0.512086  26.282696
     7  C    2.587043  -0.187770  -3.498500   0.566072  -1.578047  -2.195147
     8  C    2.562144   2.654265   1.156730  -0.014143  -0.997866  -5.503192
     9  C    1.268360  -1.681058  -0.705030   0.207126   0.200431   0.187909
    10  C   -0.069136   1.019725   0.225676  -0.025897  -0.098486  -0.608631
    11  C   -3.462309   0.928916   0.183028  -0.033543  -0.266880   0.903346
    12  C   -5.099088  -0.922253   0.365941  -0.653211   0.402998  -0.995581
    13  H    0.005752  -0.058894   0.477285  -0.084678  -0.047797   0.049259
    14  H   -0.065986   0.015850   0.002482   0.356404  -0.035839   0.059618
    15  H   -0.071884  -0.008782   0.006510  -0.141227   0.421616  -0.000890
    16  H    0.086315  -0.076824  -0.000581   0.010999   0.000012  -0.007939
    17  H    0.002448   0.000113  -0.001046   0.000061   0.000106  -0.001602
    18  H   -0.002274  -0.002632  -0.000245   0.000037   0.000187   0.003978
    19  Cl   3.878081  -2.049658  -2.684832   2.447564   0.849967  13.903744
    20  Cl  -7.557558   1.198932   4.048459  -4.576497  -1.067793 -11.443684
    21  Cl  -0.046953  -0.056417  -0.002399  -0.004913  -0.013065  -0.060650
    22  Cl  -0.710724  -0.897159   0.348847  -0.238624   0.177903   0.630122
               7          8          9         10         11         12
     1  C    2.587043   2.562144   1.268360  -0.069136  -3.462309  -5.099088
     2  C   -0.187770   2.654265  -1.681058   1.019725   0.928916  -0.922253
     3  C   -3.498500   1.156730  -0.705030   0.225676   0.183028   0.365941
     4  C    0.566072  -0.014143   0.207126  -0.025897  -0.033543  -0.653211
     5  C   -1.578047  -0.997866   0.200431  -0.098486  -0.266880   0.402998
     6  C   -2.195147  -5.503192   0.187909  -0.608631   0.903346  -0.995581
     7  C   21.230475  -1.975456  -4.507979   0.370405  -1.190053   2.637118
     8  C   -1.975456  26.460306  -7.559391   2.969586  -0.256016 -10.105525
     9  C   -4.507979  -7.559391  15.497063  -0.473721  -2.750941   4.323354
    10  C    0.370405   2.969586  -0.473721  15.712327  -3.527550  -6.955643
    11  C   -1.190053  -0.256016  -2.750941  -3.527550  17.144597  -2.629985
    12  C    2.637118 -10.105525   4.323354  -6.955643  -2.629985  34.735118
    13  H    0.000184   0.002416  -0.001706   0.000115   0.000305  -0.001120
    14  H   -0.002264  -0.001055  -0.000174   0.000013   0.000127   0.002147
    15  H    0.006001  -0.001116  -0.000531   0.000197   0.001266   0.025264
    16  H   -0.114373   0.107258   0.226459  -0.018349  -0.037530   0.138839
    17  H   -0.015712  -0.104402   0.464440   0.015286  -0.072246   0.051265
    18  H   -0.013185  -0.122602  -0.004747   0.291355   0.036689   0.135807
    19  Cl -10.452501  -6.104611   4.666936  -3.041568   1.680796 -25.904975
    20  Cl   3.574603   3.136932  -2.013342   1.536848  -0.332900  16.777767
    21  Cl   0.024147   0.281482  -0.051658  -0.836603  -0.940345   1.446366
    22  Cl   0.823279  -0.554100  -0.722503  -0.049234   0.102920   0.010478
              13         14         15         16         17         18
     1  C    0.005752  -0.065986  -0.071884   0.086315   0.002448  -0.002274
     2  C   -0.058894   0.015850  -0.008782  -0.076824   0.000113  -0.002632
     3  C    0.477285   0.002482   0.006510  -0.000581  -0.001046  -0.000245
     4  C   -0.084678   0.356404  -0.141227   0.010999   0.000061   0.000037
     5  C   -0.047797  -0.035839   0.421616   0.000012   0.000106   0.000187
     6  C    0.049259   0.059618  -0.000890  -0.007939  -0.001602   0.003978
     7  C    0.000184  -0.002264   0.006001  -0.114373  -0.015712  -0.013185
     8  C    0.002416  -0.001055  -0.001116   0.107258  -0.104402  -0.122602
     9  C   -0.001706  -0.000174  -0.000531   0.226459   0.464440  -0.004747
    10  C    0.000115   0.000013   0.000197  -0.018349   0.015286   0.291355
    11  C    0.000305   0.000127   0.001266  -0.037530  -0.072246   0.036689
    12  C   -0.001120   0.002147   0.025264   0.138839   0.051265   0.135807
    13  H    0.515235  -0.006285  -0.000049  -0.000013  -0.000000  -0.000000
    14  H   -0.006285   0.521825  -0.005798  -0.000003  -0.000000  -0.000000
    15  H   -0.000049  -0.005798   0.521303  -0.000001  -0.000000  -0.000000
    16  H   -0.000013  -0.000003  -0.000001   0.607279  -0.008543  -0.000251
    17  H   -0.000000  -0.000000  -0.000000  -0.008543   0.537855  -0.005250
    18  H   -0.000000  -0.000000  -0.000000  -0.000251  -0.005250   0.525937
    19  Cl  -0.003438  -0.003540  -0.070502   0.052607   0.012178   0.037710
    20  Cl   0.011324   0.017084   0.159140  -0.026809  -0.002029  -0.005708
    21  Cl   0.000001   0.000001   0.000017   0.000046  -0.002906  -0.015844
    22  Cl  -0.006811   0.003541   0.001368  -0.071580  -0.000857   0.000138
              19         20         21         22
     1  C    3.878081  -7.557558  -0.046953  -0.710724
     2  C   -2.049658   1.198932  -0.056417  -0.897159
     3  C   -2.684832   4.048459  -0.002399   0.348847
     4  C    2.447564  -4.576497  -0.004913  -0.238624
     5  C    0.849967  -1.067793  -0.013065   0.177903
     6  C   13.903744 -11.443684  -0.060650   0.630122
     7  C  -10.452501   3.574603   0.024147   0.823279
     8  C   -6.104611   3.136932   0.281482  -0.554100
     9  C    4.666936  -2.013342  -0.051658  -0.722503
    10  C   -3.041568   1.536848  -0.836603  -0.049234
    11  C    1.680796  -0.332900  -0.940345   0.102920
    12  C  -25.904975  16.777767   1.446366   0.010478
    13  H   -0.003438   0.011324   0.000001  -0.006811
    14  H   -0.003540   0.017084   0.000001   0.003541
    15  H   -0.070502   0.159140   0.000017   0.001368
    16  H    0.052607  -0.026809   0.000046  -0.071580
    17  H    0.012178  -0.002029  -0.002906  -0.000857
    18  H    0.037710  -0.005708  -0.015844   0.000138
    19  Cl  94.466887 -54.794957  -0.948586  -0.206255
    20  Cl -54.794957  66.720839   0.015461   0.202738
    21  Cl  -0.948586   0.015461  17.811140   0.000910
    22  Cl  -0.206255   0.202738   0.000910  17.593363
 Mulliken charges:
               1
     1  C   -0.507441
     2  C    0.075604
     3  C   -0.080182
     4  C   -0.336870
     5  C   -0.234760
     6  C   -1.030276
     7  C   -0.088338
     8  C   -0.031645
     9  C   -0.569295
    10  C   -0.436714
    11  C    0.518305
    12  C   -1.785081
    13  H    0.148915
    14  H    0.141851
    15  H    0.158097
    16  H    0.132980
    17  H    0.130842
    18  H    0.140900
    19  Cl   1.268952
    20  Cl   1.421149
    21  Cl   0.400769
    22  Cl   0.562237
 Sum of Mulliken charges =  -0.00000
 Mulliken charges with hydrogens summed into heavy atoms:
               1
     1  C   -0.507441
     2  C    0.075604
     3  C    0.068733
     4  C   -0.195019
     5  C   -0.076663
     6  C   -1.030276
     7  C   -0.088338
     8  C    0.101335
     9  C   -0.438453
    10  C   -0.295814
    11  C    0.518305
    12  C   -1.785081
    19  Cl   1.268952
    20  Cl   1.421149
    21  Cl   0.400769
    22  Cl   0.562237
 Electronic spatial extent (au):  <R**2>=           5319.0043
 Charge=             -0.0000 electrons
 Dipole moment (field-independent basis, Debye):
    X=              2.7211    Y=             -0.6030    Z=             -0.0000  Tot=              2.7871
 Quadrupole moment (field-independent basis, Debye-Ang):
   XX=           -115.5382   YY=           -112.8086   ZZ=           -124.4733
   XY=             -6.6604   XZ=             -0.0000   YZ=              0.0000
 Traceless Quadrupole moment (field-independent basis, Debye-Ang):
   XX=              2.0685   YY=              4.7981   ZZ=             -6.8666
   XY=             -6.6604   XZ=             -0.0000   YZ=              0.0000
 Octapole moment (field-independent basis, Debye-Ang**2):
  XXX=             77.6875  YYY=              6.2522  ZZZ=             -0.0001  XYY=            -17.4962
  XXY=             -8.7086  XXZ=             -0.0001  XZZ=             -8.4748  YZZ=             -8.9473
  YYZ=             -0.0001  XYZ=              0.0001
 Hexadecapole moment (field-independent basis, Debye-Ang**3):
 XXXX=          -4533.0084 YYYY=          -2223.6730 ZZZZ=           -148.5507 XXXY=            -65.3784
 XXXZ=             -0.0005 YYYX=              7.4631 YYYZ=              0.0003 ZZZX=              0.0001
 ZZZY=             -0.0001 XXYY=          -1116.6393 XXZZ=           -871.6748 YYZZ=           -432.7412
 XXYZ=              0.0000 YYXZ=             -0.0002 ZZXY=             32.5142
 N-N= 1.526785108720D+03 E-N=-8.497738207663D+03  KE= 2.296980141545D+03
 Calling FoFJK, ICntrl=      2127 FMM=F ISym2X=0 I1Cent= 0 IOpClX= 0 NMat=1 NMatS=1 NMatT=0.
 ***** Axes restored to original set *****
 -------------------------------------------------------------------
 Center     Atomic                   Forces (Hartrees/Bohr)
 Number     Number              X              Y              Z
 -------------------------------------------------------------------
      1        6          -0.023161020   -0.032256118    0.001572862
      2        6          -0.017087586    0.014299275    0.008315130
      3        6          -0.009861547   -0.000101553    0.003229936
      4        6          -0.009049111   -0.022179474   -0.001184452
      5        6          -0.001002550   -0.002410174   -0.000122152
      6        6           0.045873956   -0.010164085   -0.017022181
      7        6          -0.011748204    0.020053275    0.007636478
      8        6          -0.014857464    0.002861020    0.005432328
      9        6          -0.015150428    0.017112177    0.008205189
     10        6           0.004655298    0.006300377   -0.000350469
     11        6           0.028573214    0.007153509   -0.008070272
     12        6           0.018884790   -0.108959812   -0.026685108
     13        1           0.009087119   -0.000499693   -0.003087591
     14        1           0.004310087    0.008367455    0.000151479
     15        1          -0.002100696    0.007179879    0.002040554
     16        1          -0.004003064   -0.005760184    0.000236863
     17        1           0.004208144   -0.008494623   -0.002981770
     18        1          -0.005348193   -0.009203570    0.000033502
     19       17          -0.251701585   -0.414524893    0.005076791
     20       17           0.237378887    0.522799518    0.019976503
     21       17          -0.008383200   -0.007506551    0.001352076
     22       17           0.020483151    0.015934246   -0.003755696
 -------------------------------------------------------------------
 Cartesian Forces:  Max     0.522799518 RMS     0.094332576

 GradGradGradGradGradGradGradGradGradGradGradGradGradGradGradGradGradGrad
 Berny optimization.
 FormGI is forming the generalized inverse of G from B-inverse, IUseBI=4.
 Internal  Forces:  Max     0.561051588 RMS     0.058632249
 Search for a local minimum.
 Step number   1 out of a maximum of  112
 All quantities printed in internal units (Hartrees-Bohrs-Radians)
 Mixed Optimization -- RFO/linear search
 Second derivative matrix not updated -- first step.
 ITU=  0
     Eigenvalues ---    0.00238   0.00238   0.01655   0.01655   0.02070
     Eigenvalues ---    0.02070   0.02070   0.02070   0.02070   0.02070
     Eigenvalues ---    0.02070   0.02070   0.02070   0.02070   0.02070
     Eigenvalues ---    0.02070   0.02070   0.02070   0.04244   0.16000
     Eigenvalues ---    0.16000   0.16000   0.16000   0.16000   0.16000
     Eigenvalues ---    0.22068   0.22076   0.23331   0.23478   0.24896
     Eigenvalues ---    0.24905   0.25000   0.25000   0.25000   0.25000
     Eigenvalues ---    0.25000   0.25000   0.29539   0.29539   0.29539
     Eigenvalues ---    0.29539   0.37230   0.37230   0.37230   0.37230
     Eigenvalues ---    0.37230   0.37230   0.41539   0.41554   0.41956
     Eigenvalues ---    0.41990   0.45389   0.45389   0.45389   0.45389
     Eigenvalues ---    0.45389   0.45389   0.45389   0.45389   1.29765
 RFO step:  Lambda=-2.67649586D-01 EMin= 2.37799077D-03
 Linear search not attempted -- first point.
 Maximum step size (   0.300) exceeded in Quadratic search.
    -- Step size scaled by   0.597
 Iteration  1 RMS(Cart)=  0.29588741 RMS(Int)=  0.00655388
 Iteration  2 RMS(Cart)=  0.01782332 RMS(Int)=  0.00005073
 Iteration  3 RMS(Cart)=  0.00010936 RMS(Int)=  0.00004147
 Iteration  4 RMS(Cart)=  0.00000000 RMS(Int)=  0.00004147
 Variable       Old X    -DE/DX   Delta X   Delta X   Delta X     New X
                                 (Linear)    (Quad)   (Total)
    R1        2.64826   0.01874   0.00000   0.01621   0.01629   2.66455
    R2        2.64826   0.01542   0.00000   0.01354   0.01362   2.66188
    R3        2.64826  -0.00812   0.00000  -0.00679  -0.00679   2.64147
    R4        3.32592  -0.00314   0.00000  -0.00333  -0.00333   3.32259
    R5        2.64826  -0.02428   0.00000  -0.02086  -0.02094   2.62732
    R6        2.02201   0.00958   0.00000   0.00893   0.00893   2.03094
    R7        2.64826  -0.02155   0.00000  -0.01853  -0.01862   2.62965
    R8        2.02201   0.00940   0.00000   0.00876   0.00876   2.03077
    R9        2.64826  -0.00456   0.00000  -0.00370  -0.00370   2.64456
   R10        2.02201   0.00760   0.00000   0.00709   0.00709   2.02909
   R11        3.32592   0.01921   0.00000   0.02036   0.02036   3.34628
   R12        2.64826  -0.00423   0.00000  -0.00353  -0.00353   2.64473
   R13        2.64826  -0.02487   0.00000  -0.02062  -0.02060   2.62766
   R14        2.64826  -0.00451   0.00000  -0.00372  -0.00373   2.64453
   R15        2.02201  -0.00400   0.00000  -0.00373  -0.00373   2.01828
   R16        2.64826  -0.01981   0.00000  -0.01633  -0.01635   2.63192
   R17        2.02201   0.00993   0.00000   0.00926   0.00926   2.03127
   R18        2.64826  -0.01496   0.00000  -0.01233  -0.01233   2.63593
   R19        2.02201   0.01064   0.00000   0.00992   0.00992   2.03193
   R20        2.64826  -0.00445   0.00000  -0.00369  -0.00368   2.64458
   R21        3.32592   0.00855   0.00000   0.00906   0.00906   3.33498
   R22        3.32592   0.07598   0.00000   0.08051   0.08051   3.40643
   R23        3.16945   0.56105   0.00000   0.21385   0.21385   3.38330
    A1        2.09440  -0.04579   0.00000  -0.04984  -0.04960   2.04479
    A2        2.09440   0.01933   0.00000   0.02302   0.02308   2.11748
    A3        2.09440   0.03363   0.00000   0.03839   0.03836   2.13275
    A4        2.09440  -0.05295   0.00000  -0.06140  -0.06144   2.03296
    A5        2.09440   0.00624   0.00000   0.00616   0.00606   2.10046
    A6        2.09440  -0.00384   0.00000  -0.00409  -0.00404   2.09035
    A7        2.09440  -0.00240   0.00000  -0.00207  -0.00202   2.09237
    A8        2.09440  -0.00392   0.00000  -0.00725  -0.00743   2.08697
    A9        2.09440   0.00251   0.00000   0.00439   0.00448   2.09887
   A10        2.09440   0.00141   0.00000   0.00286   0.00295   2.09734
   A11        2.09440   0.00291   0.00000   0.00240   0.00230   2.09670
   A12        2.09440  -0.00300   0.00000  -0.00336  -0.00331   2.09108
   A13        2.09440   0.00009   0.00000   0.00096   0.00101   2.09540
   A14        2.09440   0.02123   0.00000   0.02551   0.02558   2.11997
   A15        2.09440   0.02981   0.00000   0.03384   0.03380   2.12820
   A16        2.09440  -0.05104   0.00000  -0.05935  -0.05938   2.03501
   A17        2.09440  -0.01933   0.00000  -0.02249  -0.02247   2.07193
   A18        2.09440   0.01068   0.00000   0.01302   0.01301   2.10741
   A19        2.09440   0.00049   0.00000   0.00162   0.00163   2.09602
   A20        2.09440  -0.01117   0.00000  -0.01464  -0.01464   2.07976
   A21        2.09440   0.00308   0.00000   0.00385   0.00382   2.09822
   A22        2.09440  -0.00128   0.00000  -0.00156  -0.00154   2.09285
   A23        2.09440  -0.00180   0.00000  -0.00229  -0.00228   2.09212
   A24        2.09440  -0.01161   0.00000  -0.01410  -0.01411   2.08028
   A25        2.09440   0.00577   0.00000   0.00700   0.00701   2.10140
   A26        2.09440   0.00584   0.00000   0.00710   0.00711   2.10150
   A27        2.09440   0.00652   0.00000   0.00753   0.00755   2.10194
   A28        2.09440  -0.01564   0.00000  -0.01803  -0.01804   2.07636
   A29        2.09440   0.00911   0.00000   0.01050   0.01049   2.10489
   A30        2.09440   0.01066   0.00000   0.01218   0.01220   2.10660
   A31        2.09440  -0.01965   0.00000  -0.02259  -0.02260   2.07179
   A32        2.09440   0.00899   0.00000   0.01041   0.01040   2.10480
   A33        2.09440   0.11787   0.00000   0.13586   0.13586   2.23025
   A34        2.09440   0.00570   0.00000   0.00657   0.00657   2.10096
    D1        0.00000   0.00000   0.00000   0.00000   0.00000   0.00000
    D2        3.14159  -0.00000   0.00000   0.00000   0.00000   3.14159
    D3       -0.00000  -0.00000   0.00000  -0.00000  -0.00000  -0.00000
    D4        3.14159   0.00000   0.00000   0.00000   0.00000   3.14159
    D5        0.00000  -0.00000   0.00000   0.00000   0.00000   0.00000
    D6        3.14159  -0.00000   0.00000  -0.00000  -0.00000   3.14159
    D7       -3.14159  -0.00000   0.00000  -0.00000  -0.00000  -3.14159
    D8        0.00000  -0.00000   0.00000  -0.00000  -0.00000   0.00000
    D9       -0.00000   0.00000   0.00000   0.00000   0.00000  -0.00000
   D10        3.14159  -0.00000   0.00000  -0.00000  -0.00000   3.14159
   D11        3.14159   0.00000   0.00000   0.00000   0.00000   3.14159
   D12        0.00000  -0.00000   0.00000  -0.00000  -0.00000   0.00000
   D13        0.00000  -0.00000   0.00000  -0.00000  -0.00000   0.00000
   D14       -3.14159  -0.00000   0.00000  -0.00000  -0.00000  -3.14159
   D15       -3.14159  -0.00000   0.00000  -0.00000  -0.00000  -3.14159
   D16        0.00000  -0.00000   0.00000  -0.00000  -0.00000   0.00000
   D17       -0.00000   0.00000   0.00000   0.00000   0.00000  -0.00000
   D18        3.14159  -0.00000   0.00000  -0.00000  -0.00000   3.14159
   D19        3.14159   0.00000   0.00000   0.00000   0.00000   3.14159
   D20       -0.00000  -0.00000   0.00000  -0.00000  -0.00000  -0.00000
   D21        0.00001  -0.00000   0.00000  -0.00000  -0.00000   0.00001
   D22       -3.14159  -0.00000   0.00000  -0.00000  -0.00000  -3.14159
   D23        0.00000   0.00000   0.00000   0.00000   0.00000   0.00000
   D24       -3.14159  -0.00000   0.00000  -0.00000  -0.00000  -3.14159
   D25       -0.00000  -0.00000   0.00000  -0.00000  -0.00000  -0.00000
   D26        3.14159   0.00000   0.00000   0.00000   0.00000   3.14159
   D27       -0.00000   0.00000   0.00000   0.00000   0.00000  -0.00000
   D28        3.14159  -0.00000   0.00000  -0.00000  -0.00000   3.14159
   D29        3.14159   0.00000   0.00000   0.00000   0.00000   3.14159
   D30       -0.00000   0.00000   0.00000   0.00000   0.00000  -0.00000
   D31       -0.00000   0.00000   0.00000   0.00000   0.00000  -0.00000
   D32       -3.14159  -0.00000   0.00000  -0.00000  -0.00000  -3.14159
   D33        3.14159   0.00000   0.00000   0.00000   0.00000   3.14159
   D34        0.00000  -0.00000   0.00000  -0.00000  -0.00000   0.00000
   D35        0.00000  -0.00000   0.00000  -0.00000  -0.00000  -0.00000
   D36       -3.14159  -0.00000   0.00000  -0.00000  -0.00000  -3.14159
   D37        3.14159   0.00000   0.00000   0.00000   0.00000   3.14159
   D38        0.00000  -0.00000   0.00000  -0.00000  -0.00000   0.00000
   D39        0.00000   0.00000   0.00000   0.00000   0.00000   0.00000
   D40       -3.14159  -0.00000   0.00000  -0.00000  -0.00000  -3.14159
   D41        3.14159   0.00000   0.00000   0.00000   0.00000   3.14159
   D42       -0.00000  -0.00000   0.00000  -0.00000  -0.00000  -0.00000
   D43        0.00001  -0.00000   0.00000  -0.00000  -0.00000   0.00001
   D44       -3.14159  -0.00000   0.00000  -0.00000  -0.00000  -3.14159
   D45       -0.00001  -0.00000   0.00000  -0.00000  -0.00000  -0.00001
         Item               Value     Threshold  Converged?
 Maximum Force            0.561052     0.000450     NO 
 RMS     Force            0.058632     0.000300     NO 
 Maximum Displacement     0.966434     0.001800     NO 
 RMS     Displacement     0.310972     0.001200     NO 
 Predicted change in Energy=-1.240930D-01
 GradGradGradGradGradGradGradGradGradGradGradGradGradGradGradGradGradGrad

                          Input orientation:                          
 ---------------------------------------------------------------------
 Center     Atomic      Atomic             Coordinates (Angstroms)
 Number     Number       Type             X           Y           Z
 ---------------------------------------------------------------------
      1          6           0       -0.452541    1.672324    0.608440
      2          6           0        0.884408    1.865692    0.204294
      3          6           0        1.480395    3.129412    0.245280
      4          6           0        0.759486    4.231966    0.689854
      5          6           0       -0.561993    4.070641    1.094919
      6          6           0       -1.159799    2.805957    1.054352
      7          6           0       -1.759046   -0.554851    0.620583
      8          6           0       -1.265336   -1.802773    0.223554
      9          6           0       -2.075632   -2.942518    0.276460
     10          6           0       -3.389998   -2.847844    0.727272
     11          6           0       -3.885415   -1.605664    1.123786
     12          6           0       -3.072208   -0.468026    1.069525
     13          1           0        2.501323    3.248330   -0.068735
     14          1           0        1.219131    5.202849    0.720761
     15          1           0       -1.122276    4.919565    1.438939
     16          1           0       -0.259963   -1.894723   -0.124944
     17          1           0       -1.682659   -3.894346   -0.031772
     18          1           0       -4.015170   -3.721671    0.769131
     19         17           0       -3.707891    1.139406    1.580850
     20         17           0       -2.844461    2.707778    1.590930
     21         17           0       -5.551706   -1.492500    1.694021
     22         17           0        1.888616    0.543723   -0.374818
 ---------------------------------------------------------------------
                    Distance matrix (angstroms):
                    1          2          3          4          5
     1  C    0.000000
     2  C    1.410020   0.000000
     3  C    2.447699   1.397808   0.000000
     4  C    2.833267   2.418806   1.390317   0.000000
     5  C    2.449605   2.783359   2.403986   1.391549   0.000000
     6  C    1.408607   2.405302   2.780259   2.418680   1.399443
     7  C    2.582134   3.608348   4.920226   5.409382   4.801365
     8  C    3.589578   4.251988   5.644994   6.382429   5.979210
     9  C    4.903203   5.646762   7.036663   7.725412   7.221175
    10  C    5.392096   6.384471   7.725324   8.206297   7.483195
    11  C    4.774455   5.970511   7.210037   7.472705   6.577720
    12  C    3.414140   4.674364   5.860643   6.075850   5.186648
    13  H    3.415797   2.144911   1.074728   2.139391   3.378489
    14  H    3.907903   3.393434   2.143241   1.074636   2.143430
    15  H    3.418018   3.857106   3.376887   2.138913   1.073750
    16  H    3.646748   3.944453   5.329902   6.264144   6.096299
    17  H    5.736801   6.310595   7.708103   8.515971   8.121967
    18  H    6.466323   7.452753   8.798465   9.277066   8.529401
    19  Cl   3.439025   4.848878   5.715084   5.505929   4.327233
    20  Cl   2.785450   4.066489   4.548948   4.015410   2.704271
    21  Cl   6.098859   7.410823   8.538815   8.579569   7.496979
    22  Cl   2.778768   1.758240   2.690159   4.001449   4.539247
                    6          7          8          9         10
     6  C    0.000000
     7  C    3.441262   0.000000
     8  C    4.684203   1.399532   0.000000
     9  C    5.872719   2.433023   1.399427   0.000000
    10  C    6.086562   2.815884   2.420764   1.392751   0.000000
    11  C    5.186155   2.424638   2.777425   2.404258   1.394874
    12  C    3.791636   1.390497   2.400417   2.783024   2.425213
    13  H    3.854975   5.752398   6.307676   7.706767   8.514964
    14  H    3.393476   6.483108   7.449733   8.797719   9.276733
    15  H    2.148640   5.571752   6.832822   8.004536   8.122911
    16  H    4.929183   2.144369   1.068026   2.134396   3.381098
    17  H    6.807872   3.403473   2.148029   1.074901   2.141570
    18  H    7.130527   3.891132   3.397266   2.147467   1.075252
    19  Cl   3.089882   2.755108   4.057678   4.585609   4.089965
    20  Cl   1.770775   3.572737   4.970757   5.851903   5.648756
    21  Cl   6.178573   4.051632   4.542192   4.024316   2.728468
    22  Cl   4.056237   3.937401   3.976368   5.319144   6.370329
                   11         12         13         14         15
    11  C    0.000000
    12  C    1.399454   0.000000
    13  H    8.110104   6.794938   0.000000
    14  H    8.519077   7.120116   2.467279   0.000000
    15  H    7.093157   5.741502   4.265745   2.465404   0.000000
    16  H    3.845359   3.372082   5.837710   7.299211   7.044419
    17  H    3.380166   3.857897   8.277976   9.578395   8.953327
    18  H    2.149442   3.400826   9.578497  10.346367   9.137201
    19  Cl   2.788518   1.802605   6.761881   6.444135   4.582047
    20  Cl   4.461792   3.226370   5.623530   4.847201   2.807316
    21  Cl   1.764794   2.754533   9.509682   9.571790   7.797404
    22  Cl   6.340750   5.264934   2.789981   4.832800   5.612769
                   16         17         18         19         20
    16  H    0.000000
    17  H    2.455857   0.000000
    18  H    4.270677   2.472220   0.000000
    19  Cl   4.899376   5.660458   4.937953   0.000000
    20  Cl   5.550394   6.897173   6.586632   1.790365   0.000000
    21  Cl   5.610076   4.869984   2.861043   3.215492   4.998214
    22  Cl   3.259578   5.706850   7.372712   5.958219   5.563211
                   21         22
    21  Cl   0.000000
    22  Cl   7.986531   0.000000
 Stoichiometry    C12H6Cl4
 Framework group  C1[X(C12H6Cl4)]
 Deg. of freedom    60
 Full point group                 C1      NOp   1
 Largest Abelian subgroup         C1      NOp   1
 Largest concise Abelian subgroup C1      NOp   1
                         Standard orientation:                         
 ---------------------------------------------------------------------
 Center     Atomic      Atomic             Coordinates (Angstroms)
 Number     Number       Type             X           Y           Z
 ---------------------------------------------------------------------
      1          6           0        1.701027    0.087326   -0.000001
      2          6           0        2.903850    0.823108   -0.000003
      3          6           0        4.146829    0.183678   -0.000003
      4          6           0        4.222614   -1.204572   -0.000001
      5          6           0        3.051600   -1.956327    0.000003
      6          6           0        1.806564   -1.317322    0.000004
      7          6           0       -0.697801    1.042856    0.000010
      8          6           0       -1.045521    2.398503    0.000013
      9          6           0       -2.388292    2.792667    0.000011
     10          6           0       -3.399868    1.835343    0.000004
     11          6           0       -3.056981    0.483270    0.000000
     12          6           0       -1.713109    0.092787    0.000003
     13          1           0        5.048082    0.769155   -0.000006
     14          1           0        5.178997   -1.694649   -0.000002
     15          1           0        3.105717   -3.028712    0.000007
     16          1           0       -0.283482    3.146818    0.000016
     17          1           0       -2.640175    3.837639    0.000013
     18          1           0       -4.432546    2.134913    0.000000
     19         17           0       -1.265005   -1.653234   -0.000003
     20         17           0        0.378233   -2.363990    0.000008
     21         17           0       -4.343526   -0.724744   -0.000012
     22         17           0        2.926647    2.581200   -0.000009
 ---------------------------------------------------------------------
 Rotational constants (GHZ):           0.5649929           0.2306024           0.1637625
 Standard basis: 6-311+G(d,p) (5D, 7F)
 There are   436 symmetry adapted cartesian basis functions of A   symmetry.
 There are   420 symmetry adapted basis functions of A   symmetry.
   420 basis functions,   692 primitive gaussians,   436 cartesian basis functions
    73 alpha electrons       73 beta electrons
       nuclear repulsion energy      1471.7979544583 Hartrees.
 NAtoms=   22 NActive=   22 NUniq=   22 SFac= 1.00D+00 NAtFMM=   60 NAOKFM=F Big=F
 Integral buffers will be    131072 words long.
 Raffenetti 2 integral format.
 Two-electron integral symmetry is turned on.
 One-electron integrals computed using PRISM.
 NBasis=   420 RedAO= T EigKep=  2.03D-06  NBF=   420
 NBsUse=   416 1.00D-06 EigRej=  6.85D-07 NBFU=   416
 Initial guess from the checkpoint file:  "./Gau-329059.chk"
 B after Tr=     0.000000   -0.000000   -0.000000
         Rot=    0.999900    0.000000    0.000000   -0.014166 Ang=   1.62 deg.
 ExpMin= 4.38D-02 ExpMax= 1.06D+05 ExpMxC= 3.62D+03 IAcc=3 IRadAn=         5 AccDes= 0.00D+00
 Harris functional with IExCor=  402 and IRadAn=       5 diagonalized for initial guess.
 HarFok:  IExCor=  402 AccDes= 0.00D+00 IRadAn=         5 IDoV= 1 UseB2=F ITyADJ=14
 ICtDFT=  3500011 ScaDFX=  1.000000  1.000000  1.000000  1.000000
 FoFCou: FMM=F IPFlag=           0 FMFlag=      100000 FMFlg1=           0
         NFxFlg=           0 DoJE=T BraDBF=F KetDBF=T FulRan=T
         wScrn=  0.000000 ICntrl=       500 IOpCl=  0 I1Cent=   200000004 NGrid=           0
         NMat0=    1 NMatS0=      1 NMatT0=    0 NMatD0=    1 NMtDS0=    0 NMtDT0=    0
 Petite list used in FoFCou.
 Requested convergence on RMS density matrix=1.00D-08 within  32 cycles.
 Requested convergence on MAX density matrix=1.00D-06.
 Requested convergence on             energy=1.00D-06.
 No special actions if energy rises.
 SCF Done:  E(RB3LYP) =  -2301.43281231     A.U. after   20 cycles
            NFock= 20  Conv=0.78D-08     -V/T= 2.0022
 QCSCF skips out because SCF is already converged.
 Calling FoFJK, ICntrl=      2127 FMM=F ISym2X=0 I1Cent= 0 IOpClX= 0 NMat=1 NMatS=1 NMatT=0.
 ***** Axes restored to original set *****
 -------------------------------------------------------------------
 Center     Atomic                   Forces (Hartrees/Bohr)
 Number     Number              X              Y              Z
 -------------------------------------------------------------------
      1        6          -0.011957816    0.002533216    0.004415128
      2        6          -0.020128992    0.004173961    0.007415517
      3        6          -0.003518729   -0.000018537    0.001155908
      4        6          -0.004265752   -0.013722202   -0.001172021
      5        6          -0.010145177    0.003993890    0.004092578
      6        6           0.048419421   -0.025876012   -0.020811341
      7        6          -0.034443465   -0.008595180    0.009733688
      8        6          -0.001377258    0.015572105    0.003378516
      9        6          -0.006290958    0.010452259    0.004035536
     10        6           0.004510008    0.003495683   -0.000829303
     11        6           0.008611443    0.007162078   -0.001492045
     12        6           0.031212119   -0.063767660   -0.022259394
     13        1           0.005872891   -0.000390300   -0.002008118
     14        1           0.001477642    0.005461980    0.000538969
     15        1          -0.001688830    0.005950660    0.001674025
     16        1           0.011347296   -0.000302995   -0.003795461
     17        1           0.002768298   -0.005609263   -0.001965507
     18        1          -0.004131912   -0.003599789    0.000685212
     19       17          -0.142061305   -0.266349974   -0.003217253
     20       17           0.132516364    0.337282429    0.019683388
     21       17          -0.003810842   -0.003115665    0.000670320
     22       17          -0.002914444   -0.004730683    0.000071659
 -------------------------------------------------------------------
 Cartesian Forces:  Max     0.337282429 RMS     0.059689793

 GradGradGradGradGradGradGradGradGradGradGradGradGradGradGradGradGradGrad
 Berny optimization.
 Using GEDIIS/GDIIS optimizer.
 FormGI is forming the generalized inverse of G from B-inverse, IUseBI=4.
 Internal  Forces:  Max     0.340190705 RMS     0.038701618
 Search for a local minimum.
 Step number   2 out of a maximum of  112
 All quantities printed in internal units (Hartrees-Bohrs-Radians)
 Mixed Optimization -- RFO/linear search
 Update second derivatives using D2CorX and points    1    2
 DE= -1.02D-01 DEPred=-1.24D-01 R= 8.19D-01
 TightC=F SS=  1.41D+00  RLast= 3.00D-01 DXNew= 5.0454D-01 9.0000D-01
 Trust test= 8.19D-01 RLast= 3.00D-01 DXMaxT set to 5.05D-01
 ITU=  1  0
 Use linear search instead of GDIIS.
 Linear search step of   0.600 exceeds DXMaxT=   0.505 but not scaled.
 Quartic linear search produced a step of  2.00000.
 Iteration  1 RMS(Cart)=  0.38591120 RMS(Int)=  0.03159617
 Iteration  2 RMS(Cart)=  0.19787888 RMS(Int)=  0.00651615
 Iteration  3 RMS(Cart)=  0.00961723 RMS(Int)=  0.00024508
 Iteration  4 RMS(Cart)=  0.00001140 RMS(Int)=  0.00024505
 Iteration  5 RMS(Cart)=  0.00000000 RMS(Int)=  0.00024505
 Variable       Old X    -DE/DX   Delta X   Delta X   Delta X     New X
                                 (Linear)    (Quad)   (Total)
    R1        2.66455  -0.02506   0.03258   0.00000   0.03303   2.69758
    R2        2.66188  -0.02560   0.02724   0.00000   0.02770   2.68958
    R3        2.64147   0.00161  -0.01357   0.00000  -0.01358   2.62789
    R4        3.32259   0.00187  -0.00665   0.00000  -0.00665   3.31594
    R5        2.62732   0.00447  -0.04189   0.00000  -0.04236   2.58495
    R6        2.03094   0.00612   0.01787   0.00000   0.01787   2.04881
    R7        2.62965   0.00005  -0.03723   0.00000  -0.03770   2.59195
    R8        2.03077   0.00558   0.01752   0.00000   0.01752   2.04829
    R9        2.64456  -0.00557  -0.00739   0.00000  -0.00739   2.63718
   R10        2.02909   0.00612   0.01417   0.00000   0.01417   2.04327
   R11        3.34628   0.00124   0.04072   0.00000   0.04072   3.38700
   R12        2.64473  -0.01603  -0.00706   0.00000  -0.00706   2.63767
   R13        2.62766  -0.03250  -0.04121   0.00000  -0.04113   2.58653
   R14        2.64453  -0.00010  -0.00746   0.00000  -0.00753   2.63701
   R15        2.01828   0.01195  -0.00746   0.00000  -0.00746   2.01081
   R16        2.63192   0.00166  -0.03269   0.00000  -0.03276   2.59915
   R17        2.03127   0.00654   0.01852   0.00000   0.01852   2.04979
   R18        2.63593   0.00018  -0.02467   0.00000  -0.02466   2.61127
   R19        2.03193   0.00535   0.01985   0.00000   0.01985   2.05178
   R20        2.64458  -0.00798  -0.00736   0.00000  -0.00728   2.63730
   R21        3.33498   0.00361   0.01812   0.00000   0.01812   3.35309
   R22        3.40643   0.04940   0.16102   0.00000   0.16102   3.56745
   R23        3.38330   0.34019   0.42770   0.00000   0.42770   3.81100
    A1        2.04479  -0.00384  -0.09921   0.00000  -0.09779   1.94700
    A2        2.11748   0.00107   0.04617   0.00000   0.04655   2.16402
    A3        2.13275  -0.00923   0.07671   0.00000   0.07652   2.20927
    A4        2.03296   0.00816  -0.12288   0.00000  -0.12307   1.90989
    A5        2.10046  -0.00171   0.01213   0.00000   0.01155   2.11201
    A6        2.09035  -0.00025  -0.00808   0.00000  -0.00779   2.08256
    A7        2.09237   0.00196  -0.00405   0.00000  -0.00376   2.08862
    A8        2.08697   0.00083  -0.01485   0.00000  -0.01591   2.07106
    A9        2.09887   0.00067   0.00896   0.00000   0.00948   2.10836
   A10        2.09734  -0.00150   0.00590   0.00000   0.00643   2.10377
   A11        2.09670  -0.01938   0.00461   0.00000   0.00404   2.10074
   A12        2.09108   0.00777  -0.00662   0.00000  -0.00634   2.08474
   A13        2.09540   0.01161   0.00201   0.00000   0.00230   2.09770
   A14        2.11997   0.02303   0.05116   0.00000   0.05156   2.17153
   A15        2.12820  -0.04981   0.06761   0.00000   0.06741   2.19561
   A16        2.03501   0.02678  -0.11877   0.00000  -0.11897   1.91604
   A17        2.07193   0.01513  -0.04493   0.00000  -0.04483   2.02710
   A18        2.10741  -0.01119   0.02602   0.00000   0.02594   2.13335
   A19        2.09602   0.00485   0.00325   0.00000   0.00329   2.09932
   A20        2.07976   0.00634  -0.02928   0.00000  -0.02924   2.05052
   A21        2.09822   0.00033   0.00765   0.00000   0.00749   2.10571
   A22        2.09285  -0.00060  -0.00309   0.00000  -0.00301   2.08984
   A23        2.09212   0.00027  -0.00456   0.00000  -0.00448   2.08764
   A24        2.08028  -0.00086  -0.02823   0.00000  -0.02831   2.05198
   A25        2.10140   0.00180   0.01401   0.00000   0.01405   2.11545
   A26        2.10150  -0.00094   0.01421   0.00000   0.01425   2.11576
   A27        2.10194  -0.00773   0.01509   0.00000   0.01516   2.11710
   A28        2.07636  -0.00182  -0.03607   0.00000  -0.03610   2.04026
   A29        2.10489   0.00955   0.02098   0.00000   0.02095   2.12583
   A30        2.10660   0.00433   0.02440   0.00000   0.02454   2.13114
   A31        2.07179  -0.03377  -0.04521   0.00000  -0.04528   2.02651
   A32        2.10480   0.02944   0.02080   0.00000   0.02073   2.12553
   A33        2.23025  -0.02842   0.27171   0.00000   0.27171   2.50197
   A34        2.10096  -0.15383   0.01313   0.00000   0.01313   2.11410
    D1        0.00000  -0.00000   0.00000   0.00000   0.00000   0.00000
    D2        3.14159   0.00000   0.00000   0.00000   0.00000   3.14159
    D3       -0.00000   0.00000  -0.00000   0.00000  -0.00000  -0.00000
    D4        3.14159  -0.00000   0.00000   0.00000   0.00000  -3.14159
    D5        0.00000  -0.00000   0.00000   0.00000  -0.00000   0.00000
    D6        3.14159   0.00000  -0.00000   0.00000  -0.00000   3.14159
    D7       -3.14159  -0.00000  -0.00000   0.00000  -0.00000  -3.14159
    D8        0.00000  -0.00000  -0.00000   0.00000  -0.00000   0.00000
    D9       -0.00000   0.00000   0.00000   0.00000   0.00000  -0.00000
   D10        3.14159   0.00000  -0.00000   0.00000  -0.00000   3.14159
   D11        3.14159   0.00000   0.00000   0.00000   0.00000   3.14159
   D12        0.00000  -0.00000  -0.00000   0.00000   0.00000   0.00000
   D13        0.00000  -0.00000  -0.00000   0.00000  -0.00000   0.00000
   D14       -3.14159  -0.00000  -0.00000   0.00000  -0.00000  -3.14159
   D15       -3.14159  -0.00000  -0.00000   0.00000  -0.00000  -3.14159
   D16        0.00000  -0.00000  -0.00000   0.00000  -0.00000   0.00000
   D17       -0.00000   0.00000   0.00000   0.00000   0.00000   0.00000
   D18        3.14159   0.00000  -0.00000   0.00000  -0.00000   3.14159
   D19        3.14159  -0.00000   0.00000   0.00000   0.00000   3.14159
   D20       -0.00000   0.00000  -0.00000   0.00000  -0.00000  -0.00000
   D21        0.00001   0.00000  -0.00000   0.00000  -0.00000   0.00000
   D22       -3.14159   0.00000  -0.00000   0.00000  -0.00000  -3.14159
   D23        0.00000   0.00000   0.00000   0.00000   0.00000   0.00000
   D24       -3.14159  -0.00000  -0.00000   0.00000  -0.00000  -3.14159
   D25       -0.00000   0.00000  -0.00000   0.00000  -0.00000  -0.00000
   D26        3.14159  -0.00000   0.00000   0.00000   0.00000  -3.14159
   D27       -0.00000  -0.00000   0.00000   0.00000   0.00000  -0.00000
   D28        3.14159  -0.00000  -0.00000   0.00000  -0.00000   3.14159
   D29        3.14159   0.00000   0.00000   0.00000   0.00000   3.14159
   D30       -0.00000   0.00000   0.00000   0.00000   0.00000  -0.00000
   D31       -0.00000   0.00000   0.00000   0.00000   0.00000  -0.00000
   D32       -3.14159  -0.00000  -0.00000   0.00000  -0.00000  -3.14159
   D33        3.14159   0.00000   0.00000   0.00000   0.00000  -3.14159
   D34        0.00000  -0.00000  -0.00000   0.00000  -0.00000   0.00000
   D35       -0.00000   0.00000  -0.00000   0.00000  -0.00000  -0.00000
   D36       -3.14159  -0.00000  -0.00000   0.00000  -0.00000  -3.14159
   D37        3.14159   0.00000   0.00000   0.00000   0.00000   3.14159
   D38        0.00000  -0.00000  -0.00000   0.00000  -0.00000   0.00000
   D39        0.00000  -0.00000   0.00000   0.00000   0.00000   0.00000
   D40       -3.14159  -0.00000  -0.00000   0.00000  -0.00000   3.14159
   D41        3.14159   0.00000   0.00000   0.00000   0.00000   3.14159
   D42       -0.00000   0.00000  -0.00000   0.00000  -0.00000  -0.00000
   D43        0.00001   0.00000  -0.00000   0.00000  -0.00000   0.00000
   D44       -3.14159   0.00000  -0.00000   0.00000  -0.00000  -3.14159
   D45       -0.00001   0.00000  -0.00001   0.00000  -0.00001  -0.00002
         Item               Value     Threshold  Converged?
 Maximum Force            0.340191     0.000450     NO 
 RMS     Force            0.038702     0.000300     NO 
 Maximum Displacement     1.901704     0.001800     NO 
 RMS     Displacement     0.586916     0.001200     NO 
 Predicted change in Energy=-4.236148D-02
 GradGradGradGradGradGradGradGradGradGradGradGradGradGradGradGradGradGrad

                          Input orientation:                          
 ---------------------------------------------------------------------
 Center     Atomic      Atomic             Coordinates (Angstroms)
 Number     Number       Type             X           Y           Z
 ---------------------------------------------------------------------
      1          6           0        0.069354    1.941358    0.487034
      2          6           0        1.358507    2.459692    0.159668
      3          6           0        1.715543    3.797047    0.293203
      4          6           0        0.822464    4.721533    0.761050
      5          6           0       -0.439890    4.304666    1.098641
      6          6           0       -0.798987    2.962769    0.964932
      7          6           0       -1.823742   -1.200937    0.520546
      8          6           0       -1.601336   -2.540078    0.195766
      9          6           0       -2.589880   -3.514598    0.338434
     10          6           0       -3.837990   -3.183199    0.811885
     11          6           0       -4.068333   -1.859898    1.136306
     12          6           0       -3.072267   -0.893440    0.989646
     13          1           0        2.717807    4.108688    0.021535
     14          1           0        1.104376    5.763086    0.863782
     15          1           0       -1.155995    5.024764    1.469797
     16          1           0       -0.653988   -2.852099   -0.174953
     17          1           0       -2.372956   -4.543878    0.073655
     18          1           0       -4.613828   -3.934069    0.926479
     19         17           0       -3.372032    0.917994    1.428615
     20         17           0       -2.499813    2.735512    1.482589
     21         17           0       -5.684314   -1.452248    1.745283
     22         17           0        2.724568    1.550062   -0.461211
 ---------------------------------------------------------------------
                    Distance matrix (angstroms):
                    1          2          3          4          5
     1  C    0.000000
     2  C    1.427500   0.000000
     3  C    2.488190   1.390620   0.000000
     4  C    2.893378   2.401027   1.367898   0.000000
     5  C    2.493716   2.742231   2.356332   1.371599   0.000000
     6  C    1.423264   2.357183   2.733148   2.400817   1.395535
     7  C    3.668644   4.863861   6.128464   6.491217   5.706217
     8  C    4.791587   5.810308   7.153344   7.676285   7.001047
     9  C    6.071331   7.163370   8.485215   8.925052   8.145015
    10  C    6.452437   7.698778   8.935021   9.176448   8.227845
    11  C    5.656108   7.004518   8.134192   8.208286   7.153242
    12  C    4.261276   5.618195   6.738607   6.837332   5.827658
    13  H    3.453739   2.141486   1.084184   2.124803   3.342098
    14  H    3.977287   3.387147   2.136444   1.083909   2.137032
    15  H    3.460447   3.823448   3.337273   2.123339   1.081251
    16  H    4.892717   5.690099   7.074248   7.772767   7.272356
    17  H    6.942194   7.936071   9.291666   9.825023   9.115047
    18  H    7.526350   8.782766  10.011600  10.222529   9.237324
    19  Cl   3.711736   5.134692   5.954958   5.701434   4.491758
    20  Cl   2.867477   4.088132   4.506741   3.937311   2.617812
    21  Cl   6.797385   8.210894   9.188119   9.023439   7.814358
    22  Cl   2.846479   1.754719   2.576085   3.894888   4.476023
                    6          7          8          9         10
     6  C    0.000000
     7  C    4.310922   0.000000
     8  C    5.613973   1.395795   0.000000
     9  C    6.749524   2.444005   1.395444   0.000000
    10  C    6.857979   2.841027   2.407452   1.375412   0.000000
    11  C    5.828903   2.419004   2.726414   2.358062   1.381822
    12  C    4.476467   1.368730   2.346337   2.743582   2.420935
    13  H    3.817193   7.004769   7.930412   9.294431   9.837415
    14  H    3.387447   7.562361   8.758404   9.999947  10.220846
[...]

            Population analysis using the SCF Density.

 **********************************************************************

 Orbital symmetries:
       Occupied  (A) (A) (A) (A) (A) (A) (A) (A) (A) (A) (A) (A)
                 (A) (A) (A) (A) (A) (A) (A) (A) (A) (A) (A) (A)
                 (A) (A) (A) (A) (A) (A) (A) (A) (A) (A) (A) (A)
                 (A) (A) (A) (A) (A) (A) (A) (A) (A) (A) (A) (A)
                 (A) (A) (A) (A) (A) (A) (A) (A) (A) (A) (A) (A)
                 (A) (A) (A) (A) (A) (A) (A) (A) (A) (A) (A) (A)
                 (A)
       Virtual   (A) (A) (A) (A) (A) (A) (A) (A) (A) (A) (A) (A)
                 (A) (A) (A) (A) (A) (A) (A) (A) (A) (A) (A) (A)
                 (A) (A) (A) (A) (A) (A) (A) (A) (A) (A) (A) (A)
                 (A) (A) (A) (A) (A) (A) (A) (A) (A) (A) (A) (A)
                 (A) (A) (A) (A) (A) (A) (A) (A) (A) (A) (A) (A)
                 (A) (A) (A) (A) (A) (A) (A) (A) (A) (A) (A) (A)
                 (A) (A) (A) (A) (A) (A) (A) (A) (A) (A) (A) (A)
                 (A) (A) (A) (A) (A) (A) (A) (A) (A) (A) (A) (A)
                 (A) (A) (A) (A) (A) (A) (A) (A) (A) (A) (A) (A)
                 (A) (A) (A) (A) (A) (A) (A) (A) (A) (A) (A) (A)
                 (A) (A) (A) (A) (A) (A) (A) (A) (A) (A) (A) (A)
                 (A) (A) (A) (A) (A) (A) (A) (A) (A) (A) (A) (A)
                 (A) (A) (A) (A) (A) (A) (A) (A) (A) (A) (A) (A)
                 (A) (A) (A) (A) (A) (A) (A) (A) (A) (A) (A) (A)
                 (A) (A) (A) (A) (A) (A) (A) (A) (A) (A) (A) (A)
                 (A) (A) (A) (A) (A) (A) (A) (A) (A) (A) (A) (A)
                 (A) (A) (A) (A) (A) (A) (A) (A) (A) (A) (A) (A)
                 (A) (A) (A) (A) (A) (A) (A) (A) (A) (A) (A) (A)
                 (A) (A) (A) (A) (A) (A) (A) (A) (A) (A) (A) (A)
                 (A) (A) (A) (A) (A) (A) (A) (A) (A) (A) (A) (A)
                 (A) (A) (A) (A) (A) (A) (A) (A) (A) (A) (A) (A)
                 (A) (A) (A) (A) (A) (A) (A) (A) (A) (A) (A) (A)
                 (A) (A) (A) (A) (A) (A) (A) (A) (A) (A) (A) (A)
                 (A) (A) (A) (A) (A) (A) (A) (A) (A) (A) (A) (A)
                 (A) (A) (A) (A) (A) (A) (A) (A) (A) (A) (A) (A)
                 (A) (A) (A) (A) (A) (A) (A) (A) (A) (A) (A) (A)
                 (A) (A) (A) (A) (A) (A) (A) (A) (A) (A) (A) (A)
                 (A) (A) (A) (A) (A) (A) (A) (A) (A) (A) (A) (A)
                 (A) (A) (A) (A) (A) (A) (A)
 The electronic state is 1-A.
 Alpha  occ. eigenvalues -- -101.56540-101.56540-101.56419-101.56418 -10.26095
 Alpha  occ. eigenvalues --  -10.26095 -10.26049 -10.25829 -10.22592 -10.22083
 Alpha  occ. eigenvalues --  -10.20727 -10.20471 -10.20464 -10.20450 -10.20100
 Alpha  occ. eigenvalues --  -10.20017  -9.48012  -9.48011  -9.47895  -9.47879
 Alpha  occ. eigenvalues --   -7.24478  -7.24478  -7.24374  -7.24359  -7.23497
 Alpha  occ. eigenvalues --   -7.23496  -7.23446  -7.23445  -7.23378  -7.23361
 Alpha  occ. eigenvalues --   -7.23313  -7.23304  -0.93675  -0.91961  -0.88714
 Alpha  occ. eigenvalues --   -0.86910  -0.85530  -0.84131  -0.79949  -0.75112
 Alpha  occ. eigenvalues --   -0.74854  -0.74711  -0.66014  -0.62207  -0.62161
 Alpha  occ. eigenvalues --   -0.61309  -0.54845  -0.52442  -0.51205  -0.50921
 Alpha  occ. eigenvalues --   -0.48796  -0.47144  -0.45417  -0.45311  -0.45188
 Alpha  occ. eigenvalues --   -0.42833  -0.42648  -0.41095  -0.39439  -0.39142
 Alpha  occ. eigenvalues --   -0.38460  -0.37762  -0.35480  -0.34772  -0.33776
 Alpha  occ. eigenvalues --   -0.33596  -0.33174  -0.32484  -0.31612  -0.27589
 Alpha  occ. eigenvalues --   -0.27157  -0.26448  -0.26054
 Alpha virt. eigenvalues --   -0.04666  -0.04518  -0.04327  -0.03527  -0.02132
 Alpha virt. eigenvalues --   -0.00938  -0.00288   0.00994   0.01786   0.02286
 Alpha virt. eigenvalues --    0.02301   0.02898   0.03207   0.04313   0.04885
 Alpha virt. eigenvalues --    0.05195   0.05309   0.06477   0.06530   0.06855
 Alpha virt. eigenvalues --    0.06932   0.08502   0.08646   0.08740   0.09331
 Alpha virt. eigenvalues --    0.09442   0.10225   0.10564   0.10926   0.11559
 Alpha virt. eigenvalues --    0.12073   0.12140   0.12898   0.13191   0.13538
 Alpha virt. eigenvalues --    0.13587   0.13909   0.14337   0.14739   0.14985
 Alpha virt. eigenvalues --    0.16059   0.16430   0.16636   0.16658   0.17352
 Alpha virt. eigenvalues --    0.17505   0.18086   0.18097   0.18719   0.19125
 Alpha virt. eigenvalues --    0.19472   0.19486   0.20073   0.20077   0.20347
 Alpha virt. eigenvalues --    0.20839   0.21030   0.21825   0.22708   0.22847
 Alpha virt. eigenvalues --    0.23434   0.23463   0.24052   0.24690   0.24730
 Alpha virt. eigenvalues --    0.25053   0.25510   0.26554   0.26802   0.26955
 Alpha virt. eigenvalues --    0.27384   0.27425   0.27834   0.28242   0.29110
 Alpha virt. eigenvalues --    0.29671   0.29988   0.30383   0.30444   0.31785
 Alpha virt. eigenvalues --    0.32543   0.32555   0.33588   0.34829   0.35753
 Alpha virt. eigenvalues --    0.41538   0.42259   0.43364   0.44336   0.44921
 Alpha virt. eigenvalues --    0.46160   0.46734   0.47053   0.47970   0.48851
 Alpha virt. eigenvalues --    0.49510   0.50042   0.50605   0.51340   0.51413
 Alpha virt. eigenvalues --    0.51953   0.53380   0.54161   0.54542   0.55090
 Alpha virt. eigenvalues --    0.56638   0.57236   0.57378   0.58236   0.58660
 Alpha virt. eigenvalues --    0.59041   0.59588   0.60317   0.61033   0.61704
 Alpha virt. eigenvalues --    0.63799   0.64019   0.64704   0.64739   0.65274
 Alpha virt. eigenvalues --    0.65798   0.66335   0.67459   0.68493   0.69022
 Alpha virt. eigenvalues --    0.69789   0.69823   0.70379   0.71203   0.72911
 Alpha virt. eigenvalues --    0.73877   0.76713   0.78989   0.79794   0.80564
 Alpha virt. eigenvalues --    0.81588   0.82405   0.82810   0.82959   0.84229
 Alpha virt. eigenvalues --    0.84339   0.84946   0.85387   0.85708   0.86091
 Alpha virt. eigenvalues --    0.87165   0.87493   0.87551   0.89017   0.89383
 Alpha virt. eigenvalues --    0.90002   0.90308   0.91329   0.92906   0.93379
 Alpha virt. eigenvalues --    0.94968   0.95850   0.96323   0.96782   0.96839
 Alpha virt. eigenvalues --    0.98263   0.99002   0.99666   1.00025   1.00344
 Alpha virt. eigenvalues --    1.02121   1.02317   1.04144   1.04585   1.05150
 Alpha virt. eigenvalues --    1.06004   1.06704   1.08636   1.12176   1.13210
 Alpha virt. eigenvalues --    1.17267   1.20302   1.23574   1.24605   1.25031
 Alpha virt. eigenvalues --    1.25450   1.26615   1.28145   1.29772   1.31425
 Alpha virt. eigenvalues --    1.32272   1.32811   1.35013   1.37095   1.40478
 Alpha virt. eigenvalues --    1.42237   1.44650   1.47506   1.48822   1.49080
 Alpha virt. eigenvalues --    1.51195   1.55202   1.55517   1.55583   1.57097
 Alpha virt. eigenvalues --    1.58232   1.59594   1.62520   1.62963   1.64452
 Alpha virt. eigenvalues --    1.66652   1.67392   1.68272   1.72058   1.72608
 Alpha virt. eigenvalues --    1.75399   1.78240   1.79377   1.80808   1.82256
 Alpha virt. eigenvalues --    1.83003   1.86248   1.87468   1.88860   1.88897
 Alpha virt. eigenvalues --    1.91107   1.92295   1.92766   1.94364   1.95837
 Alpha virt. eigenvalues --    1.95965   1.96619   1.98888   2.01557   2.01776
 Alpha virt. eigenvalues --    2.03365   2.04984   2.05758   2.17435   2.18380
 Alpha virt. eigenvalues --    2.18857   2.19510   2.25157   2.26861   2.28131
 Alpha virt. eigenvalues --    2.28384   2.29984   2.32189   2.32291   2.33340
 Alpha virt. eigenvalues --    2.35382   2.36445   2.39433   2.40824   2.41186
 Alpha virt. eigenvalues --    2.43631   2.46123   2.48544   2.49978   2.51265
 Alpha virt. eigenvalues --    2.52720   2.54623   2.55692   2.56499   2.58342
 Alpha virt. eigenvalues --    2.63602   2.67999   2.68308   2.69398   2.69627
 Alpha virt. eigenvalues --    2.69973   2.72594   2.73002   2.74513   2.75296
 Alpha virt. eigenvalues --    2.76565   2.77464   2.77694   2.78268   2.78405
 Alpha virt. eigenvalues --    2.79868   2.83907   2.83968   2.84282   2.87102
 Alpha virt. eigenvalues --    2.90436   2.97020   2.99074   3.10065   3.10115
 Alpha virt. eigenvalues --    3.13627   3.13747   3.17196   3.19932   3.22046
 Alpha virt. eigenvalues --    3.22544   3.27420   3.34235   3.35947   3.38924
 Alpha virt. eigenvalues --    3.39782   3.52245   3.54401   3.60606   3.70769
 Alpha virt. eigenvalues --    3.71627   3.74874   3.92660   3.99015   4.02357
 Alpha virt. eigenvalues --    4.05147   4.08607   4.10384   4.35731   4.81367
 Alpha virt. eigenvalues --    4.82323   9.78641   9.80612   9.83935   9.84769
 Alpha virt. eigenvalues --   23.41421  23.56105  23.85512  23.88598  23.89905
 Alpha virt. eigenvalues --   23.93354  23.96730  24.02602  24.04322  24.09188
 Alpha virt. eigenvalues --   24.14643  24.16286  25.79870  25.85625  25.93572
 Alpha virt. eigenvalues --   25.98660  26.16315  26.21185  26.29019  26.32300
 Alpha virt. eigenvalues --   26.58342  26.62192  26.74777  26.96484 215.78001
 Alpha virt. eigenvalues --  215.80292 215.84798 215.85128
          Condensed to atoms (all electrons):
               1          2          3          4          5          6
     1  C   29.761901   0.049237  -4.401608  -1.803259  -4.429719  -0.014919
     2  C    0.049237  13.831494  -2.788263  -1.393036   2.995066  -0.854365
     3  C   -4.401608  -2.788263  13.486627   1.198981   1.502303   2.985080
     4  C   -1.803259  -1.393036   1.198981   8.028425   1.206928  -1.393149
     5  C   -4.429719   2.995066   1.502303   1.206928  13.515054  -2.797133
     6  C   -0.014919  -0.854365   2.985080  -1.393149  -2.797133  13.857958
     7  C    4.283832  -1.912877  -3.960409  -0.137527  -3.964537  -1.898673
     8  C   -1.019420  -1.166114  -0.365059  -0.179005  -0.375943  -1.175242
     9  C    2.865078  -0.391908  -0.003832  -0.127563  -0.003884  -0.403522
    10  C   -5.468713   0.607807   0.081102   0.106219   0.081426   0.623305
    11  C   -0.068502  -0.493832  -0.002564   0.019010  -0.004459  -0.495533
    12  C  -13.925300  -1.069441  -1.509777   0.892950  -1.497715  -1.013811
    13  H    0.074206   0.027027   0.310706  -0.032372  -0.029407  -0.008801
    14  H   -0.009043   0.013674  -0.037675   0.405089  -0.037578   0.013624
    15  H    0.074271  -0.008855  -0.029361  -0.032521   0.310571   0.027244
    16  H    0.138401   0.050660   0.018324   0.002736   0.018444   0.050238
    17  H   -0.007732   0.001896   0.000087   0.000122   0.000082   0.001896
    18  H    0.019749   0.000331   0.000077  -0.000017   0.000076   0.000308
    19  Cl  -1.808171  -0.145612  -0.228774  -0.094915  -0.228947  -0.137715
    20  Cl   0.714742  -0.585770   0.287594  -0.174030  -0.524650  -0.430504
    21  Cl  -0.036488  -0.047778  -0.004912  -0.000186  -0.004877  -0.048222
    22  Cl   0.712967  -0.419876  -0.519872  -0.173524   0.289126  -0.586746
               7          8          9         10         11         12
     1  C    4.283832  -1.019420   2.865078  -5.468713  -0.068502 -13.925300
     2  C   -1.912877  -1.166114  -0.391908   0.607807  -0.493832  -1.069441
     3  C   -3.960409  -0.365059  -0.003832   0.081102  -0.002564  -1.509777
     4  C   -0.137527  -0.179005  -0.127563   0.106219   0.019010   0.892950
     5  C   -3.964537  -0.375943  -0.003884   0.081426  -0.004459  -1.497715
     6  C   -1.898673  -1.175242  -0.403522   0.623305  -0.495533  -1.013811
     7  C   25.381655  -4.563148  -2.314287  -5.463053   0.893535   1.069011
     8  C   -4.563148  14.914234   0.246364   2.606359  -1.046811  -2.281345
     9  C   -2.314287   0.246364   9.485696  -0.311395  -0.596302  -2.572115
    10  C   -5.463053   2.606359  -0.311395  20.754294  -7.628765  -0.451373
    11  C    0.893535  -1.046811  -0.596302  -7.628765  17.852352  -3.000051
    12  C    1.069011  -2.281345  -2.572115  -0.451373  -3.000051  32.639849
    13  H    0.015228  -0.000414  -0.000378   0.000062  -0.000260   0.002665
    14  H    0.002045  -0.000300  -0.000138  -0.000003   0.000130   0.000438
    15  H    0.015193  -0.000391  -0.000380   0.000063  -0.000257   0.002665
    16  H   -0.033029   0.300763  -0.041230  -0.032141  -0.002189  -0.114307
    17  H    0.010325   0.009939   0.350638   0.018986  -0.029373  -0.007931
    18  H    0.074504  -0.059904  -0.036953   0.238292   0.103533   0.012423
    19  Cl  -1.123482  -0.116656   0.044343   1.383647   0.272570   0.552745
    20  Cl   0.079444   0.227064   0.214891  -0.265052   0.053868  -0.567062
    21  Cl  -0.347946   0.193088  -0.018135  -0.263786  -0.768772   0.832156
    22  Cl   0.071933   0.221120   0.218217  -0.267180   0.052234  -0.564355
              13         14         15         16         17         18
     1  C    0.074206  -0.009043   0.074271   0.138401  -0.007732   0.019749
     2  C    0.027027   0.013674  -0.008855   0.050660   0.001896   0.000331
     3  C    0.310706  -0.037675  -0.029361   0.018324   0.000087   0.000077
     4  C   -0.032372   0.405089  -0.032521   0.002736   0.000122  -0.000017
     5  C   -0.029407  -0.037578   0.310571   0.018444   0.000082   0.000076
     6  C   -0.008801   0.013624   0.027244   0.050238   0.001896   0.000308
     7  C    0.015228   0.002045   0.015193  -0.033029   0.010325   0.074504
     8  C   -0.000414  -0.000300  -0.000391   0.300763   0.009939  -0.059904
     9  C   -0.000378  -0.000138  -0.000380  -0.041230   0.350638  -0.036953
    10  C    0.000062  -0.000003   0.000063  -0.032141   0.018986   0.238292
    11  C   -0.000260   0.000130  -0.000257  -0.002189  -0.029373   0.103533
    12  C    0.002665   0.000438   0.002665  -0.114307  -0.007931   0.012423
    13  H    0.509977  -0.007551  -0.000187   0.000001   0.000000  -0.000000
    14  H   -0.007551   0.522904  -0.007560  -0.000004  -0.000000  -0.000000
    15  H   -0.000187  -0.007560   0.510009   0.000001   0.000000  -0.000000
    16  H    0.000001  -0.000004   0.000001   0.534159  -0.007010  -0.000232
    17  H    0.000000  -0.000000   0.000000  -0.007010   0.528180  -0.007564
    18  H   -0.000000  -0.000000  -0.000000  -0.000232  -0.007564   0.510138
    19  Cl  -0.000483  -0.000349  -0.000486  -0.004386   0.001001  -0.003275
    20  Cl   0.000483   0.000411  -0.010354  -0.004918  -0.000716  -0.000035
    21  Cl  -0.000004   0.000000  -0.000004  -0.000004  -0.000118  -0.004221
    22  Cl  -0.010339   0.000412   0.000481  -0.004759  -0.000724  -0.000033
              19         20         21         22
     1  C   -1.808171   0.714742  -0.036488   0.712967
     2  C   -0.145612  -0.585770  -0.047778  -0.419876
     3  C   -0.228774   0.287594  -0.004912  -0.519872
     4  C   -0.094915  -0.174030  -0.000186  -0.173524
     5  C   -0.228947  -0.524650  -0.004877   0.289126
     6  C   -0.137715  -0.430504  -0.048222  -0.586746
     7  C   -1.123482   0.079444  -0.347946   0.071933
     8  C   -0.116656   0.227064   0.193088   0.221120
     9  C    0.044343   0.214891  -0.018135   0.218217
    10  C    1.383647  -0.265052  -0.263786  -0.267180
    11  C    0.272570   0.053868  -0.768772   0.052234
    12  C    0.552745  -0.567062   0.832156  -0.564355
    13  H   -0.000483   0.000483  -0.000004  -0.010339
    14  H   -0.000349   0.000411   0.000000   0.000412
    15  H   -0.000486  -0.010354  -0.000004   0.000481
    16  H   -0.004386  -0.004918  -0.000004  -0.004759
    17  H    0.001001  -0.000716  -0.000118  -0.000724
    18  H   -0.003275  -0.000035  -0.004221  -0.000033
    19  Cl  18.238763   0.061795  -0.267457   0.060074
    20  Cl   0.061795  17.557213   0.001099  -0.053162
    21  Cl  -0.267457   0.001099  17.329106   0.001152
    22  Cl   0.060074  -0.053162   0.001152  17.554304
 Mulliken charges:
               1
     1  C    0.298489
     2  C   -0.299463
     3  C   -0.018774
     4  C   -0.319357
     5  C   -0.020227
     6  C   -0.301319
     7  C   -0.177739
     8  C   -0.369178
     9  C   -0.603203
    10  C   -0.350099
    11  C    0.890438
    12  C   -1.430318
    13  H    0.149842
    14  H    0.141472
    15  H    0.149859
    16  H    0.130480
    17  H    0.138015
    18  H    0.152804
    19  Cl   0.545770
    20  Cl   0.417651
    21  Cl   0.456308
    22  Cl   0.418550
 Sum of Mulliken charges =  -0.00000
 Mulliken charges with hydrogens summed into heavy atoms:
               1
     1  C    0.298489
     2  C   -0.299463
     3  C    0.131068
     4  C   -0.177884
     5  C    0.129632
     6  C   -0.301319
     7  C   -0.177739
     8  C   -0.238698
     9  C   -0.465188
    10  C   -0.197296
    11  C    0.890438
    12  C   -1.430318
    19  Cl   0.545770
    20  Cl   0.417651
    21  Cl   0.456308
    22  Cl   0.418550
 Electronic spatial extent (au):  <R**2>=           4804.0080
 Charge=              0.0000 electrons
 Dipole moment (field-independent basis, Debye):
    X=              2.1858    Y=              0.0082    Z=             -1.8951  Tot=              2.8929
 Quadrupole moment (field-independent basis, Debye-Ang):
   XX=           -106.4625   YY=           -123.6541   ZZ=           -115.6149
   XY=             -0.0481   XZ=              7.9911   YZ=             -0.0473
 Traceless Quadrupole moment (field-independent basis, Debye-Ang):
   XX=              8.7813   YY=             -8.4103   ZZ=             -0.3711
   XY=             -0.0481   XZ=              7.9911   YZ=             -0.0473
 Octapole moment (field-independent basis, Debye-Ang**2):
  XXX=             42.8929  YYY=             -0.1622  ZZZ=             -6.7230  XYY=              2.3308
  XXY=             -0.0372  XXZ=              3.6022  XZZ=            -18.9189  YZZ=              0.1468
  YYZ=             10.1198  XYZ=              0.0930
 Hexadecapole moment (field-independent basis, Debye-Ang**3):
 XXXX=          -3617.0660 YYYY=          -1479.5426 ZZZZ=           -953.1192 XXXY=             -0.4173
 XXXZ=             89.6918 YYYX=              0.0722 YYYZ=              0.3939 ZZZX=             -4.1061
 ZZZY=             -0.6517 XXYY=           -886.8552 XXZZ=           -805.6775 YYZZ=           -443.6475
 XXYZ=             -0.1299 YYXZ=             -2.1072 ZZXY=             -0.0536
 N-N= 1.521102244884D+03 E-N=-8.487153297575D+03  KE= 2.295551855546D+03
 1\1\GINC-CN101\FOpt\RB3LYP\6-311+G(d,p)\C12H6Cl4\20CY91R06\23-Apr-2022
 \0\\# opt b3lyp/6-311+g(d,p) scf=xqc\\Title Card Required\\0,1\C,-0.88
 5232752,1.3034321074,0.5946188175\C,-0.1506008719,1.5633738931,-0.5713
 112434\C,0.550631845,2.7498930922,-0.7589538461\C,0.5284648134,3.71657
 70191,0.2404413996\C,-0.1854878429,3.4999364187,1.4139159533\C,-0.8782
 869695,2.3047361121,1.5764093148\C,-1.612037085,0.0151071395,0.7932080
 168\C,-0.9514140772,-1.0624834742,1.3860812627\C,-1.6018326511,-2.2749
 736041,1.5849189133\C,-2.9262093682,-2.426497522,1.1919111274\C,-3.599
 4165821,-1.3619639115,0.5986900949\C,-2.9480124914,-0.1399139618,0.396
 87866\H,1.102109927,2.9073276249,-1.6763457081\H,1.0704609164,4.644834
 1472,0.1037866662\H,-0.2102549151,4.2449059526,2.1980993995\H,0.080951
 8757,-0.9392994277,1.6903615015\H,-1.0796151289,-3.104529796,2.0460645
 424\H,-3.4480069815,-3.3632740781,1.3391241119\Cl,-3.7849959344,1.1991
 44108,-0.347144501\Cl,-1.773526717,2.0640245764,3.067673605\Cl,-5.2644
 143825,-1.5921282394,0.1177682188\Cl,-0.1060082769,0.3645005635,-1.853
 5147268\\Version=EM64L-G16RevB.01\State=1-A\HF=-2301.8979651\RMSD=5.66
 6e-09\RMSF=2.037e-05\Dipole=1.0839575,0.146001,0.3148869\Quadrupole=-2
 .8672457,7.9447886,-5.0775429,3.8316741,-0.1804337,-3.5949759\PG=C01 [
 X(C12H6Cl4)]\\@


 Where a calculator on the ENIAC is equipped with 18,000
 vacuum tubes and weighs 30 tons, computers inthe future
 may  have only 1,000 vacuum tubes and weigh only 1 1/2 tons.
              ---Popular Mechanics, March 1949
 Job cpu time:       1 days 13 hours 44 minutes 50.4 seconds.
 Elapsed time:       1 days 13 hours 44 minutes 55.8 seconds.
 File lengths (MBytes):  RWF=    118 Int=      0 D2E=      0 Chk=     19 Scr=      1
 Normal termination of Gaussian 16 at Sat Apr 23 18:31:19 2022.
