 Entering Gaussian System, Link 0=g16
 Input=2,2prime,4,4prime,5,6prime-Hexachlorobiphenyl.gjf
 Output=2,2prime,4,4prime,5,6prime-Hexachlorobiphenyl.log
 Initial command:
 /home/apps/g16/l1.exe "./Gau-81564.inp" -scrdir="./"
 Entering Link 1 = /home/apps/g16/l1.exe PID=     81565.
  
 Copyright (c) 1988-2017, Gaussian, Inc.  All Rights Reserved.
  
 This is part of the Gaussian(R) 16 program.  It is based on
 the Gaussian(R) 09 system (copyright 2009, Gaussian, Inc.),
 the Gaussian(R) 03 system (copyright 2003, Gaussian, Inc.),
 the Gaussian(R) 98 system (copyright 1998, Gaussian, Inc.),
 the Gaussian(R) 94 system (copyright 1995, Gaussian, Inc.),
 the Gaussian 92(TM) system (copyright 1992, Gaussian, Inc.),
 the Gaussian 90(TM) system (copyright 1990, Gaussian, Inc.),
 the Gaussian 88(TM) system (copyright 1988, Gaussian, Inc.),
 the Gaussian 86(TM) system (copyright 1986, Carnegie Mellon
 University), and the Gaussian 82(TM) system (copyright 1983,
 Carnegie Mellon University). Gaussian is a federally registered
 trademark of Gaussian, Inc.
  
 This software contains proprietary and confidential information,
 including trade secrets, belonging to Gaussian, Inc.
  
 This software is provided under written license and may be
 used, copied, transmitted, or stored only in accord with that
 written license.
  
 The following legend is applicable only to US Government
 contracts under FAR:
  
                    RESTRICTED RIGHTS LEGEND
  
 Use, reproduction and disclosure by the US Government is
 subject to restrictions as set forth in subparagraphs (a)
 and (c) of the Commercial Computer Software - Restricted
 Rights clause in FAR 52.227-19.
  
 Gaussian, Inc.
 340 Quinnipiac St., Bldg. 40, Wallingford CT 06492
  
  
 ---------------------------------------------------------------
 Warning -- This program may not be used in any manner that
 competes with the business of Gaussian, Inc. or will provide
 assistance to any competitor of Gaussian, Inc.  The licensee
 of this program is prohibited from giving any competitor of
 Gaussian, Inc. access to this program.  By using this program,
 the user acknowledges that Gaussian, Inc. is engaged in the
 business of creating and licensing software in the field of
 computational chemistry and represents and warrants to the
 licensee that it is not a competitor of Gaussian, Inc. and that
 it will not use this program in any manner prohibited above.
 ---------------------------------------------------------------
  

 Cite this work as:
 Gaussian 16, Revision B.01,
 M. J. Frisch, G. W. Trucks, H. B. Schlegel, G. E. Scuseria, 
 M. A. Robb, J. R. Cheeseman, G. Scalmani, V. Barone, 
 G. A. Petersson, H. Nakatsuji, X. Li, M. Caricato, A. V. Marenich, 
 J. Bloino, B. G. Janesko, R. Gomperts, B. Mennucci, H. P. Hratchian, 
 J. V. Ortiz, A. F. Izmaylov, J. L. Sonnenberg, D. Williams-Young, 
 F. Ding, F. Lipparini, F. Egidi, J. Goings, B. Peng, A. Petrone, 
 T. Henderson, D. Ranasinghe, V. G. Zakrzewski, J. Gao, N. Rega, 
 G. Zheng, W. Liang, M. Hada, M. Ehara, K. Toyota, R. Fukuda, 
 J. Hasegawa, M. Ishida, T. Nakajima, Y. Honda, O. Kitao, H. Nakai, 
 T. Vreven, K. Throssell, J. A. Montgomery, Jr., J. E. Peralta, 
 F. Ogliaro, M. J. Bearpark, J. J. Heyd, E. N. Brothers, K. N. Kudin, 
 V. N. Staroverov, T. A. Keith, R. Kobayashi, J. Normand, 
 K. Raghavachari, A. P. Rendell, J. C. Burant, S. S. Iyengar, 
 J. Tomasi, M. Cossi, J. M. Millam, M. Klene, C. Adamo, R. Cammi, 
 J. W. Ochterski, R. L. Martin, K. Morokuma, O. Farkas, 
 J. B. Foresman, and D. J. Fox, Gaussian, Inc., Wallingford CT, 2016.
 
 ******************************************
 Gaussian 16:  EM64L-G16RevB.01 20-Dec-2017
                 3-Apr-2022 
 ******************************************
 %mem=32GB
 %nprocshared=16
 Will use up to   16 processors via shared memory.
 --------------------------------
 # opt b3lyp/6-311+g(d,p) scf=xqc
 --------------------------------
 1/18=20,19=15,26=3,38=1/1,3;
 2/9=110,12=2,17=6,18=5,40=1/2;
 3/5=4,6=6,7=111,11=2,25=1,30=1,71=1,74=-5/1,2,3;
 4//1;
 5/5=2,8=3,13=1,38=5/2,8;
 6/7=2,8=2,9=2,10=2,28=1/1;
 7//1,2,3,16;
 1/18=20,19=15,26=3/3(2);
 2/9=110/2;
 99//99;
 2/9=110/2;
 3/5=4,6=6,7=111,11=2,25=1,30=1,71=1,74=-5/1,2,3;
 4/5=5,16=3,69=1/1;
 5/5=2,8=3,13=1,38=5/2,8;
 7//1,2,3,16;
 1/18=20,19=15,26=3/3(-5);
 2/9=110/2;
 6/7=2,8=2,9=2,10=2,19=2,28=1/1;
 99/9=1/99;
 -------------------
 Title Card Required
 -------------------
 Symbolic Z-matrix:
 Charge =  0 Multiplicity = 1
 C                     1.58394  -0.14366  -0.00377 
 C                     2.91632  -0.11377  -0.43712 
 C                     3.62422   1.09568  -0.44319 
 C                     2.99973   2.27524  -0.01591 
 C                     1.66735   2.24536   0.41743 
 C                     0.95945   1.03591   0.4235 
 C                     0.59216  -1.83813   0.00474 
 C                     1.21665  -3.0177   -0.42253 
 C                     0.50876  -4.22715  -0.41646 
 C                    -0.82362  -4.25703   0.01689 
 C                    -1.44811  -3.07747   0.44416 
 C                    -0.74022  -1.86802   0.43809 
 H                     4.64152   1.1185   -0.77406 
 H                     1.19054   3.14598   0.74366 
 H                     2.23395  -2.99488  -0.7534 
 H                    -2.46541  -3.10029   0.77504 
 Cl                   -1.5245   -0.38662   0.9747 
 Cl                   -0.71387   0.99838   0.96774 
 Cl                   -1.71265  -5.77597   0.02452 
 Cl                    3.88876   3.79418  -0.02354 
 Cl                    1.29304  -5.70855  -0.95307 
 Cl                    3.70061  -1.59517  -0.97372 
 

 GradGradGradGradGradGradGradGradGradGradGradGradGradGradGradGradGradGrad
 Berny optimization.
 Initialization pass.
                           ----------------------------
                           !    Initial Parameters    !
                           ! (Angstroms and Degrees)  !
 --------------------------                            --------------------------
 ! Name  Definition              Value          Derivative Info.                !
 --------------------------------------------------------------------------------
 ! R1    R(1,2)                  1.4014         estimate D2E/DX2                !
 ! R2    R(1,6)                  1.4014         estimate D2E/DX2                !
 ! R3    R(2,3)                  1.4014         estimate D2E/DX2                !
 ! R4    R(2,22)                 1.76           estimate D2E/DX2                !
 ! R5    R(3,4)                  1.4014         estimate D2E/DX2                !
 ! R6    R(3,13)                 1.07           estimate D2E/DX2                !
 ! R7    R(4,5)                  1.4014         estimate D2E/DX2                !
 ! R8    R(4,20)                 1.76           estimate D2E/DX2                !
 ! R9    R(5,6)                  1.4014         estimate D2E/DX2                !
 ! R10   R(5,14)                 1.07           estimate D2E/DX2                !
 ! R11   R(6,18)                 1.76           estimate D2E/DX2                !
 ! R12   R(7,8)                  1.4014         estimate D2E/DX2                !
 ! R13   R(7,12)                 1.4014         estimate D2E/DX2                !
 ! R14   R(8,9)                  1.4014         estimate D2E/DX2                !
 ! R15   R(8,15)                 1.07           estimate D2E/DX2                !
 ! R16   R(9,10)                 1.4014         estimate D2E/DX2                !
 ! R17   R(9,21)                 1.76           estimate D2E/DX2                !
 ! R18   R(10,11)                1.4014         estimate D2E/DX2                !
 ! R19   R(10,19)                1.76           estimate D2E/DX2                !
 ! R20   R(11,12)                1.4014         estimate D2E/DX2                !
 ! R21   R(11,16)                1.07           estimate D2E/DX2                !
 ! R22   R(12,17)                1.76           estimate D2E/DX2                !
 ! R23   R(17,18)                1.6048         estimate D2E/DX2                !
 ! A1    A(2,1,6)              120.0            estimate D2E/DX2                !
 ! A2    A(1,2,3)              120.0            estimate D2E/DX2                !
 ! A3    A(1,2,22)             120.0            estimate D2E/DX2                !
 ! A4    A(3,2,22)             120.0            estimate D2E/DX2                !
 ! A5    A(2,3,4)              120.0            estimate D2E/DX2                !
 ! A6    A(2,3,13)             120.0            estimate D2E/DX2                !
 ! A7    A(4,3,13)             120.0            estimate D2E/DX2                !
 ! A8    A(3,4,5)              120.0            estimate D2E/DX2                !
 ! A9    A(3,4,20)             120.0            estimate D2E/DX2                !
 ! A10   A(5,4,20)             120.0            estimate D2E/DX2                !
 ! A11   A(4,5,6)              120.0            estimate D2E/DX2                !
 ! A12   A(4,5,14)             120.0            estimate D2E/DX2                !
 ! A13   A(6,5,14)             120.0            estimate D2E/DX2                !
 ! A14   A(1,6,5)              120.0            estimate D2E/DX2                !
 ! A15   A(1,6,18)             120.0            estimate D2E/DX2                !
 ! A16   A(5,6,18)             120.0            estimate D2E/DX2                !
 ! A17   A(8,7,12)             120.0            estimate D2E/DX2                !
 ! A18   A(7,8,9)              120.0            estimate D2E/DX2                !
 ! A19   A(7,8,15)             120.0            estimate D2E/DX2                !
 ! A20   A(9,8,15)             120.0            estimate D2E/DX2                !
 ! A21   A(8,9,10)             120.0            estimate D2E/DX2                !
 ! A22   A(8,9,21)             120.0            estimate D2E/DX2                !
 ! A23   A(10,9,21)            120.0            estimate D2E/DX2                !
 ! A24   A(9,10,11)            120.0            estimate D2E/DX2                !
 ! A25   A(9,10,19)            120.0            estimate D2E/DX2                !
 ! A26   A(11,10,19)           120.0            estimate D2E/DX2                !
 ! A27   A(10,11,12)           120.0            estimate D2E/DX2                !
 ! A28   A(10,11,16)           120.0            estimate D2E/DX2                !
 ! A29   A(12,11,16)           120.0            estimate D2E/DX2                !
 ! A30   A(7,12,11)            120.0            estimate D2E/DX2                !
 ! A31   A(7,12,17)            120.0            estimate D2E/DX2                !
 ! A32   A(11,12,17)           120.0            estimate D2E/DX2                !
 ! A33   A(12,17,18)           120.0            estimate D2E/DX2                !
 ! A34   A(6,18,17)            120.0            estimate D2E/DX2                !
 ! D1    D(6,1,2,3)              0.0001         estimate D2E/DX2                !
 ! D2    D(6,1,2,22)           180.0            estimate D2E/DX2                !
 ! D3    D(2,1,6,5)             -0.0001         estimate D2E/DX2                !
 ! D4    D(2,1,6,18)           180.0            estimate D2E/DX2                !
 ! D5    D(1,2,3,4)              0.0            estimate D2E/DX2                !
 ! D6    D(1,2,3,13)           180.0            estimate D2E/DX2                !
 ! D7    D(22,2,3,4)          -179.9999         estimate D2E/DX2                !
 ! D8    D(22,2,3,13)            0.0001         estimate D2E/DX2                !
 ! D9    D(2,3,4,5)             -0.0001         estimate D2E/DX2                !
 ! D10   D(2,3,4,20)           180.0            estimate D2E/DX2                !
 ! D11   D(13,3,4,5)           179.9999         estimate D2E/DX2                !
 ! D12   D(13,3,4,20)            0.0            estimate D2E/DX2                !
 ! D13   D(3,4,5,6)              0.0001         estimate D2E/DX2                !
 ! D14   D(3,4,5,14)          -179.9999         estimate D2E/DX2                !
 ! D15   D(20,4,5,6)          -180.0            estimate D2E/DX2                !
 ! D16   D(20,4,5,14)            0.0            estimate D2E/DX2                !
 ! D17   D(4,5,6,1)              0.0            estimate D2E/DX2                !
 ! D18   D(4,5,6,18)           179.9999         estimate D2E/DX2                !
 ! D19   D(14,5,6,1)           180.0            estimate D2E/DX2                !
 ! D20   D(14,5,6,18)           -0.0001         estimate D2E/DX2                !
 ! D21   D(1,6,18,17)            0.0004         estimate D2E/DX2                !
 ! D22   D(5,6,18,17)         -179.9996         estimate D2E/DX2                !
 ! D23   D(12,7,8,9)             0.0001         estimate D2E/DX2                !
 ! D24   D(12,7,8,15)         -179.9998         estimate D2E/DX2                !
 ! D25   D(8,7,12,11)           -0.0001         estimate D2E/DX2                !
 ! D26   D(8,7,12,17)          179.9999         estimate D2E/DX2                !
 ! D27   D(7,8,9,10)             0.0            estimate D2E/DX2                !
 ! D28   D(7,8,9,21)           180.0            estimate D2E/DX2                !
 ! D29   D(15,8,9,10)          179.9998         estimate D2E/DX2                !
 ! D30   D(15,8,9,21)           -0.0002         estimate D2E/DX2                !
 ! D31   D(8,9,10,11)            0.0            estimate D2E/DX2                !
 ! D32   D(8,9,10,19)         -179.9999         estimate D2E/DX2                !
 ! D33   D(21,9,10,11)         180.0            estimate D2E/DX2                !
 ! D34   D(21,9,10,19)           0.0001         estimate D2E/DX2                !
 ! D35   D(9,10,11,12)           0.0            estimate D2E/DX2                !
 ! D36   D(9,10,11,16)        -179.9998         estimate D2E/DX2                !
 ! D37   D(19,10,11,12)        179.9999         estimate D2E/DX2                !
 ! D38   D(19,10,11,16)          0.0001         estimate D2E/DX2                !
 ! D39   D(10,11,12,7)           0.0            estimate D2E/DX2                !
 ! D40   D(10,11,12,17)       -179.9999         estimate D2E/DX2                !
 ! D41   D(16,11,12,7)         179.9999         estimate D2E/DX2                !
 ! D42   D(16,11,12,17)         -0.0001         estimate D2E/DX2                !
 ! D43   D(7,12,17,18)           0.0004         estimate D2E/DX2                !
 ! D44   D(11,12,17,18)       -179.9996         estimate D2E/DX2                !
 ! D45   D(12,17,18,6)          -0.0006         estimate D2E/DX2                !
 --------------------------------------------------------------------------------
 Trust Radius=3.00D-01 FncErr=1.00D-07 GrdErr=1.00D-06 EigMax=2.50D+02 EigMin=1.00D-04
 Number of steps in this run=    112 maximum allowed number of steps=    132.
 GradGradGradGradGradGradGradGradGradGradGradGradGradGradGradGradGradGrad

                          Input orientation:                          
 ---------------------------------------------------------------------
 Center     Atomic      Atomic             Coordinates (Angstroms)
 Number     Number       Type             X           Y           Z
 ---------------------------------------------------------------------
      1          6           0        1.583943   -0.143657   -0.003768
      2          6           0        2.916324   -0.113771   -0.437115
      3          6           0        3.624218    1.095680   -0.443187
      4          6           0        2.999730    2.275245   -0.015913
      5          6           0        1.667349    2.245359    0.417432
      6          6           0        0.959455    1.035908    0.423505
      7          6           0        0.592165   -1.838132    0.004740
      8          6           0        1.216652   -3.017697   -0.422535
      9          6           0        0.508759   -4.227148   -0.416460
     10          6           0       -0.823621   -4.257034    0.016889
     11          6           0       -1.448108   -3.077470    0.444165
     12          6           0       -0.740215   -1.868018    0.438091
     13          1           0        4.641520    1.118498   -0.774057
     14          1           0        1.190538    3.145984    0.743664
     15          1           0        2.233955   -2.994878   -0.753404
     16          1           0       -2.465409   -3.100289    0.775040
     17         17           0       -1.524500   -0.386618    0.974702
     18         17           0       -0.713865    0.998375    0.967738
     19         17           0       -1.712654   -5.775969    0.024521
     20         17           0        3.888765    3.794178   -0.023538
     21         17           0        1.293045   -5.708548   -0.953070
     22         17           0        3.700611   -1.595172   -0.973721
 ---------------------------------------------------------------------
                    Distance matrix (angstroms):
                    1          2          3          4          5
     1  C    0.000000
     2  C    1.401400   0.000000
     3  C    2.427296   1.401400   0.000000
     4  C    2.802800   2.427296   1.401400   0.000000
     5  C    2.427296   2.802800   2.427296   1.401400   0.000000
     6  C    1.401400   2.427296   2.802800   2.427296   1.401400
     7  C    1.963400   2.927519   4.242786   4.766200   4.242786
     8  C    2.927519   3.364800   4.766200   5.599994   5.348685
     9  C    4.242786   4.766200   6.167600   6.974703   6.628051
    10  C    4.766200   5.599994   6.974703   7.569000   6.974703
    11  C    4.242786   5.348685   6.628051   6.974703   6.167600
    12  C    2.927519   4.148933   5.348685   5.599994   4.766200
    13  H    3.396345   2.146700   1.070000   2.146700   3.396345
    14  H    3.396345   3.872800   3.396345   2.146700   1.070000
    15  H    3.018929   2.977657   4.331481   5.376291   5.399258
    16  H    5.073999   6.273090   7.494917   7.706472   6.766352
    17  Cl   3.267851   4.667825   5.542284   5.341862   4.174416
    18  Cl   2.743718   4.048303   4.562800   4.048303   2.743718
    19  Cl   6.526200   7.328098   8.713237   9.329000   8.713237
    20  Cl   4.562800   4.048303   2.743718   1.760000   2.743718
    21  Cl   5.652770   5.848314   7.210539   8.217785   8.079791
    22  Cl   2.743718   1.760000   2.743718   4.048303   4.562800
                    6          7          8          9         10
     6  C    0.000000
     7  C    2.927519   0.000000
     8  C    4.148933   1.401400   0.000000
     9  C    5.348685   2.427296   1.401400   0.000000
    10  C    5.599994   2.802800   2.427296   1.401400   0.000000
    11  C    4.766200   2.427296   2.802800   2.427296   1.401400
    12  C    3.364800   1.401400   2.427296   2.802800   2.427296
    13  H    3.872800   5.073999   5.381579   6.766352   7.706472
    14  H    2.146700   5.073999   6.273090   7.494917   7.706472
    15  H    4.388246   2.146700   1.070000   2.146700   3.396345
    16  H    5.381579   3.396345   3.872800   3.396345   2.146700
    17  Cl   2.915035   2.743718   4.048303   4.562800   4.048303
    18  Cl   1.760000   3.267851   4.667825   5.542284   5.341862
    19  Cl   7.328098   4.562800   4.048303   2.743718   1.760000
    20  Cl   4.048303   6.526200   7.328098   8.713237   9.329000
    21  Cl   6.891584   4.048303   2.743718   1.760000   2.743718
    22  Cl   4.048303   3.267851   2.915035   4.174416   5.341862
                   11         12         13         14         15
    11  C    0.000000
    12  C    1.401400   0.000000
    13  H    7.494917   6.273090   0.000000
    14  H    6.766352   5.381579   4.280590   0.000000
    15  H    3.872800   3.396345   4.766200   6.406256   0.000000
    16  H    1.070000   2.146700   8.408704   7.237600   4.942800
    17  Cl   2.743718   1.760000   6.583566   4.461399   4.890332
    18  Cl   4.174416   2.915035   5.632800   2.879094   5.253384
    19  Cl   2.743718   4.048303   9.409938   9.409938   4.890332
    20  Cl   8.713237   7.328098   2.879094   2.879094   7.025837
    21  Cl   4.048303   4.562800   7.606109   9.016216   2.879094
    22  Cl   5.542284   4.667825   2.879094   5.632800   2.039312
                   16         17         18         19         20
    16  H    0.000000
    17  Cl   2.879094   0.000000
    18  Cl   4.461399   1.604800   0.000000
    19  Cl   2.879094   5.475705   6.912234   0.000000
    20  Cl   9.409938   6.912234   5.475705  11.089000   0.000000
    21  Cl   4.890332   6.322800   7.259477   3.161400   9.894625
    22  Cl   6.583566   5.706026   5.475705   6.912234   5.475705
                   21         22
    21  Cl   0.000000
    22  Cl   4.766200   0.000000
 Stoichiometry    C12H4Cl6
 Framework group  C1[X(C12H4Cl6)]
 Deg. of freedom    60
 Full point group                 C1      NOp   1
 Largest Abelian subgroup         C1      NOp   1
 Largest concise Abelian subgroup C1      NOp   1
                         Standard orientation:                         
 ---------------------------------------------------------------------
 Center     Atomic      Atomic             Coordinates (Angstroms)
 Number     Number       Type             X           Y           Z
 ---------------------------------------------------------------------
      1          6           0       -1.261872   -0.141200    0.000002
      2          6           0       -1.823265   -1.425240    0.000001
      3          6           0       -3.215973   -1.581080   -0.000001
      4          6           0       -4.047288   -0.452879   -0.000001
      5          6           0       -3.485895    0.831162    0.000002
      6          6           0       -2.093187    0.987001    0.000003
      7          6           0        0.689351    0.077136    0.000002
      8          6           0        1.520666   -1.051065    0.000003
      9          6           0        2.913374   -0.895225    0.000002
     10          6           0        3.474767    0.388816   -0.000000
     11          6           0        2.643452    1.517016   -0.000001
     12          6           0        1.250744    1.361177   -0.000000
     13          1           0       -3.644609   -2.561473   -0.000002
     14          1           0       -4.120623    1.692568    0.000004
     15          1           0        1.092030   -2.031458    0.000002
     16          1           0        3.072088    2.497410   -0.000006
     17         17           0        0.206706    2.778069   -0.000004
     18         17           0       -1.388141    2.599611    0.000006
     19         17           0        5.223851    0.584533   -0.000004
     20         17           0       -5.796372   -0.648596   -0.000003
     21         17           0        3.957412   -2.312118    0.000003
     22         17           0       -0.779227   -2.842133   -0.000002
 ---------------------------------------------------------------------
 Rotational constants (GHZ):           0.4305402           0.1340893           0.1022455
 Standard basis: 6-311+G(d,p) (5D, 7F)
 There are   486 symmetry adapted cartesian basis functions of A   symmetry.
 There are   468 symmetry adapted basis functions of A   symmetry.
   468 basis functions,   782 primitive gaussians,   486 cartesian basis functions
    89 alpha electrons       89 beta electrons
       nuclear repulsion energy      2022.1668785159 Hartrees.
 NAtoms=   22 NActive=   22 NUniq=   22 SFac= 1.00D+00 NAtFMM=   60 NAOKFM=F Big=F
 Integral buffers will be    131072 words long.
 Raffenetti 2 integral format.
 Two-electron integral symmetry is turned on.
 One-electron integrals computed using PRISM.
 NBasis=   468 RedAO= T EigKep=  1.22D-06  NBF=   468
 NBsUse=   462 1.00D-06 EigRej=  8.04D-07 NBFU=   462
 ExpMin= 4.38D-02 ExpMax= 1.06D+05 ExpMxC= 3.62D+03 IAcc=3 IRadAn=         5 AccDes= 0.00D+00
 Harris functional with IExCor=  402 and IRadAn=       5 diagonalized for initial guess.
 HarFok:  IExCor=  402 AccDes= 0.00D+00 IRadAn=         5 IDoV= 1 UseB2=F ITyADJ=14
 ICtDFT=  3500011 ScaDFX=  1.000000  1.000000  1.000000  1.000000
 FoFCou: FMM=F IPFlag=           0 FMFlag=      100000 FMFlg1=           0
         NFxFlg=           0 DoJE=T BraDBF=F KetDBF=T FulRan=T
         wScrn=  0.000000 ICntrl=       500 IOpCl=  0 I1Cent=   200000004 NGrid=           0
         NMat0=    1 NMatS0=      1 NMatT0=    0 NMatD0=    1 NMtDS0=    0 NMtDT0=    0
 Petite list used in FoFCou.
 Requested convergence on RMS density matrix=1.00D-08 within  32 cycles.
 Requested convergence on MAX density matrix=1.00D-06.
 Requested convergence on             energy=1.00D-06.
 No special actions if energy rises.
 EnCoef did     4 forward-backward iterations
 EnCoef did     3 forward-backward iterations
 EnCoef did     3 forward-backward iterations
 Restarting incremental Fock formation.
 SCF Done:  E(RB3LYP) =  -3220.53268286     A.U. after   23 cycles
            NFock= 23  Conv=0.81D-08     -V/T= 2.0021
 QCSCF skips out because SCF is already converged.

 **********************************************************************

            Population analysis using the SCF Density.

 **********************************************************************

 Orbital symmetries:
       Occupied  (A) (A) (A) (A) (A) (A) (A) (A) (A) (A) (A) (A)
                 (A) (A) (A) (A) (A) (A) (A) (A) (A) (A) (A) (A)
                 (A) (A) (A) (A) (A) (A) (A) (A) (A) (A) (A) (A)
                 (A) (A) (A) (A) (A) (A) (A) (A) (A) (A) (A) (A)
                 (A) (A) (A) (A) (A) (A) (A) (A) (A) (A) (A) (A)
                 (A) (A) (A) (A) (A) (A) (A) (A) (A) (A) (A) (A)
                 (A) (A) (A) (A) (A) (A) (A) (A) (A) (A) (A) (A)
                 (A) (A) (A) (A) (A)
       Virtual   (A) (A) (A) (A) (A) (A) (A) (A) (A) (A) (A) (A)
                 (A) (A) (A) (A) (A) (A) (A) (A) (A) (A) (A) (A)
                 (A) (A) (A) (A) (A) (A) (A) (A) (A) (A) (A) (A)
                 (A) (A) (A) (A) (A) (A) (A) (A) (A) (A) (A) (A)
                 (A) (A) (A) (A) (A) (A) (A) (A) (A) (A) (A) (A)
                 (A) (A) (A) (A) (A) (A) (A) (A) (A) (A) (A) (A)
                 (A) (A) (A) (A) (A) (A) (A) (A) (A) (A) (A) (A)
                 (A) (A) (A) (A) (A) (A) (A) (A) (A) (A) (A) (A)
                 (A) (A) (A) (A) (A) (A) (A) (A) (A) (A) (A) (A)
                 (A) (A) (A) (A) (A) (A) (A) (A) (A) (A) (A) (A)
                 (A) (A) (A) (A) (A) (A) (A) (A) (A) (A) (A) (A)
                 (A) (A) (A) (A) (A) (A) (A) (A) (A) (A) (A) (A)
                 (A) (A) (A) (A) (A) (A) (A) (A) (A) (A) (A) (A)
                 (A) (A) (A) (A) (A) (A) (A) (A) (A) (A) (A) (A)
                 (A) (A) (A) (A) (A) (A) (A) (A) (A) (A) (A) (A)
                 (A) (A) (A) (A) (A) (A) (A) (A) (A) (A) (A) (A)
                 (A) (A) (A) (A) (A) (A) (A) (A) (A) (A) (A) (A)
                 (A) (A) (A) (A) (A) (A) (A) (A) (A) (A) (A) (A)
                 (A) (A) (A) (A) (A) (A) (A) (A) (A) (A) (A) (A)
                 (A) (A) (A) (A) (A) (A) (A) (A) (A) (A) (A) (A)
                 (A) (A) (A) (A) (A) (A) (A) (A) (A) (A) (A) (A)
                 (A) (A) (A) (A) (A) (A) (A) (A) (A) (A) (A) (A)
                 (A) (A) (A) (A) (A) (A) (A) (A) (A) (A) (A) (A)
                 (A) (A) (A) (A) (A) (A) (A) (A) (A) (A) (A) (A)
                 (A) (A) (A) (A) (A) (A) (A) (A) (A) (A) (A) (A)
                 (A) (A) (A) (A) (A) (A) (A) (A) (A) (A) (A) (A)
                 (A) (A) (A) (A) (A) (A) (A) (A) (A) (A) (A) (A)
                 (A) (A) (A) (A) (A) (A) (A) (A) (A) (A) (A) (A)
                 (A) (A) (A) (A) (A) (A) (A) (A) (A) (A) (A) (A)
                 (A) (A) (A) (A) (A) (A) (A) (A) (A) (A) (A) (A)
                 (A) (A) (A) (A) (A) (A) (A) (A) (A) (A) (A) (A)
                 (A)
 The electronic state is 1-A.
 Alpha  occ. eigenvalues -- -101.69130-101.68808-101.57168-101.56760-101.56562
 Alpha  occ. eigenvalues -- -101.56510 -10.26864 -10.26513 -10.26473 -10.26145
 Alpha  occ. eigenvalues --  -10.24560 -10.24321 -10.21507 -10.21279 -10.21179
 Alpha  occ. eigenvalues --  -10.20368 -10.20183 -10.19804  -9.60595  -9.60312
 Alpha  occ. eigenvalues --   -9.48733  -9.48201  -9.47993  -9.47953  -7.37178
 Alpha  occ. eigenvalues --   -7.36831  -7.36238  -7.35943  -7.35671  -7.35383
 Alpha  occ. eigenvalues --   -7.25173  -7.24663  -7.24481  -7.24428  -7.24210
 Alpha  occ. eigenvalues --   -7.24172  -7.23685  -7.23649  -7.23473  -7.23441
 Alpha  occ. eigenvalues --   -7.23419  -7.23381  -1.17506  -0.92760  -0.92490
 Alpha  occ. eigenvalues --   -0.89180  -0.88626  -0.86492  -0.85556  -0.82725
 Alpha  occ. eigenvalues --   -0.77861  -0.76699  -0.75345  -0.73062  -0.67885
 Alpha  occ. eigenvalues --   -0.64544  -0.62809  -0.59724  -0.58104  -0.56798
 Alpha  occ. eigenvalues --   -0.55981  -0.52118  -0.51347  -0.50418  -0.50225
 Alpha  occ. eigenvalues --   -0.48536  -0.46693  -0.44638  -0.44465  -0.43167
 Alpha  occ. eigenvalues --   -0.43012  -0.42588  -0.41494  -0.39861  -0.38218
 Alpha  occ. eigenvalues --   -0.37682  -0.35664  -0.35499  -0.35018  -0.34196
 Alpha  occ. eigenvalues --   -0.33293  -0.32224  -0.31886  -0.31516  -0.28084
 Alpha  occ. eigenvalues --   -0.27576  -0.26738  -0.24970  -0.13189
 Alpha virt. eigenvalues --   -0.07238  -0.06153  -0.05328  -0.04308  -0.03658
 Alpha virt. eigenvalues --   -0.02337  -0.01926  -0.01380   0.00284   0.00616
 Alpha virt. eigenvalues --    0.01163   0.01744   0.02266   0.02911   0.02980
 Alpha virt. eigenvalues --    0.03638   0.04564   0.05098   0.05237   0.05726
 Alpha virt. eigenvalues --    0.05920   0.06231   0.06865   0.07072   0.07569
 Alpha virt. eigenvalues --    0.08107   0.08108   0.09090   0.09133   0.09382
 Alpha virt. eigenvalues --    0.09708   0.10330   0.10608   0.10738   0.11659
 Alpha virt. eigenvalues --    0.11784   0.12256   0.12551   0.12586   0.12842
 Alpha virt. eigenvalues --    0.13197   0.13518   0.13827   0.13938   0.14718
 Alpha virt. eigenvalues --    0.14980   0.15497   0.16030   0.16086   0.17086
 Alpha virt. eigenvalues --    0.17209   0.17928   0.17971   0.18089   0.18247
 Alpha virt. eigenvalues --    0.18726   0.19428   0.19492   0.20464   0.20824
 Alpha virt. eigenvalues --    0.21415   0.21582   0.21868   0.22575   0.22850
 Alpha virt. eigenvalues --    0.23098   0.23301   0.23547   0.23653   0.24129
 Alpha virt. eigenvalues --    0.24680   0.25523   0.25617   0.25659   0.25743
 Alpha virt. eigenvalues --    0.26790   0.27495   0.27818   0.28640   0.29436
 Alpha virt. eigenvalues --    0.29557   0.30271   0.30640   0.31524   0.32072
 Alpha virt. eigenvalues --    0.33612   0.34169   0.34226   0.34636   0.36925
 Alpha virt. eigenvalues --    0.37495   0.38699   0.39331   0.40988   0.41600
 Alpha virt. eigenvalues --    0.42356   0.43118   0.43390   0.43671   0.44150
 Alpha virt. eigenvalues --    0.44723   0.45320   0.45430   0.45969   0.47020
 Alpha virt. eigenvalues --    0.47293   0.47960   0.48049   0.48584   0.48636
 Alpha virt. eigenvalues --    0.49841   0.50899   0.51431   0.52374   0.53426
 Alpha virt. eigenvalues --    0.53662   0.54339   0.54993   0.56590   0.57226
 Alpha virt. eigenvalues --    0.57472   0.58289   0.58561   0.58743   0.60130
 Alpha virt. eigenvalues --    0.60391   0.61195   0.61743   0.62688   0.63052
 Alpha virt. eigenvalues --    0.64184   0.64737   0.64829   0.65664   0.66539
 Alpha virt. eigenvalues --    0.67149   0.67516   0.69177   0.69808   0.70335
 Alpha virt. eigenvalues --    0.73995   0.74231   0.76255   0.78383   0.78803
 Alpha virt. eigenvalues --    0.80931   0.82357   0.82407   0.82679   0.83486
 Alpha virt. eigenvalues --    0.83884   0.84123   0.84388   0.84964   0.85087
 Alpha virt. eigenvalues --    0.85263   0.85388   0.85843   0.86027   0.86151
 Alpha virt. eigenvalues --    0.86963   0.87194   0.88515   0.89517   0.89540
 Alpha virt. eigenvalues --    0.90103   0.90439   0.91558   0.91800   0.93466
 Alpha virt. eigenvalues --    0.93784   0.94215   0.94311   0.94935   0.95585
 Alpha virt. eigenvalues --    0.96802   0.96940   0.97046   0.97412   0.97829
 Alpha virt. eigenvalues --    1.00214   1.00933   1.02329   1.04675   1.04870
 Alpha virt. eigenvalues --    1.05371   1.06882   1.07799   1.08509   1.10217
 Alpha virt. eigenvalues --    1.10314   1.13481   1.15956   1.17362   1.17382
 Alpha virt. eigenvalues --    1.20374   1.21735   1.22074   1.22614   1.23641
 Alpha virt. eigenvalues --    1.24164   1.25897   1.26801   1.28227   1.28622
 Alpha virt. eigenvalues --    1.28899   1.29996   1.30372   1.31169   1.33086
 Alpha virt. eigenvalues --    1.33377   1.37023   1.44875   1.46778   1.49259
 Alpha virt. eigenvalues --    1.50230   1.51836   1.55367   1.56238   1.56572
 Alpha virt. eigenvalues --    1.56669   1.59945   1.60196   1.60532   1.65570
 Alpha virt. eigenvalues --    1.66694   1.68264   1.69602   1.72205   1.73479
 Alpha virt. eigenvalues --    1.75112   1.76980   1.80047   1.83422   1.83523
 Alpha virt. eigenvalues --    1.84292   1.86278   1.88063   1.88224   1.88988
 Alpha virt. eigenvalues --    1.89327   1.91479   1.95220   1.95552   1.96651
 Alpha virt. eigenvalues --    1.98632   1.99252   2.02616   2.06094   2.06792
 Alpha virt. eigenvalues --    2.07062   2.08188   2.09943   2.12157   2.16165
 Alpha virt. eigenvalues --    2.18863   2.22033   2.22419   2.24289   2.25007
 Alpha virt. eigenvalues --    2.25611   2.25816   2.27387   2.28196   2.28307
 Alpha virt. eigenvalues --    2.29926   2.30763   2.31931   2.36418   2.37616
 Alpha virt. eigenvalues --    2.40937   2.42058   2.42649   2.44013   2.50709
 Alpha virt. eigenvalues --    2.52306   2.52860   2.54434   2.55535   2.56415
 Alpha virt. eigenvalues --    2.59231   2.59458   2.60863   2.61864   2.62529
 Alpha virt. eigenvalues --    2.62611   2.64067   2.67062   2.69926   2.72813
 Alpha virt. eigenvalues --    2.73221   2.74244   2.74364   2.76126   2.76845
 Alpha virt. eigenvalues --    2.78253   2.78669   2.78962   2.83714   2.84724
 Alpha virt. eigenvalues --    2.86531   2.87283   2.88324   2.89632   3.05439
 Alpha virt. eigenvalues --    3.06873   3.10167   3.10679   3.11786   3.16260
 Alpha virt. eigenvalues --    3.17574   3.21439   3.23529   3.30082   3.33585
 Alpha virt. eigenvalues --    3.34897   3.38369   3.44027   3.53408   3.55177
 Alpha virt. eigenvalues --    3.64634   3.72564   3.76624   3.81129   3.85087
 Alpha virt. eigenvalues --    3.90919   4.05722   4.09508   4.17150   4.80476
 Alpha virt. eigenvalues --    4.81597   9.63495   9.75386   9.76988   9.80242
 Alpha virt. eigenvalues --    9.84740   9.99703  23.37269  23.40841  23.81244
 Alpha virt. eigenvalues --   23.81741  23.87556  23.88851  23.96314  23.98052
 Alpha virt. eigenvalues --   24.01987  24.03054  24.07942  24.09031  25.71487
 Alpha virt. eigenvalues --   25.78242  25.81712  25.83474  25.86907  25.92103
 Alpha virt. eigenvalues --   26.06530  26.11252  26.13593  26.17113  26.36520
 Alpha virt. eigenvalues --   26.51677  26.59442  26.68506  26.69476  26.76550
 Alpha virt. eigenvalues --   26.85802  27.11791 215.63472 215.74483 215.76208
 Alpha virt. eigenvalues --  215.79839 215.85534 216.04829
          Condensed to atoms (all electrons):
               1          2          3          4          5          6
     1  C   27.784926   1.558976  -2.611528  -2.241300  -2.014063 -10.255669
     2  C    1.558976  15.122846  -0.327982  -4.835914  -0.693644  -1.704332
     3  C   -2.611528  -0.327982  17.086364   0.809361  -6.871713  -0.416789
     4  C   -2.241300  -4.835914   0.809361  17.150994   0.074113  -3.796942
     5  C   -2.014063  -0.693644  -6.871713   0.074113  21.981632  -7.827658
     6  C  -10.255669  -1.704332  -0.416789  -3.796942  -7.827658  47.011443
     7  C    1.327127  -1.975973  -1.225970  -0.561972  -3.968097   3.718768
     8  C    1.550865   1.248670   0.195237  -0.153288  -0.461448  -2.408742
     9  C   -3.135236  -0.552996   0.585073  -0.119135  -0.787070   0.060167
    10  C    1.548074  -0.489951  -0.119686  -0.035250   0.198457  -1.294394
    11  C    0.419782   0.726653  -0.165665  -0.218616   0.436949  -3.238196
    12  C  -12.335481  -0.486525   0.435747  -0.296425  -1.552100  15.831075
    13  H    0.074658   0.000622   0.242248   0.027381   0.008513   0.001305
    14  H    0.080456  -0.003551   0.008821   0.103468   0.219072  -0.042685
    15  H    0.193842   0.020035   0.022819   0.019691   0.004124   0.001784
    16  H    0.021892  -0.000054   0.000324  -0.000029  -0.000312   0.005363
    17  Cl   4.647411   0.183631  -0.453783  -0.158613   1.190853 -10.092918
    18  Cl   1.415363  -0.526988  -0.975760   0.856576   6.233737 -19.294141
    19  Cl   0.015671  -0.011067  -0.002998  -0.000311   0.000990  -0.040572
    20  Cl  -0.068573  -0.093544   0.125203  -0.979374   0.358135  -0.178601
    21  Cl  -0.323787  -0.000110   0.015390  -0.002629  -0.016033  -0.032975
    22  Cl  -0.746739  -0.757454   0.075697  -0.333751   0.119379   0.537415
               7          8          9         10         11         12
     1  C    1.327127   1.550865  -3.135236   1.548074   0.419782 -12.335481
     2  C   -1.975973   1.248670  -0.552996  -0.489951   0.726653  -0.486525
     3  C   -1.225970   0.195237   0.585073  -0.119686  -0.165665   0.435747
     4  C   -0.561972  -0.153288  -0.119135  -0.035250  -0.218616  -0.296425
     5  C   -3.968097  -0.461448  -0.787070   0.198457   0.436949  -1.552100
     6  C    3.718768  -2.408742   0.060167  -1.294394  -3.238196  15.831075
     7  C   22.796870   1.364839  -1.755927   1.255397  -5.439216  -3.025015
     8  C    1.364839  14.966902   2.271624  -5.599879  -0.453173  -4.921392
     9  C   -1.755927   2.271624  24.425315  -4.947402  -7.672610  -0.405581
    10  C    1.255397  -5.599879  -4.947402  26.189078  -0.208911 -16.586394
    11  C   -5.439216  -0.453173  -7.672610  -0.208911  23.338797  -8.685431
    12  C   -3.025015  -4.921392  -0.405581 -16.586394  -8.685431  71.480590
    13  H    0.010579  -0.000416  -0.002829  -0.000139   0.000575   0.000404
    14  H    0.030190   0.000536   0.000585  -0.000164  -0.002152   0.000206
    15  H    0.014396   0.360092  -0.240469   0.053482  -0.083404  -0.048338
    16  H    0.124394  -0.033524  -0.013910   0.102784   0.222850  -0.002568
    17  Cl  -3.122283   0.294744  -1.235370   5.034944   6.644815 -26.537199
    18  Cl  -2.962113  -0.218683  -0.814920   0.872198   0.983892  -6.603690
    19  Cl   0.218311   0.108940   0.773291  -0.184931  -0.758261  -1.078787
    20  Cl  -0.074562  -0.008860  -0.001343  -0.000018   0.000532  -0.020826
    21  Cl  -1.282212  -0.202490  -0.819722   0.163258   0.817616   0.846237
    22  Cl   0.801130  -0.803818  -0.255817   0.079923   0.142180   0.287238
              13         14         15         16         17         18
     1  C    0.074658   0.080456   0.193842   0.021892   4.647411   1.415363
     2  C    0.000622  -0.003551   0.020035  -0.000054   0.183631  -0.526988
     3  C    0.242248   0.008821   0.022819   0.000324  -0.453783  -0.975760
     4  C    0.027381   0.103468   0.019691  -0.000029  -0.158613   0.856576
     5  C    0.008513   0.219072   0.004124  -0.000312   1.190853   6.233737
     6  C    0.001305  -0.042685   0.001784   0.005363 -10.092918 -19.294141
     7  C    0.010579   0.030190   0.014396   0.124394  -3.122283  -2.962113
     8  C   -0.000416   0.000536   0.360092  -0.033524   0.294744  -0.218683
     9  C   -0.002829   0.000585  -0.240469  -0.013910  -1.235370  -0.814920
    10  C   -0.000139  -0.000164   0.053482   0.102784   5.034944   0.872198
    11  C    0.000575  -0.002152  -0.083404   0.222850   6.644815   0.983892
    12  C    0.000404   0.000206  -0.048338  -0.002568 -26.537199  -6.603690
    13  H    0.496798  -0.000307   0.000121  -0.000000   0.000917   0.005868
    14  H   -0.000307   0.511018  -0.000001   0.000000   0.003474  -0.044036
    15  H    0.000121  -0.000001   0.601352   0.000005   0.045710   0.020017
    16  H   -0.000000   0.000000   0.000005   0.505050  -0.076823   0.001972
    17  Cl   0.000917   0.003474   0.045710  -0.076823  34.896097   5.250975
    18  Cl   0.005868  -0.044036   0.020017   0.001972   5.250975  32.192991
    19  Cl   0.000001  -0.000000   0.006267  -0.011554   0.139530   0.016261
    20  Cl  -0.008929  -0.012516   0.000189  -0.000000   0.012867   0.073425
    21  Cl  -0.000016   0.000001  -0.051926   0.001213  -0.105314  -0.015866
    22  Cl  -0.021062   0.001005  -0.088695   0.000077  -0.204195  -0.212431
              19         20         21         22
     1  C    0.015671  -0.068573  -0.323787  -0.746739
     2  C   -0.011067  -0.093544  -0.000110  -0.757454
     3  C   -0.002998   0.125203   0.015390   0.075697
     4  C   -0.000311  -0.979374  -0.002629  -0.333751
     5  C    0.000990   0.358135  -0.016033   0.119379
     6  C   -0.040572  -0.178601  -0.032975   0.537415
     7  C    0.218311  -0.074562  -1.282212   0.801130
     8  C    0.108940  -0.008860  -0.202490  -0.803818
     9  C    0.773291  -0.001343  -0.819722  -0.255817
    10  C   -0.184931  -0.000018   0.163258   0.079923
    11  C   -0.758261   0.000532   0.817616   0.142180
    12  C   -1.078787  -0.020826   0.846237   0.287238
    13  H    0.000001  -0.008929  -0.000016  -0.021062
    14  H   -0.000000  -0.012516   0.000001   0.001005
    15  H    0.006267   0.000189  -0.051926  -0.088695
    16  H   -0.011554  -0.000000   0.001213   0.000077
    17  Cl   0.139530   0.012867  -0.105314  -0.204195
    18  Cl   0.016261   0.073425  -0.015866  -0.212431
    19  Cl  17.577002  -0.000001  -0.297644  -0.005152
    20  Cl  -0.000001  17.473020  -0.000035  -0.024208
    21  Cl  -0.297644  -0.000035  17.793350  -0.008573
    22  Cl  -0.005152  -0.024208  -0.008573  17.821747
 Mulliken charges:
               1
     1  C   -0.906667
     2  C   -0.401350
     3  C   -0.430411
     4  C    0.691964
     5  C   -0.633816
     6  C   -0.542705
     7  C   -0.268661
     8  C   -1.096737
     9  C    0.644281
    10  C   -0.030475
    11  C   -0.809007
    12  C   -0.295747
    13  H    0.163706
    14  H    0.146577
    15  H    0.148907
    16  H    0.152852
    17  Cl   0.640531
    18  Cl   0.745354
    19  Cl   0.535013
    20  Cl   0.428019
    21  Cl   0.522268
    22  Cl   0.596104
 Sum of Mulliken charges =  -0.00000
 Mulliken charges with hydrogens summed into heavy atoms:
               1
     1  C   -0.906667
     2  C   -0.401350
     3  C   -0.266706
     4  C    0.691964
     5  C   -0.487239
     6  C   -0.542705
     7  C   -0.268661
     8  C   -0.947830
     9  C    0.644281
    10  C   -0.030475
    11  C   -0.656155
    12  C   -0.295747
    17  Cl   0.640531
    18  Cl   0.745354
    19  Cl   0.535013
    20  Cl   0.428019
    21  Cl   0.522268
    22  Cl   0.596104
 Electronic spatial extent (au):  <R**2>=           9077.5314
 Charge=             -0.0000 electrons
 Dipole moment (field-independent basis, Debye):
    X=             -1.4377    Y=              3.1645    Z=             -0.0000  Tot=              3.4758
 Quadrupole moment (field-independent basis, Debye-Ang):
   XX=           -161.7167   YY=           -135.8191   ZZ=           -147.4554
   XY=              0.1624   XZ=             -0.0000   YZ=             -0.0000
 Traceless Quadrupole moment (field-independent basis, Debye-Ang):
   XX=            -13.3863   YY=             12.5113   ZZ=              0.8750
   XY=              0.1624   XZ=             -0.0000   YZ=             -0.0000
 Octapole moment (field-independent basis, Debye-Ang**2):
  XXX=              3.2119  YYY=             22.6662  ZZZ=             -0.0000  XYY=             -5.0890
  XXY=             15.2829  XXZ=              0.0000  XZZ=              3.5502  YZZ=              4.8722
  YYZ=             -0.0000  XYZ=             -0.0001
 Hexadecapole moment (field-independent basis, Debye-Ang**3):
 XXXX=          -9433.9961 YYYY=          -2738.0165 ZZZZ=           -173.9984 XXXY=            -37.0918
 XXXZ=             -0.0003 YYYX=            -26.9357 YYYZ=              0.0000 ZZZX=              0.0000
 ZZZY=              0.0000 XXYY=          -1909.8678 XXZZ=          -1575.7579 YYZZ=           -504.2702
 XXYZ=              0.0000 YYXZ=             -0.0002 ZZXY=            -12.0929
 N-N= 2.022166878516D+03 E-N=-1.167142515955D+04  KE= 3.213699033493D+03
 Calling FoFJK, ICntrl=      2127 FMM=F ISym2X=0 I1Cent= 0 IOpClX= 0 NMat=1 NMatS=1 NMatT=0.
 ***** Axes restored to original set *****
 -------------------------------------------------------------------
 Center     Atomic                   Forces (Hartrees/Bohr)
 Number     Number              X              Y              Z
 -------------------------------------------------------------------
      1        6          -0.028890548   -0.062518365   -0.002223409
      2        6          -0.013937162    0.005674274    0.005657568
      3        6          -0.005722117    0.001698594    0.002204282
      4        6          -0.012372239   -0.015292020    0.001203884
      5        6           0.005465728   -0.016944119   -0.004982810
      6        6           0.142053500   -0.014745228   -0.049569993
      7        6           0.041666103    0.046985684   -0.004902771
      8        6          -0.013769980   -0.001428426    0.004268356
      9        6          -0.003620743    0.002875838    0.001732923
     10        6          -0.001244195    0.004012216    0.001163495
     11        6           0.020811264    0.005598454   -0.005804937
     12        6           0.069564228   -0.095327829   -0.040821692
     13        1           0.008180602   -0.000595696   -0.002806993
     14        1          -0.006728622    0.012181460    0.004504574
     15        1          -0.006407136   -0.008371416    0.000538503
     16        1          -0.012937832   -0.000789236    0.004114199
     17       17          -0.255569022   -0.205122202    0.045676899
     18       17           0.044981101    0.312339798    0.043839138
     19       17          -0.002436187    0.003137058    0.001391738
     20       17           0.001621351    0.000150698   -0.000505849
     21       17           0.001141913    0.007432454    0.001019691
     22       17           0.028149994    0.019048010   -0.005696795
 -------------------------------------------------------------------
 Cartesian Forces:  Max     0.312339798 RMS     0.062978223

 GradGradGradGradGradGradGradGradGradGradGradGradGradGradGradGradGradGrad
 Berny optimization.
 FormGI is forming the generalized inverse of G from B-inverse, IUseBI=4.
 Internal  Forces:  Max     0.290260897 RMS     0.047703879
 Search for a local minimum.
 Step number   1 out of a maximum of  112
 All quantities printed in internal units (Hartrees-Bohrs-Radians)
 Mixed Optimization -- RFO/linear search
 Second derivative matrix not updated -- first step.
 ITU=  0
     Eigenvalues ---    0.00238   0.00238   0.01655   0.01655   0.02070
     Eigenvalues ---    0.02070   0.02070   0.02070   0.02070   0.02070
     Eigenvalues ---    0.02070   0.02070   0.02070   0.02070   0.02070
     Eigenvalues ---    0.02070   0.02070   0.02070   0.05202   0.16000
     Eigenvalues ---    0.16000   0.16000   0.16000   0.22929   0.23478
     Eigenvalues ---    0.23493   0.23918   0.25000   0.25000   0.25000
     Eigenvalues ---    0.25000   0.25000   0.25000   0.25000   0.25000
     Eigenvalues ---    0.25000   0.25000   0.29539   0.29539   0.29539
     Eigenvalues ---    0.29539   0.29539   0.29539   0.37230   0.37230
     Eigenvalues ---    0.37230   0.37230   0.41523   0.41554   0.42118
     Eigenvalues ---    0.42162   0.45389   0.45389   0.45389   0.45389
     Eigenvalues ---    0.45389   0.45389   0.45389   0.45389   1.93181
 RFO step:  Lambda=-3.00083777D-01 EMin= 2.37799019D-03
 Linear search not attempted -- first point.
 Maximum step size (   0.300) exceeded in Quadratic search.
    -- Step size scaled by   0.431
 Iteration  1 RMS(Cart)=  0.35907566 RMS(Int)=  0.01138654
 Iteration  2 RMS(Cart)=  0.15045058 RMS(Int)=  0.00127445
 Iteration  3 RMS(Cart)=  0.00208413 RMS(Int)=  0.00003630
 Iteration  4 RMS(Cart)=  0.00000065 RMS(Int)=  0.00003630
 Variable       Old X    -DE/DX   Delta X   Delta X   Delta X     New X
                                 (Linear)    (Quad)   (Total)
    R1        2.64826   0.03223   0.00000   0.01929   0.01936   2.66762
    R2        2.64826   0.04946   0.00000   0.02914   0.02920   2.67746
    R3        2.64826  -0.00532   0.00000  -0.00304  -0.00303   2.64523
    R4        3.32592  -0.00175   0.00000  -0.00127  -0.00127   3.32465
    R5        2.64826  -0.02314   0.00000  -0.01409  -0.01415   2.63412
    R6        2.02201   0.00863   0.00000   0.00554   0.00554   2.02754
    R7        2.64826  -0.02639   0.00000  -0.01595  -0.01602   2.63225
    R8        3.32592   0.00095   0.00000   0.00069   0.00069   3.32661
    R9        2.64826  -0.01574   0.00000  -0.00900  -0.00901   2.63925
   R10        2.02201   0.01462   0.00000   0.00938   0.00938   2.03139
   R11        3.32592   0.12665   0.00000   0.09171   0.09171   3.41763
   R12        2.64826  -0.00162   0.00000  -0.00065  -0.00061   2.64765
   R13        2.64826   0.02428   0.00000   0.01416   0.01419   2.66245
   R14        2.64826  -0.00244   0.00000  -0.00138  -0.00138   2.64688
   R15        2.02201  -0.00644   0.00000  -0.00413  -0.00413   2.01788
   R16        2.64826  -0.00602   0.00000  -0.00371  -0.00374   2.64452
   R17        3.32592  -0.00606   0.00000  -0.00439  -0.00439   3.32153
   R18        2.64826  -0.01965   0.00000  -0.01152  -0.01155   2.63671
   R19        3.32592  -0.00147   0.00000  -0.00107  -0.00107   3.32485
   R20        2.64826  -0.01763   0.00000  -0.01009  -0.01010   2.63816
   R21        2.02201   0.01359   0.00000   0.00872   0.00872   2.03072
   R22        3.32592   0.08291   0.00000   0.06004   0.06004   3.38595
   R23        3.03263   0.29026   0.00000   0.05608   0.05608   3.08871
    A1        2.09440  -0.05528   0.00000  -0.04015  -0.03996   2.05443
    A2        2.09440   0.01575   0.00000   0.01327   0.01335   2.10774
    A3        2.09440   0.04936   0.00000   0.03823   0.03819   2.13259
    A4        2.09440  -0.06511   0.00000  -0.05151  -0.05154   2.04285
    A5        2.09440   0.01089   0.00000   0.00749   0.00744   2.10183
    A6        2.09440  -0.00625   0.00000  -0.00450  -0.00447   2.08993
    A7        2.09440  -0.00464   0.00000  -0.00300  -0.00297   2.09143
    A8        2.09440   0.00051   0.00000  -0.00224  -0.00238   2.09201
    A9        2.09440  -0.00261   0.00000  -0.00072  -0.00065   2.09374
   A10        2.09440   0.00210   0.00000   0.00297   0.00304   2.09743
   A11        2.09440   0.00361   0.00000   0.00146   0.00136   2.09576
   A12        2.09440  -0.00155   0.00000  -0.00049  -0.00044   2.09395
   A13        2.09440  -0.00206   0.00000  -0.00097  -0.00092   2.09347
   A14        2.09440   0.02453   0.00000   0.02016   0.02020   2.11459
   A15        2.09440   0.01678   0.00000   0.01269   0.01267   2.10706
   A16        2.09440  -0.04131   0.00000  -0.03285  -0.03287   2.06153
   A17        2.09440  -0.04133   0.00000  -0.03144  -0.03135   2.06305
   A18        2.09440   0.01283   0.00000   0.01093   0.01097   2.10536
   A19        2.09440   0.00204   0.00000   0.00246   0.00244   2.09684
   A20        2.09440  -0.01487   0.00000  -0.01339  -0.01341   2.08098
   A21        2.09440   0.00971   0.00000   0.00712   0.00709   2.10149
   A22        2.09440  -0.01246   0.00000  -0.00952  -0.00950   2.08489
   A23        2.09440   0.00274   0.00000   0.00240   0.00241   2.09681
   A24        2.09440  -0.00771   0.00000  -0.00693  -0.00701   2.08739
   A25        2.09440   0.01041   0.00000   0.00861   0.00864   2.10304
   A26        2.09440  -0.00270   0.00000  -0.00168  -0.00164   2.09276
   A27        2.09440  -0.00301   0.00000  -0.00305  -0.00310   2.09130
   A28        2.09440   0.00099   0.00000   0.00104   0.00107   2.09546
   A29        2.09440   0.00202   0.00000   0.00200   0.00203   2.09642
   A30        2.09440   0.02950   0.00000   0.02337   0.02339   2.11778
   A31        2.09440  -0.03082   0.00000  -0.02428  -0.02429   2.07011
   A32        2.09440   0.00132   0.00000   0.00091   0.00090   2.09530
   A33        2.09440  -0.25301   0.00000  -0.19834  -0.19834   1.89606
   A34        2.09440  -0.19213   0.00000  -0.15061  -0.15061   1.94378
    D1        0.00000  -0.00000   0.00000  -0.00000  -0.00000   0.00000
    D2        3.14159  -0.00000   0.00000  -0.00000  -0.00000   3.14159
    D3       -0.00000   0.00000   0.00000   0.00000   0.00000  -0.00000
    D4        3.14159   0.00000   0.00000   0.00000   0.00000   3.14159
    D5        0.00000   0.00000   0.00000   0.00000   0.00000   0.00000
    D6        3.14159   0.00000   0.00000   0.00000   0.00000   3.14159
    D7       -3.14159  -0.00000   0.00000  -0.00000  -0.00000  -3.14159
    D8        0.00000  -0.00000   0.00000  -0.00000  -0.00000   0.00000
    D9       -0.00000   0.00000   0.00000   0.00000   0.00000  -0.00000
   D10        3.14159  -0.00000   0.00000  -0.00000  -0.00000   3.14159
   D11        3.14159   0.00000   0.00000   0.00000   0.00000   3.14159
   D12        0.00000  -0.00000   0.00000  -0.00000  -0.00000   0.00000
   D13        0.00000  -0.00000   0.00000  -0.00000  -0.00000   0.00000
   D14       -3.14159  -0.00000   0.00000  -0.00000  -0.00000  -3.14159
   D15       -3.14159  -0.00000   0.00000  -0.00000  -0.00000  -3.14159
   D16        0.00000  -0.00000   0.00000  -0.00000  -0.00000   0.00000
   D17       -0.00000   0.00000   0.00000   0.00000   0.00000  -0.00000
   D18        3.14159  -0.00000   0.00000  -0.00000  -0.00000   3.14159
   D19        3.14159   0.00000   0.00000   0.00000   0.00000   3.14159
   D20       -0.00000  -0.00000   0.00000  -0.00000  -0.00000  -0.00000
   D21        0.00001  -0.00000   0.00000  -0.00000  -0.00000   0.00001
   D22       -3.14158  -0.00000   0.00000  -0.00000  -0.00000  -3.14158
   D23        0.00000  -0.00000   0.00000  -0.00000  -0.00000   0.00000
   D24       -3.14159  -0.00000   0.00000  -0.00000  -0.00000  -3.14159
   D25       -0.00000   0.00000   0.00000   0.00000   0.00000  -0.00000
   D26        3.14159   0.00000   0.00000   0.00000   0.00000   3.14159
   D27       -0.00000  -0.00000   0.00000  -0.00000  -0.00000  -0.00000
   D28        3.14159  -0.00000   0.00000  -0.00000  -0.00000   3.14159
   D29        3.14159   0.00000   0.00000   0.00000   0.00000   3.14159
   D30       -0.00000   0.00000   0.00000   0.00000   0.00000  -0.00000
   D31       -0.00000   0.00000   0.00000   0.00000   0.00000  -0.00000
   D32       -3.14159  -0.00000   0.00000  -0.00000  -0.00000  -3.14159
   D33        3.14159   0.00000   0.00000   0.00000   0.00000   3.14159
   D34        0.00000  -0.00000   0.00000  -0.00000  -0.00000   0.00000
   D35        0.00000  -0.00000   0.00000  -0.00000  -0.00000   0.00000
   D36       -3.14159  -0.00000   0.00000  -0.00000  -0.00000  -3.14159
   D37        3.14159   0.00000   0.00000   0.00000   0.00000   3.14159
   D38        0.00000  -0.00000   0.00000  -0.00000  -0.00000   0.00000
   D39        0.00000   0.00000   0.00000   0.00000   0.00000   0.00000
   D40       -3.14159  -0.00000   0.00000  -0.00000  -0.00000  -3.14159
   D41        3.14159   0.00000   0.00000   0.00000   0.00000   3.14159
   D42       -0.00000  -0.00000   0.00000  -0.00000  -0.00000  -0.00000
   D43        0.00001  -0.00000   0.00000  -0.00000  -0.00000   0.00001
   D44       -3.14159   0.00000   0.00000   0.00000   0.00000  -3.14159
   D45       -0.00001   0.00000   0.00000   0.00000   0.00000  -0.00001
         Item               Value     Threshold  Converged?
 Maximum Force            0.290261     0.000450     NO 
 RMS     Force            0.047704     0.000300     NO 
 Maximum Displacement     1.573084     0.001800     NO 
 RMS     Displacement     0.507777     0.001200     NO 
 Predicted change in Energy=-1.150041D-01
 GradGradGradGradGradGradGradGradGradGradGradGradGradGradGradGradGradGrad

                          Input orientation:                          
 ---------------------------------------------------------------------
 Center     Atomic      Atomic             Coordinates (Angstroms)
 Number     Number       Type             X           Y           Z
 ---------------------------------------------------------------------
      1          6           0        1.170605   -0.455038    0.073929
      2          6           0        2.495526   -0.602702   -0.390305
      3          6           0        3.354662    0.499816   -0.466289
      4          6           0        2.914206    1.765683   -0.083437
      5          6           0        1.611061    1.936455    0.377961
      6          6           0        0.747368    0.841749    0.456913
      7          6           0        0.565469   -1.301773    0.114269
      8          6           0        1.370677   -2.351011   -0.348069
      9          6           0        0.866992   -3.655590   -0.427139
     10          6           0       -0.450771   -3.930459   -0.044614
     11          6           0       -1.264293   -2.895475    0.417787
     12          6           0       -0.758571   -1.596538    0.495125
     13          1           0        4.358546    0.368888   -0.821612
     14          1           0        1.269519    2.911878    0.673674
     15          1           0        2.378944   -2.162438   -0.644832
     16          1           0       -2.277344   -3.098171    0.713479
     17         17           0       -1.797870   -0.262830    1.088015
     18         17           0       -0.932910    1.123804    1.063460
     19         17           0       -1.085871   -5.568320   -0.142978
     20         17           0        4.004962    3.143734   -0.183981
     21         17           0        1.904205   -4.948615   -1.011699
     22         17           0        3.143543   -2.158224   -0.895936
 ---------------------------------------------------------------------
                    Distance matrix (angstroms):
                    1          2          3          4          5
     1  C    0.000000
     2  C    1.411643   0.000000
     3  C    2.444112   1.399797   0.000000
     4  C    2.827810   2.424604   1.393914   0.000000
     5  C    2.450648   2.796396   2.411812   1.392925   0.000000
     6  C    1.416850   2.420800   2.786970   2.416779   1.396632
     7  C    1.041526   2.113863   3.370811   3.868454   3.413051
     8  C    1.952646   2.079340   3.475253   4.404506   4.355143
     9  C    3.253734   3.460290   4.843287   5.805119   5.698491
    10  C    3.836856   4.458042   5.855464   6.615935   6.233009
    11  C    3.464492   4.477284   5.800374   6.279927   5.622882
    12  C    2.280822   3.515800   4.715687   5.012839   4.255693
    13  H    3.412303   2.144960   1.072930   2.140573   3.383034
    14  H    3.421345   3.871358   3.386057   2.142890   1.074963
    15  H    2.211767   1.584662   2.841038   4.003973   4.293795
    16  H    4.391302   5.497818   6.786520   7.158515   6.370222
    17  Cl   3.142795   4.553482   5.435631   5.262208   4.118476
    18  Cl   2.810105   4.104684   4.594863   4.065425   2.757190
    19  Cl   5.593244   6.127393   7.526296   8.354146   7.991650
    20  Cl   4.588165   4.044347   2.737315   1.760365   2.739355
    21  Cl   4.680704   4.429758   5.664512   6.852997   7.030027
    22  Cl   2.781000   1.759329   2.700804   4.013701   4.553868
                    6          7          8          9         10
     6  C    0.000000
     7  C    2.178343   0.000000
     8  C    3.351153   1.401077   0.000000
     9  C    4.584967   2.434028   1.400670   0.000000
    10  C    4.945810   2.822760   2.429899   1.399420   0.000000
    11  C    4.244427   2.445412   2.797507   2.415378   1.395286
    12  C    2.866105   1.408907   2.411203   2.780777   2.415211
    13  H    3.859900   4.249048   4.068102   5.342563   6.497509
    14  H    2.145940   4.308535   5.362107   6.671241   7.091749
    15  H    3.591799   2.146082   1.067815   2.136092   3.390198
    16  H    4.973699   3.415799   3.872104   3.390955   2.145642
    17  Cl   2.845457   2.759159   4.057404   4.572527   4.068050
    18  Cl   1.808532   3.004917   4.401507   5.320164   5.196716
    19  Cl   6.693999   4.582196   4.053118   2.748264   1.759436
    20  Cl   4.040024   5.628641   6.095786   7.492449   8.361649
    21  Cl   6.084686   4.044685   2.733606   1.757678   2.741861
    22  Cl   4.070834   2.898359   1.865577   2.764879   4.096907
                   11         12         13         14         15
    11  C    0.000000
    12  C    1.396057   0.000000
    13  H    6.618799   5.637515   0.000000
    14  H    6.341217   4.946802   4.271389   0.000000
    15  H    3.865188   3.385815   3.218336   5.358914   0.000000
    16  H    1.074612   2.146917   7.642777   6.978719   4.939800
    17  Cl   2.768525   1.791770   6.476666   4.433884   4.904798
    18  Cl   4.084277   2.784540   5.667706   2.863535   4.968503
    19  Cl   2.736857   4.036006   8.084099   8.839035   4.884345
    20  Cl   8.037364   6.754451   2.869036   2.876104   5.568822
    21  Cl   4.037102   4.538426   5.859672   8.064159   2.850044
    22  Cl   4.658156   4.180554   2.805005   5.628639   0.804787
                   16         17         18         19         20
    16  H    0.000000
    17  Cl   2.899885   0.000000
    18  Cl   4.444667   1.634477   0.000000
    19  Cl   2.873110   5.492769   6.801721   0.000000
    20  Cl   8.901359   6.848030   5.478942  10.090498   0.000000
    21  Cl   4.887303   6.330145   7.016393   3.174786   8.401453
    22  Cl   5.732340   5.652092   5.588238   5.484855   5.418458
                   21         22
    21  Cl   0.000000
    22  Cl   3.055428   0.000000
 Stoichiometry    C12H4Cl6
 Framework group  C1[X(C12H4Cl6)]
 Deg. of freedom    60
 Full point group                 C1      NOp   1
 Largest Abelian subgroup         C1      NOp   1
 Largest concise Abelian subgroup C1      NOp   1
                         Standard orientation:                         
 ---------------------------------------------------------------------
 Center     Atomic      Atomic             Coordinates (Angstroms)
 Number     Number       Type             X           Y           Z
 ---------------------------------------------------------------------
      1          6           0       -0.807421    0.087736    0.000001
      2          6           0       -1.119714   -1.288930   -0.000000
      3          6           0       -2.451123   -1.721112   -0.000001
      4          6           0       -3.493648   -0.795835   -0.000001
      5          6           0       -3.210546    0.568018    0.000003
      6          6           0       -1.884943    1.007742    0.000003
      7          6           0        0.196473    0.365178    0.000002
      8          6           0        0.910635   -0.840222    0.000003
      9          6           0        2.311305   -0.839802    0.000003
     10          6           0        3.019232    0.367350    0.000000
     11          6           0        2.321332    1.575555   -0.000002
     12          6           0        0.925283    1.570937   -0.000001
     13          1           0       -2.669803   -2.771520   -0.000003
     14          1           0       -4.013139    1.283133    0.000005
     15          1           0        0.389456   -1.772210    0.000003
     16          1           0        2.857446    2.506884   -0.000006
     17         17           0        0.022873    3.118870   -0.000005
     18         17           0       -1.578190    2.790069    0.000006
     19         17           0        4.778666    0.370607   -0.000003
     20         17           0       -5.163556   -1.352872   -0.000002
     21         17           0        3.176098   -2.370021    0.000005
     22         17           0        0.124983   -2.532300   -0.000004
 ---------------------------------------------------------------------
 Rotational constants (GHZ):           0.3950028           0.1761069           0.1218027
 Standard basis: 6-311+G(d,p) (5D, 7F)
 There are   486 symmetry adapted cartesian basis functions of A   symmetry.
 There are   468 symmetry adapted basis functions of A   symmetry.
   468 basis functions,   782 primitive gaussians,   486 cartesian basis functions
    89 alpha electrons       89 beta electrons
       nuclear repulsion energy      2156.5705492774 Hartrees.
 NAtoms=   22 NActive=   22 NUniq=   22 SFac= 1.00D+00 NAtFMM=   60 NAOKFM=F Big=F
 Integral buffers will be    131072 words long.
 Raffenetti 2 integral format.
 Two-electron integral symmetry is turned on.
 One-electron integrals computed using PRISM.
 NBasis=   468 RedAO= T EigKep=  1.04D-06  NBF=   468
 NBsUse=   461 1.00D-06 EigRej=  5.42D-07 NBFU=   461
 Initial guess from the checkpoint file:  "./Gau-81565.chk"
 B after Tr=     0.000000   -0.000000   -0.000000
         Rot=    0.999656    0.000000    0.000000   -0.026217 Ang=   3.00 deg.
 ExpMin= 4.38D-02 ExpMax= 1.06D+05 ExpMxC= 3.62D+03 IAcc=3 IRadAn=         5 AccDes= 0.00D+00
 Harris functional with IExCor=  402 and IRadAn=       5 diagonalized for initial guess.
 HarFok:  IExCor=  402 AccDes= 0.00D+00 IRadAn=         5 IDoV= 1 UseB2=F ITyADJ=14
 ICtDFT=  3500011 ScaDFX=  1.000000  1.000000  1.000000  1.000000
 FoFCou: FMM=F IPFlag=           0 FMFlag=      100000 FMFlg1=           0
         NFxFlg=           0 DoJE=T BraDBF=F KetDBF=T FulRan=T
         wScrn=  0.000000 ICntrl=       500 IOpCl=  0 I1Cent=   200000004 NGrid=           0
         NMat0=    1 NMatS0=      1 NMatT0=    0 NMatD0=    1 NMtDS0=    0 NMtDT0=    0
 Petite list used in FoFCou.
 Requested convergence on RMS density matrix=1.00D-08 within  32 cycles.
 Requested convergence on MAX density matrix=1.00D-06.
 Requested convergence on             energy=1.00D-06.
 No special actions if energy rises.
 EnCoef did     2 forward-backward iterations
 EnCoef did     3 forward-backward iterations
 EnCoef did     4 forward-backward iterations
 Restarting incremental Fock formation.
 SCF Done:  E(RB3LYP) =  -3219.54459601     A.U. after   25 cycles
            NFock= 25  Conv=0.51D-08     -V/T= 2.0003
 QCSCF skips out because SCF is already converged.
 Calling FoFJK, ICntrl=      2127 FMM=F ISym2X=0 I1Cent= 0 IOpClX= 0 NMat=1 NMatS=1 NMatT=0.
 ***** Axes restored to original set *****
 -------------------------------------------------------------------
 Center     Atomic                   Forces (Hartrees/Bohr)
 Number     Number              X              Y              Z
 -------------------------------------------------------------------
      1        6           0.494501866    0.732791933   -0.025291452
      2        6           0.065801889    0.166626013    0.009615883
      3        6          -0.006477441   -0.006138486    0.000981112
      4        6          -0.002606989   -0.010338780   -0.001083238
      5        6          -0.015861294   -0.013912465    0.002612651
      6        6           0.141957823    0.000554650   -0.046664147
      7        6          -0.485265369   -0.756367584    0.017820865
      8        6          -0.365005670   -0.174742622    0.087432724
      9        6          -0.001330299    0.035618714    0.007128165
     10        6           0.007879114   -0.002189611   -0.003006825
     11        6           0.008001986    0.023331217    0.001745458
     12        6           0.065179233   -0.077944289   -0.036112132
     13        1           0.007647105   -0.002117795   -0.002917087
     14        1          -0.002558161    0.010077726    0.002735464
     15        1          -1.263088519   -0.063892077    0.404118869
     16        1          -0.008627414   -0.002860604    0.002305071
     17       17          -0.248393416   -0.187381155    0.046645329
     18       17           0.041184446    0.295584611    0.041942351
     19       17          -0.004933961   -0.001625566    0.001320045
     20       17           0.002426849    0.002854280   -0.000263290
     21       17           0.008168290   -0.011482972   -0.004847739
     22       17           1.561399931    0.043554864   -0.506218077
 -------------------------------------------------------------------
 Cartesian Forces:  Max     1.561399931 RMS     0.313328156

 GradGradGradGradGradGradGradGradGradGradGradGradGradGradGradGradGradGrad
 Berny optimization.
 Using GEDIIS/GDIIS optimizer.
 FormGI is forming the generalized inverse of G from B-inverse, IUseBI=4.
 Internal  Forces:  Max    16.753819136 RMS     2.360221774
 Search for a local minimum.
 Step number   2 out of a maximum of  112
 All quantities printed in internal units (Hartrees-Bohrs-Radians)
 Mixed Optimization -- RFO/linear search
 Update second derivatives using D2CorX and points    2    1
 DE=  9.88D-01 DEPred=-1.15D-01 R=-8.59D+00
 Trust test=-8.59D+00 RLast= 3.00D-01 DXMaxT set to 1.50D-01
 ITU= -1  0
 Use linear search instead of GDIIS.
     Eigenvalues ---    0.00238   0.00238   0.01662   0.01668   0.02070
     Eigenvalues ---    0.02070   0.02070   0.02070   0.02070   0.02070
     Eigenvalues ---    0.02070   0.02070   0.02070   0.02070   0.02070
     Eigenvalues ---    0.02070   0.02070   0.02070   0.05202   0.09475
     Eigenvalues ---    0.16000   0.16000   0.16000   0.16013   0.22962
     Eigenvalues ---    0.23477   0.23505   0.23937   0.25000   0.25000
     Eigenvalues ---    0.25000   0.25000   0.25000   0.25000   0.25000
     Eigenvalues ---    0.25000   0.28033   0.29517   0.29539   0.29539
     Eigenvalues ---    0.29539   0.29539   0.37097   0.37211   0.37230
     Eigenvalues ---    0.37230   0.40688   0.41467   0.41488   0.42173
     Eigenvalues ---    0.45205   0.45237   0.45389   0.45389   0.45389
     Eigenvalues ---    0.45389   0.45389   0.45389   1.53193 135.77869
 RFO step:  Lambda=-3.23806626D+00 EMin= 2.37799019D-03
 Quartic linear search produced a step of -0.72131.
 Maximum step size (   0.150) exceeded in Quadratic search.
    -- Step size scaled by   0.156
 Iteration  1 RMS(Cart)=  0.25922697 RMS(Int)=  0.00545049
 Iteration  2 RMS(Cart)=  0.07426423 RMS(Int)=  0.00041214
 Iteration  3 RMS(Cart)=  0.00086272 RMS(Int)=  0.00002589
 Iteration  4 RMS(Cart)=  0.00000006 RMS(Int)=  0.00002589
 Variable       Old X    -DE/DX   Delta X   Delta X   Delta X     New X
                                 (Linear)    (Quad)   (Total)
    R1        2.66762   2.34620  -0.01396   0.02266   0.00864   2.67626
    R2        2.67746   0.99764  -0.02106   0.02271   0.00161   2.67907
    R3        2.64523  -0.40146   0.00218  -0.00368  -0.00151   2.64372
    R4        3.32465   0.68209   0.00091   0.00242   0.00334   3.32799
    R5        2.63412  -1.08098   0.01020  -0.01372  -0.00348   2.63064
    R6        2.02754   0.00838  -0.00399   0.00346  -0.00053   2.02701
    R7        2.63225  -0.68959   0.01155  -0.01313  -0.00153   2.63072
    R8        3.32661   0.00375  -0.00050   0.00044  -0.00006   3.32655
    R9        2.63925   0.36862   0.00650  -0.00396   0.00255   2.64180
   R10        2.03139   0.01071  -0.00677   0.00585  -0.00092   2.03047
   R11        3.41763   2.13283  -0.06615   0.06637   0.00021   3.41784
   R12        2.64765  -0.49497   0.00044  -0.00261  -0.00219   2.64546
   R13        2.66245  -1.60520  -0.01023   0.00162  -0.00864   2.65381
   R14        2.64688  -0.29771   0.00099  -0.00220  -0.00121   2.64568
   R15        2.01788  -1.31624   0.00298  -0.00860  -0.00563   2.01225
   R16        2.64452  -0.71732   0.00270  -0.00555  -0.00283   2.64169
   R17        3.32153   0.01488   0.00316  -0.00263   0.00054   3.32207
   R18        2.63671  -0.44035   0.00833  -0.00917  -0.00081   2.63590
   R19        3.32485   0.00322   0.00077  -0.00064   0.00013   3.32498
   R20        2.63816   0.25819   0.00728  -0.00512   0.00216   2.64033
   R21        2.03072   0.00931  -0.00629   0.00543  -0.00085   2.02987
   R22        3.38595  -0.57257  -0.04330   0.03420  -0.00911   3.37685
   R23        3.08871   2.25299  -0.04045   0.04506   0.00461   3.09332
    A1        2.05443  -0.72170   0.02883  -0.02772   0.00098   2.05541
    A2        2.10774   0.32479  -0.00963   0.00977   0.00009   2.10783
    A3        2.13259   2.32047  -0.02755   0.03438   0.00686   2.13945
    A4        2.04285  -2.64526   0.03718  -0.04416  -0.00695   2.03590
    A5        2.10183   0.16713  -0.00536   0.00527  -0.00005   2.10178
    A6        2.08993  -0.08470   0.00322  -0.00310   0.00011   2.09003
    A7        2.09143  -0.08243   0.00214  -0.00218  -0.00005   2.09137
    A8        2.09201  -0.14265   0.00172  -0.00228  -0.00046   2.09155
    A9        2.09374   0.07109   0.00047   0.00001   0.00043   2.09417
   A10        2.09743   0.07156  -0.00219   0.00227   0.00003   2.09746
   A11        2.09576   1.33475  -0.00098   0.00714   0.00623   2.10199
   A12        2.09395  -0.66833   0.00032  -0.00343  -0.00315   2.09081
   A13        2.09347  -0.66642   0.00066  -0.00371  -0.00308   2.09039
   A14        2.11459  -0.96232  -0.01457   0.00781  -0.00678   2.10781
   A15        2.10706   6.64901  -0.00914   0.03937   0.03024   2.13731
   A16        2.06153  -5.68669   0.02371  -0.04718  -0.02346   2.03806
   A17        2.06305  -0.65148   0.02261  -0.02229   0.00025   2.06330
   A18        2.10536   0.95516  -0.00791   0.01127   0.00333   2.10869
   A19        2.09684  -0.65317  -0.00176  -0.00168  -0.00343   2.09341
   A20        2.08098  -0.30199   0.00967  -0.00959   0.00010   2.08108
   A21        2.10149  -0.34194  -0.00512   0.00271  -0.00239   2.09910
   A22        2.08489   0.17233   0.00685  -0.00499   0.00185   2.08674
   A23        2.09681   0.16960  -0.00174   0.00229   0.00054   2.09734
   A24        2.08739  -0.52110   0.00505  -0.00677  -0.00167   2.08572
   A25        2.10304   0.26768  -0.00624   0.00657   0.00031   2.10334
   A26        2.09276   0.25343   0.00118   0.00021   0.00136   2.09412
   A27        2.09130   0.48830   0.00223   0.00045   0.00271   2.09401
   A28        2.09546  -0.24531  -0.00077  -0.00052  -0.00131   2.09415
   A29        2.09642  -0.24299  -0.00146   0.00007  -0.00141   2.09502
   A30        2.11778   0.07105  -0.01687   0.01464  -0.00224   2.11554
   A31        2.07011   2.37007   0.01752  -0.00358   0.01394   2.08405
   A32        2.09530  -2.44112  -0.00065  -0.01106  -0.01170   2.08359
   A33        1.89606  12.47536   0.14306  -0.06202   0.08105   1.97710
   A34        1.94378  16.75382   0.10864  -0.01246   0.09618   2.03996
    D1        0.00000  -0.00000   0.00000  -0.00000  -0.00000   0.00000
    D2        3.14159  -0.00002   0.00000  -0.00000  -0.00000   3.14159
    D3       -0.00000   0.00000  -0.00000   0.00000   0.00000  -0.00000
    D4        3.14159   0.00002  -0.00000   0.00000   0.00000   3.14159
    D5        0.00000   0.00000  -0.00000   0.00000   0.00000   0.00000
    D6        3.14159  -0.00000  -0.00000   0.00000  -0.00000   3.14159
    D7       -3.14159   0.00001   0.00000  -0.00000   0.00000  -3.14159
    D8        0.00000   0.00001   0.00000  -0.00000   0.00000   0.00000
    D9       -0.00000   0.00000  -0.00000   0.00000   0.00000  -0.00000
   D10        3.14159  -0.00000   0.00000  -0.00000  -0.00000   3.14159
   D11        3.14159   0.00000  -0.00000   0.00000   0.00000   3.14159
   D12        0.00000   0.00000   0.00000  -0.00000   0.00000   0.00000
   D13        0.00000  -0.00000   0.00000  -0.00000  -0.00000   0.00000
   D14       -3.14159  -0.00000   0.00000  -0.00000  -0.00000  -3.14159
   D15       -3.14159   0.00000   0.00000  -0.00000   0.00000  -3.14159
   D16        0.00000  -0.00000   0.00000  -0.00000  -0.00000   0.00000
   D17       -0.00000   0.00000  -0.00000   0.00000   0.00000  -0.00000
   D18        3.14159  -0.00001   0.00000  -0.00000  -0.00000   3.14159
   D19        3.14159   0.00000  -0.00000   0.00000   0.00000   3.14159
   D20       -0.00000  -0.00001   0.00000  -0.00000  -0.00000  -0.00000
   D21        0.00001  -0.00004   0.00000  -0.00000  -0.00000   0.00001
   D22       -3.14158  -0.00002   0.00000  -0.00000  -0.00000  -3.14158
   D23        0.00000  -0.00000   0.00000  -0.00000  -0.00000   0.00000
   D24       -3.14159  -0.00001   0.00000  -0.00000  -0.00000  -3.14159
   D25       -0.00000   0.00000  -0.00000   0.00000   0.00000  -0.00000
   D26        3.14159   0.00002  -0.00000   0.00000   0.00000   3.14159
   D27       -0.00000   0.00000   0.00000   0.00000   0.00000  -0.00000
   D28        3.14159   0.00000   0.00000  -0.00000   0.00000   3.14159
   D29        3.14159   0.00001  -0.00000   0.00000   0.00000   3.14159
   D30       -0.00000   0.00000  -0.00000   0.00000   0.00000  -0.00000
   D31       -0.00000   0.00000  -0.00000   0.00000   0.00000  -0.00000
   D32       -3.14159  -0.00000   0.00000  -0.00000  -0.00000  -3.14159
   D33        3.14159   0.00000  -0.00000   0.00000   0.00000   3.14159
   D34        0.00000  -0.00000   0.00000  -0.00000   0.00000   0.00000
   D35        0.00000  -0.00001   0.00000  -0.00000  -0.00000   0.00000
   D36       -3.14159  -0.00001   0.00000  -0.00000  -0.00000  -3.14159
   D37        3.14159  -0.00000  -0.00000   0.00000  -0.00000   3.14159
   D38        0.00000  -0.00000   0.00000  -0.00000  -0.00000   0.00000
   D39        0.00000   0.00000  -0.00000   0.00000   0.00000   0.00000
   D40       -3.14159  -0.00002   0.00000  -0.00000  -0.00000  -3.14159
   D41        3.14159   0.00001  -0.00000   0.00000   0.00000   3.14159
   D42       -0.00000  -0.00002   0.00000  -0.00000  -0.00000  -0.00000
   D43        0.00001  -0.00004   0.00000  -0.00000  -0.00000   0.00001
   D44       -3.14159  -0.00002  -0.00000  -0.00000  -0.00000  -3.14159
   D45       -0.00001  -0.00023  -0.00000  -0.00000  -0.00000  -0.00001
         Item               Value     Threshold  Converged?
 Maximum Force            ********     0.000450     NO 
 RMS     Force            2.360222     0.000300     NO 
 Maximum Displacement     0.958976     0.001800     NO 
 RMS     Displacement     0.332250     0.001200     NO 
 Predicted change in Energy=-9.702470D-01
 GradGradGradGradGradGradGradGradGradGradGradGradGradGradGradGradGradGrad

                          Input orientation:                          
 ---------------------------------------------------------------------
 Center     Atomic      Atomic             Coordinates (Angstroms)
 Number     Number       Type             X           Y           Z
 ---------------------------------------------------------------------
      1          6           0        1.470254   -0.315241    0.001463
      2          6           0        2.815932   -0.304098   -0.439784
      3          6           0        3.552924    0.884877   -0.459289
      4          6           0        2.973312    2.080407   -0.043802
      5          6           0        1.651933    2.094088    0.394100
      6          6           0        0.902098    0.914492    0.419598
      7          6           0        0.558485   -1.614724    0.057794
      8          6           0        1.246518   -2.751650   -0.382409
      9          6           0        0.619645   -4.003171   -0.410929
     10          6           0       -0.709320   -4.135184    0.002117
     11          6           0       -1.406565   -3.010444    0.443067
     12          6           0       -0.775863   -1.763972    0.469376
     13          1           0        4.571081    0.874521   -0.796670
     14          1           0        1.205242    3.017249    0.714640
     15          1           0        2.259367   -2.669906   -0.700746
     16          1           0       -2.428033   -3.103003    0.762217
     17         17           0       -1.684124   -0.333662    1.037238
     18         17           0       -0.803694    1.045965    1.006270
     19         17           0       -1.503412   -5.704952   -0.031078
     20         17           0        3.911235    3.569776   -0.073087
     21         17           0        1.514872   -5.409068   -0.969909
     22         17           0        3.646770   -1.757476   -0.986461
 ---------------------------------------------------------------------
[...]
                 (A) (A) (A) (A) (A) (A) (A) (A) (A) (A) (A) (A)
                 (A) (A) (A) (A) (A) (A) (A) (A) (A) (A) (A) (A)
                 (A) (A) (A) (A) (A) (A) (A) (A) (A) (A) (A) (A)
                 (A) (A) (A) (A) (A) (A) (A) (A) (A) (A) (A) (A)
                 (A) (A) (A) (A) (A) (A) (A) (A) (A) (A) (A) (A)
                 (A) (A) (A) (A) (A) (A) (A) (A) (A) (A) (A) (A)
                 (A) (A) (A) (A) (A) (A) (A) (A) (A) (A) (A) (A)
                 (A) (A) (A) (A) (A) (A) (A) (A) (A) (A) (A) (A)
                 (A) (A) (A) (A) (A) (A) (A) (A) (A) (A) (A) (A)
                 (A) (A) (A) (A) (A) (A) (A) (A) (A) (A) (A) (A)
                 (A) (A) (A) (A) (A) (A) (A) (A) (A) (A) (A) (A)
                 (A) (A) (A) (A) (A) (A) (A) (A) (A) (A) (A) (A)
                 (A) (A) (A) (A) (A) (A) (A) (A) (A) (A) (A) (A)
                 (A) (A) (A) (A) (A) (A) (A) (A) (A) (A) (A) (A)
                 (A) (A) (A) (A) (A) (A) (A) (A) (A) (A) (A) (A)
                 (A) (A) (A) (A) (A) (A) (A) (A) (A) (A) (A) (A)
                 (A) (A) (A) (A) (A) (A) (A) (A) (A) (A) (A) (A)
                 (A) (A) (A) (A) (A) (A) (A) (A) (A) (A) (A) (A)
                 (A) (A) (A) (A) (A) (A) (A) (A) (A) (A) (A) (A)
                 (A) (A) (A) (A) (A) (A) (A) (A) (A) (A) (A) (A)
                 (A) (A) (A) (A) (A) (A) (A) (A) (A) (A) (A) (A)
                 (A) (A) (A) (A) (A) (A) (A) (A) (A) (A) (A) (A)
                 (A) (A) (A) (A) (A) (A) (A) (A) (A) (A) (A) (A)
                 (A) (A) (A) (A) (A) (A) (A) (A) (A) (A) (A) (A)
                 (A) (A) (A) (A) (A) (A) (A) (A) (A) (A) (A) (A)
                 (A) (A) (A) (A) (A) (A) (A) (A) (A) (A) (A) (A)
                 (A) (A) (A) (A) (A) (A) (A) (A) (A) (A) (A) (A)
                 (A) (A) (A)
 The electronic state is 1-A.
 Alpha  occ. eigenvalues -- -101.57810-101.57753-101.57752-101.57626-101.57476
 Alpha  occ. eigenvalues -- -101.57422 -10.27655 -10.27654 -10.27397 -10.27340
 Alpha  occ. eigenvalues --  -10.26969 -10.26927 -10.23772 -10.23320 -10.22093
 Alpha  occ. eigenvalues --  -10.22072 -10.22065 -10.22064  -9.49263  -9.49222
 Alpha  occ. eigenvalues --   -9.49221  -9.49082  -9.48931  -9.48891  -7.25738
 Alpha  occ. eigenvalues --   -7.25697  -7.25697  -7.25570  -7.25418  -7.25362
 Alpha  occ. eigenvalues --   -7.24741  -7.24703  -7.24702  -7.24700  -7.24649
 Alpha  occ. eigenvalues --   -7.24649  -7.24562  -7.24502  -7.24408  -7.24368
 Alpha  occ. eigenvalues --   -7.24354  -7.24326  -0.95357  -0.94112  -0.90871
 Alpha  occ. eigenvalues --   -0.90086  -0.89813  -0.88048  -0.84778  -0.83693
 Alpha  occ. eigenvalues --   -0.80239  -0.76935  -0.76370  -0.73825  -0.66205
 Alpha  occ. eigenvalues --   -0.64396  -0.64069  -0.61229  -0.55876  -0.53769
 Alpha  occ. eigenvalues --   -0.53517  -0.52443  -0.49670  -0.48763  -0.46901
 Alpha  occ. eigenvalues --   -0.46836  -0.46500  -0.44792  -0.44771  -0.43527
 Alpha  occ. eigenvalues --   -0.41681  -0.41343  -0.40728  -0.39542  -0.38637
 Alpha  occ. eigenvalues --   -0.38560  -0.36749  -0.34881  -0.34599  -0.34471
 Alpha  occ. eigenvalues --   -0.33696  -0.33683  -0.33007  -0.32932  -0.32745
 Alpha  occ. eigenvalues --   -0.28425  -0.27827  -0.27812  -0.26500
 Alpha virt. eigenvalues --   -0.06242  -0.05839  -0.05557  -0.05014  -0.03652
 Alpha virt. eigenvalues --   -0.02654  -0.00722   0.00010   0.00763   0.01074
 Alpha virt. eigenvalues --    0.01299   0.01867   0.01925   0.02470   0.03442
 Alpha virt. eigenvalues --    0.04092   0.04292   0.05108   0.05445   0.05478
 Alpha virt. eigenvalues --    0.06062   0.06724   0.07005   0.07882   0.08261
 Alpha virt. eigenvalues --    0.08587   0.08739   0.08749   0.09135   0.09722
 Alpha virt. eigenvalues --    0.10147   0.10609   0.10698   0.11058   0.11139
 Alpha virt. eigenvalues --    0.11455   0.11580   0.12288   0.12448   0.12461
 Alpha virt. eigenvalues --    0.12784   0.13508   0.13693   0.14402   0.14815
 Alpha virt. eigenvalues --    0.15102   0.15388   0.15564   0.16483   0.16499
 Alpha virt. eigenvalues --    0.16979   0.17194   0.17640   0.17808   0.18620
 Alpha virt. eigenvalues --    0.19100   0.19321   0.20123   0.20210   0.20474
 Alpha virt. eigenvalues --    0.20587   0.21163   0.21204   0.21615   0.22038
 Alpha virt. eigenvalues --    0.22419   0.22694   0.23086   0.23474   0.23711
 Alpha virt. eigenvalues --    0.24501   0.24559   0.24974   0.25428   0.25873
 Alpha virt. eigenvalues --    0.26000   0.26803   0.26882   0.27312   0.27693
 Alpha virt. eigenvalues --    0.27983   0.28289   0.28504   0.29271   0.29630
 Alpha virt. eigenvalues --    0.29879   0.30201   0.31799   0.31941   0.32829
 Alpha virt. eigenvalues --    0.32876   0.34723   0.36653   0.38951   0.39922
 Alpha virt. eigenvalues --    0.41791   0.43316   0.43445   0.44122   0.44596
 Alpha virt. eigenvalues --    0.44833   0.45173   0.45647   0.45888   0.46846
 Alpha virt. eigenvalues --    0.47345   0.47774   0.47892   0.48698   0.49342
 Alpha virt. eigenvalues --    0.49619   0.50248   0.50565   0.52410   0.53836
 Alpha virt. eigenvalues --    0.53924   0.54500   0.55838   0.56536   0.57347
 Alpha virt. eigenvalues --    0.57467   0.58194   0.59297   0.59363   0.59867
 Alpha virt. eigenvalues --    0.61099   0.61307   0.62704   0.62787   0.63492
 Alpha virt. eigenvalues --    0.64181   0.64347   0.65197   0.65424   0.66014
 Alpha virt. eigenvalues --    0.67026   0.67281   0.67751   0.69031   0.69186
 Alpha virt. eigenvalues --    0.69847   0.70166   0.71359   0.75778   0.78735
 Alpha virt. eigenvalues --    0.78947   0.80606   0.81574   0.82439   0.82874
 Alpha virt. eigenvalues --    0.82945   0.83501   0.83689   0.83770   0.84298
 Alpha virt. eigenvalues --    0.84377   0.84721   0.84765   0.85053   0.85700
 Alpha virt. eigenvalues --    0.85801   0.85984   0.86291   0.88000   0.88308
 Alpha virt. eigenvalues --    0.89449   0.89695   0.90177   0.90575   0.91203
 Alpha virt. eigenvalues --    0.91570   0.91751   0.93352   0.93681   0.94268
 Alpha virt. eigenvalues --    0.94794   0.94949   0.95457   0.95476   0.95742
 Alpha virt. eigenvalues --    0.97150   0.97636   0.98402   0.98717   1.00220
 Alpha virt. eigenvalues --    1.02523   1.02615   1.03317   1.03603   1.05844
 Alpha virt. eigenvalues --    1.06748   1.09195   1.10541   1.14343   1.17909
 Alpha virt. eigenvalues --    1.18532   1.20181   1.21532   1.21794   1.22660
 Alpha virt. eigenvalues --    1.23333   1.23715   1.24488   1.25976   1.28017
 Alpha virt. eigenvalues --    1.28154   1.29381   1.30091   1.31786   1.32486
 Alpha virt. eigenvalues --    1.33176   1.33286   1.34955   1.42114   1.42252
 Alpha virt. eigenvalues --    1.47432   1.47815   1.48626   1.54099   1.54378
 Alpha virt. eigenvalues --    1.55137   1.56207   1.56586   1.58002   1.58263
 Alpha virt. eigenvalues --    1.59530   1.62467   1.66292   1.66595   1.70006
 Alpha virt. eigenvalues --    1.72936   1.73815   1.74858   1.79775   1.80242
 Alpha virt. eigenvalues --    1.81152   1.82511   1.83446   1.84743   1.85441
 Alpha virt. eigenvalues --    1.91883   1.91973   1.92493   1.94127   1.94356
 Alpha virt. eigenvalues --    1.94501   1.99252   1.99373   2.01323   2.03300
 Alpha virt. eigenvalues --    2.04407   2.04666   2.07675   2.09058   2.11352
 Alpha virt. eigenvalues --    2.14415   2.17770   2.22695   2.22852   2.23752
 Alpha virt. eigenvalues --    2.24714   2.25364   2.26048   2.27258   2.28665
 Alpha virt. eigenvalues --    2.30841   2.31004   2.32288   2.34915   2.37819
 Alpha virt. eigenvalues --    2.38406   2.40920   2.42359   2.44050   2.45666
 Alpha virt. eigenvalues --    2.47785   2.48331   2.51207   2.52378   2.52850
 Alpha virt. eigenvalues --    2.54499   2.54946   2.56599   2.59924   2.60024
 Alpha virt. eigenvalues --    2.62634   2.63194   2.68117   2.68654   2.69431
 Alpha virt. eigenvalues --    2.69790   2.71765   2.73031   2.74093   2.75375
 Alpha virt. eigenvalues --    2.75402   2.77232   2.77310   2.82379   2.82468
 Alpha virt. eigenvalues --    2.82633   2.84824   2.88659   2.95897   2.97829
 Alpha virt. eigenvalues --    3.05647   3.08955   3.08997   3.09924   3.12152
 Alpha virt. eigenvalues --    3.12248   3.14879   3.19205   3.21303   3.24442
 Alpha virt. eigenvalues --    3.28069   3.32215   3.35178   3.45440   3.50791
 Alpha virt. eigenvalues --    3.55121   3.61855   3.69630   3.73002   3.78237
 Alpha virt. eigenvalues --    3.81665   3.90606   3.98521   4.07045   4.11474
 Alpha virt. eigenvalues --    4.33452   4.79828   4.80958   9.76110   9.76238
 Alpha virt. eigenvalues --    9.79431   9.79599   9.82942   9.84799  23.36531
 Alpha virt. eigenvalues --   23.51552  23.82955  23.84158  23.85362  23.88721
 Alpha virt. eigenvalues --   23.93227  24.01810  24.03121  24.05854  24.09426
 Alpha virt. eigenvalues --   24.12966  25.77951  25.81124  25.81353  25.86326
 Alpha virt. eigenvalues --   25.92597  25.96279  26.07502  26.09475  26.14036
 Alpha virt. eigenvalues --   26.24929  26.33840  26.34346  26.51274  26.58405
 Alpha virt. eigenvalues --   26.63253  26.67432  26.77963  26.92782 215.75176
 Alpha virt. eigenvalues --  215.75392 215.79059 215.79125 215.83217 215.85939
          Condensed to atoms (all electrons):
               1          2          3          4          5          6
     1  C   22.226580   0.269961  -6.118676  -1.257250  -6.128228   0.279494
     2  C    0.269961  19.504988  -5.257246  -2.563176   7.175725  -2.133345
     3  C   -6.118676  -5.257246  29.448456  -0.823125 -11.107092   7.172375
     4  C   -1.257250  -2.563176  -0.823125  16.341486  -0.821893  -2.564577
     5  C   -6.128228   7.175725 -11.107092  -0.821893  29.463043  -5.253824
     6  C    0.279494  -2.133345   7.172375  -2.564577  -5.253824  19.520221
     7  C    8.828001  -3.025198  -4.581965  -0.895953  -4.585257  -3.030399
     8  C   -2.883558   0.831257   0.672251   0.101443   0.672875   0.838954
     9  C    2.453513  -0.143545   0.077181   0.127317   0.079663  -0.141865
    10  C    0.327168   0.117370   0.042526  -0.055068   0.043188   0.118926
    11  C   -4.484021  -0.735248  -0.046341  -0.094035  -0.049905  -0.737566
    12  C   -7.744845  -6.651595  -3.012935  -0.723788  -3.024299  -6.675823
    13  H    0.109752   0.075426   0.079914   0.045014   0.051066  -0.026951
    14  H    0.109860  -0.026950   0.051037   0.044949   0.079780   0.075531
    15  H    0.119845   0.067219   0.015348   0.009654   0.015457   0.067282
    16  H    0.018196  -0.000040  -0.000591   0.000193  -0.000590  -0.000036
    17  Cl   0.687072  -0.121472  -0.180447   0.053765  -0.180495  -0.122283
    18  Cl  -0.341669  -0.737662   0.675280  -0.322226  -0.988372   0.026062
    19  Cl  -0.042569  -0.029085  -0.001564  -0.001506  -0.001572  -0.029121
    20  Cl  -0.100087  -0.116163   0.332782  -1.032012   0.332787  -0.116381
    21  Cl  -0.168831  -0.034352   0.000006   0.006309  -0.000081  -0.034513
    22  Cl  -0.343123   0.026966  -0.988150  -0.322320   0.675286  -0.737720
               7          8          9         10         11         12
     1  C    8.828001  -2.883558   2.453513   0.327168  -4.484021  -7.744845
     2  C   -3.025198   0.831257  -0.143545   0.117370  -0.735248  -6.651595
     3  C   -4.581965   0.672251   0.077181   0.042526  -0.046341  -3.012935
     4  C   -0.895953   0.101443   0.127317  -0.055068  -0.094035  -0.723788
     5  C   -4.585257   0.672875   0.079663   0.043188  -0.049905  -3.024299
     6  C   -3.030399   0.838954  -0.141865   0.118926  -0.737566  -6.675823
     7  C   43.395917   0.119602 -13.110029  -5.675877  -6.707139  -4.231045
     8  C    0.119602  25.044105  -0.132661  -9.212941   0.016284  -9.868138
     9  C  -13.110029  -0.132661  35.802645  -5.525551 -12.252998  -1.407677
    10  C   -5.675877  -9.212941  -5.525551  31.707334   5.609386  -9.911351
    11  C   -6.707139   0.016284 -12.252998   5.609386  28.466424  -1.600494
    12  C   -4.231045  -9.868138  -1.407677  -9.911351  -1.600494  60.740776
    13  H    0.025272  -0.002609  -0.000611   0.000105  -0.000063   0.003592
    14  H    0.025284  -0.002608  -0.000613   0.000105  -0.000060   0.003609
    15  H   -0.034191   0.240465   0.007690   0.067763  -0.060798  -0.143971
    16  H    0.113442  -0.040605   0.040717  -0.005552   0.218955   0.008507
    17  Cl  -0.399420  -0.454199   0.746745  -0.550672  -1.374081   0.618699
    18  Cl   0.135133   0.027589   0.090842   0.054406  -0.059449   0.363087
    19  Cl   0.053319   0.376499   0.107960  -1.009708   0.244076  -0.390127
    20  Cl  -0.033216   0.025334   0.011739  -0.000988  -0.006772  -0.084948
    21  Cl  -0.569900   0.434277  -1.110899  -0.334006   0.266437   0.688860
    22  Cl   0.135097   0.026905   0.090995   0.055394  -0.059616   0.363424
              13         14         15         16         17         18
     1  C    0.109752   0.109860   0.119845   0.018196   0.687072  -0.341669
     2  C    0.075426  -0.026950   0.067219  -0.000040  -0.121472  -0.737662
     3  C    0.079914   0.051037   0.015348  -0.000591  -0.180447   0.675280
     4  C    0.045014   0.044949   0.009654   0.000193   0.053765  -0.322226
     5  C    0.051066   0.079780   0.015457  -0.000590  -0.180495  -0.988372
     6  C   -0.026951   0.075531   0.067282  -0.000036  -0.122283   0.026062
     7  C    0.025272   0.025284  -0.034191   0.113442  -0.399420   0.135133
     8  C   -0.002609  -0.002608   0.240465  -0.040605  -0.454199   0.027589
     9  C   -0.000611  -0.000613   0.007690   0.040717   0.746745   0.090842
    10  C    0.000105   0.000105   0.067763  -0.005552  -0.550672   0.054406
    11  C   -0.000063  -0.000060  -0.060798   0.218955  -1.374081  -0.059449
    12  C    0.003592   0.003609  -0.143971   0.008507   0.618699   0.363087
    13  H    0.492144  -0.000218   0.000004   0.000000  -0.000644   0.000190
    14  H   -0.000218   0.492149   0.000004   0.000000  -0.000646  -0.007696
    15  H    0.000004   0.000004   0.513283   0.000044  -0.000463  -0.010433
    16  H    0.000000   0.000000   0.000044   0.489750  -0.005752  -0.000815
    17  Cl  -0.000644  -0.000646  -0.000463  -0.005752  17.923763   0.004580
    18  Cl   0.000190  -0.007696  -0.010433  -0.000815   0.004580  17.785958
    19  Cl  -0.000001  -0.000001  -0.001344  -0.007822  -0.046017   0.007241
    20  Cl  -0.013904  -0.013903   0.000084  -0.000001   0.007127  -0.026104
    21  Cl  -0.000011  -0.000011  -0.014844   0.000062  -0.001421  -0.003711
    22  Cl  -0.007686   0.000190  -0.010426  -0.000812   0.004202  -0.047845
              19         20         21         22
     1  C   -0.042569  -0.100087  -0.168831  -0.343123
     2  C   -0.029085  -0.116163  -0.034352   0.026966
     3  C   -0.001564   0.332782   0.000006  -0.988150
     4  C   -0.001506  -1.032012   0.006309  -0.322320
     5  C   -0.001572   0.332787  -0.000081   0.675286
     6  C   -0.029121  -0.116381  -0.034513  -0.737720
     7  C    0.053319  -0.033216  -0.569900   0.135097
     8  C    0.376499   0.025334   0.434277   0.026905
     9  C    0.107960   0.011739  -1.110899   0.090995
    10  C   -1.009708  -0.000988  -0.334006   0.055394
    11  C    0.244076  -0.006772   0.266437  -0.059616
    12  C   -0.390127  -0.084948   0.688860   0.363424
    13  H   -0.000001  -0.013904  -0.000011  -0.007686
    14  H   -0.000001  -0.013903  -0.000011   0.000190
    15  H   -0.001344   0.000084  -0.014844  -0.010426
    16  H   -0.007822  -0.000001   0.000062  -0.000812
    17  Cl  -0.046017   0.007127  -0.001421   0.004202
    18  Cl   0.007241  -0.026104  -0.003711  -0.047845
    19  Cl  17.447854   0.000008  -0.182026   0.007250
    20  Cl   0.000008  17.425278   0.000109  -0.026111
    21  Cl  -0.182026   0.000109  17.523568  -0.003750
    22  Cl   0.007250  -0.026111  -0.003750  17.786016
 Mulliken charges:
               1
     1  C    0.183415
     2  C   -0.493833
     3  C   -0.449025
     4  C    0.746801
     5  C   -0.447263
     6  C   -0.494438
     7  C    0.048524
     8  C   -0.830521
     9  C    0.189441
    10  C    0.138044
    11  C   -0.552974
    12  C   -1.319516
    13  H    0.170218
    14  H    0.170209
    15  H    0.152329
    16  H    0.172750
    17  Cl   0.392060
    18  Cl   0.375615
    19  Cl   0.498255
    20  Cl   0.435342
    21  Cl   0.538731
    22  Cl   0.375836
 Sum of Mulliken charges =  -0.00000
 Mulliken charges with hydrogens summed into heavy atoms:
               1
     1  C    0.183415
     2  C   -0.493833
     3  C   -0.278807
     4  C    0.746801
     5  C   -0.277054
     6  C   -0.494438
     7  C    0.048524
     8  C   -0.678192
     9  C    0.189441
    10  C    0.138044
    11  C   -0.380223
    12  C   -1.319516
    17  Cl   0.392060
    18  Cl   0.375615
    19  Cl   0.498255
    20  Cl   0.435342
    21  Cl   0.538731
    22  Cl   0.375836
 Electronic spatial extent (au):  <R**2>=           8300.8579
 Charge=             -0.0000 electrons
 Dipole moment (field-independent basis, Debye):
    X=             -1.1281    Y=             -0.0029    Z=             -0.1064  Tot=              1.1331
 Quadrupole moment (field-independent basis, Debye-Ang):
   XX=           -147.3224   YY=           -144.7961   ZZ=           -144.3983
   XY=              0.1019   XZ=              3.6791   YZ=              0.0122
 Traceless Quadrupole moment (field-independent basis, Debye-Ang):
   XX=             -1.8168   YY=              0.7095   ZZ=              1.1073
   XY=              0.1019   XZ=              3.6791   YZ=              0.0122
 Octapole moment (field-independent basis, Debye-Ang**2):
  XXX=             -3.6073  YYY=             -0.0413  ZZZ=              2.1011  XYY=             -8.9665
  XXY=              0.3786  XXZ=             13.6263  XZZ=             11.6920  YZZ=              0.0827
  YYZ=             -0.4486  XYZ=              0.5660
 Hexadecapole moment (field-independent basis, Debye-Ang**3):
 XXXX=          -7949.3528 YYYY=          -1479.2409 ZZZZ=          -1460.4200 XXXY=              0.5435
 XXXZ=             21.2472 YYYX=              0.0889 YYYZ=             -2.4572 ZZZX=            -26.8744
 ZZZY=              2.2138 XXYY=          -1533.9160 XXZZ=          -1558.1611 YYZZ=           -518.1280
 XXYZ=             -0.7643 YYXZ=              1.1306 ZZXY=             -0.8088
 N-N= 2.017935370223D+03 E-N=-1.166480841957D+04  KE= 3.212692003626D+03
 1\1\GINC-CN348\FOpt\RB3LYP\6-311+G(d,p)\C12H4Cl6\20CY91R06\03-Apr-2022
 \0\\# opt b3lyp/6-311+g(d,p) scf=xqc\\Title Card Required\\0,1\C,1.437
 6475173,-0.3457871743,-0.0348508504\C,2.2085511671,0.0167891876,-1.148
 5140036\C,2.9245852041,1.2075810631,-1.2085154234\C,2.8699075906,2.067
 469757,-0.1190010866\C,2.1238196037,1.7602599614,1.0116395164\C,1.4210
 129759,0.5603203643,1.0350186276\C,0.6878673811,-1.6330332907,0.015332
 0191\C,1.3079223721,-2.7754143292,0.5225717233\C,0.6442515543,-3.99637
 85006,0.5868514564\C,-0.6752001478,-4.0873652004,0.1341411508\C,-1.310
 8865954,-2.958759992,-0.3751120498\C,-0.6323620476,-1.7478058375,-0.43
 15837388\H,3.5074473776,1.4544213717,-2.0844067275\H,2.0866448743,2.43
 49862918,1.8549648816\H,2.3293857193,-2.714796617,0.8753890985\H,-2.33
 13524885,-3.028864814,-0.7252618721\Cl,-1.4719646137,-0.3543194175,-1.
 0800481925\Cl,0.483124463,0.1933557848,2.4689862771\Cl,-1.5591211934,-
 5.5891504268,0.1887393202\Cl,3.762860219,3.5732244016,-0.1717813487\Cl
 ,1.4870183847,-5.3798763343,1.2339980614\Cl,2.2874967723,-1.052032169,
 -2.5348391589\\Version=EM64L-G16RevB.01\State=1-A\HF=-3221.1387354\RMS
 D=5.055e-09\RMSF=1.177e-05\Dipole=0.2215378,0.3865174,-0.0162619\Quadr
 upole=2.3503241,-2.7533995,0.4030753,0.878225,0.437551,1.1320036\PG=C0
 1 [X(C12H4Cl6)]\\@


 LOVE IS BLIND, THAT'S WHY ALL THE WORLD LOVES A LOUVER.
 Job cpu time:       2 days  2 hours 45 minutes 38.4 seconds.
 Elapsed time:       0 days  3 hours 56 minutes 51.7 seconds.
 File lengths (MBytes):  RWF=    140 Int=      0 D2E=      0 Chk=     21 Scr=      1
 Normal termination of Gaussian 16 at Sun Apr  3 15:23:13 2022.
