 Entering Gaussian System, Link 0=g16
 Input=2,2prime,3,5,5prime-Pentachlorobiphenyl.gjf
 Output=2,2prime,3,5,5prime-Pentachlorobiphenyl.log
 Initial command:
 /opt/g16/l1.exe "/scratch/gour/Gau-44371.inp" -scrdir="/scratch/gour/"
 Entering Link 1 = /opt/g16/l1.exe PID=     44372.
  
 Copyright (c) 1988-2017, Gaussian, Inc.  All Rights Reserved.
  
 This is part of the Gaussian(R) 16 program.  It is based on
 the Gaussian(R) 09 system (copyright 2009, Gaussian, Inc.),
 the Gaussian(R) 03 system (copyright 2003, Gaussian, Inc.),
 the Gaussian(R) 98 system (copyright 1998, Gaussian, Inc.),
 the Gaussian(R) 94 system (copyright 1995, Gaussian, Inc.),
 the Gaussian 92(TM) system (copyright 1992, Gaussian, Inc.),
 the Gaussian 90(TM) system (copyright 1990, Gaussian, Inc.),
 the Gaussian 88(TM) system (copyright 1988, Gaussian, Inc.),
 the Gaussian 86(TM) system (copyright 1986, Carnegie Mellon
 University), and the Gaussian 82(TM) system (copyright 1983,
 Carnegie Mellon University). Gaussian is a federally registered
 trademark of Gaussian, Inc.
  
 This software contains proprietary and confidential information,
 including trade secrets, belonging to Gaussian, Inc.
  
 This software is provided under written license and may be
 used, copied, transmitted, or stored only in accord with that
 written license.
  
 The following legend is applicable only to US Government
 contracts under FAR:
  
                    RESTRICTED RIGHTS LEGEND
  
 Use, reproduction and disclosure by the US Government is
 subject to restrictions as set forth in subparagraphs (a)
 and (c) of the Commercial Computer Software - Restricted
 Rights clause in FAR 52.227-19.
  
 Gaussian, Inc.
 340 Quinnipiac St., Bldg. 40, Wallingford CT 06492
  
  
 ---------------------------------------------------------------
 Warning -- This program may not be used in any manner that
 competes with the business of Gaussian, Inc. or will provide
 assistance to any competitor of Gaussian, Inc.  The licensee
 of this program is prohibited from giving any competitor of
 Gaussian, Inc. access to this program.  By using this program,
 the user acknowledges that Gaussian, Inc. is engaged in the
 business of creating and licensing software in the field of
 computational chemistry and represents and warrants to the
 licensee that it is not a competitor of Gaussian, Inc. and that
 it will not use this program in any manner prohibited above.
 ---------------------------------------------------------------
  

 Cite this work as:
 Gaussian 16, Revision B.01,
 M. J. Frisch, G. W. Trucks, H. B. Schlegel, G. E. Scuseria, 
 M. A. Robb, J. R. Cheeseman, G. Scalmani, V. Barone, 
 G. A. Petersson, H. Nakatsuji, X. Li, M. Caricato, A. V. Marenich, 
 J. Bloino, B. G. Janesko, R. Gomperts, B. Mennucci, H. P. Hratchian, 
 J. V. Ortiz, A. F. Izmaylov, J. L. Sonnenberg, D. Williams-Young, 
 F. Ding, F. Lipparini, F. Egidi, J. Goings, B. Peng, A. Petrone, 
 T. Henderson, D. Ranasinghe, V. G. Zakrzewski, J. Gao, N. Rega, 
 G. Zheng, W. Liang, M. Hada, M. Ehara, K. Toyota, R. Fukuda, 
 J. Hasegawa, M. Ishida, T. Nakajima, Y. Honda, O. Kitao, H. Nakai, 
 T. Vreven, K. Throssell, J. A. Montgomery, Jr., J. E. Peralta, 
 F. Ogliaro, M. J. Bearpark, J. J. Heyd, E. N. Brothers, K. N. Kudin, 
 V. N. Staroverov, T. A. Keith, R. Kobayashi, J. Normand, 
 K. Raghavachari, A. P. Rendell, J. C. Burant, S. S. Iyengar, 
 J. Tomasi, M. Cossi, J. M. Millam, M. Klene, C. Adamo, R. Cammi, 
 J. W. Ochterski, R. L. Martin, K. Morokuma, O. Farkas, 
 J. B. Foresman, and D. J. Fox, Gaussian, Inc., Wallingford CT, 2016.
 
 ******************************************
 Gaussian 16:  EM64L-G16RevB.01 20-Dec-2017
                16-Mar-2022 
 ******************************************
 %mem=10GB
 %nprocshared=4
 Will use up to    4 processors via shared memory.
 --------------------------------
 # opt b3lyp/6-311+g(d,p) scf=xqc
 --------------------------------
 1/18=20,19=15,26=3,38=1/1,3;
 2/9=110,12=2,17=6,18=5,40=1/2;
 3/5=4,6=6,7=111,11=2,25=1,30=1,71=1,74=-5/1,2,3;
 4//1;
 5/5=2,8=3,13=1,38=5/2,8;
 6/7=2,8=2,9=2,10=2,28=1/1;
 7//1,2,3,16;
 1/18=20,19=15,26=3/3(2);
 2/9=110/2;
 99//99;
 2/9=110/2;
 3/5=4,6=6,7=111,11=2,25=1,30=1,71=1,74=-5/1,2,3;
 4/5=5,16=3,69=1/1;
 5/5=2,8=3,13=1,38=5/2,8;
 7//1,2,3,16;
 1/18=20,19=15,26=3/3(-5);
 2/9=110/2;
 6/7=2,8=2,9=2,10=2,19=2,28=1/1;
 99/9=1/99;
 -------------------
 Title Card Required
 -------------------
 Symbolic Z-matrix:
 Charge =  0 Multiplicity = 1
 C                    -0.90206   2.07407   0.60359 
 C                     0.43032   2.10395   0.17024 
 C                     1.13821   3.31341   0.16417 
 C                     0.51372   4.49297   0.59144 
 C                    -0.81866   4.46309   1.02479 
 C                    -1.52655   3.25363   1.03086 
 C                    -1.67997   0.745     0.61026 
 C                    -1.05548  -0.43456   0.18299 
 C                    -1.76337  -1.64401   0.18906 
 C                    -3.09575  -1.6739    0.62241 
 C                    -3.72024  -0.49434   1.04969 
 C                    -3.01235   0.71511   1.04361 
 H                     0.90713   1.20333  -0.15599 
 H                     1.05422   5.41641   0.58681 
 H                    -1.29547   5.36371   1.35102 
 H                    -0.03818  -0.41175  -0.14788 
 H                    -3.63625  -2.59734   0.62705 
 Cl                   -3.79663   2.19651   1.58022 
 Cl                   -3.19987   3.2161    1.57509 
 Cl                   -5.39356  -0.53187   1.59393 
 Cl                   -0.97909  -3.12542  -0.34755 
 Cl                    2.81153   3.35094  -0.38006 
 

 GradGradGradGradGradGradGradGradGradGradGradGradGradGradGradGradGradGrad
 Berny optimization.
 Initialization pass.
                           ----------------------------
                           !    Initial Parameters    !
                           ! (Angstroms and Degrees)  !
 --------------------------                            --------------------------
 ! Name  Definition              Value          Derivative Info.                !
 --------------------------------------------------------------------------------
 ! R1    R(1,2)                  1.4014         estimate D2E/DX2                !
 ! R2    R(1,6)                  1.4014         estimate D2E/DX2                !
 ! R3    R(1,7)                  1.54           estimate D2E/DX2                !
 ! R4    R(2,3)                  1.4014         estimate D2E/DX2                !
 ! R5    R(2,13)                 1.07           estimate D2E/DX2                !
 ! R6    R(3,4)                  1.4014         estimate D2E/DX2                !
 ! R7    R(3,22)                 1.76           estimate D2E/DX2                !
 ! R8    R(4,5)                  1.4014         estimate D2E/DX2                !
 ! R9    R(4,14)                 1.07           estimate D2E/DX2                !
 ! R10   R(5,6)                  1.4014         estimate D2E/DX2                !
 ! R11   R(5,15)                 1.07           estimate D2E/DX2                !
 ! R12   R(6,19)                 1.76           estimate D2E/DX2                !
 ! R13   R(7,8)                  1.4014         estimate D2E/DX2                !
 ! R14   R(7,12)                 1.4014         estimate D2E/DX2                !
 ! R15   R(8,9)                  1.4014         estimate D2E/DX2                !
 ! R16   R(8,16)                 1.07           estimate D2E/DX2                !
 ! R17   R(9,10)                 1.4014         estimate D2E/DX2                !
 ! R18   R(9,21)                 1.76           estimate D2E/DX2                !
 ! R19   R(10,11)                1.4014         estimate D2E/DX2                !
 ! R20   R(10,17)                1.07           estimate D2E/DX2                !
 ! R21   R(11,12)                1.4014         estimate D2E/DX2                !
 ! R22   R(11,20)                1.76           estimate D2E/DX2                !
 ! R23   R(12,18)                1.76           estimate D2E/DX2                !
 ! R24   R(18,19)                1.1814         estimate D2E/DX2                !
 ! A1    A(2,1,6)              120.0            estimate D2E/DX2                !
 ! A2    A(2,1,7)              120.0            estimate D2E/DX2                !
 ! A3    A(6,1,7)              120.0            estimate D2E/DX2                !
 ! A4    A(1,2,3)              120.0            estimate D2E/DX2                !
 ! A5    A(1,2,13)             120.0            estimate D2E/DX2                !
 ! A6    A(3,2,13)             120.0            estimate D2E/DX2                !
 ! A7    A(2,3,4)              120.0            estimate D2E/DX2                !
 ! A8    A(2,3,22)             120.0            estimate D2E/DX2                !
 ! A9    A(4,3,22)             120.0            estimate D2E/DX2                !
 ! A10   A(3,4,5)              120.0            estimate D2E/DX2                !
 ! A11   A(3,4,14)             120.0            estimate D2E/DX2                !
 ! A12   A(5,4,14)             120.0            estimate D2E/DX2                !
 ! A13   A(4,5,6)              120.0            estimate D2E/DX2                !
 ! A14   A(4,5,15)             120.0            estimate D2E/DX2                !
 ! A15   A(6,5,15)             120.0            estimate D2E/DX2                !
 ! A16   A(1,6,5)              120.0            estimate D2E/DX2                !
 ! A17   A(1,6,19)             120.0            estimate D2E/DX2                !
 ! A18   A(5,6,19)             120.0            estimate D2E/DX2                !
 ! A19   A(1,7,8)              120.0            estimate D2E/DX2                !
 ! A20   A(1,7,12)             120.0            estimate D2E/DX2                !
 ! A21   A(8,7,12)             120.0            estimate D2E/DX2                !
 ! A22   A(7,8,9)              120.0            estimate D2E/DX2                !
 ! A23   A(7,8,16)             120.0            estimate D2E/DX2                !
 ! A24   A(9,8,16)             120.0            estimate D2E/DX2                !
 ! A25   A(8,9,10)             120.0            estimate D2E/DX2                !
 ! A26   A(8,9,21)             120.0            estimate D2E/DX2                !
 ! A27   A(10,9,21)            120.0            estimate D2E/DX2                !
 ! A28   A(9,10,11)            120.0            estimate D2E/DX2                !
 ! A29   A(9,10,17)            120.0            estimate D2E/DX2                !
 ! A30   A(11,10,17)           120.0            estimate D2E/DX2                !
 ! A31   A(10,11,12)           120.0            estimate D2E/DX2                !
 ! A32   A(10,11,20)           120.0            estimate D2E/DX2                !
 ! A33   A(12,11,20)           120.0            estimate D2E/DX2                !
 ! A34   A(7,12,11)            120.0            estimate D2E/DX2                !
 ! A35   A(7,12,18)            120.0            estimate D2E/DX2                !
 ! A36   A(11,12,18)           120.0            estimate D2E/DX2                !
 ! A37   A(12,18,19)           120.0            estimate D2E/DX2                !
 ! A38   A(6,19,18)            120.0            estimate D2E/DX2                !
 ! D1    D(6,1,2,3)              0.0001         estimate D2E/DX2                !
 ! D2    D(6,1,2,13)           180.0            estimate D2E/DX2                !
 ! D3    D(7,1,2,3)           -180.0            estimate D2E/DX2                !
 ! D4    D(7,1,2,13)            -0.0001         estimate D2E/DX2                !
 ! D5    D(2,1,6,5)             -0.0001         estimate D2E/DX2                !
 ! D6    D(2,1,6,19)           180.0            estimate D2E/DX2                !
 ! D7    D(7,1,6,5)            180.0            estimate D2E/DX2                !
 ! D8    D(7,1,6,19)             0.0            estimate D2E/DX2                !
 ! D9    D(2,1,7,8)             -0.0001         estimate D2E/DX2                !
 ! D10   D(2,1,7,12)           179.9998         estimate D2E/DX2                !
 ! D11   D(6,1,7,8)            179.9999         estimate D2E/DX2                !
 ! D12   D(6,1,7,12)            -0.0002         estimate D2E/DX2                !
 ! D13   D(1,2,3,4)              0.0            estimate D2E/DX2                !
 ! D14   D(1,2,3,22)           180.0            estimate D2E/DX2                !
 ! D15   D(13,2,3,4)          -179.9999         estimate D2E/DX2                !
 ! D16   D(13,2,3,22)            0.0001         estimate D2E/DX2                !
 ! D17   D(2,3,4,5)             -0.0001         estimate D2E/DX2                !
 ! D18   D(2,3,4,14)           180.0            estimate D2E/DX2                !
 ! D19   D(22,3,4,5)           179.9999         estimate D2E/DX2                !
 ! D20   D(22,3,4,14)            0.0            estimate D2E/DX2                !
 ! D21   D(3,4,5,6)              0.0001         estimate D2E/DX2                !
 ! D22   D(3,4,5,15)          -179.9999         estimate D2E/DX2                !
 ! D23   D(14,4,5,6)          -180.0            estimate D2E/DX2                !
 ! D24   D(14,4,5,15)            0.0            estimate D2E/DX2                !
 ! D25   D(4,5,6,1)              0.0            estimate D2E/DX2                !
 ! D26   D(4,5,6,19)           179.9999         estimate D2E/DX2                !
 ! D27   D(15,5,6,1)           180.0            estimate D2E/DX2                !
 ! D28   D(15,5,6,19)           -0.0001         estimate D2E/DX2                !
 ! D29   D(1,6,19,18)            0.0006         estimate D2E/DX2                !
 ! D30   D(5,6,19,18)         -179.9994         estimate D2E/DX2                !
 ! D31   D(1,7,8,9)            179.9999         estimate D2E/DX2                !
 ! D32   D(1,7,8,16)             0.0001         estimate D2E/DX2                !
 ! D33   D(12,7,8,9)             0.0001         estimate D2E/DX2                !
 ! D34   D(12,7,8,16)         -179.9998         estimate D2E/DX2                !
 ! D35   D(1,7,12,11)         -179.9999         estimate D2E/DX2                !
 ! D36   D(1,7,12,18)            0.0            estimate D2E/DX2                !
 ! D37   D(8,7,12,11)           -0.0001         estimate D2E/DX2                !
 ! D38   D(8,7,12,18)          179.9999         estimate D2E/DX2                !
 ! D39   D(7,8,9,10)             0.0            estimate D2E/DX2                !
 ! D40   D(7,8,9,21)           180.0            estimate D2E/DX2                !
 ! D41   D(16,8,9,10)          179.9998         estimate D2E/DX2                !
 ! D42   D(16,8,9,21)           -0.0002         estimate D2E/DX2                !
 ! D43   D(8,9,10,11)            0.0            estimate D2E/DX2                !
 ! D44   D(8,9,10,17)         -179.9999         estimate D2E/DX2                !
 ! D45   D(21,9,10,11)         180.0            estimate D2E/DX2                !
 ! D46   D(21,9,10,17)           0.0001         estimate D2E/DX2                !
 ! D47   D(9,10,11,12)           0.0            estimate D2E/DX2                !
 ! D48   D(9,10,11,20)        -179.9998         estimate D2E/DX2                !
 ! D49   D(17,10,11,12)        179.9999         estimate D2E/DX2                !
 ! D50   D(17,10,11,20)          0.0001         estimate D2E/DX2                !
 ! D51   D(10,11,12,7)           0.0            estimate D2E/DX2                !
 ! D52   D(10,11,12,18)       -179.9999         estimate D2E/DX2                !
 ! D53   D(20,11,12,7)         179.9999         estimate D2E/DX2                !
 ! D54   D(20,11,12,18)         -0.0001         estimate D2E/DX2                !
 ! D55   D(7,12,18,19)           0.0005         estimate D2E/DX2                !
 ! D56   D(11,12,18,19)       -179.9995         estimate D2E/DX2                !
 ! D57   D(12,18,19,6)          -0.0008         estimate D2E/DX2                !
 --------------------------------------------------------------------------------
 Trust Radius=3.00D-01 FncErr=1.00D-07 GrdErr=1.00D-06 EigMax=2.50D+02 EigMin=1.00D-04
 Number of steps in this run=    129 maximum allowed number of steps=    132.
 GradGradGradGradGradGradGradGradGradGradGradGradGradGradGradGradGradGrad

                          Input orientation:                          
 ---------------------------------------------------------------------
 Center     Atomic      Atomic             Coordinates (Angstroms)
 Number     Number       Type             X           Y           Z
 ---------------------------------------------------------------------
      1          6           0       -0.902063    2.074069    0.603588
      2          6           0        0.430318    2.103955    0.170241
      3          6           0        1.138211    3.313406    0.164169
      4          6           0        0.513724    4.492971    0.591444
      5          6           0       -0.818658    4.463085    1.024789
      6          6           0       -1.526551    3.253634    1.030861
      7          6           0       -1.679968    0.745002    0.610262
      8          6           0       -1.055481   -0.434564    0.182987
      9          6           0       -1.763374   -1.644015    0.189061
     10          6           0       -3.095754   -1.673901    0.622411
     11          6           0       -3.720241   -0.494336    1.049687
     12          6           0       -3.012348    0.715115    1.043612
     13          1           0        0.907128    1.203330   -0.155990
     14          1           0        1.054217    5.416413    0.586808
     15          1           0       -1.295468    5.363710    1.351021
     16          1           0       -0.038178   -0.411745   -0.147883
     17          1           0       -3.636245   -2.597345    0.627051
     18         17           0       -3.796633    2.196515    1.580224
     19         17           0       -3.199872    3.216101    1.575095
     20         17           0       -5.393558   -0.531871    1.593929
     21         17           0       -0.979088   -3.125415   -0.347548
     22         17           0        2.811532    3.350939   -0.380064
 ---------------------------------------------------------------------
                    Distance matrix (angstroms):
                    1          2          3          4          5
     1  C    0.000000
     2  C    1.401400   0.000000
     3  C    2.427296   1.401400   0.000000
     4  C    2.802800   2.427296   1.401400   0.000000
     5  C    2.427296   2.802800   2.427296   1.401400   0.000000
     6  C    1.401400   2.427296   2.802800   2.427296   1.401400
     7  C    1.540000   2.548270   3.838989   4.342800   3.838989
     8  C    2.548270   2.941400   4.342800   5.187469   4.975106
     9  C    3.838989   4.342800   5.744200   6.558176   6.235992
    10  C    4.342800   5.187469   6.558176   7.145600   6.558176
    11  C    3.838989   4.975106   6.235992   6.558176   5.744200
    12  C    2.548270   3.813607   4.975106   5.187469   4.342800
    13  H    2.146700   1.070000   2.146700   3.396345   3.872800
    14  H    3.872800   3.396345   2.146700   1.070000   2.146700
    15  H    3.396345   3.872800   3.396345   2.146700   1.070000
    16  H    2.736837   2.578650   3.918930   4.990735   5.074276
    17  H    5.412800   6.232802   7.612271   8.215600   7.612271
    18  Cl   3.057342   4.456874   5.254079   4.983028   3.783409
    19  Cl   2.743718   4.048303   4.562800   4.048303   2.743718
    20  Cl   5.286324   6.549198   7.713260   7.819846   6.797295
    21  Cl   5.286324   5.440665   6.797295   7.819846   7.713260
    22  Cl   4.048303   2.743718   1.760000   2.743718   4.048303
                    6          7          8          9         10
     6  C    0.000000
     7  C    2.548270   0.000000
     8  C    3.813607   1.401400   0.000000
     9  C    4.975106   2.427296   1.401400   0.000000
    10  C    5.187469   2.802800   2.427296   1.401400   0.000000
    11  C    4.342800   2.427296   2.802800   2.427296   1.401400
    12  C    2.941400   1.401400   2.427296   2.802800   2.427296
    13  H    3.396345   2.736837   2.578650   3.918930   4.990735
    14  H    3.396345   5.412800   6.232802   7.612271   8.215600
    15  H    2.146700   4.693509   5.919617   7.118798   7.300676
    16  H    4.127917   2.146700   1.070000   2.146700   3.396345
    17  H    6.232802   3.872800   3.396345   2.146700   1.070000
    18  Cl   2.563702   2.743718   4.048303   4.562800   4.048303
    19  Cl   1.760000   3.057342   4.456874   5.254079   4.983028
    20  Cl   5.440665   4.048303   4.562800   4.048303   2.743718
    21  Cl   6.549198   4.048303   2.743718   1.760000   2.743718
    22  Cl   4.562800   5.286324   5.440665   6.797295   7.819846
                   11         12         13         14         15
    11  C    0.000000
    12  C    1.401400   0.000000
    13  H    5.074276   4.127917   0.000000
    14  H    7.612271   6.232802   4.280590   0.000000
    15  H    6.347206   4.965039   4.942800   2.471400   0.000000
    16  H    3.872800   3.396345   1.871400   5.974992   6.097816
    17  H    2.146700   3.396345   5.974992   9.285600   8.329571
    18  Cl   2.743718   1.760000   5.111382   5.906383   4.042212
    19  Cl   3.783409   2.563702   4.890332   4.890332   2.879094
    20  Cl   1.760000   2.743718   6.765486   8.830073   7.184095
    21  Cl   4.048303   4.562800   4.725732   8.830073   8.663168
    22  Cl   7.713260   6.549198   2.879094   2.879094   4.890333
                   16         17         18         19         20
    16  H    0.000000
    17  H    4.280590   0.000000
    18  Cl   4.890332   4.890332   0.000000
    19  Cl   5.111382   5.906383   1.181400   0.000000
    20  Cl   5.632800   2.879094   3.161400   4.342800   0.000000
    21  Cl   2.879094   2.879094   6.322800   6.988795   5.475705
    22  Cl   4.725732   8.830073   6.988795   6.322800   9.289584
                   21         22
    21  Cl   0.000000
    22  Cl   7.504200   0.000000
 Stoichiometry    C12H5Cl5
 Framework group  C1[X(C12H5Cl5)]
 Deg. of freedom    60
 Full point group                 C1      NOp   1
 Largest Abelian subgroup         C1      NOp   1
 Largest concise Abelian subgroup C1      NOp   1
                         Standard orientation:                         
 ---------------------------------------------------------------------
 Center     Atomic      Atomic             Coordinates (Angstroms)
 Number     Number       Type             X           Y           Z
 ---------------------------------------------------------------------
      1          6           0        1.173503   -0.061638    0.000002
      2          6           0        2.189959    0.903110    0.000000
      3          6           0        3.533683    0.505207   -0.000001
      4          6           0        3.860952   -0.857444   -0.000002
      5          6           0        2.844495   -1.822192    0.000002
      6          6           0        1.500771   -1.424289    0.000004
      7          6           0       -0.303118    0.375618    0.000003
      8          6           0       -0.630386    1.738268    0.000003
      9          6           0       -1.974111    2.136171    0.000002
     10          6           0       -2.990567    1.171423    0.000001
     11          6           0       -2.663298   -0.191228   -0.000000
     12          6           0       -1.319574   -0.589131    0.000000
     13          1           0        1.940082    1.943524   -0.000002
     14          1           0        4.886915   -1.161251   -0.000003
     15          1           0        3.094372   -2.862606    0.000004
     16          1           0        0.145701    2.474875    0.000001
     17          1           0       -4.016530    1.475230   -0.000002
     18         17           0       -0.908562   -2.300466   -0.000003
     19         17           0        0.224217   -2.635904    0.000007
     20         17           0       -3.939852   -1.402843   -0.000007
     21         17           0       -2.385123    3.847507    0.000003
     22         17           0        4.810237    1.716822   -0.000005
 ---------------------------------------------------------------------
 Rotational constants (GHZ):           0.3775497           0.2081111           0.1341600
 Standard basis: 6-311+G(d,p) (5D, 7F)
 There are   461 symmetry adapted cartesian basis functions of A   symmetry.
 There are   444 symmetry adapted basis functions of A   symmetry.
   444 basis functions,   737 primitive gaussians,   461 cartesian basis functions
    81 alpha electrons       81 beta electrons
       nuclear repulsion energy      1814.5094406625 Hartrees.
 NAtoms=   22 NActive=   22 NUniq=   22 SFac= 1.00D+00 NAtFMM=   60 NAOKFM=F Big=F
 Integral buffers will be    131072 words long.
 Raffenetti 2 integral format.
 Two-electron integral symmetry is turned on.
 One-electron integrals computed using PRISM.
 NBasis=   444 RedAO= T EigKep=  1.04D-06  NBF=   444
 NBsUse=   439 1.00D-06 EigRej=  6.42D-07 NBFU=   439
 ExpMin= 4.38D-02 ExpMax= 1.06D+05 ExpMxC= 3.62D+03 IAcc=3 IRadAn=         5 AccDes= 0.00D+00
 Harris functional with IExCor=  402 and IRadAn=       5 diagonalized for initial guess.
 HarFok:  IExCor=  402 AccDes= 0.00D+00 IRadAn=         5 IDoV= 1 UseB2=F ITyADJ=14
 ICtDFT=  3500011 ScaDFX=  1.000000  1.000000  1.000000  1.000000
 FoFCou: FMM=F IPFlag=           0 FMFlag=      100000 FMFlg1=           0
         NFxFlg=           0 DoJE=T BraDBF=F KetDBF=T FulRan=T
         wScrn=  0.000000 ICntrl=       500 IOpCl=  0 I1Cent=   200000004 NGrid=           0
         NMat0=    1 NMatS0=      1 NMatT0=    0 NMatD0=    1 NMtDS0=    0 NMtDT0=    0
 Petite list used in FoFCou.
 Requested convergence on RMS density matrix=1.00D-08 within  32 cycles.
 Requested convergence on MAX density matrix=1.00D-06.
 Requested convergence on             energy=1.00D-06.
 No special actions if energy rises.
 SCF Done:  E(RB3LYP) =  -2759.90011195     A.U. after   20 cycles
            NFock= 20  Conv=0.30D-08     -V/T= 1.9999
 QCSCF skips out because SCF is already converged.

 **********************************************************************

            Population analysis using the SCF Density.

 **********************************************************************

 Orbital symmetries:
       Occupied  (A) (A) (A) (A) (A) (A) (A) (A) (A) (A) (A) (A)
                 (A) (A) (A) (A) (A) (A) (A) (A) (A) (A) (A) (A)
                 (A) (A) (A) (A) (A) (A) (A) (A) (A) (A) (A) (A)
                 (A) (A) (A) (A) (A) (A) (A) (A) (A) (A) (A) (A)
                 (A) (A) (A) (A) (A) (A) (A) (A) (A) (A) (A) (A)
                 (A) (A) (A) (A) (A) (A) (A) (A) (A) (A) (A) (A)
                 (A) (A) (A) (A) (A) (A) (A) (A) (A)
       Virtual   (A) (A) (A) (A) (A) (A) (A) (A) (A) (A) (A) (A)
                 (A) (A) (A) (A) (A) (A) (A) (A) (A) (A) (A) (A)
                 (A) (A) (A) (A) (A) (A) (A) (A) (A) (A) (A) (A)
                 (A) (A) (A) (A) (A) (A) (A) (A) (A) (A) (A) (A)
                 (A) (A) (A) (A) (A) (A) (A) (A) (A) (A) (A) (A)
                 (A) (A) (A) (A) (A) (A) (A) (A) (A) (A) (A) (A)
                 (A) (A) (A) (A) (A) (A) (A) (A) (A) (A) (A) (A)
                 (A) (A) (A) (A) (A) (A) (A) (A) (A) (A) (A) (A)
                 (A) (A) (A) (A) (A) (A) (A) (A) (A) (A) (A) (A)
                 (A) (A) (A) (A) (A) (A) (A) (A) (A) (A) (A) (A)
                 (A) (A) (A) (A) (A) (A) (A) (A) (A) (A) (A) (A)
                 (A) (A) (A) (A) (A) (A) (A) (A) (A) (A) (A) (A)
                 (A) (A) (A) (A) (A) (A) (A) (A) (A) (A) (A) (A)
                 (A) (A) (A) (A) (A) (A) (A) (A) (A) (A) (A) (A)
                 (A) (A) (A) (A) (A) (A) (A) (A) (A) (A) (A) (A)
                 (A) (A) (A) (A) (A) (A) (A) (A) (A) (A) (A) (A)
                 (A) (A) (A) (A) (A) (A) (A) (A) (A) (A) (A) (A)
                 (A) (A) (A) (A) (A) (A) (A) (A) (A) (A) (A) (A)
                 (A) (A) (A) (A) (A) (A) (A) (A) (A) (A) (A) (A)
                 (A) (A) (A) (A) (A) (A) (A) (A) (A) (A) (A) (A)
                 (A) (A) (A) (A) (A) (A) (A) (A) (A) (A) (A) (A)
                 (A) (A) (A) (A) (A) (A) (A) (A) (A) (A) (A) (A)
                 (A) (A) (A) (A) (A) (A) (A) (A) (A) (A) (A) (A)
                 (A) (A) (A) (A) (A) (A) (A) (A) (A) (A) (A) (A)
                 (A) (A) (A) (A) (A) (A) (A) (A) (A) (A) (A) (A)
                 (A) (A) (A) (A) (A) (A) (A) (A) (A) (A) (A) (A)
                 (A) (A) (A) (A) (A) (A) (A) (A) (A) (A) (A) (A)
                 (A) (A) (A) (A) (A) (A) (A) (A) (A) (A) (A) (A)
                 (A) (A) (A) (A) (A) (A) (A) (A) (A) (A) (A) (A)
                 (A) (A) (A) (A) (A) (A) (A) (A) (A) (A)
 The electronic state is 1-A.
 Alpha  occ. eigenvalues -- -101.66254-101.65892-101.56630-101.56309-101.56100
 Alpha  occ. eigenvalues --  -10.25400 -10.25351 -10.25006 -10.21636 -10.21298
 Alpha  occ. eigenvalues --  -10.20425 -10.20062 -10.19971 -10.19845 -10.19796
 Alpha  occ. eigenvalues --  -10.17724 -10.17652  -9.64896  -9.62750  -9.48093
 Alpha  occ. eigenvalues --   -9.47741  -9.47539  -7.43288  -7.38354  -7.38277
 Alpha  occ. eigenvalues --   -7.37887  -7.37659  -7.37210  -7.24536  -7.24212
 Alpha  occ. eigenvalues --   -7.24003  -7.23583  -7.23551  -7.23219  -7.23189
 Alpha  occ. eigenvalues --   -7.23021  -7.22990  -1.39306  -0.91894  -0.90423
 Alpha  occ. eigenvalues --   -0.88390  -0.86822  -0.84669  -0.80770  -0.80106
 Alpha  occ. eigenvalues --   -0.78591  -0.74896  -0.72518  -0.71620  -0.70437
 Alpha  occ. eigenvalues --   -0.66705  -0.62873  -0.60904  -0.59815  -0.57733
 Alpha  occ. eigenvalues --   -0.51587  -0.50216  -0.50177  -0.48255  -0.47517
 Alpha  occ. eigenvalues --   -0.45599  -0.44962  -0.42655  -0.42610  -0.41598
 Alpha  occ. eigenvalues --   -0.40976  -0.39696  -0.37710  -0.37366  -0.35942
 Alpha  occ. eigenvalues --   -0.35681  -0.34037  -0.33195  -0.32407  -0.32329
 Alpha  occ. eigenvalues --   -0.29554  -0.29233  -0.26813  -0.25413  -0.21178
 Alpha  occ. eigenvalues --   -0.16223
 Alpha virt. eigenvalues --   -0.06964  -0.05529  -0.02632  -0.02091  -0.00870
 Alpha virt. eigenvalues --   -0.00048   0.00259   0.00464   0.00993   0.01588
 Alpha virt. eigenvalues --    0.01927   0.02005   0.02572   0.03377   0.04588
 Alpha virt. eigenvalues --    0.04861   0.05334   0.06034   0.06212   0.06723
 Alpha virt. eigenvalues --    0.07132   0.08136   0.08175   0.08226   0.09334
 Alpha virt. eigenvalues --    0.09384   0.09798   0.10229   0.10240   0.10783
 Alpha virt. eigenvalues --    0.11185   0.11412   0.11862   0.11967   0.12753
 Alpha virt. eigenvalues --    0.13013   0.13239   0.13959   0.14042   0.15054
 Alpha virt. eigenvalues --    0.15262   0.15518   0.15765   0.15947   0.16708
 Alpha virt. eigenvalues --    0.16811   0.17200   0.17376   0.17740   0.17905
 Alpha virt. eigenvalues --    0.18590   0.18949   0.19475   0.19756   0.19828
 Alpha virt. eigenvalues --    0.20706   0.20926   0.21241   0.21245   0.22052
 Alpha virt. eigenvalues --    0.22759   0.22860   0.22904   0.23220   0.24323
 Alpha virt. eigenvalues --    0.24810   0.25379   0.25780   0.25876   0.26201
 Alpha virt. eigenvalues --    0.26375   0.26888   0.28001   0.28252   0.28379
 Alpha virt. eigenvalues --    0.28517   0.29062   0.30420   0.30836   0.31124
 Alpha virt. eigenvalues --    0.32490   0.32914   0.33338   0.33545   0.34504
 Alpha virt. eigenvalues --    0.36076   0.36402   0.36710   0.37667   0.39149
 Alpha virt. eigenvalues --    0.42186   0.42789   0.43641   0.43970   0.45273
 Alpha virt. eigenvalues --    0.45656   0.45797   0.45910   0.46145   0.46283
 Alpha virt. eigenvalues --    0.47100   0.47925   0.49098   0.49673   0.50590
 Alpha virt. eigenvalues --    0.51562   0.52479   0.52697   0.53181   0.54329
 Alpha virt. eigenvalues --    0.54997   0.55078   0.56379   0.56482   0.58408
 Alpha virt. eigenvalues --    0.58754   0.59065   0.59447   0.61074   0.61329
 Alpha virt. eigenvalues --    0.61800   0.62341   0.62916   0.63247   0.65364
 Alpha virt. eigenvalues --    0.65550   0.65942   0.66901   0.67546   0.67984
 Alpha virt. eigenvalues --    0.69390   0.70755   0.71184   0.71525   0.71600
 Alpha virt. eigenvalues --    0.72355   0.73062   0.77263   0.79762   0.80245
 Alpha virt. eigenvalues --    0.81407   0.82827   0.83788   0.84021   0.84332
 Alpha virt. eigenvalues --    0.84838   0.85157   0.85622   0.85795   0.86016
 Alpha virt. eigenvalues --    0.86131   0.86515   0.86527   0.87309   0.88629
 Alpha virt. eigenvalues --    0.88883   0.90304   0.91136   0.91509   0.92527
 Alpha virt. eigenvalues --    0.93089   0.94610   0.94856   0.95227   0.95878
 Alpha virt. eigenvalues --    0.96415   0.96720   0.97070   0.99729   0.99734
 Alpha virt. eigenvalues --    1.00364   1.01809   1.02221   1.04399   1.05110
 Alpha virt. eigenvalues --    1.06215   1.06784   1.09237   1.09434   1.10578
 Alpha virt. eigenvalues --    1.12154   1.15507   1.17664   1.20427   1.20823
 Alpha virt. eigenvalues --    1.21419   1.23830   1.24139   1.24275   1.27201
 Alpha virt. eigenvalues --    1.27536   1.28706   1.29892   1.30726   1.30935
 Alpha virt. eigenvalues --    1.33859   1.35496   1.37122   1.42963   1.44003
 Alpha virt. eigenvalues --    1.44336   1.47203   1.49988   1.50484   1.51558
 Alpha virt. eigenvalues --    1.52459   1.55396   1.57559   1.58320   1.58773
 Alpha virt. eigenvalues --    1.60123   1.61374   1.61977   1.65989   1.67572
 Alpha virt. eigenvalues --    1.69147   1.70600   1.71413   1.73570   1.76496
 Alpha virt. eigenvalues --    1.78226   1.81486   1.82601   1.83747   1.87988
 Alpha virt. eigenvalues --    1.88183   1.89206   1.90339   1.92349   1.92863
 Alpha virt. eigenvalues --    1.94692   1.95722   1.95865   1.96611   1.97771
 Alpha virt. eigenvalues --    1.98774   2.03512   2.03699   2.05408   2.06476
 Alpha virt. eigenvalues --    2.08221   2.09668   2.13021   2.14043   2.18453
 Alpha virt. eigenvalues --    2.18946   2.21056   2.24441   2.26183   2.27115
 Alpha virt. eigenvalues --    2.27372   2.28136   2.28538   2.29957   2.32573
 Alpha virt. eigenvalues --    2.33977   2.36074   2.36982   2.39951   2.40896
 Alpha virt. eigenvalues --    2.42195   2.44682   2.45920   2.46118   2.50862
 Alpha virt. eigenvalues --    2.54664   2.55377   2.55708   2.59143   2.60432
 Alpha virt. eigenvalues --    2.62050   2.64105   2.64328   2.66074   2.69542
 Alpha virt. eigenvalues --    2.70794   2.71909   2.74049   2.74823   2.75348
 Alpha virt. eigenvalues --    2.76139   2.76320   2.77830   2.79975   2.82022
 Alpha virt. eigenvalues --    2.82784   2.84760   2.86010   2.86217   2.90594
 Alpha virt. eigenvalues --    2.92871   2.95692   3.01424   3.06333   3.06877
 Alpha virt. eigenvalues --    3.08279   3.14439   3.15262   3.16685   3.19768
 Alpha virt. eigenvalues --    3.22726   3.24301   3.33259   3.34783   3.38250
 Alpha virt. eigenvalues --    3.42623   3.48726   3.55793   3.58673   3.63533
 Alpha virt. eigenvalues --    3.72012   3.78664   3.80840   3.90748   3.99867
 Alpha virt. eigenvalues --    4.06493   4.11333   4.20363   4.48362   4.80830
 Alpha virt. eigenvalues --    4.84263   9.74791   9.78173   9.78671   9.82046
 Alpha virt. eigenvalues --   10.55130  23.40415  23.56580  23.83961  23.86157
 Alpha virt. eigenvalues --   23.88503  23.93591  24.01308  24.02023  24.03399
 Alpha virt. eigenvalues --   24.05634  24.10106  24.12589  25.41090  25.82024
 Alpha virt. eigenvalues --   25.82274  25.82607  25.97973  26.10813  26.15222
 Alpha virt. eigenvalues --   26.20914  26.25489  26.59490  26.62318  26.65942
 Alpha virt. eigenvalues --   27.11309  27.42091  28.45338 215.74742 215.77510
 Alpha virt. eigenvalues --  215.78516 215.91022 216.87096
          Condensed to atoms (all electrons):
               1          2          3          4          5          6
     1  C   23.361020   1.879461  -4.012954  -3.343696  -4.836955   2.451814
     2  C    1.879461  20.451409  -3.767344  -4.723289   2.313270  -4.694379
     3  C   -4.012954  -3.767344  29.186105  -5.145078  -6.355760   1.570862
     4  C   -3.343696  -4.723289  -5.145078  21.987460   6.279557 -11.693354
     5  C   -4.836955   2.313270  -6.355760   6.279557  52.845867 -50.671377
     6  C    2.451814  -4.694379   1.570862 -11.693354 -50.671377  84.841981
     7  C    5.432255  -1.230990   0.895937  -0.052956  -6.579181   1.810484
     8  C   -1.215540  -2.097434  -2.656033  -0.068190   1.675212  -1.628255
     9  C   -1.946598  -0.148869   1.695345   0.043266  -1.489020  -1.634405
    10  C   -3.229698  -0.151032  -0.894252   0.171061   1.544973   0.933938
    11  C   -0.697882   0.347734   0.372445   0.021079   1.187978  -2.169240
    12  C    3.492738  -0.604867  -1.097348  -1.194511 -15.371762  14.034977
    13  H    0.182334   0.306306  -0.332212   0.074634   0.055325  -0.081727
    14  H    0.081941   0.084902   0.067173   0.344538   0.004877  -0.238466
    15  H    0.141212  -0.038517  -0.067726  -0.057052   0.140526   0.293948
    16  H    0.113308   0.038487  -0.047530  -0.011620   0.022403   0.025384
    17  H    0.008325  -0.001426  -0.000486  -0.000016   0.001674   0.004954
    18  Cl  -1.833814  -0.576195  -1.476341  -0.075215   2.906472  -0.120158
    19  Cl  -9.219721  -0.662330  -2.634837   4.325466  23.639083 -27.950721
    20  Cl   0.735562   0.125435   0.104487  -0.050468  -0.546964  -0.106521
    21  Cl  -0.131864  -0.034632   0.055603   0.006029  -0.029061  -0.093546
    22  Cl  -0.506030   0.032847  -0.551192  -0.177611   0.243328   0.385739
               7          8          9         10         11         12
     1  C    5.432255  -1.215540  -1.946598  -3.229698  -0.697882   3.492738
     2  C   -1.230990  -2.097434  -0.148869  -0.151032   0.347734  -0.604867
     3  C    0.895937  -2.656033   1.695345  -0.894252   0.372445  -1.097348
     4  C   -0.052956  -0.068190   0.043266   0.171061   0.021079  -1.194511
     5  C   -6.579181   1.675212  -1.489020   1.544973   1.187978 -15.371762
     6  C    1.810484  -1.628255  -1.634405   0.933938  -2.169240  14.034977
     7  C   23.059095  -3.132705  -3.821759  -2.805166   2.178960  -1.519732
     8  C   -3.132705  14.085564   0.720670  -2.488639  -2.125925   2.754660
     9  C   -3.821759   0.720670  20.595441  -5.767260  -3.054998   2.494511
    10  C   -2.805166  -2.488639  -5.767260  34.695503  -8.348672 -11.405536
    11  C    2.178960  -2.125925  -3.054998  -8.348672  24.795179  -9.517404
    12  C   -1.519732   2.754660   2.494511 -11.405536  -9.517404  55.739053
    13  H    0.010096   0.103274  -0.028821  -0.005634  -0.014834   0.029827
    14  H   -0.001666   0.004462  -0.000044   0.000076   0.000177  -0.003291
    15  H    0.019911  -0.001016   0.000817  -0.000399  -0.000140   0.028005
    16  H    0.058604   0.301698  -0.180248   0.082601  -0.037590  -0.057363
    17  H    0.086813   0.025905   0.012521   0.304797  -0.079751   0.001351
    18  Cl  -4.147904   0.574645  -0.433015   4.954760   1.602040 -15.396051
    19  Cl  -3.362612   1.878472  -1.224445   3.417812   1.445681 -21.468180
    20  Cl   0.415838  -0.275514   0.017540  -3.972822  -0.527194   5.655054
    21  Cl  -0.425223   0.347441  -0.776936  -0.285496   0.334041   0.221712
    22  Cl  -0.090245  -0.083381   0.013507  -0.006881   0.000236  -0.073456
              13         14         15         16         17         18
     1  C    0.182334   0.081941   0.141212   0.113308   0.008325  -1.833814
     2  C    0.306306   0.084902  -0.038517   0.038487  -0.001426  -0.576195
     3  C   -0.332212   0.067173  -0.067726  -0.047530  -0.000486  -1.476341
     4  C    0.074634   0.344538  -0.057052  -0.011620  -0.000016  -0.075215
     5  C    0.055325   0.004877   0.140526   0.022403   0.001674   2.906472
     6  C   -0.081727  -0.238466   0.293948   0.025384   0.004954  -0.120158
     7  C    0.010096  -0.001666   0.019911   0.058604   0.086813  -4.147904
     8  C    0.103274   0.004462  -0.001016   0.301698   0.025905   0.574645
     9  C   -0.028821  -0.000044   0.000817  -0.180248   0.012521  -0.433015
    10  C   -0.005634   0.000076  -0.000399   0.082601   0.304797   4.954760
    11  C   -0.014834   0.000177  -0.000140  -0.037590  -0.079751   1.602040
    12  C    0.029827  -0.003291   0.028005  -0.057363   0.001351 -15.396051
    13  H    0.557196  -0.000234   0.000030   0.006260   0.000004   0.016378
    14  H   -0.000234   0.522153  -0.009520   0.000001   0.000000  -0.000300
    15  H    0.000030  -0.009520   0.530948  -0.000003  -0.000000   0.030505
    16  H    0.006260   0.000001  -0.000003   0.553170  -0.000178   0.012831
    17  H    0.000004   0.000000  -0.000000  -0.000178   0.509448   0.015965
    18  Cl   0.016378  -0.000300   0.030505   0.012831   0.015965  30.265104
    19  Cl   0.017667   0.012949  -0.149688   0.015364   0.006687   2.085732
    20  Cl  -0.000513  -0.000007   0.000216  -0.001537  -0.038282  -2.237177
    21  Cl   0.000045   0.000000   0.000003  -0.028802  -0.012738  -0.039066
    22  Cl  -0.030463  -0.013840   0.001638   0.000199   0.000001  -0.004723
              19         20         21         22
     1  C   -9.219721   0.735562  -0.131864  -0.506030
     2  C   -0.662330   0.125435  -0.034632   0.032847
     3  C   -2.634837   0.104487   0.055603  -0.551192
     4  C    4.325466  -0.050468   0.006029  -0.177611
     5  C   23.639083  -0.546964  -0.029061   0.243328
     6  C  -27.950721  -0.106521  -0.093546   0.385739
     7  C   -3.362612   0.415838  -0.425223  -0.090245
     8  C    1.878472  -0.275514   0.347441  -0.083381
     9  C   -1.224445   0.017540  -0.776936   0.013507
    10  C    3.417812  -3.972822  -0.285496  -0.006881
    11  C    1.445681  -0.527194   0.334041   0.000236
    12  C  -21.468180   5.655054   0.221712  -0.073456
    13  H    0.017667  -0.000513   0.000045  -0.030463
    14  H    0.012949  -0.000007   0.000000  -0.013840
    15  H   -0.149688   0.000216   0.000003   0.001638
    16  H    0.015364  -0.001537  -0.028802   0.000199
    17  H    0.006687  -0.038282  -0.012738   0.000001
    18  Cl   2.085732  -2.237177  -0.039066  -0.004723
    19  Cl  48.761563  -2.252454  -0.010202  -0.045821
    20  Cl  -2.252454  19.398451   0.007719   0.000067
    21  Cl  -0.010202   0.007719  17.464407  -0.000656
    22  Cl  -0.045821   0.000067  -0.000656  17.483752
 Mulliken charges:
               1
     1  C   -0.905219
     2  C   -0.848548
     3  C    1.091136
     4  C   -0.660033
     5  C   -0.980466
     6  C    0.728069
     7  C   -0.797855
     8  C   -0.699373
     9  C    0.912800
    10  C   -0.744034
    11  C    0.288079
    12  C   -0.742385
    13  H    0.135064
    14  H    0.144118
    15  H    0.136302
    16  H    0.134561
    17  H    0.154433
    18  Cl   0.875527
    19  Cl   0.374538
    20  Cl   0.549082
    21  Cl   0.431220
    22  Cl   0.422984
 Sum of Mulliken charges =  -0.00000
 Mulliken charges with hydrogens summed into heavy atoms:
               1
     1  C   -0.905219
     2  C   -0.713484
     3  C    1.091136
     4  C   -0.515915
     5  C   -0.844163
     6  C    0.728069
     7  C   -0.797855
     8  C   -0.564812
     9  C    0.912800
    10  C   -0.589600
    11  C    0.288079
    12  C   -0.742385
    18  Cl   0.875527
    19  Cl   0.374538
    20  Cl   0.549082
    21  Cl   0.431220
    22  Cl   0.422984
 Electronic spatial extent (au):  <R**2>=           7023.1228
 Charge=             -0.0000 electrons
 Dipole moment (field-independent basis, Debye):
    X=              0.3138    Y=             -3.7272    Z=              0.0000  Tot=              3.7404
 Quadrupole moment (field-independent basis, Debye-Ang):
   XX=           -140.4902   YY=           -124.7241   ZZ=           -134.6728
   XY=             -3.0907   XZ=              0.0000   YZ=             -0.0000
 Traceless Quadrupole moment (field-independent basis, Debye-Ang):
   XX=             -7.1945   YY=              8.5716   ZZ=             -1.3771
   XY=             -3.0907   XZ=              0.0000   YZ=             -0.0000
 Octapole moment (field-independent basis, Debye-Ang**2):
  XXX=            -18.7180  YYY=            -60.8607  ZZZ=             -0.0000  XYY=              5.4621
  XXY=            -24.5571  XXZ=             -0.0000  XZZ=             -8.1123  YZZ=             -8.6520
  YYZ=              0.0000  XYZ=              0.0000
 Hexadecapole moment (field-independent basis, Debye-Ang**3):
 XXXX=          -6022.4725 YYYY=          -3074.4633 ZZZZ=           -160.4761 XXXY=           -113.7520
 XXXZ=              0.0002 YYYX=             89.5120 YYYZ=             -0.0002 ZZZX=              0.0000
 ZZZY=             -0.0000 XXYY=          -1519.5792 XXZZ=          -1067.3534 YYZZ=           -567.4357
 XXYZ=             -0.0000 YYXZ=              0.0001 ZZXY=             20.9515
 N-N= 1.814509440663D+03 E-N=-1.016559810482D+04  KE= 2.760301063232D+03
 Calling FoFJK, ICntrl=      2127 FMM=F ISym2X=0 I1Cent= 0 IOpClX= 0 NMat=1 NMatS=1 NMatT=0.
 ***** Axes restored to original set *****
 -------------------------------------------------------------------
 Center     Atomic                   Forces (Hartrees/Bohr)
 Number     Number              X              Y              Z
 -------------------------------------------------------------------
      1        6           0.004122044   -0.025180305   -0.006087097
      2        6           0.000273643    0.013428630    0.002432078
      3        6          -0.012732276   -0.000705956    0.004062239
      4        6          -0.004330225   -0.008092214   -0.000093389
      5        6           0.006933974   -0.024513632   -0.006888178
      6        6           0.101537775   -0.006795143   -0.034728960
      7        6           0.022413871    0.004391580   -0.006559637
      8        6          -0.010087570   -0.005514576    0.002287726
      9        6          -0.006523633    0.013539321    0.004692022
     10        6           0.001528841    0.003272020    0.000110852
     11        6           0.031611018    0.007324107   -0.009038949
     12        6           0.049500555   -0.095533065   -0.034249807
     13        1           0.007017058   -0.003992083   -0.003061619
     14        1           0.005688261    0.007932369   -0.000384243
     15        1          -0.005558574    0.011210946    0.003936850
     16        1           0.006823691   -0.004306777   -0.003057057
     17        1          -0.004744950   -0.008625573   -0.000056754
     18       17          -1.717536623   -2.707602416    0.057367539
     19       17           1.533455856    2.828495643    0.025983897
     20       17          -0.004235549   -0.001812893    0.001054947
     21       17          -0.002382170    0.003106456    0.001368269
     22       17          -0.002775016   -0.000026439    0.000909271
 -------------------------------------------------------------------
 Cartesian Forces:  Max     2.828495643 RMS     0.559568137

 GradGradGradGradGradGradGradGradGradGradGradGradGradGradGradGradGradGrad
 Berny optimization.
 FormGI is forming the generalized inverse of G from B-inverse, IUseBI=4.
 Internal  Forces:  Max     3.116680692 RMS     0.292498729
 Search for a local minimum.
 Step number   1 out of a maximum of  129
 All quantities printed in internal units (Hartrees-Bohrs-Radians)
 Mixed Optimization -- RFO/linear search
 Second derivative matrix not updated -- first step.
 ITU=  0
     Eigenvalues ---    0.01035   0.01214   0.01489   0.01712   0.01738
     Eigenvalues ---    0.01829   0.02070   0.02070   0.02070   0.02070
     Eigenvalues ---    0.02070   0.02070   0.02070   0.02070   0.02070
     Eigenvalues ---    0.02070   0.02070   0.02070   0.03966   0.16000
     Eigenvalues ---    0.16000   0.16000   0.16000   0.16000   0.22443
     Eigenvalues ---    0.23490   0.23501   0.23555   0.24620   0.25000
     Eigenvalues ---    0.25000   0.25000   0.25000   0.25000   0.25000
     Eigenvalues ---    0.25000   0.28334   0.29045   0.29447   0.29539
     Eigenvalues ---    0.29539   0.29539   0.37230   0.37230   0.37230
     Eigenvalues ---    0.37230   0.37230   0.40039   0.40819   0.41428
     Eigenvalues ---    0.41607   0.44578   0.45130   0.45389   0.45389
     Eigenvalues ---    0.45389   0.45389   0.45389   0.45389  16.61567
 RFO step:  Lambda=-6.28569556D-01 EMin= 1.03510890D-02
 Linear search not attempted -- first point.
 Iteration  1 RMS(Cart)=  0.03405486 RMS(Int)=  0.00053805
 Iteration  2 RMS(Cart)=  0.00133082 RMS(Int)=  0.00024395
 Iteration  3 RMS(Cart)=  0.00000070 RMS(Int)=  0.00024395
 Variable       Old X    -DE/DX   Delta X   Delta X   Delta X     New X
                                 (Linear)    (Quad)   (Total)
    R1        2.64826   0.01779   0.00000   0.00189   0.00182   2.65009
    R2        2.64826   0.10223   0.00000   0.01705   0.01671   2.66497
    R3        2.91018   0.11796   0.00000  -0.01431  -0.01484   2.89534
    R4        2.64826  -0.01229   0.00000  -0.00907  -0.00906   2.63921
    R5        2.02201   0.00742   0.00000   0.00741   0.00741   2.02942
    R6        2.64826  -0.03056   0.00000  -0.01140  -0.01133   2.63694
    R7        3.32592  -0.00292   0.00000  -0.00316  -0.00316   3.32276
    R8        2.64826  -0.02533   0.00000  -0.00885  -0.00878   2.63948
    R9        2.02201   0.00972   0.00000   0.00971   0.00971   2.03172
   R10        2.64826  -0.00642   0.00000  -0.00822  -0.00823   2.64004
   R11        2.02201   0.01311   0.00000   0.01310   0.01310   2.03511
   R12        3.32592   0.04793   0.00000   0.12274   0.12300   3.44892
   R13        2.64826   0.01729   0.00000   0.00142   0.00134   2.64960
   R14        2.64826   0.10208   0.00000   0.01699   0.01663   2.66489
   R15        2.64826  -0.01261   0.00000  -0.00939  -0.00938   2.63888
   R16        2.02201   0.00734   0.00000   0.00733   0.00733   2.02934
   R17        2.64826  -0.03284   0.00000  -0.01352  -0.01344   2.63483
   R18        3.32592  -0.00409   0.00000  -0.00443  -0.00443   3.32149
   R19        2.64826  -0.02701   0.00000  -0.01040  -0.01032   2.63794
   R20        2.02201   0.00984   0.00000   0.00983   0.00983   2.03184
   R21        2.64826  -0.00960   0.00000  -0.01113  -0.01114   2.63713
   R22        3.32592   0.00439   0.00000   0.00475   0.00475   3.33067
   R23        3.32592   0.06239   0.00000   0.13847   0.13870   3.46462
   R24        2.23252   3.11668   0.00000   0.18074   0.18127   2.41380
    A1        2.09440  -0.07888   0.00000  -0.00897  -0.00869   2.08571
    A2        2.09440  -0.16828   0.00000  -0.00412  -0.00344   2.09096
    A3        2.09440   0.24716   0.00000   0.01309   0.01212   2.10652
    A4        2.09440   0.04351   0.00000   0.00254   0.00237   2.09676
    A5        2.09440  -0.01729   0.00000   0.00439   0.00448   2.09887
    A6        2.09440  -0.02622   0.00000  -0.00693  -0.00684   2.08755
    A7        2.09440   0.01266   0.00000   0.00675   0.00673   2.10112
    A8        2.09440  -0.00627   0.00000  -0.00331  -0.00329   2.09110
    A9        2.09440  -0.00639   0.00000  -0.00344  -0.00343   2.09096
   A10        2.09440  -0.01135   0.00000  -0.00536  -0.00533   2.08906
   A11        2.09440   0.00470   0.00000   0.00145   0.00143   2.09582
   A12        2.09440   0.00665   0.00000   0.00392   0.00390   2.09830
   A13        2.09440   0.02245   0.00000   0.00963   0.00957   2.10396
   A14        2.09440  -0.01157   0.00000  -0.00525  -0.00522   2.08918
   A15        2.09440  -0.01088   0.00000  -0.00438  -0.00435   2.09005
   A16        2.09440   0.01161   0.00000  -0.00457  -0.00464   2.08975
   A17        2.09440   0.07184   0.00000   0.03383   0.03366   2.12806
   A18        2.09440  -0.08344   0.00000  -0.02926  -0.02902   2.06538
   A19        2.09440  -0.16958   0.00000  -0.00571  -0.00500   2.08940
   A20        2.09440   0.24548   0.00000   0.01123   0.01024   2.10464
   A21        2.09440  -0.07590   0.00000  -0.00552  -0.00524   2.08915
   A22        2.09440   0.04281   0.00000   0.00179   0.00159   2.09599
   A23        2.09440  -0.01682   0.00000   0.00492   0.00502   2.09941
   A24        2.09440  -0.02599   0.00000  -0.00671  -0.00661   2.08778
   A25        2.09440   0.01287   0.00000   0.00705   0.00702   2.10142
   A26        2.09440  -0.00533   0.00000  -0.00227  -0.00225   2.09214
   A27        2.09440  -0.00754   0.00000  -0.00478  -0.00477   2.08963
   A28        2.09440  -0.01440   0.00000  -0.00886  -0.00882   2.08558
   A29        2.09440   0.00692   0.00000   0.00407   0.00405   2.09844
   A30        2.09440   0.00748   0.00000   0.00479   0.00477   2.09916
   A31        2.09440   0.02938   0.00000   0.01732   0.01727   2.11167
   A32        2.09440  -0.01760   0.00000  -0.01197  -0.01194   2.08245
   A33        2.09440  -0.01179   0.00000  -0.00535  -0.00533   2.08907
   A34        2.09440   0.00523   0.00000  -0.01179  -0.01183   2.08257
   A35        2.09440   0.06806   0.00000   0.02965   0.02942   2.12381
   A36        2.09440  -0.07329   0.00000  -0.01786  -0.01759   2.07680
   A37        2.09440  -0.31601   0.00000  -0.04356  -0.04240   2.05200
   A38        2.09440  -0.31651   0.00000  -0.04424  -0.04305   2.05135
    D1        0.00000   0.00000   0.00000   0.00000   0.00000   0.00000
    D2        3.14159   0.00000   0.00000   0.00000   0.00000   3.14159
    D3       -3.14159   0.00000   0.00000   0.00000   0.00000  -3.14159
    D4       -0.00000   0.00000   0.00000   0.00000   0.00000  -0.00000
    D5       -0.00000  -0.00000   0.00000  -0.00000  -0.00000  -0.00000
    D6        3.14159  -0.00000   0.00000   0.00000   0.00000   3.14159
    D7        3.14159  -0.00000   0.00000  -0.00000  -0.00000   3.14159
    D8        0.00000  -0.00000   0.00000   0.00000   0.00000   0.00000
    D9       -0.00000  -0.00000   0.00000  -0.00000  -0.00000  -0.00000
   D10        3.14159  -0.00000   0.00000  -0.00000  -0.00000   3.14159
   D11        3.14159  -0.00000   0.00000  -0.00000  -0.00000   3.14159
   D12       -0.00000  -0.00000   0.00000  -0.00000  -0.00000  -0.00000
   D13        0.00000  -0.00000   0.00000   0.00000   0.00000   0.00000
   D14        3.14159  -0.00000   0.00000   0.00000   0.00000   3.14159
   D15       -3.14159   0.00000   0.00000  -0.00000  -0.00000  -3.14159
   D16        0.00000   0.00000   0.00000  -0.00000  -0.00000   0.00000
   D17       -0.00000  -0.00000   0.00000   0.00000   0.00000  -0.00000
   D18        3.14159   0.00000   0.00000  -0.00000  -0.00000   3.14159
   D19        3.14159  -0.00000   0.00000   0.00000   0.00000   3.14159
   D20        0.00000   0.00000   0.00000  -0.00000  -0.00000   0.00000
   D21        0.00000   0.00000   0.00000  -0.00000  -0.00000   0.00000
   D22       -3.14159   0.00000   0.00000  -0.00000  -0.00000  -3.14159
   D23       -3.14159  -0.00000   0.00000  -0.00000  -0.00000  -3.14159
   D24        0.00000   0.00000   0.00000  -0.00000  -0.00000   0.00000
   D25       -0.00000   0.00000   0.00000   0.00000   0.00000  -0.00000
   D26        3.14159   0.00000   0.00000   0.00000   0.00000   3.14159
   D27        3.14159  -0.00000   0.00000   0.00000   0.00000   3.14159
   D28       -0.00000   0.00000   0.00000  -0.00000  -0.00000  -0.00000
   D29        0.00001  -0.00000   0.00000  -0.00000  -0.00000   0.00001
   D30       -3.14158  -0.00000   0.00000  -0.00000  -0.00000  -3.14158
   D31        3.14159   0.00000   0.00000   0.00000   0.00000   3.14159
   D32        0.00000   0.00000   0.00000   0.00000   0.00000   0.00000
   D33        0.00000   0.00000   0.00000   0.00000   0.00000   0.00000
   D34       -3.14159   0.00000   0.00000  -0.00000  -0.00000  -3.14159
   D35       -3.14159  -0.00000   0.00000  -0.00000  -0.00000  -3.14159
   D36        0.00000  -0.00000   0.00000   0.00000   0.00000   0.00000
   D37       -0.00000  -0.00000   0.00000  -0.00000  -0.00000  -0.00000
   D38        3.14159  -0.00000   0.00000   0.00000   0.00000   3.14159
   D39       -0.00000  -0.00000   0.00000   0.00000   0.00000  -0.00000
   D40        3.14159  -0.00000   0.00000  -0.00000  -0.00000   3.14159
   D41        3.14159   0.00000   0.00000   0.00000   0.00000   3.14159
   D42       -0.00000   0.00000   0.00000   0.00000   0.00000  -0.00000
   D43       -0.00000  -0.00000   0.00000  -0.00000  -0.00000  -0.00000
   D44       -3.14159  -0.00000   0.00000  -0.00000  -0.00000  -3.14159
   D45        3.14159  -0.00000   0.00000   0.00000   0.00000   3.14159
   D46        0.00000   0.00000   0.00000  -0.00000  -0.00000   0.00000
   D47        0.00000   0.00000   0.00000  -0.00000  -0.00000   0.00000
   D48       -3.14159   0.00000   0.00000  -0.00000  -0.00000  -3.14159
   D49        3.14159  -0.00000   0.00000   0.00000   0.00000   3.14159
   D50        0.00000   0.00000   0.00000  -0.00000  -0.00000   0.00000
   D51        0.00000   0.00000   0.00000   0.00000   0.00000   0.00000
   D52       -3.14159   0.00000   0.00000  -0.00000  -0.00000  -3.14159
   D53        3.14159  -0.00000   0.00000   0.00000   0.00000   3.14159
   D54       -0.00000   0.00000   0.00000  -0.00000  -0.00000  -0.00000
   D55        0.00001  -0.00000   0.00000  -0.00000  -0.00000   0.00001
   D56       -3.14158  -0.00000   0.00000  -0.00000  -0.00000  -3.14158
   D57       -0.00001   0.00000   0.00000   0.00000   0.00000  -0.00001
         Item               Value     Threshold  Converged?
 Maximum Force            3.116681     0.000450     NO 
 RMS     Force            0.292499     0.000300     NO 
 Maximum Displacement     0.199122     0.001800     NO 
 RMS     Displacement     0.033283     0.001200     NO 
 Predicted change in Energy=-3.370386D-01
 GradGradGradGradGradGradGradGradGradGradGradGradGradGradGradGradGradGrad

                          Input orientation:                          
 ---------------------------------------------------------------------
 Center     Atomic      Atomic             Coordinates (Angstroms)
 Number     Number       Type             X           Y           Z
 ---------------------------------------------------------------------
      1          6           0       -0.909609    2.072514    0.605782
      2          6           0        0.423488    2.096931    0.171173
      3          6           0        1.136088    3.298025    0.161980
      4          6           0        0.529654    4.481756    0.584090
      5          6           0       -0.797897    4.462609    1.017860
      6          6           0       -1.522976    3.268546    1.032484
      7          6           0       -1.684212    0.750617    0.612715
      8          6           0       -1.054160   -0.426339    0.184097
      9          6           0       -1.752717   -1.635486    0.187152
     10          6           0       -3.078850   -1.683159    0.615103
     11          6           0       -3.705895   -0.511236    1.041787
     12          6           0       -3.025363    0.707080    1.046391
     13          1           0        0.902497    1.193278   -0.156352
     14          1           0        1.082795    5.403644    0.574994
     15          1           0       -1.266029    5.376117    1.343652
     16          1           0       -0.033188   -0.404027   -0.148077
     17          1           0       -3.614124   -2.615652    0.616324
     18         17           0       -3.902003    2.212467    1.617935
     19         17           0       -3.253414    3.312851    1.610905
     20         17           0       -5.382365   -0.576923    1.581780
     21         17           0       -0.957229   -3.107407   -0.351368
     22         17           0        2.807159    3.318844   -0.384651
 ---------------------------------------------------------------------
                    Distance matrix (angstroms):
                    1          2          3          4          5
     1  C    0.000000
     2  C    1.402365   0.000000
     3  C    2.425637   1.396607   0.000000
     4  C    2.806491   2.422636   1.395406   0.000000
     5  C    2.427929   2.793760   2.414350   1.396752   0.000000
     6  C    1.410244   2.429663   2.798084   2.426155   1.397047
     7  C    1.532146   2.539669   3.827080   4.338597   3.837783
     8  C    2.538303   2.924124   4.320713   5.172800   4.966150
     9  C    3.825618   4.320539   5.717111   6.541210   6.228043
    10  C    4.337140   5.172284   6.540889   7.143420   6.567757
    11  C    3.832112   4.961079   6.223290   6.563485   5.761611
    12  C    2.556358   3.819983   4.981251   5.205771   4.366511
    13  H    2.153517   1.073923   2.141463   3.391365   3.867641
    14  H    3.881629   3.395896   2.146404   1.075140   2.149112
    15  H    3.403716   3.870690   3.388950   2.145063   1.076933
    16  H    2.733070   2.562276   3.894680   4.972297   5.062443
    17  H    5.412339   6.221648   7.598850   8.218585   7.628508
    18  Cl   3.162035   4.562493   5.355428   5.085086   3.880555
    19  Cl   2.835865   4.131694   4.622481   4.090512   2.775465
    20  Cl   5.289390   6.545780   7.715005   7.844590   6.836098
    21  Cl   5.267826   5.409672   6.758333   7.789820   7.694499
    22  Cl   4.043347   2.735672   1.758327   2.734566   4.033815
                    6          7          8          9         10
     6  C    0.000000
     7  C    2.557767   0.000000
     8  C    3.819912   1.402107   0.000000
     9  C    4.981657   2.424724   1.396434   0.000000
    10  C    5.207143   2.805047   2.421722   1.394290   0.000000
    11  C    4.364857   2.421483   2.788286   2.410238   1.395940
    12  C    2.969591   1.410198   2.431837   2.800989   2.429426
    13  H    3.406317   2.734680   2.562727   3.894876   4.971937
    14  H    3.399704   5.413724   6.221582   7.598678   8.218496
    15  H    2.145857   4.701532   5.920976   7.122987   7.324650
    16  H    4.135334   2.153575   1.073881   2.141413   3.390381
    17  H    6.258584   3.880250   3.396075   2.147033   1.075203
    18  Cl   2.667926   2.840083   4.138768   4.633931   4.105991
    19  Cl   1.825088   3.166042   4.566623   5.363321   5.097275
    20  Cl   5.475787   4.046948   4.550775   4.029875   2.732106
    21  Cl   6.548885   4.042562   2.735734   1.757656   2.732000
    22  Cl   4.556410   5.269055   5.409219   6.757574   7.788751
                   11         12         13         14         15
    11  C    0.000000
    12  C    1.395506   0.000000
    13  H    5.057488   4.136553   0.000000
    14  H    7.624648   6.257547   4.277214   0.000000
    15  H    6.380047   4.998353   4.944560   2.471552   0.000000
    16  H    3.862130   3.407995   1.851204   5.957960   6.095508
    17  H    2.148954   3.401785   5.958594   9.293646   8.361276
    18  Cl   2.790872   1.833399   5.222075   6.009955   4.127018
    19  Cl   3.892593   2.675954   4.988726   4.924148   2.877184
    20  Cl   1.762515   2.736926   6.756790   8.864486   7.241521
    21  Cl   4.029410   4.558642   4.689616   8.801013   8.656710
    22  Cl   7.689220   6.548856   2.863196   2.870669   4.879576
                   16         17         18         19         20
    16  H    0.000000
    17  H    4.277698   0.000000
    18  Cl   4.993253   4.939315   0.000000
    19  Cl   5.222935   6.022163   1.277327   0.000000
    20  Cl   5.624589   2.866216   3.158081   4.434369   0.000000
    21  Cl   2.864165   2.870077   6.391471   7.095258   5.451811
    22  Cl   4.688635   8.800742   7.088532   6.380660   9.279664
                   21         22
    21  Cl   0.000000
    22  Cl   7.447713   0.000000
 Stoichiometry    C12H5Cl5
 Framework group  C1[X(C12H5Cl5)]
 Deg. of freedom    60
 Full point group                 C1      NOp   1
 Largest Abelian subgroup         C1      NOp   1
 Largest concise Abelian subgroup C1      NOp   1
                         Standard orientation:                         
 ---------------------------------------------------------------------
 Center     Atomic      Atomic             Coordinates (Angstroms)
 Number     Number       Type             X           Y           Z
 ---------------------------------------------------------------------
      1          6           0        1.172068   -0.061098    0.000002
      2          6           0        2.190915    0.902530   -0.000000
      3          6           0        3.530287    0.506809   -0.000002
      4          6           0        3.866104   -0.847585   -0.000002
      5          6           0        2.854952   -1.811166    0.000002
      6          6           0        1.510901   -1.430031    0.000004
      7          6           0       -0.294743    0.381548    0.000002
      8          6           0       -0.608268    1.748152    0.000003
      9          6           0       -1.942466    2.160396    0.000002
     10          6           0       -2.971634    1.219727    0.000001
     11          6           0       -2.659215   -0.140803   -0.000000
     12          6           0       -1.332439   -0.573357    0.000000
     13          1           0        1.946632    1.948301   -0.000002
     14          1           0        4.898782   -1.146754   -0.000003
     15          1           0        3.114008   -2.856477    0.000005
     16          1           0        0.174448    2.483392    0.000001
     17          1           0       -3.997970    1.540191   -0.000002
     18         17           0       -0.984647   -2.373466   -0.000003
     19         17           0        0.239218   -2.739142    0.000007
     20         17           0       -3.963895   -1.325823   -0.000007
     21         17           0       -2.328898    3.875045    0.000003
     22         17           0        4.800889    1.722245   -0.000005
 ---------------------------------------------------------------------
 Rotational constants (GHZ):           0.3680791           0.2082949           0.1330195
 Standard basis: 6-311+G(d,p) (5D, 7F)
 There are   461 symmetry adapted cartesian basis functions of A   symmetry.
 There are   444 symmetry adapted basis functions of A   symmetry.
   444 basis functions,   737 primitive gaussians,   461 cartesian basis functions
    81 alpha electrons       81 beta electrons
       nuclear repulsion energy      1794.0285447132 Hartrees.
 NAtoms=   22 NActive=   22 NUniq=   22 SFac= 1.00D+00 NAtFMM=   60 NAOKFM=F Big=F
 Integral buffers will be    131072 words long.
 Raffenetti 2 integral format.
 Two-electron integral symmetry is turned on.
 One-electron integrals computed using PRISM.
 NBasis=   444 RedAO= T EigKep=  1.05D-06  NBF=   444
 NBsUse=   439 1.00D-06 EigRej=  6.90D-07 NBFU=   439
 Initial guess from the checkpoint file:  "/scratch/gour/Gau-44372.chk"
 B after Tr=     0.000000    0.000000    0.000000
         Rot=    0.999993   -0.000000   -0.000000    0.003679 Ang=  -0.42 deg.
 ExpMin= 4.38D-02 ExpMax= 1.06D+05 ExpMxC= 3.62D+03 IAcc=3 IRadAn=         5 AccDes= 0.00D+00
 Harris functional with IExCor=  402 and IRadAn=       5 diagonalized for initial guess.
 HarFok:  IExCor=  402 AccDes= 0.00D+00 IRadAn=         5 IDoV= 1 UseB2=F ITyADJ=14
 ICtDFT=  3500011 ScaDFX=  1.000000  1.000000  1.000000  1.000000
 FoFCou: FMM=F IPFlag=           0 FMFlag=      100000 FMFlg1=           0
         NFxFlg=           0 DoJE=T BraDBF=F KetDBF=T FulRan=T
         wScrn=  0.000000 ICntrl=       500 IOpCl=  0 I1Cent=   200000004 NGrid=           0
         NMat0=    1 NMatS0=      1 NMatT0=    0 NMatD0=    1 NMtDS0=    0 NMtDT0=    0
 Petite list used in FoFCou.
 Requested convergence on RMS density matrix=1.00D-08 within  32 cycles.
 Requested convergence on MAX density matrix=1.00D-06.
 Requested convergence on             energy=1.00D-06.
 No special actions if energy rises.
 SCF Done:  E(RB3LYP) =  -2760.40997410     A.U. after   17 cycles
            NFock= 17  Conv=0.60D-08     -V/T= 2.0007
 QCSCF skips out because SCF is already converged.
 Calling FoFJK, ICntrl=      2127 FMM=F ISym2X=0 I1Cent= 0 IOpClX= 0 NMat=1 NMatS=1 NMatT=0.
 ***** Axes restored to original set *****
 -------------------------------------------------------------------
 Center     Atomic                   Forces (Hartrees/Bohr)
 Number     Number              X              Y              Z
 -------------------------------------------------------------------
      1        6          -0.000175694   -0.020289338   -0.003752666
      2        6           0.000580668    0.009313652    0.001558067
      3        6          -0.009008748   -0.001387803    0.002707445
      4        6          -0.000843519   -0.002238939   -0.000142797
      5        6          -0.000412546   -0.017671258   -0.003182796
      6        6           0.084032121   -0.018491215   -0.031158074
      7        6           0.016081910    0.006373925   -0.004101171
      8        6          -0.006158635   -0.003840659    0.001307718
      9        6          -0.003421794    0.010336816    0.003068633
     10        6          -0.001939734   -0.002155919    0.000234196
     11        6           0.025846143    0.010476867   -0.006547518
     12        6           0.052368010   -0.075077822   -0.031353018
     13        1           0.005240602   -0.001783071   -0.002061477
     14        1           0.003659361    0.004756376   -0.000312296
     15        1          -0.003303641    0.007631632    0.002521732
     16        1           0.004075735   -0.003899087   -0.002075167
     17        1          -0.002792257   -0.005267741   -0.000069455
     18       17          -1.108249954   -1.686344448    0.048425738
     19       17           0.952817525    1.789551267    0.022165661
     20       17          -0.005898355   -0.001449994    0.001670918
     21       17          -0.001284133    0.001472453    0.000699632
     22       17          -0.001213063   -0.000015692    0.000396699
 -------------------------------------------------------------------
 Cartesian Forces:  Max     1.789551267 RMS     0.352597043

 GradGradGradGradGradGradGradGradGradGradGradGradGradGradGradGradGradGrad
 Berny optimization.
 Using GEDIIS/GDIIS optimizer.
 FormGI is forming the generalized inverse of G from B-inverse, IUseBI=4.
 Internal  Forces:  Max     1.969600616 RMS     0.184846602
 Search for a local minimum.
 Step number   2 out of a maximum of  129
 All quantities printed in internal units (Hartrees-Bohrs-Radians)
 Mixed Optimization -- RFO/linear search
 Update second derivatives using D2CorX and points    1    2
 DE= -5.10D-01 DEPred=-3.37D-01 R= 1.51D+00
 TightC=F SS=  1.41D+00  RLast= 2.79D-01 DXNew= 5.0454D-01 8.3678D-01
 Trust test= 1.51D+00 RLast= 2.79D-01 DXMaxT set to 5.05D-01
 ITU=  1  0
 Use linear search instead of GDIIS.
 Linear search step of   0.558 exceeds DXMaxT=   0.505 but not scaled.
 Quartic linear search produced a step of  2.00000.
 Iteration  1 RMS(Cart)=  0.04233118 RMS(Int)=  0.01664407
 Iteration  2 RMS(Cart)=  0.02390413 RMS(Int)=  0.00134898
 Iteration  3 RMS(Cart)=  0.00024719 RMS(Int)=  0.00134263
 Iteration  4 RMS(Cart)=  0.00000015 RMS(Int)=  0.00134263
 Variable       Old X    -DE/DX   Delta X   Delta X   Delta X     New X
                                 (Linear)    (Quad)   (Total)
    R1        2.65009   0.01237   0.00365   0.00000   0.00328   2.65337
    R2        2.66497   0.06049   0.03342   0.00000   0.03161   2.69658
    R3        2.89534   0.06121  -0.02969   0.00000  -0.03243   2.86290
    R4        2.63921  -0.00809  -0.01811   0.00000  -0.01803   2.62118
    R5        2.02942   0.00447   0.01483   0.00000   0.01483   2.04425
    R6        2.63694  -0.01886  -0.02265   0.00000  -0.02221   2.61473
    R7        3.32276  -0.00128  -0.00632   0.00000  -0.00632   3.31644
    R8        2.63948  -0.01444  -0.01757   0.00000  -0.01720   2.62228
    R9        2.03172   0.00596   0.01942   0.00000   0.01942   2.05114
   R10        2.64004  -0.00547  -0.01645   0.00000  -0.01652   2.62351
   R11        2.03511   0.00867   0.02620   0.00000   0.02620   2.06131
   R12        3.44892   0.05791   0.24600   0.00000   0.24713   3.69605
   R13        2.64960   0.01211   0.00267   0.00000   0.00223   2.65183
   R14        2.66489   0.06056   0.03325   0.00000   0.03126   2.69615
   R15        2.63888  -0.00832  -0.01877   0.00000  -0.01873   2.62015
   R16        2.02934   0.00444   0.01467   0.00000   0.01467   2.04401
   R17        2.63483  -0.01989  -0.02687   0.00000  -0.02640   2.60843
   R18        3.32149  -0.00203  -0.00886   0.00000  -0.00886   3.31263
   R19        2.63794  -0.01544  -0.02064   0.00000  -0.02020   2.61775
   R20        2.03184   0.00596   0.01966   0.00000   0.01966   2.05150
   R21        2.63713  -0.00870  -0.02227   0.00000  -0.02229   2.61484
   R22        3.33067   0.00618   0.00951   0.00000   0.00951   3.34018
   R23        3.46462   0.07161   0.27741   0.00000   0.27842   3.74305
   R24        2.41380   1.96960   0.36255   0.00000   0.36530   2.77910
    A1        2.08571  -0.04795  -0.01737   0.00000  -0.01585   2.06986
    A2        2.09096  -0.09913  -0.00688   0.00000  -0.00314   2.08782
    A3        2.10652   0.14709   0.02425   0.00000   0.01899   2.12551
    A4        2.09676   0.02683   0.00473   0.00000   0.00380   2.10056
    A5        2.09887  -0.00949   0.00895   0.00000   0.00942   2.10829
    A6        2.08755  -0.01734  -0.01368   0.00000  -0.01322   2.07433
    A7        2.10112   0.00787   0.01345   0.00000   0.01334   2.11446
    A8        2.09110  -0.00394  -0.00659   0.00000  -0.00653   2.08457
    A9        2.09096  -0.00393  -0.00687   0.00000  -0.00681   2.08415
   A10        2.08906  -0.00872  -0.01066   0.00000  -0.01047   2.07859
   A11        2.09582   0.00361   0.00286   0.00000   0.00276   2.09859
   A12        2.09830   0.00511   0.00780   0.00000   0.00771   2.10601
   A13        2.10396   0.01570   0.01913   0.00000   0.01879   2.12275
   A14        2.08918  -0.00841  -0.01044   0.00000  -0.01026   2.07891
   A15        2.09005  -0.00729  -0.00870   0.00000  -0.00852   2.08152
   A16        2.08975   0.00627  -0.00928   0.00000  -0.00960   2.08015
   A17        2.12806   0.05681   0.06732   0.00000   0.06619   2.19425
   A18        2.06538  -0.06308  -0.05804   0.00000  -0.05659   2.00878
   A19        2.08940  -0.10048  -0.01000   0.00000  -0.00610   2.08330
   A20        2.10464   0.14571   0.02048   0.00000   0.01512   2.11976
   A21        2.08915  -0.04523  -0.01048   0.00000  -0.00903   2.08013
   A22        2.09599   0.02601   0.00319   0.00000   0.00209   2.09808
   A23        2.09941  -0.00889   0.01003   0.00000   0.01058   2.11000
   A24        2.08778  -0.01712  -0.01322   0.00000  -0.01267   2.07511
   A25        2.10142   0.00792   0.01404   0.00000   0.01387   2.11529
   A26        2.09214  -0.00323  -0.00451   0.00000  -0.00442   2.08772
   A27        2.08963  -0.00468  -0.00953   0.00000  -0.00945   2.08018
   A28        2.08558  -0.01132  -0.01763   0.00000  -0.01737   2.06820
   A29        2.09844   0.00544   0.00810   0.00000   0.00797   2.10641
   A30        2.09916   0.00588   0.00954   0.00000   0.00941   2.10857
   A31        2.11167   0.02169   0.03454   0.00000   0.03428   2.14594
   A32        2.08245  -0.01291  -0.02389   0.00000  -0.02375   2.05870
   A33        2.08907  -0.00878  -0.01066   0.00000  -0.01052   2.07854
   A34        2.08257   0.00093  -0.02366   0.00000  -0.02383   2.05873
   A35        2.12381   0.05347   0.05884   0.00000   0.05740   2.18121
   A36        2.07680  -0.05440  -0.03518   0.00000  -0.03356   2.04324
   A37        2.05200  -0.20203  -0.08480   0.00000  -0.07830   1.97370
   A38        2.05135  -0.20104  -0.08609   0.00000  -0.07941   1.97194
    D1        0.00000   0.00000   0.00000   0.00000   0.00000   0.00000
    D2        3.14159   0.00000   0.00000   0.00000   0.00000   3.14159
    D3       -3.14159   0.00000   0.00000   0.00000   0.00000  -3.14159
    D4       -0.00000   0.00000   0.00000   0.00000   0.00000  -0.00000
    D5       -0.00000  -0.00000  -0.00000   0.00000  -0.00000  -0.00000
    D6        3.14159  -0.00000   0.00000   0.00000   0.00000   3.14159
    D7        3.14159  -0.00000  -0.00000   0.00000  -0.00000   3.14159
    D8        0.00000  -0.00000   0.00000   0.00000   0.00000   0.00000
    D9       -0.00000  -0.00000  -0.00000   0.00000  -0.00000  -0.00000
   D10        3.14159  -0.00000  -0.00000   0.00000  -0.00000   3.14159
   D11        3.14159  -0.00000  -0.00000   0.00000  -0.00000   3.14159
   D12       -0.00000  -0.00000  -0.00000   0.00000  -0.00000  -0.00000
   D13        0.00000  -0.00000   0.00000   0.00000   0.00000   0.00000
   D14        3.14159  -0.00000   0.00000   0.00000   0.00000   3.14159
   D15       -3.14159   0.00000  -0.00000   0.00000  -0.00000  -3.14159
   D16        0.00000   0.00000  -0.00000   0.00000  -0.00000   0.00000
   D17       -0.00000  -0.00000   0.00000   0.00000   0.00000  -0.00000
   D18        3.14159   0.00000  -0.00000   0.00000  -0.00000   3.14159
   D19        3.14159  -0.00000   0.00000   0.00000   0.00000   3.14159
   D20        0.00000   0.00000  -0.00000   0.00000  -0.00000   0.00000
   D21        0.00000   0.00000  -0.00000   0.00000  -0.00000   0.00000
   D22       -3.14159   0.00000  -0.00000   0.00000  -0.00000  -3.14159
   D23       -3.14159  -0.00000  -0.00000   0.00000  -0.00000  -3.14159
   D24        0.00000   0.00000  -0.00000   0.00000  -0.00000   0.00000
   D25       -0.00000   0.00000   0.00000   0.00000   0.00000  -0.00000
   D26        3.14159   0.00000   0.00000   0.00000   0.00000   3.14159
   D27        3.14159  -0.00000   0.00000   0.00000   0.00000   3.14159
   D28       -0.00000   0.00000  -0.00000   0.00000  -0.00000  -0.00000
   D29        0.00001  -0.00000  -0.00000   0.00000  -0.00000   0.00001
   D30       -3.14158  -0.00000  -0.00000   0.00000  -0.00000  -3.14158
   D31        3.14159   0.00000   0.00000   0.00000   0.00000   3.14159
   D32        0.00000   0.00000   0.00000   0.00000   0.00000   0.00000
   D33        0.00000   0.00000   0.00000   0.00000   0.00000   0.00000
   D34       -3.14159   0.00000  -0.00000   0.00000  -0.00000  -3.14159
   D35       -3.14159  -0.00000  -0.00000   0.00000  -0.00000  -3.14159
   D36        0.00000  -0.00000   0.00000   0.00000   0.00000   0.00000
   D37       -0.00000  -0.00000  -0.00000   0.00000  -0.00000  -0.00000
   D38        3.14159  -0.00000   0.00000   0.00000   0.00000   3.14159
   D39       -0.00000  -0.00000   0.00000   0.00000   0.00000  -0.00000
   D40        3.14159  -0.00000  -0.00000   0.00000  -0.00000   3.14159
   D41        3.14159   0.00000   0.00000   0.00000   0.00000   3.14159
   D42       -0.00000   0.00000   0.00000   0.00000   0.00000  -0.00000
   D43       -0.00000  -0.00000  -0.00000   0.00000  -0.00000  -0.00000
   D44       -3.14159  -0.00000  -0.00000   0.00000  -0.00000  -3.14159
   D45        3.14159  -0.00000   0.00000   0.00000   0.00000   3.14159
   D46        0.00000   0.00000  -0.00000   0.00000  -0.00000   0.00000
   D47        0.00000   0.00000  -0.00000   0.00000  -0.00000   0.00000
   D48       -3.14159   0.00000  -0.00000   0.00000  -0.00000  -3.14159
   D49        3.14159  -0.00000   0.00000   0.00000   0.00000   3.14159
   D50        0.00000   0.00000  -0.00000   0.00000  -0.00000   0.00000
   D51        0.00000   0.00000   0.00000   0.00000   0.00000   0.00000
   D52       -3.14159   0.00000  -0.00000   0.00000  -0.00000  -3.14159
   D53        3.14159   0.00000   0.00000   0.00000   0.00000   3.14159
   D54       -0.00000   0.00000  -0.00000   0.00000  -0.00000  -0.00000
   D55        0.00001  -0.00000  -0.00000   0.00000  -0.00000   0.00001
   D56       -3.14158  -0.00000  -0.00000   0.00000  -0.00000  -3.14158
   D57       -0.00001   0.00000   0.00000   0.00000   0.00000  -0.00001
         Item               Value     Threshold  Converged?
 Maximum Force            1.969601     0.000450     NO 
 RMS     Force            0.184847     0.000300     NO 
 Maximum Displacement     0.383728     0.001800     NO 
 RMS     Displacement     0.061388     0.001200     NO 
 Predicted change in Energy=-3.688732D-01
 GradGradGradGradGradGradGradGradGradGradGradGradGradGradGradGradGradGrad

[...]
                 (A) (A) (A) (A) (A) (A) (A) (A) (A) (A) (A) (A)
                 (A) (A) (A) (A) (A) (A) (A) (A) (A)
       Virtual   (A) (A) (A) (A) (A) (A) (A) (A) (A) (A) (A) (A)
                 (A) (A) (A) (A) (A) (A) (A) (A) (A) (A) (A) (A)
                 (A) (A) (A) (A) (A) (A) (A) (A) (A) (A) (A) (A)
                 (A) (A) (A) (A) (A) (A) (A) (A) (A) (A) (A) (A)
                 (A) (A) (A) (A) (A) (A) (A) (A) (A) (A) (A) (A)
                 (A) (A) (A) (A) (A) (A) (A) (A) (A) (A) (A) (A)
                 (A) (A) (A) (A) (A) (A) (A) (A) (A) (A) (A) (A)
                 (A) (A) (A) (A) (A) (A) (A) (A) (A) (A) (A) (A)
                 (A) (A) (A) (A) (A) (A) (A) (A) (A) (A) (A) (A)
                 (A) (A) (A) (A) (A) (A) (A) (A) (A) (A) (A) (A)
                 (A) (A) (A) (A) (A) (A) (A) (A) (A) (A) (A) (A)
                 (A) (A) (A) (A) (A) (A) (A) (A) (A) (A) (A) (A)
                 (A) (A) (A) (A) (A) (A) (A) (A) (A) (A) (A) (A)
                 (A) (A) (A) (A) (A) (A) (A) (A) (A) (A) (A) (A)
                 (A) (A) (A) (A) (A) (A) (A) (A) (A) (A) (A) (A)
                 (A) (A) (A) (A) (A) (A) (A) (A) (A) (A) (A) (A)
                 (A) (A) (A) (A) (A) (A) (A) (A) (A) (A) (A) (A)
                 (A) (A) (A) (A) (A) (A) (A) (A) (A) (A) (A) (A)
                 (A) (A) (A) (A) (A) (A) (A) (A) (A) (A) (A) (A)
                 (A) (A) (A) (A) (A) (A) (A) (A) (A) (A) (A) (A)
                 (A) (A) (A) (A) (A) (A) (A) (A) (A) (A) (A) (A)
                 (A) (A) (A) (A) (A) (A) (A) (A) (A) (A) (A) (A)
                 (A) (A) (A) (A) (A) (A) (A) (A) (A) (A) (A) (A)
                 (A) (A) (A) (A) (A) (A) (A) (A) (A) (A) (A) (A)
                 (A) (A) (A) (A) (A) (A) (A) (A) (A) (A) (A) (A)
                 (A) (A) (A) (A) (A) (A) (A) (A) (A) (A) (A) (A)
                 (A) (A) (A) (A) (A) (A) (A) (A) (A) (A) (A) (A)
                 (A) (A) (A) (A) (A) (A) (A) (A) (A) (A) (A) (A)
                 (A) (A) (A) (A) (A) (A) (A) (A) (A) (A) (A) (A)
                 (A) (A) (A) (A) (A) (A) (A) (A) (A) (A) (A) (A)
 The electronic state is 1-A.
 Alpha  occ. eigenvalues -- -101.57516-101.57360-101.57348-101.56972-101.56967
 Alpha  occ. eigenvalues --  -10.27307 -10.27076 -10.26667 -10.26284 -10.26095
 Alpha  occ. eigenvalues --  -10.23447 -10.23010 -10.21980 -10.21633 -10.21488
 Alpha  occ. eigenvalues --  -10.21404 -10.21337  -9.48974  -9.48819  -9.48813
 Alpha  occ. eigenvalues --   -9.48437  -9.48426  -7.25462  -7.25305  -7.25286
 Alpha  occ. eigenvalues --   -7.24904  -7.24893  -7.24454  -7.24393  -7.24300
 Alpha  occ. eigenvalues --   -7.24290  -7.24255  -7.24232  -7.23918  -7.23905
 Alpha  occ. eigenvalues --   -7.23875  -7.23871  -0.94825  -0.92766  -0.90340
 Alpha  occ. eigenvalues --   -0.89511  -0.88008  -0.85074  -0.83944  -0.80735
 Alpha  occ. eigenvalues --   -0.76969  -0.74713  -0.74071  -0.67609  -0.64120
 Alpha  occ. eigenvalues --   -0.62797  -0.60750  -0.54682  -0.53377  -0.53276
 Alpha  occ. eigenvalues --   -0.51824  -0.49848  -0.47917  -0.46490  -0.46364
 Alpha  occ. eigenvalues --   -0.45768  -0.44551  -0.43263  -0.42652  -0.41170
 Alpha  occ. eigenvalues --   -0.40180  -0.39741  -0.39338  -0.38331  -0.36546
 Alpha  occ. eigenvalues --   -0.34842  -0.33752  -0.33635  -0.33313  -0.33133
 Alpha  occ. eigenvalues --   -0.33022  -0.32586  -0.29253  -0.28363  -0.26456
 Alpha  occ. eigenvalues --   -0.26250
 Alpha virt. eigenvalues --   -0.05895  -0.05764  -0.04870  -0.04276  -0.02987
 Alpha virt. eigenvalues --   -0.00993  -0.00412   0.00220   0.00471   0.00929
 Alpha virt. eigenvalues --    0.01891   0.02226   0.02576   0.03285   0.03883
 Alpha virt. eigenvalues --    0.04496   0.04931   0.05299   0.05588   0.06179
 Alpha virt. eigenvalues --    0.06296   0.07174   0.07800   0.07997   0.08613
 Alpha virt. eigenvalues --    0.08987   0.09245   0.09694   0.09853   0.10247
 Alpha virt. eigenvalues --    0.10643   0.10899   0.11353   0.11689   0.11973
 Alpha virt. eigenvalues --    0.12153   0.12349   0.12571   0.13256   0.13788
 Alpha virt. eigenvalues --    0.14164   0.14339   0.14964   0.15240   0.15465
 Alpha virt. eigenvalues --    0.15753   0.16393   0.16863   0.17307   0.17760
 Alpha virt. eigenvalues --    0.18339   0.18494   0.18933   0.19074   0.19471
 Alpha virt. eigenvalues --    0.19713   0.19959   0.20409   0.20979   0.21438
 Alpha virt. eigenvalues --    0.21622   0.22100   0.22320   0.22794   0.22968
 Alpha virt. eigenvalues --    0.23204   0.23414   0.24020   0.24283   0.24983
 Alpha virt. eigenvalues --    0.25556   0.25897   0.26171   0.26694   0.27045
 Alpha virt. eigenvalues --    0.27818   0.28030   0.28396   0.28575   0.29102
 Alpha virt. eigenvalues --    0.29276   0.30037   0.30621   0.30950   0.31614
 Alpha virt. eigenvalues --    0.32047   0.32694   0.33518   0.34610   0.35046
 Alpha virt. eigenvalues --    0.40677   0.41797   0.42664   0.42916   0.43808
 Alpha virt. eigenvalues --    0.44550   0.45013   0.45457   0.45698   0.46136
 Alpha virt. eigenvalues --    0.47233   0.47691   0.48090   0.48383   0.49728
 Alpha virt. eigenvalues --    0.50479   0.51088   0.51470   0.52637   0.53004
 Alpha virt. eigenvalues --    0.54045   0.54761   0.55905   0.56742   0.57464
 Alpha virt. eigenvalues --    0.57991   0.58141   0.58812   0.59430   0.60047
 Alpha virt. eigenvalues --    0.60893   0.61150   0.63150   0.63437   0.64142
 Alpha virt. eigenvalues --    0.64855   0.64985   0.66024   0.66662   0.67282
 Alpha virt. eigenvalues --    0.67895   0.68355   0.68832   0.69076   0.69798
 Alpha virt. eigenvalues --    0.70027   0.70535   0.72642   0.74847   0.77857
 Alpha virt. eigenvalues --    0.80943   0.81596   0.82053   0.82803   0.83094
 Alpha virt. eigenvalues --    0.83491   0.83862   0.84284   0.84339   0.84700
 Alpha virt. eigenvalues --    0.85032   0.85332   0.85545   0.85700   0.85980
 Alpha virt. eigenvalues --    0.86592   0.87159   0.88127   0.88361   0.89138
 Alpha virt. eigenvalues --    0.90223   0.90292   0.91672   0.92117   0.92913
 Alpha virt. eigenvalues --    0.93355   0.94274   0.94680   0.95092   0.95585
 Alpha virt. eigenvalues --    0.96111   0.97172   0.97673   0.98779   0.99377
 Alpha virt. eigenvalues --    0.99802   1.00378   1.01931   1.02284   1.03510
 Alpha virt. eigenvalues --    1.04422   1.05248   1.10563   1.11696   1.12915
 Alpha virt. eigenvalues --    1.14522   1.16925   1.20031   1.21627   1.22210
 Alpha virt. eigenvalues --    1.22384   1.23487   1.24649   1.25703   1.25914
 Alpha virt. eigenvalues --    1.27927   1.28720   1.30194   1.31600   1.32175
 Alpha virt. eigenvalues --    1.34234   1.36404   1.38971   1.40289   1.45064
 Alpha virt. eigenvalues --    1.48080   1.48538   1.49451   1.54472   1.55292
 Alpha virt. eigenvalues --    1.55904   1.56375   1.58901   1.59648   1.60032
 Alpha virt. eigenvalues --    1.61932   1.63697   1.66176   1.67161   1.68110
 Alpha virt. eigenvalues --    1.69798   1.70908   1.74678   1.78110   1.79821
 Alpha virt. eigenvalues --    1.81477   1.81553   1.84374   1.85226   1.88143
 Alpha virt. eigenvalues --    1.88682   1.91617   1.92061   1.93577   1.93760
 Alpha virt. eigenvalues --    1.95290   1.96162   1.96898   2.01281   2.02316
 Alpha virt. eigenvalues --    2.03224   2.06114   2.06447   2.07203   2.09125
 Alpha virt. eigenvalues --    2.13538   2.13920   2.17308   2.24293   2.24667
 Alpha virt. eigenvalues --    2.26008   2.26635   2.26997   2.28133   2.28818
 Alpha virt. eigenvalues --    2.30244   2.31968   2.32550   2.34669   2.35354
 Alpha virt. eigenvalues --    2.37326   2.42204   2.43531   2.44854   2.45604
 Alpha virt. eigenvalues --    2.47963   2.51741   2.53021   2.53990   2.54923
 Alpha virt. eigenvalues --    2.55226   2.57996   2.59416   2.59928   2.64305
 Alpha virt. eigenvalues --    2.67162   2.68184   2.68718   2.69882   2.70542
 Alpha virt. eigenvalues --    2.71491   2.73083   2.73680   2.74837   2.75729
 Alpha virt. eigenvalues --    2.75896   2.77678   2.81360   2.83082   2.84325
 Alpha virt. eigenvalues --    2.84704   2.88402   2.90376   2.97844   2.98891
 Alpha virt. eigenvalues --    3.06871   3.07811   3.08767   3.09569   3.12674
 Alpha virt. eigenvalues --    3.14248   3.17677   3.23066   3.25549   3.28365
 Alpha virt. eigenvalues --    3.34312   3.34608   3.41621   3.42977   3.53855
 Alpha virt. eigenvalues --    3.58339   3.63357   3.70028   3.77921   3.80434
 Alpha virt. eigenvalues --    3.86822   3.95976   4.04004   4.08687   4.11935
 Alpha virt. eigenvalues --    4.33758   4.80946   4.81723   9.76382   9.77541
 Alpha virt. eigenvalues --    9.78439   9.81852   9.83811  23.38903  23.54616
 Alpha virt. eigenvalues --   23.82289  23.85138  23.88069  23.92851  23.96952
 Alpha virt. eigenvalues --   24.00304  24.03415  24.07196  24.11296  24.14567
 Alpha virt. eigenvalues --   25.80125  25.81801  25.82379  25.87844  25.96574
 Alpha virt. eigenvalues --   26.08796  26.10808  26.16834  26.26238  26.32005
 Alpha virt. eigenvalues --   26.56760  26.60751  26.62651  26.70711  26.87908
 Alpha virt. eigenvalues --  215.75508 215.76755 215.77859 215.82217 215.84140
          Condensed to atoms (all electrons):
               1          2          3          4          5          6
     1  C   41.106141   2.986932  -5.814566  -2.853575  -7.224706  -8.003146
     2  C    2.986932  48.575744  -9.377001 -11.472126  -6.787788  -3.057335
     3  C   -5.814566  -9.377001  23.141031  -0.672407  -0.316104  -4.532799
     4  C   -2.853575 -11.472126  -0.672407  18.972860   2.409292  -1.157210
     5  C   -7.224706  -6.787788  -0.316104   2.409292  27.264342  -8.024372
     6  C   -8.003146  -3.057335  -4.532799  -1.157210  -8.024372  40.958374
     7  C    1.941711  -9.354986   2.489462   0.718739  -0.196930  -4.878014
     8  C   -6.201151   8.415914  -1.713127   0.218547  -2.537349  -6.086215
     9  C    3.577216  -0.869422   0.980102  -0.152546  -0.470865  -0.122995
    10  C   -3.292846  -1.762262  -0.345299   0.048785   0.947661   3.245718
    11  C   -2.301185  -0.683744  -0.173069  -0.020799   0.573518   0.035397
    12  C   -8.704784 -11.516720   2.306641   0.410792   3.093654  -1.223630
    13  H    0.003499   0.073372   0.029891   0.074083  -0.009517  -0.079443
    14  H    0.033093   0.037534   0.060283   0.291151  -0.024850  -0.050705
    15  H    0.107422  -0.029063  -0.038319  -0.037631   0.284975   0.055240
    16  H    0.166142   0.016659  -0.026996  -0.000105   0.020666   0.089054
    17  H    0.016598   0.002140  -0.000056   0.000001  -0.000286  -0.003092
    18  Cl  -1.300614  -0.697829   0.568146  -0.091888  -0.228690  -0.221746
    19  Cl   1.909540   1.209705  -0.051617   0.004924  -1.993509  -0.773925
    20  Cl   0.048089   0.038277   0.004815  -0.000005  -0.013982  -0.089233
    21  Cl  -0.242092  -0.047555   0.030750  -0.003087   0.017252  -0.033057
    22  Cl  -0.326146   0.878827  -1.382579  -0.101591   0.159902   0.268223
               7          8          9         10         11         12
     1  C    1.941711  -6.201151   3.577216  -3.292846  -2.301185  -8.704784
     2  C   -9.354986   8.415914  -0.869422  -1.762262  -0.683744 -11.516720
     3  C    2.489462  -1.713127   0.980102  -0.345299  -0.173069   2.306641
     4  C    0.718739   0.218547  -0.152546   0.048785  -0.020799   0.410792
     5  C   -0.196930  -2.537349  -0.470865   0.947661   0.573518   3.093654
     6  C   -4.878014  -6.086215  -0.122995   3.245718   0.035397  -1.223630
     7  C   28.774620  -8.225349  -5.467725  -0.002471  -1.105291   2.890117
     8  C   -8.225349  51.943952 -12.034426  -8.343888  -3.554800  -6.454528
     9  C   -5.467725 -12.034426  24.009087  -1.529452  -2.810622   0.642570
    10  C   -0.002471  -8.343888  -1.529452  30.188179  -4.084508  -8.003869
    11  C   -1.105291  -3.554800  -2.810622  -4.084508  19.104387   0.523614
    12  C    2.890117  -6.454528   0.642570  -8.003869   0.523614  34.242409
    13  H    0.149023   0.008221  -0.023120   0.005729   0.005022   0.128687
    14  H    0.007330  -0.001520  -0.000071  -0.000003   0.000167   0.002455
    15  H    0.015097   0.000498  -0.000690  -0.000021  -0.000589   0.000664
    16  H    0.050690   0.021996   0.065668   0.050684  -0.003219  -0.082290
    17  H    0.052178  -0.004061   0.016174   0.150155   0.077293   0.041973
    18  Cl  -0.576336   0.370401   0.182373   0.905096   0.630681  -0.867793
    19  Cl  -0.600741   0.543800   0.387456  -0.593655  -0.141911  -1.403880
    20  Cl  -0.283718   0.173749  -0.119359  -0.369932  -0.629757   0.735597
    21  Cl  -0.190132   0.524122  -1.140449  -0.187672   0.061978   0.434700
    22  Cl  -0.211096  -0.019163   0.033206  -0.001870  -0.001860  -0.083668
              13         14         15         16         17         18
     1  C    0.003499   0.033093   0.107422   0.166142   0.016598  -1.300614
     2  C    0.073372   0.037534  -0.029063   0.016659   0.002140  -0.697829
     3  C    0.029891   0.060283  -0.038319  -0.026996  -0.000056   0.568146
     4  C    0.074083   0.291151  -0.037631  -0.000105   0.000001  -0.091888
     5  C   -0.009517  -0.024850   0.284975   0.020666  -0.000286  -0.228690
     6  C   -0.079443  -0.050705   0.055240   0.089054  -0.003092  -0.221746
     7  C    0.149023   0.007330   0.015097   0.050690   0.052178  -0.576336
     8  C    0.008221  -0.001520   0.000498   0.021996  -0.004061   0.370401
     9  C   -0.023120  -0.000071  -0.000690   0.065668   0.016174   0.182373
    10  C    0.005729  -0.000003  -0.000021   0.050684   0.150155   0.905096
    11  C    0.005022   0.000167  -0.000589  -0.003219   0.077293   0.630681
    12  C    0.128687   0.002455   0.000664  -0.082290   0.041973  -0.867793
    13  H    0.512058  -0.000282   0.000045  -0.000547  -0.000002  -0.003618
    14  H   -0.000282   0.505412  -0.007904  -0.000003  -0.000000  -0.000142
    15  H    0.000045  -0.007904   0.506241   0.000001   0.000000  -0.000864
    16  H   -0.000547  -0.000003   0.000001   0.510475  -0.000241  -0.003947
    17  H   -0.000002  -0.000000   0.000000  -0.000241   0.490447  -0.001463
    18  Cl  -0.003618  -0.000142  -0.000864  -0.003947  -0.001463  17.959183
    19  Cl  -0.002457   0.000480  -0.011780  -0.006158   0.000212   0.070920
    20  Cl   0.000239  -0.000000  -0.000004   0.000220  -0.003887  -0.234430
    21  Cl   0.000290   0.000001  -0.000007  -0.017208  -0.007296  -0.002193
    22  Cl  -0.018372  -0.009101   0.000712   0.000403   0.000001  -0.008029
              19         20         21         22
     1  C    1.909540   0.048089  -0.242092  -0.326146
     2  C    1.209705   0.038277  -0.047555   0.878827
     3  C   -0.051617   0.004815   0.030750  -1.382579
     4  C    0.004924  -0.000005  -0.003087  -0.101591
     5  C   -1.993509  -0.013982   0.017252   0.159902
     6  C   -0.773925  -0.089233  -0.033057   0.268223
     7  C   -0.600741  -0.283718  -0.190132  -0.211096
     8  C    0.543800   0.173749   0.524122  -0.019163
     9  C    0.387456  -0.119359  -1.140449   0.033206
    10  C   -0.593655  -0.369932  -0.187672  -0.001870
    11  C   -0.141911  -0.629757   0.061978  -0.001860
    12  C   -1.403880   0.735597   0.434700  -0.083668
    13  H   -0.002457   0.000239   0.000290  -0.018372
    14  H    0.000480  -0.000000   0.000001  -0.009101
    15  H   -0.011780  -0.000004  -0.000007   0.000712
    16  H   -0.006158   0.000220  -0.017208   0.000403
    17  H    0.000212  -0.003887  -0.007296   0.000001
    18  Cl   0.070920  -0.234430  -0.002193  -0.008029
    19  Cl  18.057952   0.003779  -0.010524  -0.009980
    20  Cl   0.003779  17.284778  -0.015780   0.000164
    21  Cl  -0.010524  -0.015780  17.405782   0.000111
    22  Cl  -0.009980   0.000164   0.000111  17.416410
 Mulliken charges:
               1
     1  C    0.368428
     2  C   -0.579274
     3  C    0.832819
     4  C   -0.586204
     5  C   -0.942315
     6  C   -0.315087
     7  C    0.003822
     8  C   -1.045622
     9  C    0.847889
    10  C   -1.024257
    11  C    0.499298
    12  C   -1.112710
    13  H    0.147195
    14  H    0.156676
    15  H    0.155979
    16  H    0.148056
    17  H    0.173213
    18  Cl   0.552781
    19  Cl   0.411372
    20  Cl   0.470379
    21  Cl   0.422065
    22  Cl   0.415496
 Sum of Mulliken charges =  -0.00000
 Mulliken charges with hydrogens summed into heavy atoms:
               1
     1  C    0.368428
     2  C   -0.432079
     3  C    0.832819
     4  C   -0.429528
     5  C   -0.786337
     6  C   -0.315087
     7  C    0.003822
     8  C   -0.897566
     9  C    0.847889
    10  C   -0.851044
    11  C    0.499298
    12  C   -1.112710
    18  Cl   0.552781
    19  Cl   0.411372
    20  Cl   0.470379
    21  Cl   0.422065
    22  Cl   0.415496
 Electronic spatial extent (au):  <R**2>=           6955.4248
 Charge=             -0.0000 electrons
 Dipole moment (field-independent basis, Debye):
    X=              0.9719    Y=              0.6809    Z=              0.4861  Tot=              1.2824
 Quadrupole moment (field-independent basis, Debye-Ang):
   XX=           -126.5549   YY=           -136.2694   ZZ=           -133.7665
   XY=             -1.6892   XZ=              6.2116   YZ=             -0.8205
 Traceless Quadrupole moment (field-independent basis, Debye-Ang):
   XX=              5.6420   YY=             -4.0725   ZZ=             -1.5696
   XY=             -1.6892   XZ=              6.2116   YZ=             -0.8205
 Octapole moment (field-independent basis, Debye-Ang**2):
  XXX=             -0.3278  YYY=            -11.9391  ZZZ=             -2.1391  XYY=              0.7535
  XXY=            -13.7131  XXZ=             26.2245  XZZ=              2.7240  YZZ=             -3.7954
  YYZ=             -0.1237  XYZ=             -0.7522
 Hexadecapole moment (field-independent basis, Debye-Ang**3):
 XXXX=          -5545.8361 YYYY=          -2003.2889 ZZZZ=          -1398.9040 XXXY=            -33.1956
 XXXZ=            125.6450 YYYX=             13.9214 YYYZ=             21.5866 ZZZX=            -19.4140
 ZZZY=            -15.0213 XXYY=          -1333.8577 XXZZ=          -1178.5306 YYZZ=           -582.0931
 XXYZ=            -11.2476 YYXZ=             -6.5869 ZZXY=              3.5990
 N-N= 1.718804714642D+03 E-N=-9.974326545013D+03  KE= 2.754121284792D+03
 1\1\GINC-LOCALHOST\FOpt\RB3LYP\6-311+G(d,p)\C12H5Cl5\GOUR\16-Mar-2022\
 0\\# opt b3lyp/6-311+g(d,p) scf=xqc\\Title Card Required\\0,1\C,-0.955
 4537319,2.075147164,0.6391256726\C,0.3622862029,2.0634987043,1.1086205
 801\C,1.106578802,3.2363826743,1.1401457375\C,0.5644646555,4.441130159
 8,0.7057212033\C,-0.7430584434,4.4628802113,0.2328550261\C,-1.49266938
 98,3.2904075946,0.2002422511\C,-1.725972207,0.7963245653,0.5932144785\
 C,-1.5528254353,-0.0562288521,-0.4986935495\C,-2.2474023652,-1.2577397
 747,-0.5590088528\C,-3.1174333406,-1.6360461723,0.4537941178\C,-3.2900
 185257,-0.7911960017,1.5467798504\C,-2.5992935918,0.4239022387,1.62600
 04259\H,0.7976600865,1.135157341,1.4554086395\H,1.1527871371,5.3490141
 268,0.7342745556\H,-1.1822781114,5.389594426,-0.1131350629\H,-0.882850
 133,0.2275069333,-1.2994265426\H,-3.6565099675,-2.5717659812,0.4037135
 883\Cl,-2.809602835,1.475477099,3.0004478563\Cl,-3.1345944883,3.362095
 0131,-0.4133704792\Cl,-4.3848497116,-1.2955299488,2.8086460409\Cl,-2.0
 238755751,-2.3180730444,-1.9370008529\Cl,2.7565594587,3.1931120036,1.7
 374011361\\Version=EM64L-G16RevB.01\State=1-A\HF=-2761.5201956\RMSD=5.
 234e-09\RMSF=1.034e-05\Dipole=0.2770289,0.2926678,-0.3035745\Quadrupol
 e=-3.2892643,6.3751546,-3.0858903,2.0493036,-0.5780603,-1.5209943\PG=C
 01 [X(C12H5Cl5)]\\@


 ERWIN WITH HIS PSI CAN DO
 CALCULATIONS QUITE A FEW.
 BUT ONE THING HAS NOT BEEN SEEN
 JUST WHAT DOES PSI REALLY MEAN.
 -- WALTER HUCKEL, TRANS. BY FELIX BLOCH
 Job cpu time:       1 days  1 hours 16 minutes 26.9 seconds.
 Elapsed time:       0 days  6 hours 20 minutes 12.5 seconds.
 File lengths (MBytes):  RWF=    128 Int=      0 D2E=      0 Chk=     20 Scr=      1
 Normal termination of Gaussian 16 at Wed Mar 16 17:02:51 2022.
