 Entering Gaussian System, Link 0=g16
 Input=2,2prime,4-Trichlorobiphenyl.gjf
 Output=2,2prime,4-Trichlorobiphenyl.log
 Initial command:
 /usr/local/g16/l1.exe "/scratch/pkc/Gau-2593.inp" -scrdir="/scratch/pkc/"
 Entering Link 1 = /usr/local/g16/l1.exe PID=      2594.
  
 Copyright (c) 1988-2017, Gaussian, Inc.  All Rights Reserved.
  
 This is part of the Gaussian(R) 16 program.  It is based on
 the Gaussian(R) 09 system (copyright 2009, Gaussian, Inc.),
 the Gaussian(R) 03 system (copyright 2003, Gaussian, Inc.),
 the Gaussian(R) 98 system (copyright 1998, Gaussian, Inc.),
 the Gaussian(R) 94 system (copyright 1995, Gaussian, Inc.),
 the Gaussian 92(TM) system (copyright 1992, Gaussian, Inc.),
 the Gaussian 90(TM) system (copyright 1990, Gaussian, Inc.),
 the Gaussian 88(TM) system (copyright 1988, Gaussian, Inc.),
 the Gaussian 86(TM) system (copyright 1986, Carnegie Mellon
 University), and the Gaussian 82(TM) system (copyright 1983,
 Carnegie Mellon University). Gaussian is a federally registered
 trademark of Gaussian, Inc.
  
 This software contains proprietary and confidential information,
 including trade secrets, belonging to Gaussian, Inc.
  
 This software is provided under written license and may be
 used, copied, transmitted, or stored only in accord with that
 written license.
  
 The following legend is applicable only to US Government
 contracts under FAR:
  
                    RESTRICTED RIGHTS LEGEND
  
 Use, reproduction and disclosure by the US Government is
 subject to restrictions as set forth in subparagraphs (a)
 and (c) of the Commercial Computer Software - Restricted
 Rights clause in FAR 52.227-19.
  
 Gaussian, Inc.
 340 Quinnipiac St., Bldg. 40, Wallingford CT 06492
  
  
 ---------------------------------------------------------------
 Warning -- This program may not be used in any manner that
 competes with the business of Gaussian, Inc. or will provide
 assistance to any competitor of Gaussian, Inc.  The licensee
 of this program is prohibited from giving any competitor of
 Gaussian, Inc. access to this program.  By using this program,
 the user acknowledges that Gaussian, Inc. is engaged in the
 business of creating and licensing software in the field of
 computational chemistry and represents and warrants to the
 licensee that it is not a competitor of Gaussian, Inc. and that
 it will not use this program in any manner prohibited above.
 ---------------------------------------------------------------
  

 Cite this work as:
 Gaussian 16, Revision B.01,
 M. J. Frisch, G. W. Trucks, H. B. Schlegel, G. E. Scuseria, 
 M. A. Robb, J. R. Cheeseman, G. Scalmani, V. Barone, 
 G. A. Petersson, H. Nakatsuji, X. Li, M. Caricato, A. V. Marenich, 
 J. Bloino, B. G. Janesko, R. Gomperts, B. Mennucci, H. P. Hratchian, 
 J. V. Ortiz, A. F. Izmaylov, J. L. Sonnenberg, D. Williams-Young, 
 F. Ding, F. Lipparini, F. Egidi, J. Goings, B. Peng, A. Petrone, 
 T. Henderson, D. Ranasinghe, V. G. Zakrzewski, J. Gao, N. Rega, 
 G. Zheng, W. Liang, M. Hada, M. Ehara, K. Toyota, R. Fukuda, 
 J. Hasegawa, M. Ishida, T. Nakajima, Y. Honda, O. Kitao, H. Nakai, 
 T. Vreven, K. Throssell, J. A. Montgomery, Jr., J. E. Peralta, 
 F. Ogliaro, M. J. Bearpark, J. J. Heyd, E. N. Brothers, K. N. Kudin, 
 V. N. Staroverov, T. A. Keith, R. Kobayashi, J. Normand, 
 K. Raghavachari, A. P. Rendell, J. C. Burant, S. S. Iyengar, 
 J. Tomasi, M. Cossi, J. M. Millam, M. Klene, C. Adamo, R. Cammi, 
 J. W. Ochterski, R. L. Martin, K. Morokuma, O. Farkas, 
 J. B. Foresman, and D. J. Fox, Gaussian, Inc., Wallingford CT, 2016.
 
 ******************************************
 Gaussian 16:  EM64L-G16RevB.01 20-Dec-2017
                14-Mar-2022 
 ******************************************
 %mem=10GB
 %nprocshared=4
 Will use up to    4 processors via shared memory.
 --------------------------------
 # opt b3lyp/6-311+g(d,p) scf=xqc
 --------------------------------
 1/18=20,19=15,26=3,38=1/1,3;
 2/9=110,12=2,17=6,18=5,40=1/2;
 3/5=4,6=6,7=111,11=2,25=1,30=1,71=1,74=-5/1,2,3;
 4//1;
 5/5=2,8=3,13=1,38=5/2,8;
 6/7=2,8=2,9=2,10=2,28=1/1;
 7//1,2,3,16;
 1/18=20,19=15,26=3/3(2);
 2/9=110/2;
 99//99;
 2/9=110/2;
 3/5=4,6=6,7=111,11=2,25=1,30=1,71=1,74=-5/1,2,3;
 4/5=5,16=3,69=1/1;
 5/5=2,8=3,13=1,38=5/2,8;
 7//1,2,3,16;
 1/18=20,19=15,26=3/3(-5);
 2/9=110/2;
 6/7=2,8=2,9=2,10=2,19=2,28=1/1;
 99/9=1/99;
 -------------------
 Title Card Required
 -------------------
 Symbolic Z-matrix:
 Charge =  0 Multiplicity = 1
 C                    -0.98434  -0.87334  -0.15243 
 C                     0.34804  -0.84345  -0.58577 
 C                     1.05593   0.366    -0.59184 
 C                     0.43144   1.54556  -0.16457 
 C                    -0.90094   1.51568   0.26877 
 C                    -1.60883   0.30623   0.27485 
 C                    -1.76225  -2.20241  -0.14575 
 C                    -1.13776  -3.38197  -0.57303 
 C                    -1.84565  -4.59142  -0.56695 
 C                    -3.17803  -4.62131  -0.1336 
 C                    -3.80252  -3.44175   0.29367 
 C                    -3.09463  -2.23229   0.2876 
 H                     2.07323   0.38882  -0.92271 
 H                    -1.37775   2.4163    0.59501 
 H                    -2.62613   0.28341   0.60572 
 H                    -1.36884  -5.49205  -0.89319 
 H                    -3.71853  -5.54475  -0.12896 
 H                    -4.81982  -3.46456   0.62455 
 H                    -3.57144  -1.33167   0.61383 
 Cl                    1.13232  -2.32486  -1.12238 
 Cl                    0.53556  -3.34444  -1.11726 
 Cl                    1.32048   3.0645   -0.1722 
 

 GradGradGradGradGradGradGradGradGradGradGradGradGradGradGradGradGradGrad
 Berny optimization.
 Initialization pass.
                           ----------------------------
                           !    Initial Parameters    !
                           ! (Angstroms and Degrees)  !
 --------------------------                            --------------------------
 ! Name  Definition              Value          Derivative Info.                !
 --------------------------------------------------------------------------------
 ! R1    R(1,2)                  1.4014         estimate D2E/DX2                !
 ! R2    R(1,6)                  1.4014         estimate D2E/DX2                !
 ! R3    R(1,7)                  1.54           estimate D2E/DX2                !
 ! R4    R(2,3)                  1.4014         estimate D2E/DX2                !
 ! R5    R(2,20)                 1.76           estimate D2E/DX2                !
 ! R6    R(3,4)                  1.4014         estimate D2E/DX2                !
 ! R7    R(3,13)                 1.07           estimate D2E/DX2                !
 ! R8    R(4,5)                  1.4014         estimate D2E/DX2                !
 ! R9    R(4,22)                 1.76           estimate D2E/DX2                !
 ! R10   R(5,6)                  1.4014         estimate D2E/DX2                !
 ! R11   R(5,14)                 1.07           estimate D2E/DX2                !
 ! R12   R(6,15)                 1.07           estimate D2E/DX2                !
 ! R13   R(7,8)                  1.4014         estimate D2E/DX2                !
 ! R14   R(7,12)                 1.4014         estimate D2E/DX2                !
 ! R15   R(8,9)                  1.4014         estimate D2E/DX2                !
 ! R16   R(8,21)                 1.76           estimate D2E/DX2                !
 ! R17   R(9,10)                 1.4014         estimate D2E/DX2                !
 ! R18   R(9,16)                 1.07           estimate D2E/DX2                !
 ! R19   R(10,11)                1.4014         estimate D2E/DX2                !
 ! R20   R(10,17)                1.07           estimate D2E/DX2                !
 ! R21   R(11,12)                1.4014         estimate D2E/DX2                !
 ! R22   R(11,18)                1.07           estimate D2E/DX2                !
 ! R23   R(12,19)                1.07           estimate D2E/DX2                !
 ! R24   R(20,21)                1.1814         estimate D2E/DX2                !
 ! A1    A(2,1,6)              120.0            estimate D2E/DX2                !
 ! A2    A(2,1,7)              120.0            estimate D2E/DX2                !
 ! A3    A(6,1,7)              120.0            estimate D2E/DX2                !
 ! A4    A(1,2,3)              120.0            estimate D2E/DX2                !
 ! A5    A(1,2,20)             120.0            estimate D2E/DX2                !
 ! A6    A(3,2,20)             120.0            estimate D2E/DX2                !
 ! A7    A(2,3,4)              120.0            estimate D2E/DX2                !
 ! A8    A(2,3,13)             120.0            estimate D2E/DX2                !
 ! A9    A(4,3,13)             120.0            estimate D2E/DX2                !
 ! A10   A(3,4,5)              120.0            estimate D2E/DX2                !
 ! A11   A(3,4,22)             120.0            estimate D2E/DX2                !
 ! A12   A(5,4,22)             120.0            estimate D2E/DX2                !
 ! A13   A(4,5,6)              120.0            estimate D2E/DX2                !
 ! A14   A(4,5,14)             120.0            estimate D2E/DX2                !
 ! A15   A(6,5,14)             120.0            estimate D2E/DX2                !
 ! A16   A(1,6,5)              120.0            estimate D2E/DX2                !
 ! A17   A(1,6,15)             120.0            estimate D2E/DX2                !
 ! A18   A(5,6,15)             120.0            estimate D2E/DX2                !
 ! A19   A(1,7,8)              120.0            estimate D2E/DX2                !
 ! A20   A(1,7,12)             120.0            estimate D2E/DX2                !
 ! A21   A(8,7,12)             120.0            estimate D2E/DX2                !
 ! A22   A(7,8,9)              120.0            estimate D2E/DX2                !
 ! A23   A(7,8,21)             120.0            estimate D2E/DX2                !
 ! A24   A(9,8,21)             120.0            estimate D2E/DX2                !
 ! A25   A(8,9,10)             120.0            estimate D2E/DX2                !
 ! A26   A(8,9,16)             120.0            estimate D2E/DX2                !
 ! A27   A(10,9,16)            120.0            estimate D2E/DX2                !
 ! A28   A(9,10,11)            120.0            estimate D2E/DX2                !
 ! A29   A(9,10,17)            120.0            estimate D2E/DX2                !
 ! A30   A(11,10,17)           120.0            estimate D2E/DX2                !
 ! A31   A(10,11,12)           120.0            estimate D2E/DX2                !
 ! A32   A(10,11,18)           120.0            estimate D2E/DX2                !
 ! A33   A(12,11,18)           120.0            estimate D2E/DX2                !
 ! A34   A(7,12,11)            120.0            estimate D2E/DX2                !
 ! A35   A(7,12,19)            120.0            estimate D2E/DX2                !
 ! A36   A(11,12,19)           120.0            estimate D2E/DX2                !
 ! A37   A(2,20,21)            120.0            estimate D2E/DX2                !
 ! A38   A(8,21,20)            120.0            estimate D2E/DX2                !
 ! D1    D(6,1,2,3)              0.0001         estimate D2E/DX2                !
 ! D2    D(6,1,2,20)           180.0            estimate D2E/DX2                !
 ! D3    D(7,1,2,3)           -180.0            estimate D2E/DX2                !
 ! D4    D(7,1,2,20)            -0.0001         estimate D2E/DX2                !
 ! D5    D(2,1,6,5)             -0.0001         estimate D2E/DX2                !
 ! D6    D(2,1,6,15)           180.0            estimate D2E/DX2                !
 ! D7    D(7,1,6,5)            180.0            estimate D2E/DX2                !
 ! D8    D(7,1,6,15)             0.0            estimate D2E/DX2                !
 ! D9    D(2,1,7,8)             -0.0001         estimate D2E/DX2                !
 ! D10   D(2,1,7,12)           179.9998         estimate D2E/DX2                !
 ! D11   D(6,1,7,8)            179.9999         estimate D2E/DX2                !
 ! D12   D(6,1,7,12)            -0.0002         estimate D2E/DX2                !
 ! D13   D(1,2,3,4)              0.0            estimate D2E/DX2                !
 ! D14   D(1,2,3,13)           180.0            estimate D2E/DX2                !
 ! D15   D(20,2,3,4)          -179.9999         estimate D2E/DX2                !
 ! D16   D(20,2,3,13)            0.0001         estimate D2E/DX2                !
 ! D17   D(1,2,20,21)            0.0002         estimate D2E/DX2                !
 ! D18   D(3,2,20,21)         -179.9999         estimate D2E/DX2                !
 ! D19   D(2,3,4,5)             -0.0001         estimate D2E/DX2                !
 ! D20   D(2,3,4,22)           180.0            estimate D2E/DX2                !
 ! D21   D(13,3,4,5)           179.9999         estimate D2E/DX2                !
 ! D22   D(13,3,4,22)            0.0            estimate D2E/DX2                !
 ! D23   D(3,4,5,6)              0.0001         estimate D2E/DX2                !
 ! D24   D(3,4,5,14)          -179.9999         estimate D2E/DX2                !
 ! D25   D(22,4,5,6)          -180.0            estimate D2E/DX2                !
 ! D26   D(22,4,5,14)            0.0            estimate D2E/DX2                !
 ! D27   D(4,5,6,1)              0.0            estimate D2E/DX2                !
 ! D28   D(4,5,6,15)           179.9999         estimate D2E/DX2                !
 ! D29   D(14,5,6,1)           180.0            estimate D2E/DX2                !
 ! D30   D(14,5,6,15)           -0.0001         estimate D2E/DX2                !
 ! D31   D(1,7,8,9)            179.9999         estimate D2E/DX2                !
 ! D32   D(1,7,8,21)             0.0001         estimate D2E/DX2                !
 ! D33   D(12,7,8,9)             0.0001         estimate D2E/DX2                !
 ! D34   D(12,7,8,21)         -179.9998         estimate D2E/DX2                !
 ! D35   D(1,7,12,11)         -179.9999         estimate D2E/DX2                !
 ! D36   D(1,7,12,19)            0.0            estimate D2E/DX2                !
 ! D37   D(8,7,12,11)           -0.0001         estimate D2E/DX2                !
 ! D38   D(8,7,12,19)          179.9999         estimate D2E/DX2                !
 ! D39   D(7,8,9,10)             0.0            estimate D2E/DX2                !
 ! D40   D(7,8,9,16)           180.0            estimate D2E/DX2                !
 ! D41   D(21,8,9,10)          179.9998         estimate D2E/DX2                !
 ! D42   D(21,8,9,16)           -0.0002         estimate D2E/DX2                !
 ! D43   D(7,8,21,20)            0.0001         estimate D2E/DX2                !
 ! D44   D(9,8,21,20)         -179.9998         estimate D2E/DX2                !
 ! D45   D(8,9,10,11)            0.0            estimate D2E/DX2                !
 ! D46   D(8,9,10,17)         -179.9999         estimate D2E/DX2                !
 ! D47   D(16,9,10,11)         180.0            estimate D2E/DX2                !
 ! D48   D(16,9,10,17)           0.0001         estimate D2E/DX2                !
 ! D49   D(9,10,11,12)           0.0            estimate D2E/DX2                !
 ! D50   D(9,10,11,18)        -179.9998         estimate D2E/DX2                !
 ! D51   D(17,10,11,12)        179.9999         estimate D2E/DX2                !
 ! D52   D(17,10,11,18)          0.0001         estimate D2E/DX2                !
 ! D53   D(10,11,12,7)           0.0            estimate D2E/DX2                !
 ! D54   D(10,11,12,19)       -179.9999         estimate D2E/DX2                !
 ! D55   D(18,11,12,7)         179.9999         estimate D2E/DX2                !
 ! D56   D(18,11,12,19)         -0.0001         estimate D2E/DX2                !
 ! D57   D(2,20,21,8)           -0.0002         estimate D2E/DX2                !
 --------------------------------------------------------------------------------
 Trust Radius=3.00D-01 FncErr=1.00D-07 GrdErr=1.00D-06 EigMax=2.50D+02 EigMin=1.00D-04
 Number of steps in this run=    129 maximum allowed number of steps=    132.
 GradGradGradGradGradGradGradGradGradGradGradGradGradGradGradGradGradGrad

                          Input orientation:                          
 ---------------------------------------------------------------------
 Center     Atomic      Atomic             Coordinates (Angstroms)
 Number     Number       Type             X           Y           Z
 ---------------------------------------------------------------------
      1          6           0       -0.984343   -0.873340   -0.152426
      2          6           0        0.348038   -0.843454   -0.585773
      3          6           0        1.055932    0.365997   -0.591845
      4          6           0        0.431444    1.545562   -0.164570
      5          6           0       -0.900938    1.515676    0.268775
      6          6           0       -1.608831    0.306225    0.274847
      7          6           0       -1.762248   -2.202407   -0.145752
      8          6           0       -1.137761   -3.381972   -0.573027
      9          6           0       -1.845654   -4.591424   -0.566953
     10          6           0       -3.178034   -4.621310   -0.133603
     11          6           0       -3.802521   -3.441745    0.293672
     12          6           0       -3.094628   -2.232294    0.287598
     13          1           0        2.073234    0.388815   -0.922714
     14          1           0       -1.377748    2.416301    0.595006
     15          1           0       -2.626134    0.283407    0.605716
     16          1           0       -1.368844   -5.492048   -0.893187
     17          1           0       -3.718525   -5.544753   -0.128963
     18          1           0       -4.819822   -3.464565    0.624547
     19          1           0       -3.571437   -1.331670    0.613834
     20         17           0        1.132325   -2.324855   -1.122378
     21         17           0        0.535560   -3.344439   -1.117261
     22         17           0        1.320479    3.064496   -0.172196
 ---------------------------------------------------------------------
                    Distance matrix (angstroms):
                    1          2          3          4          5
     1  C    0.000000
     2  C    1.401400   0.000000
     3  C    2.427296   1.401400   0.000000
     4  C    2.802800   2.427296   1.401400   0.000000
     5  C    2.427296   2.802800   2.427296   1.401400   0.000000
     6  C    1.401400   2.427296   2.802800   2.427296   1.401400
     7  C    1.540000   2.548270   3.838989   4.342800   3.838989
     8  C    2.548270   2.941400   4.342800   5.187469   4.975106
     9  C    3.838989   4.342800   5.744200   6.558176   6.235992
    10  C    4.342800   5.187469   6.558176   7.145600   6.558176
    11  C    3.838989   4.975106   6.235992   6.558176   5.744200
    12  C    2.548270   3.813607   4.975106   5.187469   4.342800
    13  H    3.396345   2.146700   1.070000   2.146700   3.396345
    14  H    3.396345   3.872800   3.396345   2.146700   1.070000
    15  H    2.146700   3.396345   3.872800   3.396345   2.146700
    16  H    4.693509   4.965039   6.347206   7.300676   7.118798
    17  H    5.412800   6.232802   7.612271   8.215600   7.612271
    18  H    4.693509   5.919617   7.118798   7.300676   6.347206
    19  H    2.736837   4.127917   5.074276   4.990735   3.918930
    20  Cl   2.743718   1.760000   2.743718   4.048303   4.562800
    21  Cl   3.057342   2.563702   3.783409   4.983028   5.254079
    22  Cl   4.562800   4.048303   2.743718   1.760000   2.743718
                    6          7          8          9         10
     6  C    0.000000
     7  C    2.548270   0.000000
     8  C    3.813607   1.401400   0.000000
     9  C    4.975106   2.427296   1.401400   0.000000
    10  C    5.187469   2.802800   2.427296   1.401400   0.000000
    11  C    4.342800   2.427296   2.802800   2.427296   1.401400
    12  C    2.941400   1.401400   2.427296   2.802800   2.427296
    13  H    3.872800   4.693509   4.965039   6.347206   7.300676
    14  H    2.146700   4.693509   5.919617   7.118798   7.300676
    15  H    1.070000   2.736837   4.127917   5.074276   4.990735
    16  H    5.919617   3.396345   2.146700   1.070000   2.146700
    17  H    6.232802   3.872800   3.396345   2.146700   1.070000
    18  H    4.965039   3.396345   3.872800   3.396345   2.146700
    19  H    2.578650   2.146700   3.396345   3.872800   3.396345
    20  Cl   4.048303   3.057342   2.563702   3.783409   4.983028
    21  Cl   4.456874   2.743718   1.760000   2.743718   4.048303
    22  Cl   4.048303   6.102800   6.910901   8.294174   8.905600
                   11         12         13         14         15
    11  C    0.000000
    12  C    1.401400   0.000000
    13  H    7.118798   5.919617   0.000000
    14  H    6.347206   4.965039   4.280590   0.000000
    15  H    3.918930   2.578650   4.942800   2.471400   0.000000
    16  H    3.396345   3.872800   6.814200   8.047159   6.097816
    17  H    2.146700   3.396345   8.329571   8.329571   5.974992
    18  H    1.070000   2.146700   8.047159   6.814200   4.342800
    19  H    2.146700   1.070000   6.097816   4.342800   1.871400
    20  Cl   5.254079   4.456874   2.879094   5.632800   4.890332
    21  Cl   4.562800   4.048303   4.042212   6.307038   5.111382
    22  Cl   8.294174   6.910901   2.879094   2.879094   4.890332
                   16         17         18         19         20
    16  H    0.000000
    17  H    2.471400   0.000000
    18  H    4.280590   2.471400   0.000000
    19  H    4.942800   4.280590   2.471400   0.000000
    20  Cl   4.042212   5.906383   6.307038   5.111382   0.000000
    21  Cl   2.879094   4.890332   5.632800   4.890332   1.181400
    22  Cl   8.998151   9.975600   8.998151   6.623817   5.475705
                   21         22
    21  Cl   0.000000
    22  Cl   6.525618   0.000000
 Stoichiometry    C12H7Cl3
 Framework group  C1[X(C12H7Cl3)]
 Deg. of freedom    60
 Full point group                 C1      NOp   1
 Largest Abelian subgroup         C1      NOp   1
 Largest concise Abelian subgroup C1      NOp   1
                         Standard orientation:                         
 ---------------------------------------------------------------------
 Center     Atomic      Atomic             Coordinates (Angstroms)
 Number     Number       Type             X           Y           Z
 ---------------------------------------------------------------------
      1          6           0       -0.171179    0.670148    0.000002
      2          6           0       -0.756410   -0.603204    0.000001
      3          6           0       -2.151781   -0.733056    0.000000
      4          6           0       -2.961921    0.410446   -0.000000
      5          6           0       -2.376690    1.683798    0.000003
      6          6           0       -0.981319    1.813649    0.000003
      7          6           0        1.362196    0.812842    0.000002
      8          6           0        2.172336   -0.330660    0.000002
      9          6           0        3.567707   -0.200808    0.000001
     10          6           0        4.152938    1.072544   -0.000002
     11          6           0        3.342798    2.216045   -0.000003
     12          6           0        1.947427    2.086194   -0.000001
     13          1           0       -2.598618   -1.705289   -0.000001
     14          1           0       -2.995250    2.556887    0.000004
     15          1           0       -0.534482    2.785882    0.000004
     16          1           0        4.186267   -1.073897    0.000002
     17          1           0        5.218335    1.171688   -0.000004
     18          1           0        3.789635    3.188278   -0.000007
     19          1           0        1.328867    2.959283   -0.000004
     20         17           0        0.261034   -2.039313   -0.000002
     21         17           0        1.437352   -1.929846    0.000001
     22         17           0       -4.714350    0.247367   -0.000002
 ---------------------------------------------------------------------
 Rotational constants (GHZ):           0.9320697           0.2816012           0.2162629
 Standard basis: 6-311+G(d,p) (5D, 7F)
 There are   411 symmetry adapted cartesian basis functions of A   symmetry.
 There are   396 symmetry adapted basis functions of A   symmetry.
   396 basis functions,   647 primitive gaussians,   411 cartesian basis functions
    65 alpha electrons       65 beta electrons
       nuclear repulsion energy      1317.6055559174 Hartrees.
 NAtoms=   22 NActive=   22 NUniq=   22 SFac= 1.00D+00 NAtFMM=   60 NAOKFM=F Big=F
 Integral buffers will be    131072 words long.
 Raffenetti 2 integral format.
 Two-electron integral symmetry is turned on.
 One-electron integrals computed using PRISM.
 NBasis=   396 RedAO= T EigKep=  1.19D-06  NBF=   396
 NBsUse=   391 1.00D-06 EigRej=  8.34D-07 NBFU=   391
 ExpMin= 4.38D-02 ExpMax= 1.06D+05 ExpMxC= 3.62D+03 IAcc=3 IRadAn=         5 AccDes= 0.00D+00
 Harris functional with IExCor=  402 and IRadAn=       5 diagonalized for initial guess.
 HarFok:  IExCor=  402 AccDes= 0.00D+00 IRadAn=         5 IDoV= 1 UseB2=F ITyADJ=14
 ICtDFT=  3500011 ScaDFX=  1.000000  1.000000  1.000000  1.000000
 FoFCou: FMM=F IPFlag=           0 FMFlag=      100000 FMFlg1=           0
         NFxFlg=           0 DoJE=T BraDBF=F KetDBF=T FulRan=T
         wScrn=  0.000000 ICntrl=       500 IOpCl=  0 I1Cent=   200000004 NGrid=           0
         NMat0=    1 NMatS0=      1 NMatT0=    0 NMatD0=    1 NMtDS0=    0 NMtDT0=    0
 Petite list used in FoFCou.
 Requested convergence on RMS density matrix=1.00D-08 within  32 cycles.
 Requested convergence on MAX density matrix=1.00D-06.
 Requested convergence on             energy=1.00D-06.
 No special actions if energy rises.
 SCF Done:  E(RB3LYP) =  -1840.65710521     A.U. after   20 cycles
            NFock= 20  Conv=0.75D-08     -V/T= 1.9986
 QCSCF skips out because SCF is already converged.

 **********************************************************************

            Population analysis using the SCF Density.

 **********************************************************************

 Orbital symmetries:
       Occupied  (A) (A) (A) (A) (A) (A) (A) (A) (A) (A) (A) (A)
                 (A) (A) (A) (A) (A) (A) (A) (A) (A) (A) (A) (A)
                 (A) (A) (A) (A) (A) (A) (A) (A) (A) (A) (A) (A)
                 (A) (A) (A) (A) (A) (A) (A) (A) (A) (A) (A) (A)
                 (A) (A) (A) (A) (A) (A) (A) (A) (A) (A) (A) (A)
                 (A) (A) (A) (A) (A)
       Virtual   (A) (A) (A) (A) (A) (A) (A) (A) (A) (A) (A) (A)
                 (A) (A) (A) (A) (A) (A) (A) (A) (A) (A) (A) (A)
                 (A) (A) (A) (A) (A) (A) (A) (A) (A) (A) (A) (A)
                 (A) (A) (A) (A) (A) (A) (A) (A) (A) (A) (A) (A)
                 (A) (A) (A) (A) (A) (A) (A) (A) (A) (A) (A) (A)
                 (A) (A) (A) (A) (A) (A) (A) (A) (A) (A) (A) (A)
                 (A) (A) (A) (A) (A) (A) (A) (A) (A) (A) (A) (A)
                 (A) (A) (A) (A) (A) (A) (A) (A) (A) (A) (A) (A)
                 (A) (A) (A) (A) (A) (A) (A) (A) (A) (A) (A) (A)
                 (A) (A) (A) (A) (A) (A) (A) (A) (A) (A) (A) (A)
                 (A) (A) (A) (A) (A) (A) (A) (A) (A) (A) (A) (A)
                 (A) (A) (A) (A) (A) (A) (A) (A) (A) (A) (A) (A)
                 (A) (A) (A) (A) (A) (A) (A) (A) (A) (A) (A) (A)
                 (A) (A) (A) (A) (A) (A) (A) (A) (A) (A) (A) (A)
                 (A) (A) (A) (A) (A) (A) (A) (A) (A) (A) (A) (A)
                 (A) (A) (A) (A) (A) (A) (A) (A) (A) (A) (A) (A)
                 (A) (A) (A) (A) (A) (A) (A) (A) (A) (A) (A) (A)
                 (A) (A) (A) (A) (A) (A) (A) (A) (A) (A) (A) (A)
                 (A) (A) (A) (A) (A) (A) (A) (A) (A) (A) (A) (A)
                 (A) (A) (A) (A) (A) (A) (A) (A) (A) (A) (A) (A)
                 (A) (A) (A) (A) (A) (A) (A) (A) (A) (A) (A) (A)
                 (A) (A) (A) (A) (A) (A) (A) (A) (A) (A) (A) (A)
                 (A) (A) (A) (A) (A) (A) (A) (A) (A) (A) (A) (A)
                 (A) (A) (A) (A) (A) (A) (A) (A) (A) (A) (A) (A)
                 (A) (A) (A) (A) (A) (A) (A) (A) (A) (A) (A) (A)
                 (A) (A) (A) (A) (A) (A) (A) (A) (A) (A) (A) (A)
                 (A) (A) (A) (A) (A) (A) (A) (A) (A) (A) (A) (A)
                 (A) (A)
 The electronic state is 1-A.
 Alpha  occ. eigenvalues -- -101.65259-101.65189-101.55215 -10.24136 -10.19584
 Alpha  occ. eigenvalues --  -10.19442 -10.18946 -10.18694 -10.18540 -10.18282
 Alpha  occ. eigenvalues --  -10.18181 -10.17975 -10.17917 -10.16597 -10.16232
 Alpha  occ. eigenvalues --   -9.63997  -9.61870  -9.46664  -7.42410  -7.37427
 Alpha  occ. eigenvalues --   -7.37409  -7.36974  -7.36800  -7.36370  -7.23116
 Alpha  occ. eigenvalues --   -7.22154  -7.22120  -1.38350  -0.89538  -0.87468
 Alpha  occ. eigenvalues --   -0.85076  -0.80802  -0.79950  -0.77185  -0.73457
 Alpha  occ. eigenvalues --   -0.71992  -0.71606  -0.70243  -0.64506  -0.62481
 Alpha  occ. eigenvalues --   -0.59857  -0.58007  -0.56637  -0.51896  -0.49060
 Alpha  occ. eigenvalues --   -0.48099  -0.46835  -0.45054  -0.44147  -0.43310
 Alpha  occ. eigenvalues --   -0.40640  -0.40380  -0.39128  -0.38227  -0.37990
 Alpha  occ. eigenvalues --   -0.35060  -0.34434  -0.33895  -0.31571  -0.29898
 Alpha  occ. eigenvalues --   -0.28061  -0.27082  -0.23994  -0.20207  -0.15129
 Alpha virt. eigenvalues --   -0.05425  -0.04238  -0.01842  -0.00891   0.00487
 Alpha virt. eigenvalues --    0.01018   0.01321   0.01443   0.02177   0.02355
 Alpha virt. eigenvalues --    0.02531   0.02964   0.04503   0.04626   0.05999
 Alpha virt. eigenvalues --    0.06570   0.06582   0.06949   0.07109   0.07796
 Alpha virt. eigenvalues --    0.07959   0.09306   0.10164   0.10190   0.10685
 Alpha virt. eigenvalues --    0.11127   0.11628   0.12158   0.12171   0.12749
 Alpha virt. eigenvalues --    0.13200   0.14069   0.14343   0.14525   0.14680
 Alpha virt. eigenvalues --    0.15729   0.15953   0.16238   0.16716   0.17111
 Alpha virt. eigenvalues --    0.17477   0.17632   0.17926   0.18557   0.18938
 Alpha virt. eigenvalues --    0.19124   0.19654   0.19949   0.20254   0.20569
 Alpha virt. eigenvalues --    0.20880   0.21261   0.21690   0.22110   0.22233
 Alpha virt. eigenvalues --    0.22853   0.23477   0.23919   0.24493   0.24672
 Alpha virt. eigenvalues --    0.24800   0.25418   0.26033   0.26641   0.27023
 Alpha virt. eigenvalues --    0.28292   0.28624   0.29008   0.29048   0.29307
 Alpha virt. eigenvalues --    0.30497   0.30642   0.32055   0.32446   0.33377
 Alpha virt. eigenvalues --    0.33962   0.34658   0.35837   0.37468   0.37634
 Alpha virt. eigenvalues --    0.38971   0.41711   0.43069   0.44875   0.45014
 Alpha virt. eigenvalues --    0.45139   0.46240   0.46264   0.47850   0.48665
 Alpha virt. eigenvalues --    0.49658   0.50895   0.51333   0.53064   0.53579
 Alpha virt. eigenvalues --    0.53714   0.54924   0.55242   0.55577   0.55866
 Alpha virt. eigenvalues --    0.56202   0.57809   0.58097   0.59045   0.59467
 Alpha virt. eigenvalues --    0.60050   0.62252   0.62446   0.62703   0.63754
 Alpha virt. eigenvalues --    0.64040   0.66120   0.66701   0.67339   0.67724
 Alpha virt. eigenvalues --    0.67887   0.68932   0.69406   0.70309   0.71757
 Alpha virt. eigenvalues --    0.72380   0.73819   0.74145   0.74906   0.76242
 Alpha virt. eigenvalues --    0.78109   0.79632   0.80366   0.81417   0.82267
 Alpha virt. eigenvalues --    0.84002   0.84449   0.84502   0.85543   0.86111
 Alpha virt. eigenvalues --    0.86824   0.87089   0.88665   0.88854   0.91099
 Alpha virt. eigenvalues --    0.91609   0.92673   0.93094   0.94580   0.95371
 Alpha virt. eigenvalues --    0.96024   0.96434   0.97365   0.97647   0.98759
 Alpha virt. eigenvalues --    0.99807   1.01701   1.03818   1.03950   1.05029
 Alpha virt. eigenvalues --    1.08040   1.08110   1.09481   1.09976   1.10671
 Alpha virt. eigenvalues --    1.11282   1.12010   1.13126   1.16454   1.17322
 Alpha virt. eigenvalues --    1.20099   1.22422   1.26900   1.28236   1.28994
 Alpha virt. eigenvalues --    1.32341   1.32367   1.35265   1.35469   1.40488
 Alpha virt. eigenvalues --    1.42732   1.45191   1.47548   1.50790   1.51588
 Alpha virt. eigenvalues --    1.51596   1.52573   1.53928   1.55194   1.55759
 Alpha virt. eigenvalues --    1.56641   1.59094   1.59315   1.61489   1.62338
 Alpha virt. eigenvalues --    1.65951   1.65956   1.66649   1.69306   1.70629
 Alpha virt. eigenvalues --    1.73276   1.74955   1.76173   1.76676   1.78622
 Alpha virt. eigenvalues --    1.83804   1.84676   1.86498   1.87884   1.89986
 Alpha virt. eigenvalues --    1.90581   1.91936   1.92393   1.95511   1.95845
 Alpha virt. eigenvalues --    1.96631   1.97668   1.98842   1.99268   2.00444
 Alpha virt. eigenvalues --    2.01589   2.01923   2.03768   2.06176   2.07892
 Alpha virt. eigenvalues --    2.08904   2.10002   2.12441   2.19410   2.19500
 Alpha virt. eigenvalues --    2.23590   2.25611   2.27163   2.28199   2.28406
 Alpha virt. eigenvalues --    2.29758   2.33176   2.34106   2.36310   2.38011
 Alpha virt. eigenvalues --    2.41004   2.42565   2.43009   2.45677   2.46971
 Alpha virt. eigenvalues --    2.49530   2.52793   2.56231   2.58074   2.62009
 Alpha virt. eigenvalues --    2.63729   2.66076   2.66382   2.66506   2.67407
 Alpha virt. eigenvalues --    2.69993   2.72152   2.73756   2.74150   2.74757
 Alpha virt. eigenvalues --    2.75498   2.76873   2.77684   2.79165   2.81061
 Alpha virt. eigenvalues --    2.82142   2.82173   2.83895   2.85724   2.86177
 Alpha virt. eigenvalues --    2.87339   2.87714   2.93945   2.95187   2.96588
 Alpha virt. eigenvalues --    3.05267   3.08156   3.09504   3.11474   3.16521
 Alpha virt. eigenvalues --    3.18407   3.22206   3.23887   3.35074   3.36333
 Alpha virt. eigenvalues --    3.38586   3.42062   3.46955   3.53285   3.53487
 Alpha virt. eigenvalues --    3.58350   3.61686   3.67709   3.80214   3.87727
 Alpha virt. eigenvalues --    3.91781   4.05393   4.09103   4.10932   4.15231
 Alpha virt. eigenvalues --    4.23457   4.50238   4.82236   4.85420   9.77765
 Alpha virt. eigenvalues --    9.80809  10.55401  23.47058  23.63657  23.86201
 Alpha virt. eigenvalues --   23.92426  23.95206  23.96933  24.02074  24.05843
 Alpha virt. eigenvalues --   24.06411  24.07927  24.13705  24.16480  25.41870
 Alpha virt. eigenvalues --   25.83296  26.01354  26.13701  26.20483  26.61405
 Alpha virt. eigenvalues --   27.09858  27.39331  28.44458 215.77450 215.90454
 Alpha virt. eigenvalues --  216.87258
          Condensed to atoms (all electrons):
               1          2          3          4          5          6
     1  C   14.780478   3.131743  -3.542785  -3.779760  -0.315560  -0.522567
     2  C    3.131743  34.319515  -3.193340  -5.200262  -3.866037  -2.969105
     3  C   -3.542785  -3.193340  13.458706   1.881050  -2.797509  -2.111454
     4  C   -3.779760  -5.200262   1.881050  14.551384   0.197561  -1.496696
     5  C   -0.315560  -3.866037  -2.797509   0.197561  13.098996   1.668488
     6  C   -0.522567  -2.969105  -2.111454  -1.496696   1.668488  13.115088
     7  C    5.493905   0.740857  -2.664562  -1.180394  -0.195216   0.364903
     8  C    0.819766  12.507863  -1.728036  -0.503651  -1.697506  -3.273003
     9  C   -1.479928  -5.396786   0.600522   0.173280  -0.159216  -0.028547
    10  C   -0.579714  -0.602337   0.250478   0.042596  -0.131059  -0.379749
    11  C   -0.852676   0.071678  -0.239237  -0.328889   0.249234  -0.318873
    12  C   -0.441027  -3.938740  -0.899200  -0.942287   1.655177   2.865253
    13  H    0.091842   0.009276   0.289146   0.009486   0.032796  -0.014337
    14  H    0.024426   0.005537   0.025944   0.026708   0.375751  -0.116501
    15  H    0.069758   0.021321  -0.035022   0.005822  -0.197731   0.357508
    16  H    0.011530   0.015103  -0.003763  -0.000528   0.000332   0.002923
    17  H    0.004902  -0.001704   0.000079   0.000070   0.000146   0.002192
    18  H   -0.002099  -0.000089   0.000053  -0.000170   0.001420   0.008041
    19  H    0.056087   0.003771   0.001446   0.008561  -0.000672   0.028835
    20  Cl  -2.057670 -10.308447   3.407799   1.344150  -0.401729   0.778898
    21  Cl  -4.621938  -8.420578   3.601212   1.422574  -1.070518  -1.972233
    22  Cl  -0.283289  -0.077759   0.253443  -0.908786   0.134581   0.168403
               7          8          9         10         11         12
     1  C    5.493905   0.819766  -1.479928  -0.579714  -0.852676  -0.441027
     2  C    0.740857  12.507863  -5.396786  -0.602337   0.071678  -3.938740
     3  C   -2.664562  -1.728036   0.600522   0.250478  -0.239237  -0.899200
     4  C   -1.180394  -0.503651   0.173280   0.042596  -0.328889  -0.942287
     5  C   -0.195216  -1.697506  -0.159216  -0.131059   0.249234   1.655177
     6  C    0.364903  -3.273003  -0.028547  -0.379749  -0.318873   2.865253
     7  C   17.064614   6.925600  -5.353063  -3.875170  -0.637233   1.518496
     8  C    6.925600  46.988482 -18.206450  -8.703474   1.572170  -5.611976
     9  C   -5.353063 -18.206450  20.787196   3.200562  -2.094965   0.192423
    10  C   -3.875170  -8.703474   3.200562  11.441002   0.370894   0.108652
    11  C   -0.637233   1.572170  -2.094965   0.370894  12.456375  -1.744588
    12  C    1.518496  -5.611976   0.192423   0.108652  -1.744588  15.753323
    13  H    0.010025   0.017438  -0.004152  -0.000385   0.001186   0.002623
    14  H    0.001823  -0.000388   0.000268   0.000085   0.000161   0.012017
    15  H    0.068131   0.044734   0.008096   0.003088  -0.041202  -0.031077
    16  H    0.139990   0.138614   0.312401  -0.100884  -0.025792  -0.016890
    17  H    0.009817  -0.082967  -0.137452   0.502227  -0.028478   0.062265
    18  H    0.025062  -0.006445   0.012842  -0.022525   0.439897  -0.106335
    19  H    0.079687   0.008804   0.006284   0.005875  -0.313248   0.385614
    20  Cl  -0.656059  -2.783700   0.055010  -0.043107  -0.571186   0.439141
    21  Cl -12.254625 -20.265823  13.865943   4.923525  -1.781668  -3.055719
    22  Cl  -0.055240  -0.026765  -0.004174  -0.001059  -0.001994  -0.021530
              13         14         15         16         17         18
     1  C    0.091842   0.024426   0.069758   0.011530   0.004902  -0.002099
     2  C    0.009276   0.005537   0.021321   0.015103  -0.001704  -0.000089
     3  C    0.289146   0.025944  -0.035022  -0.003763   0.000079   0.000053
     4  C    0.009486   0.026708   0.005822  -0.000528   0.000070  -0.000170
     5  C    0.032796   0.375751  -0.197731   0.000332   0.000146   0.001420
     6  C   -0.014337  -0.116501   0.357508   0.002923   0.002192   0.008041
     7  C    0.010025   0.001823   0.068131   0.139990   0.009817   0.025062
     8  C    0.017438  -0.000388   0.044734   0.138614  -0.082967  -0.006445
     9  C   -0.004152   0.000268   0.008096   0.312401  -0.137452   0.012842
    10  C   -0.000385   0.000085   0.003088  -0.100884   0.502227  -0.022525
    11  C    0.001186   0.000161  -0.041202  -0.025792  -0.028478   0.439897
    12  C    0.002623   0.012017  -0.031077  -0.016890   0.062265  -0.106335
    13  H    0.520731  -0.000359   0.000047   0.000001  -0.000000   0.000000
    14  H   -0.000359   0.521475  -0.007985   0.000000  -0.000000  -0.000000
    15  H    0.000047  -0.007985   0.580781  -0.000003   0.000001   0.000002
    16  H    0.000001   0.000000  -0.000003   0.540672  -0.009244  -0.000270
    17  H   -0.000000  -0.000000   0.000001  -0.009244   0.548341  -0.007654
    18  H    0.000000  -0.000000   0.000002  -0.000270  -0.007654   0.541848
    19  H   -0.000003   0.000072   0.004864   0.000038  -0.000191  -0.007918
    20  Cl  -0.110186   0.003071   0.009474   0.005173  -0.001273  -0.000197
    21  Cl   0.018972  -0.001367   0.022210  -0.136011   0.015387  -0.000078
    22  Cl  -0.014835  -0.012102  -0.000040  -0.000001   0.000000  -0.000000
              19         20         21         22
     1  C    0.056087  -2.057670  -4.621938  -0.283289
     2  C    0.003771 -10.308447  -8.420578  -0.077759
     3  C    0.001446   3.407799   3.601212   0.253443
     4  C    0.008561   1.344150   1.422574  -0.908786
     5  C   -0.000672  -0.401729  -1.070518   0.134581
     6  C    0.028835   0.778898  -1.972233   0.168403
     7  C    0.079687  -0.656059 -12.254625  -0.055240
     8  C    0.008804  -2.783700 -20.265823  -0.026765
     9  C    0.006284   0.055010  13.865943  -0.004174
    10  C    0.005875  -0.043107   4.923525  -0.001059
    11  C   -0.313248  -0.571186  -1.781668  -0.001994
    12  C    0.385614   0.439141  -3.055719  -0.021530
    13  H   -0.000003  -0.110186   0.018972  -0.014835
    14  H    0.000072   0.003071  -0.001367  -0.012102
    15  H    0.004864   0.009474   0.022210  -0.000040
    16  H    0.000038   0.005173  -0.136011  -0.000001
    17  H   -0.000191  -0.001273   0.015387   0.000000
    18  H   -0.007918  -0.000197  -0.000078  -0.000000
    19  H    0.588405   0.004328   0.028629  -0.000004
    20  Cl   0.004328  27.586310  -0.725952   0.012663
    21  Cl   0.028629  -0.725952  47.438451  -0.022223
    22  Cl  -0.000004   0.012663  -0.022223  17.446487
 Mulliken charges:
               1
     1  C   -0.005425
     2  C   -0.851481
     3  C   -0.554968
     4  C    0.678181
     5  C   -0.581729
     6  C   -0.157465
     7  C    0.428651
     8  C   -0.133287
     9  C   -0.350092
    10  C   -0.409518
    11  C   -0.181565
    12  C   -0.185615
    13  H    0.140686
    14  H    0.141367
    15  H    0.117221
    16  H    0.126610
    17  H    0.123535
    18  H    0.124614
    19  H    0.110737
    20  Cl   1.013488
    21  Cl  -0.008169
    22  Cl   0.414225
 Sum of Mulliken charges =  -0.00000
 Mulliken charges with hydrogens summed into heavy atoms:
               1
     1  C   -0.005425
     2  C   -0.851481
     3  C   -0.414282
     4  C    0.678181
     5  C   -0.440363
     6  C   -0.040244
     7  C    0.428651
     8  C   -0.133287
     9  C   -0.223482
    10  C   -0.285983
    11  C   -0.056951
    12  C   -0.074878
    20  Cl   1.013488
    21  Cl  -0.008169
    22  Cl   0.414225
 Electronic spatial extent (au):  <R**2>=           4560.8779
 Charge=             -0.0000 electrons
 Dipole moment (field-independent basis, Debye):
    X=              2.4811    Y=             -1.3088    Z=             -0.0000  Tot=              2.8051
 Quadrupole moment (field-independent basis, Debye-Ang):
   XX=           -113.8076   YY=            -93.7479   ZZ=           -111.6989
   XY=             -1.3473   XZ=             -0.0000   YZ=             -0.0000
 Traceless Quadrupole moment (field-independent basis, Debye-Ang):
   XX=             -7.3895   YY=             12.6702   ZZ=             -5.2807
   XY=             -1.3473   XZ=             -0.0000   YZ=             -0.0000
 Octapole moment (field-independent basis, Debye-Ang**2):
  XXX=             55.6785  YYY=            -21.6450  ZZZ=             -0.0000  XYY=              3.4834
  XXY=             -3.3513  XXZ=             -0.0001  XZZ=             -8.0456  YZZ=            -16.5297
  YYZ=             -0.0001  XYZ=             -0.0001
 Hexadecapole moment (field-independent basis, Debye-Ang**3):
 XXXX=          -4614.6179 YYYY=          -1330.1248 ZZZZ=           -136.0997 XXXY=             19.6982
 XXXZ=             -0.0006 YYYX=            -30.6506 YYYZ=             -0.0001 ZZZX=              0.0001
 ZZZY=             -0.0000 XXYY=           -967.3548 XXZZ=           -851.7680 YYZZ=           -281.0418
 XXYZ=             -0.0002 YYXZ=             -0.0003 ZZXY=            -19.3559
 N-N= 1.317605555917D+03 E-N=-6.987192742976D+03  KE= 1.843235940541D+03
 Calling FoFJK, ICntrl=      2127 FMM=F ISym2X=0 I1Cent= 0 IOpClX= 0 NMat=1 NMatS=1 NMatT=0.
 ***** Axes restored to original set *****
 -------------------------------------------------------------------
 Center     Atomic                   Forces (Hartrees/Bohr)
 Number     Number              X              Y              Z
 -------------------------------------------------------------------
      1        6          -0.027381404   -0.013546390    0.006476675
      2        6          -0.059047204    0.097184758    0.037705595
      3        6          -0.016617821   -0.002884707    0.004933153
      4        6          -0.006739418   -0.014372885   -0.000479252
      5        6           0.005002308   -0.007221643   -0.003004264
      6        6           0.021418515    0.004515760   -0.006208283
      7        6          -0.001921975    0.029221787    0.006121518
      8        6          -0.104249109    0.004858699    0.035257573
      9        6          -0.006204684    0.020348597    0.005865812
     10        6           0.007949283    0.012462010   -0.000278397
     11        6           0.014499707    0.000730173   -0.004639762
     12        6           0.003482898   -0.018611808   -0.004642960
     13        1           0.012903872    0.000178927   -0.004217633
     14        1          -0.003389534    0.008041642    0.002627034
     15        1          -0.007408161    0.004404919    0.003267885
     16        1           0.006807777   -0.011208553   -0.004347914
     17        1          -0.005421144   -0.009035195    0.000089086
     18        1          -0.009272741   -0.000230354    0.003011632
     19        1          -0.006692447    0.005115821    0.003165673
     20       17           1.716824311    2.716906743   -0.055348169
     21       17          -1.534334345   -2.827358017   -0.025517612
     22       17          -0.000208684    0.000499718    0.000162610
 -------------------------------------------------------------------
 Cartesian Forces:  Max     2.827358017 RMS     0.560202741

 GradGradGradGradGradGradGradGradGradGradGradGradGradGradGradGradGradGrad
 Berny optimization.
 FormGI is forming the generalized inverse of G from B-inverse, IUseBI=4.
 Internal  Forces:  Max     3.117277322 RMS     0.292516117
 Search for a local minimum.
 Step number   1 out of a maximum of  129
 All quantities printed in internal units (Hartrees-Bohrs-Radians)
 Mixed Optimization -- RFO/linear search
 Second derivative matrix not updated -- first step.
 ITU=  0
     Eigenvalues ---    0.01035   0.01214   0.01489   0.01712   0.01738
     Eigenvalues ---    0.01829   0.02070   0.02070   0.02070   0.02070
     Eigenvalues ---    0.02070   0.02070   0.02070   0.02070   0.02070
     Eigenvalues ---    0.02070   0.02070   0.02070   0.03966   0.16000
     Eigenvalues ---    0.16000   0.16000   0.16000   0.16000   0.16000
     Eigenvalues ---    0.16000   0.22000   0.22442   0.22594   0.23515
     Eigenvalues ---    0.24501   0.24621   0.25000   0.25000   0.25000
     Eigenvalues ---    0.25000   0.28335   0.29040   0.29447   0.29539
     Eigenvalues ---    0.37230   0.37230   0.37230   0.37230   0.37230
     Eigenvalues ---    0.37230   0.37230   0.39937   0.40806   0.41367
     Eigenvalues ---    0.41418   0.44573   0.45129   0.45389   0.45389
     Eigenvalues ---    0.45389   0.45389   0.45389   0.45389  16.61567
 RFO step:  Lambda=-6.26076755D-01 EMin= 1.03510890D-02
 Linear search not attempted -- first point.
 Iteration  1 RMS(Cart)=  0.03001555 RMS(Int)=  0.00049701
 Iteration  2 RMS(Cart)=  0.00118135 RMS(Int)=  0.00022962
 Iteration  3 RMS(Cart)=  0.00000059 RMS(Int)=  0.00022962
 Variable       Old X    -DE/DX   Delta X   Delta X   Delta X     New X
                                 (Linear)    (Quad)   (Total)
    R1        2.64826   0.10226   0.00000   0.01716   0.01683   2.66509
    R2        2.64826   0.01865   0.00000   0.00270   0.00264   2.65091
    R3        2.91018   0.11991   0.00000  -0.01225  -0.01275   2.89743
    R4        2.64826  -0.00781   0.00000  -0.00953  -0.00955   2.63872
    R5        3.32592   0.05333   0.00000   0.12902   0.12925   3.45517
    R6        2.64826  -0.02710   0.00000  -0.01053  -0.01047   2.63779
    R7        2.02201   0.01358   0.00000   0.01360   0.01360   2.03561
    R8        2.64826  -0.03031   0.00000  -0.01120  -0.01113   2.63714
    R9        3.32592   0.00033   0.00000   0.00035   0.00035   3.32627
   R10        2.64826  -0.01036   0.00000  -0.00729  -0.00728   2.64098
   R11        2.02201   0.00908   0.00000   0.00909   0.00909   2.03110
   R12        2.02201   0.00796   0.00000   0.00797   0.00797   2.02998
   R13        2.64826   0.10245   0.00000   0.01726   0.01694   2.66520
   R14        2.64826   0.01894   0.00000   0.00294   0.00288   2.65115
   R15        2.64826  -0.00624   0.00000  -0.00808  -0.00809   2.64017
   R16        3.32592   0.04786   0.00000   0.12304   0.12327   3.44919
   R17        2.64826  -0.02408   0.00000  -0.00770  -0.00764   2.64062
   R18        2.02201   0.01379   0.00000   0.01382   0.01382   2.03582
   R19        2.64826  -0.02772   0.00000  -0.00877  -0.00870   2.63956
   R20        2.02201   0.01054   0.00000   0.01055   0.01055   2.03256
   R21        2.64826  -0.00926   0.00000  -0.00627  -0.00626   2.64201
   R22        2.02201   0.00975   0.00000   0.00977   0.00977   2.03178
   R23        2.02201   0.00825   0.00000   0.00827   0.00827   2.03027
   R24        2.23252   3.11728   0.00000   0.18080   0.18131   2.41383
    A1        2.09440  -0.08186   0.00000  -0.01236  -0.01208   2.08231
    A2        2.09440   0.24632   0.00000   0.01211   0.01119   2.10558
    A3        2.09440  -0.16445   0.00000   0.00025   0.00090   2.09529
    A4        2.09440   0.01496   0.00000  -0.00082  -0.00087   2.09352
    A5        2.09440   0.06823   0.00000   0.02990   0.02972   2.12412
    A6        2.09440  -0.08319   0.00000  -0.02909  -0.02885   2.06555
    A7        2.09440   0.01725   0.00000   0.00346   0.00339   2.09779
    A8        2.09440  -0.00874   0.00000  -0.00187  -0.00184   2.09255
    A9        2.09440  -0.00851   0.00000  -0.00158  -0.00155   2.09284
   A10        2.09440  -0.00261   0.00000   0.00476   0.00478   2.09918
   A11        2.09440   0.00207   0.00000  -0.00150  -0.00151   2.09288
   A12        2.09440   0.00053   0.00000  -0.00326  -0.00327   2.09113
   A13        2.09440   0.00404   0.00000  -0.00317  -0.00320   2.09120
   A14        2.09440  -0.00281   0.00000   0.00058   0.00059   2.09499
   A15        2.09440  -0.00123   0.00000   0.00259   0.00260   2.09700
   A16        2.09440   0.04821   0.00000   0.00814   0.00798   2.10237
   A17        2.09440  -0.01941   0.00000   0.00191   0.00199   2.09638
   A18        2.09440  -0.02880   0.00000  -0.01005  -0.00997   2.08443
   A19        2.09440   0.24637   0.00000   0.01219   0.01127   2.10566
   A20        2.09440  -0.16520   0.00000  -0.00051   0.00013   2.09453
   A21        2.09440  -0.08118   0.00000  -0.01168  -0.01140   2.08299
   A22        2.09440   0.01375   0.00000  -0.00224  -0.00230   2.09210
   A23        2.09440   0.06944   0.00000   0.03125   0.03106   2.12546
   A24        2.09440  -0.08319   0.00000  -0.02900  -0.02876   2.06563
   A25        2.09440   0.02077   0.00000   0.00761   0.00755   2.10194
   A26        2.09440  -0.01118   0.00000  -0.00482  -0.00479   2.08961
   A27        2.09440  -0.00959   0.00000  -0.00279  -0.00276   2.09163
   A28        2.09440  -0.00818   0.00000  -0.00162  -0.00160   2.09279
   A29        2.09440   0.00421   0.00000   0.00097   0.00096   2.09535
   A30        2.09440   0.00397   0.00000   0.00065   0.00064   2.09504
   A31        2.09440   0.00755   0.00000   0.00097   0.00094   2.09534
   A32        2.09440  -0.00380   0.00000  -0.00051  -0.00050   2.09389
   A33        2.09440  -0.00375   0.00000  -0.00046  -0.00044   2.09395
   A34        2.09440   0.04729   0.00000   0.00696   0.00680   2.10120
   A35        2.09440  -0.02002   0.00000   0.00113   0.00121   2.09561
   A36        2.09440  -0.02727   0.00000  -0.00809  -0.00801   2.08638
   A37        2.09440  -0.31568   0.00000  -0.04328  -0.04217   2.05222
   A38        2.09440  -0.31467   0.00000  -0.04218  -0.04107   2.05333
    D1        0.00000  -0.00000   0.00000  -0.00000  -0.00000   0.00000
    D2        3.14159  -0.00000   0.00000  -0.00000  -0.00000   3.14159
    D3       -3.14159  -0.00000   0.00000  -0.00000  -0.00000  -3.14159
    D4       -0.00000  -0.00000   0.00000  -0.00000  -0.00000  -0.00000
    D5       -0.00000   0.00000   0.00000   0.00000   0.00000  -0.00000
    D6        3.14159   0.00000   0.00000   0.00000   0.00000   3.14159
    D7        3.14159   0.00000   0.00000   0.00000   0.00000   3.14159
    D8        0.00000   0.00000   0.00000  -0.00000  -0.00000   0.00000
    D9       -0.00000  -0.00000   0.00000  -0.00000  -0.00000  -0.00000
   D10        3.14159  -0.00000   0.00000  -0.00000  -0.00000   3.14159
   D11        3.14159  -0.00000   0.00000  -0.00000  -0.00000   3.14159
   D12       -0.00000  -0.00000   0.00000  -0.00000  -0.00000  -0.00000
   D13        0.00000   0.00000   0.00000  -0.00000  -0.00000   0.00000
   D14        3.14159   0.00000   0.00000   0.00000   0.00000   3.14159
   D15       -3.14159   0.00000   0.00000  -0.00000  -0.00000  -3.14159
   D16        0.00000   0.00000   0.00000  -0.00000  -0.00000   0.00000
   D17        0.00000  -0.00000   0.00000  -0.00000  -0.00000   0.00000
   D18       -3.14159  -0.00000   0.00000  -0.00000  -0.00000  -3.14159
   D19       -0.00000   0.00000   0.00000   0.00000   0.00000  -0.00000
   D20        3.14159  -0.00000   0.00000  -0.00000  -0.00000   3.14159
   D21        3.14159   0.00000   0.00000   0.00000   0.00000   3.14159
   D22        0.00000   0.00000   0.00000  -0.00000  -0.00000   0.00000
   D23        0.00000  -0.00000   0.00000  -0.00000  -0.00000   0.00000
   D24       -3.14159  -0.00000   0.00000  -0.00000  -0.00000  -3.14159
   D25       -3.14159  -0.00000   0.00000  -0.00000  -0.00000  -3.14159
   D26        0.00000   0.00000   0.00000   0.00000   0.00000   0.00000
   D27       -0.00000   0.00000   0.00000   0.00000   0.00000  -0.00000
   D28        3.14159   0.00000   0.00000   0.00000   0.00000   3.14159
   D29        3.14159  -0.00000   0.00000   0.00000   0.00000   3.14159
   D30       -0.00000   0.00000   0.00000   0.00000   0.00000  -0.00000
   D31        3.14159  -0.00000   0.00000   0.00000   0.00000   3.14159
   D32        0.00000  -0.00000   0.00000   0.00000   0.00000   0.00000
   D33        0.00000  -0.00000   0.00000  -0.00000  -0.00000   0.00000
   D34       -3.14159  -0.00000   0.00000   0.00000   0.00000  -3.14159
   D35       -3.14159  -0.00000   0.00000  -0.00000  -0.00000  -3.14159
   D36        0.00000  -0.00000   0.00000  -0.00000  -0.00000   0.00000
   D37       -0.00000   0.00000   0.00000   0.00000   0.00000  -0.00000
   D38        3.14159   0.00000   0.00000   0.00000   0.00000   3.14159
   D39       -0.00000   0.00000   0.00000   0.00000   0.00000  -0.00000
   D40        3.14159  -0.00000   0.00000   0.00000   0.00000   3.14159
   D41        3.14159   0.00000   0.00000   0.00000   0.00000   3.14159
   D42       -0.00000   0.00000   0.00000   0.00000   0.00000  -0.00000
   D43        0.00000  -0.00000   0.00000  -0.00000  -0.00000   0.00000
   D44       -3.14159  -0.00000   0.00000  -0.00000  -0.00000  -3.14159
   D45       -0.00000   0.00000   0.00000  -0.00000  -0.00000  -0.00000
   D46       -3.14159  -0.00000   0.00000  -0.00000  -0.00000  -3.14159
   D47        3.14159   0.00000   0.00000   0.00000   0.00000   3.14159
   D48        0.00000   0.00000   0.00000  -0.00000  -0.00000   0.00000
   D49        0.00000  -0.00000   0.00000  -0.00000  -0.00000   0.00000
   D50       -3.14159  -0.00000   0.00000  -0.00000  -0.00000  -3.14159
   D51        3.14159   0.00000   0.00000   0.00000   0.00000   3.14159
   D52        0.00000  -0.00000   0.00000  -0.00000  -0.00000   0.00000
   D53        0.00000  -0.00000   0.00000  -0.00000  -0.00000   0.00000
   D54       -3.14159  -0.00000   0.00000  -0.00000  -0.00000  -3.14159
   D55        3.14159   0.00000   0.00000   0.00000   0.00000   3.14159
   D56       -0.00000   0.00000   0.00000   0.00000   0.00000  -0.00000
   D57       -0.00000   0.00000   0.00000   0.00000   0.00000  -0.00000
         Item               Value     Threshold  Converged?
 Maximum Force            3.117277     0.000450     NO 
 RMS     Force            0.292516     0.000300     NO 
 Maximum Displacement     0.192798     0.001800     NO 
 RMS     Displacement     0.029418     0.001200     NO 
 Predicted change in Energy=-3.348816D-01
 GradGradGradGradGradGradGradGradGradGradGradGradGradGradGradGradGradGrad

                          Input orientation:                          
 ---------------------------------------------------------------------
 Center     Atomic      Atomic             Coordinates (Angstroms)
 Number     Number       Type             X           Y           Z
 ---------------------------------------------------------------------
      1          6           0       -0.983969   -0.876770   -0.153193
      2          6           0        0.357339   -0.831102   -0.586517
      3          6           0        1.048999    0.381909   -0.586573
      4          6           0        0.416780    1.550557   -0.158801
      5          6           0       -0.910182    1.515394    0.271767
      6          6           0       -1.608080    0.304580    0.274290
      7          6           0       -1.758407   -2.200048   -0.146574
      8          6           0       -1.143268   -3.395162   -0.573690
      9          6           0       -1.864158   -4.591861   -0.560938
     10          6           0       -3.192385   -4.613452   -0.127399
     11          6           0       -3.805917   -3.432397    0.296547
     12          6           0       -3.092246   -2.230216    0.287204
     13          1           0        2.073470    0.415764   -0.917730
     14          1           0       -1.393222    2.417577    0.600344
     15          1           0       -2.629285    0.284672    0.606992
     16          1           0       -1.392016   -5.503407   -0.887686
     17          1           0       -3.741690   -5.538164   -0.120094
     18          1           0       -4.827846   -3.447847    0.630330
     19          1           0       -3.572260   -1.326673    0.615043
     20         17           0        1.234349   -2.330559   -1.157062
     21         17           0        0.587870   -3.432209   -1.150979
     22         17           0        1.295667    3.075616   -0.161933
 ---------------------------------------------------------------------
                    Distance matrix (angstroms):
                    1          2          3          4          5
     1  C    0.000000
     2  C    1.410306   0.000000
     3  C    2.430032   1.396349   0.000000
     4  C    2.802507   2.420490   1.395860   0.000000
     5  C    2.430738   2.801661   2.420729   1.395513   0.000000
     6  C    1.402799   2.427680   2.794125   2.416626   1.397547
     7  C    1.533252   2.558113   3.839483   4.335738   3.833928
     8  C    2.558220   2.970924   4.367203   5.202500   4.988255
     9  C    3.839647   4.367953   5.764159   6.564578   6.237149
    10  C    4.340571   5.207446   6.569156   7.142973   6.552140
    11  C    3.833651   4.987909   6.236910   6.547392   5.732934
    12  C    2.543737   3.823682   4.973590   5.177492   4.334886
    13  H    3.406332   2.146971   1.077196   2.146706   3.395036
    14  H    3.404119   3.876469   3.393693   2.145724   1.074813
    15  H    2.152648   3.404311   3.868310   3.386357   2.140646
    16  H    4.702313   4.998138   6.378571   7.318567   7.130222
    17  H    5.416153   6.259075   7.629913   8.218536   7.610761
    18  H    4.690387   5.934156   7.119354   7.287858   6.333279
    19  H    2.737125   4.138972   5.071408   4.978929   3.909200
    20  Cl   2.835875   1.828398   2.778002   4.089988   4.629462
    21  Cl   3.161728   2.671614   3.883129   5.083467   5.361637
    22  Cl   4.562694   4.040195   2.738105   1.760187   2.736450
                    6          7          8          9         10
     6  C    0.000000
     7  C    2.544187   0.000000
     8  C    3.824030   1.410362   0.000000
     9  C    4.973763   2.429743   1.397116   0.000000
    10  C    5.182510   2.807344   2.425343   1.397358   0.000000
    11  C    4.335433   2.430501   2.801500   2.418691   1.396797
    12  C    2.937364   1.402926   2.428323   2.793727   2.421103
    13  H    3.871315   4.703237   4.998892   6.380323   7.324402
    14  H    2.148774   4.691876   5.935382   7.120573   7.293967
    15  H    1.074219   2.738635   4.140463   5.072480   4.984780
    16  H    5.927022   3.405242   2.145965   1.077311   2.147414
    17  H    6.232615   3.882928   3.398530   2.148246   1.075585
    18  H    4.957254   3.403239   3.876668   3.392835   2.146513
    19  H    2.575870   2.152419   3.404664   3.868074   3.390935
    20  Cl   4.131843   3.161440   2.669599   3.881957   5.086037
    21  Cl   4.562585   2.834090   1.825233   2.775857   4.090646
    22  Cl   4.037409   6.095919   6.927403   8.302644   8.903121
                   11         12         13         14         15
    11  C    0.000000
    12  C    1.398089   0.000000
    13  H    7.130919   5.927706   0.000000
    14  H    6.335264   4.958499   4.281326   0.000000
    15  H    3.911194   2.577064   4.945489   2.465193   0.000000
    16  H    3.393879   3.871038   6.859087   8.059542   6.104650
    17  H    2.147550   3.395614   8.360716   8.326352   5.972564
    18  H    1.075169   2.147712   8.059289   6.797112   4.331964
    19  H    2.142453   1.074375   6.104077   4.332186   1.867004
    20  Cl   5.360159   4.562389   2.881613   5.704156   4.987883
    21  Cl   4.626089   4.129941   4.131381   6.419645   5.220704
    22  Cl   8.281944   6.899808   2.872458   2.871272   4.877075
                   16         17         18         19         20
    16  H    0.000000
    17  H    2.472120   0.000000
    18  H    4.281895   2.472305   0.000000
    19  H    4.945378   4.278526   2.464976   0.000000
    20  Cl   4.127628   6.010407   6.418201   5.220310   0.000000
    21  Cl   2.877348   4.923705   5.701166   4.985860   1.277342
    22  Cl   9.019423   9.978673   8.982241   6.609127   5.497342
                   21         22
    21  Cl   0.000000
    22  Cl   6.620496   0.000000
 Stoichiometry    C12H7Cl3
 Framework group  C1[X(C12H7Cl3)]
 Deg. of freedom    60
 Full point group                 C1      NOp   1
 Largest Abelian subgroup         C1      NOp   1
 Largest concise Abelian subgroup C1      NOp   1
                         Standard orientation:                         
 ---------------------------------------------------------------------
 Center     Atomic      Atomic             Coordinates (Angstroms)
 Number     Number       Type             X           Y           Z
 ---------------------------------------------------------------------
      1          6           0       -0.175982    0.684133    0.000002
      2          6           0       -0.768876   -0.595491    0.000001
      3          6           0       -2.159719   -0.719377    0.000000
      4          6           0       -2.966019    0.420055   -0.000000
      5          6           0       -2.388605    1.690506    0.000003
      6          6           0       -0.997203    1.821428    0.000003
      7          6           0        1.349472    0.838574    0.000002
      8          6           0        2.186936   -0.296227    0.000002
      9          6           0        3.574910   -0.136656    0.000001
     10          6           0        4.140464    1.141138   -0.000002
     11          6           0        3.315164    2.268047   -0.000003
     12          6           0        1.925156    2.117945   -0.000002
     13          1           0       -2.611626   -1.697197   -0.000001
     14          1           0       -3.013125    2.565262    0.000004
     15          1           0       -0.559361    2.802367    0.000004
     16          1           0        4.212452   -1.005069    0.000002
     17          1           0        5.209796    1.256940   -0.000004
     18          1           0        3.749237    3.251698   -0.000007
     19          1           0        1.298152    2.990382   -0.000004
     20         17           0        0.238611   -2.121272   -0.000002
     21         17           0        1.509294   -1.991006    0.000001
     22         17           0       -4.718477    0.255288   -0.000002
 ---------------------------------------------------------------------
 Rotational constants (GHZ):           0.8863865           0.2805282           0.2130888
 Standard basis: 6-311+G(d,p) (5D, 7F)
 There are   411 symmetry adapted cartesian basis functions of A   symmetry.
 There are   396 symmetry adapted basis functions of A   symmetry.
   396 basis functions,   647 primitive gaussians,   411 cartesian basis functions
    65 alpha electrons       65 beta electrons
       nuclear repulsion energy      1297.1883182730 Hartrees.
 NAtoms=   22 NActive=   22 NUniq=   22 SFac= 1.00D+00 NAtFMM=   60 NAOKFM=F Big=F
 Integral buffers will be    131072 words long.
 Raffenetti 2 integral format.
 Two-electron integral symmetry is turned on.
 One-electron integrals computed using PRISM.
 NBasis=   396 RedAO= T EigKep=  1.30D-06  NBF=   396
 NBsUse=   391 1.00D-06 EigRej=  8.44D-07 NBFU=   391
 Initial guess from the checkpoint file:  "/scratch/pkc/Gau-2594.chk"
 B after Tr=    -0.000000   -0.000000    0.000000
         Rot=    0.999997    0.000000   -0.000000   -0.002503 Ang=  -0.29 deg.
 ExpMin= 4.38D-02 ExpMax= 1.06D+05 ExpMxC= 3.62D+03 IAcc=3 IRadAn=         5 AccDes= 0.00D+00
 Harris functional with IExCor=  402 and IRadAn=       5 diagonalized for initial guess.
 HarFok:  IExCor=  402 AccDes= 0.00D+00 IRadAn=         5 IDoV= 1 UseB2=F ITyADJ=14
 ICtDFT=  3500011 ScaDFX=  1.000000  1.000000  1.000000  1.000000
 FoFCou: FMM=F IPFlag=           0 FMFlag=      100000 FMFlg1=           0
         NFxFlg=           0 DoJE=T BraDBF=F KetDBF=T FulRan=T
         wScrn=  0.000000 ICntrl=       500 IOpCl=  0 I1Cent=   200000004 NGrid=           0
         NMat0=    1 NMatS0=      1 NMatT0=    0 NMatD0=    1 NMtDS0=    0 NMtDT0=    0
 Petite list used in FoFCou.
 Requested convergence on RMS density matrix=1.00D-08 within  32 cycles.
 Requested convergence on MAX density matrix=1.00D-06.
 Requested convergence on             energy=1.00D-06.
 No special actions if energy rises.
 SCF Done:  E(RB3LYP) =  -1841.16472628     A.U. after   17 cycles
            NFock= 17  Conv=0.49D-08     -V/T= 1.9999
 QCSCF skips out because SCF is already converged.
 Calling FoFJK, ICntrl=      2127 FMM=F ISym2X=0 I1Cent= 0 IOpClX= 0 NMat=1 NMatS=1 NMatT=0.
 ***** Axes restored to original set *****
 -------------------------------------------------------------------
 Center     Atomic                   Forces (Hartrees/Bohr)
 Number     Number              X              Y              Z
 -------------------------------------------------------------------
      1        6          -0.020403180   -0.013240875    0.004235053
      2        6          -0.061352347    0.074715157    0.034245007
      3        6          -0.008913256   -0.006275818    0.001757968
      4        6          -0.004327816   -0.008858623   -0.000238116
      5        6           0.001815624   -0.003788965   -0.001309720
      6        6           0.015179661    0.002809397   -0.004473329
      7        6           0.001408898    0.023595702    0.003967498
      8        6          -0.087196007    0.017133363    0.031944706
      9        6           0.000416309    0.014493662    0.002584865
     10        6           0.003547026    0.006074975   -0.000027585
     11        6           0.008992171    0.001242946   -0.002728954
     12        6           0.002341005   -0.013303368   -0.003269785
     13        1           0.008465682    0.000543324   -0.002687017
     14        1          -0.002047237    0.004966879    0.001607342
     15        1          -0.004871098    0.003744168    0.002307943
     16        1           0.004316267   -0.007550323   -0.002840017
     17        1          -0.003425543   -0.005681462    0.000061478
     18        1          -0.005818601    0.000013943    0.001919515
     19        1          -0.004917206    0.002974076    0.002178566
     20       17           1.104110780    1.695350785   -0.045347225
     21       17          -0.947750082   -1.790373331   -0.024012514
     22       17           0.000428950    0.001414387    0.000124322
 -------------------------------------------------------------------
 Cartesian Forces:  Max     1.790373331 RMS     0.352944333

 GradGradGradGradGradGradGradGradGradGradGradGradGradGradGradGradGradGrad
 Berny optimization.
 Using GEDIIS/GDIIS optimizer.
 FormGI is forming the generalized inverse of G from B-inverse, IUseBI=4.
 Internal  Forces:  Max     1.969463946 RMS     0.184814249
 Search for a local minimum.
 Step number   2 out of a maximum of  129
 All quantities printed in internal units (Hartrees-Bohrs-Radians)
 Mixed Optimization -- RFO/linear search
 Update second derivatives using D2CorX and points    1    2
 DE= -5.08D-01 DEPred=-3.35D-01 R= 1.52D+00
 TightC=F SS=  1.41D+00  RLast= 2.74D-01 DXNew= 5.0454D-01 8.2096D-01
 Trust test= 1.52D+00 RLast= 2.74D-01 DXMaxT set to 5.05D-01
 ITU=  1  0
 Use linear search instead of GDIIS.
 Linear search step of   0.547 exceeds DXMaxT=   0.505 but not scaled.
 Quartic linear search produced a step of  2.00000.
 Iteration  1 RMS(Cart)=  0.03917377 RMS(Int)=  0.01605247
 Iteration  2 RMS(Cart)=  0.02224921 RMS(Int)=  0.00127185
 Iteration  3 RMS(Cart)=  0.00021215 RMS(Int)=  0.00126695
 Iteration  4 RMS(Cart)=  0.00000009 RMS(Int)=  0.00126695
 Variable       Old X    -DE/DX   Delta X   Delta X   Delta X     New X
                                 (Linear)    (Quad)   (Total)
    R1        2.66509   0.06061   0.03366   0.00000   0.03188   2.69697
    R2        2.65091   0.01239   0.00529   0.00000   0.00496   2.65587
    R3        2.89743   0.06139  -0.02550   0.00000  -0.02811   2.86932
    R4        2.63872  -0.00602  -0.01909   0.00000  -0.01917   2.61955
    R5        3.45517   0.06489   0.25851   0.00000   0.25954   3.71471
    R6        2.63779  -0.01558  -0.02094   0.00000  -0.02060   2.61719
    R7        2.03561   0.00889   0.02720   0.00000   0.02720   2.06280
    R8        2.63714  -0.01872  -0.02225   0.00000  -0.02183   2.61530
    R9        3.32627   0.00144   0.00071   0.00000   0.00071   3.32698
   R10        2.64098  -0.00676  -0.01456   0.00000  -0.01448   2.62651
   R11        2.03110   0.00558   0.01819   0.00000   0.01819   2.04929
   R12        2.02998   0.00528   0.01595   0.00000   0.01595   2.04593
   R13        2.66520   0.06059   0.03387   0.00000   0.03210   2.69729
   R14        2.65115   0.01254   0.00577   0.00000   0.00544   2.65659
   R15        2.64017  -0.00534  -0.01619   0.00000  -0.01626   2.62391
   R16        3.44919   0.05938   0.24654   0.00000   0.24756   3.69675
   R17        2.64062  -0.01368  -0.01528   0.00000  -0.01495   2.62567
   R18        2.03582   0.00914   0.02763   0.00000   0.02763   2.06345
   R19        2.63956  -0.01714  -0.01740   0.00000  -0.01699   2.62258
   R20        2.03256   0.00663   0.02111   0.00000   0.02111   2.05367
   R21        2.64201  -0.00627  -0.01251   0.00000  -0.01243   2.62957
   R22        2.03178   0.00613   0.01954   0.00000   0.01954   2.05131
   R23        2.03027   0.00536   0.01653   0.00000   0.01653   2.04681
   R24        2.41383   1.96946   0.36261   0.00000   0.36521   2.77904
    A1        2.08231  -0.04927  -0.02417   0.00000  -0.02270   2.05961
    A2        2.10558   0.14654   0.02238   0.00000   0.01734   2.12292
    A3        2.09529  -0.09727   0.00179   0.00000   0.00536   2.10065
    A4        2.09352   0.00808  -0.00175   0.00000  -0.00200   2.09152
    A5        2.12412   0.05436   0.05944   0.00000   0.05827   2.18238
    A6        2.06555  -0.06243  -0.05770   0.00000  -0.05626   2.00929
    A7        2.09779   0.01171   0.00679   0.00000   0.00642   2.10421
    A8        2.09255  -0.00558  -0.00368   0.00000  -0.00350   2.08906
    A9        2.09284  -0.00613  -0.00310   0.00000  -0.00292   2.08992
   A10        2.09918  -0.00199   0.00956   0.00000   0.00970   2.10887
   A11        2.09288   0.00159  -0.00302   0.00000  -0.00309   2.08979
   A12        2.09113   0.00040  -0.00654   0.00000  -0.00660   2.08452
   A13        2.09120   0.00137  -0.00639   0.00000  -0.00650   2.08470
   A14        2.09499  -0.00124   0.00119   0.00000   0.00124   2.09623
   A15        2.09700  -0.00013   0.00521   0.00000   0.00526   2.10226
   A16        2.10237   0.03010   0.01596   0.00000   0.01509   2.11746
   A17        2.09638  -0.01109   0.00398   0.00000   0.00441   2.10080
   A18        2.08443  -0.01901  -0.01993   0.00000  -0.01950   2.06493
   A19        2.10566   0.14662   0.02254   0.00000   0.01749   2.12315
   A20        2.09453  -0.09759   0.00027   0.00000   0.00383   2.09836
   A21        2.08299  -0.04903  -0.02280   0.00000  -0.02131   2.06168
   A22        2.09210   0.00737  -0.00459   0.00000  -0.00483   2.08727
   A23        2.12546   0.05514   0.06212   0.00000   0.06092   2.18638
   A24        2.06563  -0.06251  -0.05753   0.00000  -0.05609   2.00954
   A25        2.10194   0.01437   0.01510   0.00000   0.01473   2.11667
   A26        2.08961  -0.00756  -0.00957   0.00000  -0.00939   2.08022
   A27        2.09163  -0.00681  -0.00553   0.00000  -0.00534   2.08629
   A28        2.09279  -0.00622  -0.00320   0.00000  -0.00308   2.08972
   A29        2.09535   0.00316   0.00192   0.00000   0.00185   2.09721
   A30        2.09504   0.00306   0.00128   0.00000   0.00122   2.09626
   A31        2.09534   0.00408   0.00189   0.00000   0.00176   2.09710
   A32        2.09389  -0.00194  -0.00100   0.00000  -0.00094   2.09295
   A33        2.09395  -0.00215  -0.00089   0.00000  -0.00082   2.09313
   A34        2.10120   0.02943   0.01361   0.00000   0.01274   2.11393
   A35        2.09561  -0.01167   0.00242   0.00000   0.00286   2.09846
   A36        2.08638  -0.01776  -0.01603   0.00000  -0.01559   2.07079
   A37        2.05222  -0.20196  -0.08434   0.00000  -0.07809   1.97414
   A38        2.05333  -0.20070  -0.08214   0.00000  -0.07592   1.97740
    D1        0.00000  -0.00000  -0.00000   0.00000  -0.00000   0.00000
    D2        3.14159  -0.00000  -0.00000   0.00000  -0.00000   3.14159
    D3       -3.14159  -0.00000  -0.00000   0.00000  -0.00000  -3.14159
    D4       -0.00000  -0.00000  -0.00000   0.00000  -0.00000  -0.00000
    D5       -0.00000   0.00000   0.00000   0.00000   0.00000  -0.00000
    D6        3.14159   0.00000   0.00000   0.00000   0.00000   3.14159
    D7        3.14159   0.00000   0.00000   0.00000   0.00000   3.14159
    D8        0.00000  -0.00000  -0.00000   0.00000  -0.00000   0.00000
    D9       -0.00000  -0.00000  -0.00000   0.00000  -0.00000  -0.00000
   D10        3.14159  -0.00000  -0.00000   0.00000  -0.00000   3.14159
   D11        3.14159  -0.00000  -0.00000   0.00000  -0.00000   3.14159
   D12       -0.00000  -0.00000  -0.00000   0.00000  -0.00000  -0.00000
   D13        0.00000   0.00000  -0.00000   0.00000  -0.00000   0.00000
   D14        3.14159   0.00000   0.00000   0.00000   0.00000   3.14159
   D15       -3.14159   0.00000  -0.00000   0.00000  -0.00000  -3.14159
   D16        0.00000   0.00000  -0.00000   0.00000  -0.00000   0.00000
   D17        0.00000  -0.00000  -0.00000   0.00000  -0.00000   0.00000
   D18       -3.14159  -0.00000  -0.00000   0.00000  -0.00000  -3.14159
   D19       -0.00000   0.00000   0.00000   0.00000   0.00000  -0.00000
   D20        3.14159  -0.00000  -0.00000   0.00000  -0.00000   3.14159
   D21        3.14159   0.00000   0.00000   0.00000   0.00000   3.14159
   D22        0.00000   0.00000  -0.00000   0.00000  -0.00000   0.00000
   D23        0.00000  -0.00000  -0.00000   0.00000  -0.00000   0.00000
   D24       -3.14159  -0.00000  -0.00000   0.00000  -0.00000  -3.14159
   D25       -3.14159  -0.00000  -0.00000   0.00000  -0.00000  -3.14159
   D26        0.00000   0.00000   0.00000   0.00000   0.00000   0.00000
   D27       -0.00000   0.00000   0.00000   0.00000   0.00000  -0.00000
   D28        3.14159   0.00000   0.00000   0.00000   0.00000   3.14159
   D29        3.14159  -0.00000   0.00000   0.00000   0.00000   3.14159
   D30       -0.00000   0.00000   0.00000   0.00000   0.00000  -0.00000
   D31        3.14159  -0.00000   0.00000   0.00000   0.00000   3.14159
   D32        0.00000  -0.00000   0.00000   0.00000   0.00000   0.00000
   D33        0.00000  -0.00000  -0.00000   0.00000  -0.00000   0.00000
   D34       -3.14159  -0.00000   0.00000   0.00000   0.00000  -3.14159
   D35       -3.14159  -0.00000  -0.00000   0.00000  -0.00000  -3.14159
   D36        0.00000  -0.00000  -0.00000   0.00000  -0.00000   0.00000
   D37       -0.00000   0.00000   0.00000   0.00000   0.00000  -0.00000
   D38        3.14159   0.00000   0.00000   0.00000   0.00000   3.14159
   D39       -0.00000   0.00000   0.00000   0.00000   0.00000  -0.00000
   D40        3.14159  -0.00000   0.00000   0.00000   0.00000   3.14159
   D41        3.14159   0.00000   0.00000   0.00000   0.00000   3.14159
   D42       -0.00000   0.00000   0.00000   0.00000   0.00000  -0.00000
   D43        0.00000  -0.00000  -0.00000   0.00000  -0.00000   0.00000
   D44       -3.14159  -0.00000  -0.00000   0.00000  -0.00000  -3.14159
   D45       -0.00000   0.00000  -0.00000   0.00000  -0.00000  -0.00000
   D46       -3.14159  -0.00000  -0.00000   0.00000  -0.00000  -3.14159
   D47        3.14159   0.00000   0.00000   0.00000   0.00000   3.14159
   D48        0.00000  -0.00000  -0.00000   0.00000  -0.00000   0.00000
   D49        0.00000  -0.00000  -0.00000   0.00000  -0.00000   0.00000
   D50       -3.14159  -0.00000  -0.00000   0.00000  -0.00000  -3.14159
   D51        3.14159   0.00000   0.00000   0.00000   0.00000   3.14159
   D52        0.00000  -0.00000  -0.00000   0.00000  -0.00000   0.00000
   D53        0.00000  -0.00000  -0.00000   0.00000  -0.00000   0.00000
   D54       -3.14159  -0.00000  -0.00000   0.00000  -0.00000  -3.14159
   D55        3.14159   0.00000   0.00000   0.00000   0.00000   3.14159
   D56       -0.00000   0.00000   0.00000   0.00000   0.00000  -0.00000
   D57       -0.00000   0.00000   0.00000   0.00000   0.00000  -0.00000
         Item               Value     Threshold  Converged?
 Maximum Force            1.969464     0.000450     NO 
 RMS     Force            0.184814     0.000300     NO 
 Maximum Displacement     0.371894     0.001800     NO 
 RMS     Displacement     0.054865     0.001200     NO 
 Predicted change in Energy=-3.662142D-01
 GradGradGradGradGradGradGradGradGradGradGradGradGradGradGradGradGradGrad

                          Input orientation:                          
 ---------------------------------------------------------------------
 Center     Atomic      Atomic             Coordinates (Angstroms)
 Number     Number       Type             X           Y           Z
 ---------------------------------------------------------------------
      1          6           0       -0.989103   -0.881017   -0.152300
      2          6           0        0.368635   -0.810164   -0.586306
      3          6           0        1.033122    0.406360   -0.576750
      4          6           0        0.390671    1.556355   -0.149110
      5          6           0       -0.925444    1.516793    0.277058
      6          6           0       -1.608291    0.306215    0.274667
      7          6           0       -1.755770   -2.191610   -0.145859
      8          6           0       -1.154161   -3.413290   -0.573506
      9          6           0       -1.894966   -4.587435   -0.549957
     10          6           0       -3.215226   -4.598813   -0.117125
[...]
     17          1           0        5.243059    0.813829   -0.515731
     18          1           0        3.774154    1.898581   -2.207773
     19          1           0        1.315834    1.700126   -2.005836
     20         17           0       -0.035943   -1.997419   -1.359109
     21         17           0        1.545432   -0.970644    2.076224
     22         17           0       -4.663449    0.336704    0.175889
 ---------------------------------------------------------------------
 Rotational constants (GHZ):           0.8221013           0.2424503           0.2405561

 **********************************************************************

            Population analysis using the SCF Density.

 **********************************************************************

 Orbital symmetries:
       Occupied  (A) (A) (A) (A) (A) (A) (A) (A) (A) (A) (A) (A)
                 (A) (A) (A) (A) (A) (A) (A) (A) (A) (A) (A) (A)
                 (A) (A) (A) (A) (A) (A) (A) (A) (A) (A) (A) (A)
                 (A) (A) (A) (A) (A) (A) (A) (A) (A) (A) (A) (A)
                 (A) (A) (A) (A) (A) (A) (A) (A) (A) (A) (A) (A)
                 (A) (A) (A) (A) (A)
       Virtual   (A) (A) (A) (A) (A) (A) (A) (A) (A) (A) (A) (A)
                 (A) (A) (A) (A) (A) (A) (A) (A) (A) (A) (A) (A)
                 (A) (A) (A) (A) (A) (A) (A) (A) (A) (A) (A) (A)
                 (A) (A) (A) (A) (A) (A) (A) (A) (A) (A) (A) (A)
                 (A) (A) (A) (A) (A) (A) (A) (A) (A) (A) (A) (A)
                 (A) (A) (A) (A) (A) (A) (A) (A) (A) (A) (A) (A)
                 (A) (A) (A) (A) (A) (A) (A) (A) (A) (A) (A) (A)
                 (A) (A) (A) (A) (A) (A) (A) (A) (A) (A) (A) (A)
                 (A) (A) (A) (A) (A) (A) (A) (A) (A) (A) (A) (A)
                 (A) (A) (A) (A) (A) (A) (A) (A) (A) (A) (A) (A)
                 (A) (A) (A) (A) (A) (A) (A) (A) (A) (A) (A) (A)
                 (A) (A) (A) (A) (A) (A) (A) (A) (A) (A) (A) (A)
                 (A) (A) (A) (A) (A) (A) (A) (A) (A) (A) (A) (A)
                 (A) (A) (A) (A) (A) (A) (A) (A) (A) (A) (A) (A)
                 (A) (A) (A) (A) (A) (A) (A) (A) (A) (A) (A) (A)
                 (A) (A) (A) (A) (A) (A) (A) (A) (A) (A) (A) (A)
                 (A) (A) (A) (A) (A) (A) (A) (A) (A) (A) (A) (A)
                 (A) (A) (A) (A) (A) (A) (A) (A) (A) (A) (A) (A)
                 (A) (A) (A) (A) (A) (A) (A) (A) (A) (A) (A) (A)
                 (A) (A) (A) (A) (A) (A) (A) (A) (A) (A) (A) (A)
                 (A) (A) (A) (A) (A) (A) (A) (A) (A) (A) (A) (A)
                 (A) (A) (A) (A) (A) (A) (A) (A) (A) (A) (A) (A)
                 (A) (A) (A) (A) (A) (A) (A) (A) (A) (A) (A) (A)
                 (A) (A) (A) (A) (A) (A) (A) (A) (A) (A) (A) (A)
                 (A) (A) (A) (A) (A) (A) (A) (A) (A) (A) (A) (A)
                 (A) (A) (A) (A) (A) (A) (A) (A) (A) (A) (A) (A)
                 (A) (A) (A) (A) (A) (A) (A) (A) (A) (A) (A) (A)
                 (A) (A) (A) (A) (A)
 The electronic state is 1-A.
 Alpha  occ. eigenvalues -- -101.56500-101.56296-101.55894 -10.25839 -10.25679
 Alpha  occ. eigenvalues --  -10.25106 -10.21630 -10.21363 -10.20732 -10.20561
 Alpha  occ. eigenvalues --  -10.20294 -10.19852 -10.19829 -10.19722 -10.19402
 Alpha  occ. eigenvalues --   -9.47955  -9.47768  -9.47367  -7.24420  -7.24234
 Alpha  occ. eigenvalues --   -7.23825  -7.23437  -7.23401  -7.23251  -7.23203
 Alpha  occ. eigenvalues --   -7.22853  -7.22809  -0.92618  -0.90571  -0.88412
 Alpha  occ. eigenvalues --   -0.85064  -0.84203  -0.79595  -0.76511  -0.75399
 Alpha  occ. eigenvalues --   -0.73402  -0.64716  -0.63536  -0.62408  -0.60068
 Alpha  occ. eigenvalues --   -0.54970  -0.51731  -0.50963  -0.49214  -0.48476
 Alpha  occ. eigenvalues --   -0.47093  -0.45361  -0.44879  -0.44478  -0.42381
 Alpha  occ. eigenvalues --   -0.41134  -0.40772  -0.38944  -0.38030  -0.37424
 Alpha  occ. eigenvalues --   -0.37130  -0.34622  -0.33300  -0.33098  -0.32401
 Alpha  occ. eigenvalues --   -0.32197  -0.27771  -0.27468  -0.26276  -0.25947
 Alpha virt. eigenvalues --   -0.04725  -0.04299  -0.03405  -0.03055  -0.01191
 Alpha virt. eigenvalues --   -0.00529   0.00322   0.01479   0.01877   0.02014
 Alpha virt. eigenvalues --    0.02130   0.03241   0.04005   0.04586   0.04999
 Alpha virt. eigenvalues --    0.05413   0.05809   0.06156   0.06764   0.07238
 Alpha virt. eigenvalues --    0.08492   0.08867   0.09294   0.09639   0.09892
 Alpha virt. eigenvalues --    0.10435   0.10606   0.10653   0.11380   0.11765
 Alpha virt. eigenvalues --    0.12535   0.12780   0.13160   0.13494   0.13601
 Alpha virt. eigenvalues --    0.14018   0.14490   0.15084   0.15225   0.16035
 Alpha virt. eigenvalues --    0.16310   0.16555   0.17496   0.17748   0.18035
 Alpha virt. eigenvalues --    0.18196   0.18564   0.18751   0.19284   0.19999
 Alpha virt. eigenvalues --    0.20133   0.20419   0.20628   0.21032   0.21469
 Alpha virt. eigenvalues --    0.21627   0.22293   0.22754   0.22945   0.23604
 Alpha virt. eigenvalues --    0.24178   0.24255   0.24732   0.25583   0.25943
 Alpha virt. eigenvalues --    0.26252   0.26536   0.26862   0.27229   0.27663
 Alpha virt. eigenvalues --    0.28181   0.28976   0.29263   0.29535   0.30019
 Alpha virt. eigenvalues --    0.30865   0.31626   0.32170   0.32966   0.33571
 Alpha virt. eigenvalues --    0.34064   0.36154   0.36412   0.41197   0.42498
 Alpha virt. eigenvalues --    0.43780   0.45428   0.46108   0.46477   0.46878
 Alpha virt. eigenvalues --    0.47783   0.48395   0.50240   0.50449   0.51098
 Alpha virt. eigenvalues --    0.51419   0.52213   0.53239   0.54666   0.55266
 Alpha virt. eigenvalues --    0.55436   0.56559   0.57164   0.57673   0.58052
 Alpha virt. eigenvalues --    0.58292   0.59057   0.59678   0.62077   0.62527
 Alpha virt. eigenvalues --    0.63658   0.63946   0.64763   0.64917   0.65772
 Alpha virt. eigenvalues --    0.66651   0.67439   0.67584   0.68589   0.69609
 Alpha virt. eigenvalues --    0.69948   0.70516   0.71255   0.71657   0.72575
 Alpha virt. eigenvalues --    0.73033   0.74061   0.76257   0.79073   0.81019
 Alpha virt. eigenvalues --    0.81622   0.82194   0.83045   0.83344   0.84017
 Alpha virt. eigenvalues --    0.84645   0.84919   0.85444   0.85679   0.86261
 Alpha virt. eigenvalues --    0.87166   0.88041   0.88415   0.89097   0.89223
 Alpha virt. eigenvalues --    0.90510   0.90919   0.92805   0.94306   0.94960
 Alpha virt. eigenvalues --    0.95752   0.96554   0.96852   0.97624   0.98033
 Alpha virt. eigenvalues --    0.98275   0.99897   1.00293   1.01784   1.02113
 Alpha virt. eigenvalues --    1.03183   1.04102   1.05135   1.08063   1.09392
 Alpha virt. eigenvalues --    1.13162   1.14909   1.16016   1.17293   1.19546
 Alpha virt. eigenvalues --    1.23318   1.24534   1.24781   1.27157   1.28186
 Alpha virt. eigenvalues --    1.30755   1.31550   1.32953   1.33469   1.39649
 Alpha virt. eigenvalues --    1.40194   1.43503   1.48121   1.48979   1.49655
 Alpha virt. eigenvalues --    1.51509   1.52528   1.55092   1.55650   1.56325
 Alpha virt. eigenvalues --    1.57751   1.57948   1.58919   1.60874   1.64508
 Alpha virt. eigenvalues --    1.64899   1.66298   1.67663   1.69310   1.70371
 Alpha virt. eigenvalues --    1.72445   1.74005   1.76373   1.77957   1.80581
 Alpha virt. eigenvalues --    1.82078   1.83953   1.85688   1.86810   1.88149
 Alpha virt. eigenvalues --    1.88988   1.92756   1.93768   1.94281   1.94571
 Alpha virt. eigenvalues --    1.95297   1.96682   1.98672   2.00270   2.01168
 Alpha virt. eigenvalues --    2.02776   2.03551   2.03859   2.04932   2.07326
 Alpha virt. eigenvalues --    2.13019   2.14549   2.20671   2.22058   2.23973
 Alpha virt. eigenvalues --    2.27219   2.27602   2.28724   2.30619   2.31838
 Alpha virt. eigenvalues --    2.35590   2.37227   2.38395   2.39065   2.39962
 Alpha virt. eigenvalues --    2.42460   2.44979   2.49014   2.51105   2.52082
 Alpha virt. eigenvalues --    2.54288   2.55394   2.57006   2.58418   2.60197
 Alpha virt. eigenvalues --    2.61091   2.67850   2.68866   2.69403   2.70256
 Alpha virt. eigenvalues --    2.70597   2.72688   2.73227   2.73579   2.75346
 Alpha virt. eigenvalues --    2.75582   2.77244   2.78342   2.79196   2.81234
 Alpha virt. eigenvalues --    2.82562   2.84298   2.84676   2.85646   2.85727
 Alpha virt. eigenvalues --    2.88439   2.91175   2.99425   3.00147   3.10105
 Alpha virt. eigenvalues --    3.10273   3.12980   3.13907   3.14663   3.20220
 Alpha virt. eigenvalues --    3.22510   3.27580   3.32793   3.33637   3.39033
 Alpha virt. eigenvalues --    3.43650   3.51566   3.54594   3.55986   3.60688
 Alpha virt. eigenvalues --    3.70270   3.78533   3.81739   3.89064   4.02223
 Alpha virt. eigenvalues --    4.05842   4.07494   4.12754   4.13486   4.36060
 Alpha virt. eigenvalues --    4.81575   4.82821   9.77176   9.81837   9.83309
 Alpha virt. eigenvalues --   23.44613  23.60775  23.86371  23.89751  23.91863
 Alpha virt. eigenvalues --   23.94815  23.99541  24.05510  24.06351  24.09149
 Alpha virt. eigenvalues --   24.14487  24.17381  25.82414  25.86397  25.96172
 Alpha virt. eigenvalues --   26.10545  26.25217  26.30609  26.58090  26.65491
 Alpha virt. eigenvalues --   26.81045 215.76258 215.82085 215.83334
          Condensed to atoms (all electrons):
               1          2          3          4          5          6
     1  C   24.450047  -4.061778   0.987276  -4.414561  -2.108874  -2.380652
     2  C   -4.061778  30.705995  -4.584610  -1.846914   0.363286  -5.786506
     3  C    0.987276  -4.584610  22.383133  -0.005297  -9.002257   0.087187
     4  C   -4.414561  -1.846914  -0.005297  16.879082  -2.479008   0.037680
     5  C   -2.108874   0.363286  -9.002257  -2.479008  18.026120  -0.369909
     6  C   -2.380652  -5.786506   0.087187   0.037680  -0.369909  15.743479
     7  C    1.722984  -3.732425  -2.609189  -1.035022   0.731120  -0.348065
     8  C   -3.065053  -5.053112   1.214045  -1.122513   1.113362  -2.882859
     9  C    1.179772   0.257125   1.272393  -0.234544   0.186351  -2.483359
    10  C   -0.804989  -0.480019  -0.100253  -0.010833   0.012917   0.281529
    11  C    0.435522   0.714029   0.016610   0.076908  -0.053989  -0.238395
    12  C   -4.198053  -0.490920  -2.767794   0.418913  -0.246848   4.045425
    13  H    0.079714  -0.005095   0.203326   0.007570   0.075569  -0.028406
    14  H    0.008155  -0.004349   0.055135   0.043424   0.303069  -0.056625
    15  H    0.033447  -0.058311  -0.026154  -0.017978  -0.048213   0.317818
    16  H    0.005105  -0.000032  -0.000491   0.000104  -0.000616   0.001587
    17  H    0.007451   0.002070   0.000217   0.000013  -0.000126  -0.001741
    18  H   -0.000986   0.000650  -0.000258   0.000083  -0.000478   0.000943
    19  H    0.091942   0.061848   0.017729   0.005421  -0.012151  -0.002100
    20  Cl  -1.417675   1.029935  -0.548398  -0.209523   0.346546  -0.342702
    21  Cl  -1.005460  -0.068682  -0.575154   0.055083  -0.012959   0.625919
    22  Cl  -0.180308  -0.108758   0.480930  -1.124261   0.002225   0.284312
               7          8          9         10         11         12
     1  C    1.722984  -3.065053   1.179772  -0.804989   0.435522  -4.198053
     2  C   -3.732425  -5.053112   0.257125  -0.480019   0.714029  -0.490920
     3  C   -2.609189   1.214045   1.272393  -0.100253   0.016610  -2.767794
     4  C   -1.035022  -1.122513  -0.234544  -0.010833   0.076908   0.418913
     5  C    0.731120   1.113362   0.186351   0.012917  -0.053989  -0.246848
     6  C   -0.348065  -2.882859  -2.483359   0.281529  -0.238395   4.045425
     7  C   27.467467  -5.237009  -3.941555  -3.300336  -1.462096  -4.220388
     8  C   -5.237009  37.549157  -9.193629  -0.060382  -3.957379  -2.502554
     9  C   -3.941555  -9.193629  29.455581   1.194720   2.893431 -11.454345
    10  C   -3.300336  -0.060382   1.194720   7.142646   0.193878   1.613308
    11  C   -1.462096  -3.957379   2.893431   0.193878   8.484223  -1.022136
    12  C   -4.220388  -2.502554 -11.454345   1.613308  -1.022136  25.085019
    13  H    0.021203  -0.001911  -0.000555   0.000123  -0.000264   0.003663
    14  H    0.005834  -0.001032  -0.000437   0.000125  -0.000378   0.002037
    15  H    0.069902   0.099013   0.022086   0.005130  -0.012421  -0.028079
    16  H    0.108107   0.024864   0.289359  -0.057596  -0.029762   0.014738
    17  H    0.039042  -0.044888   0.019328   0.338833   0.042034  -0.051880
    18  H   -0.006712   0.014398  -0.027752   0.012360   0.354018   0.002371
    19  H    0.048619  -0.081058   0.020837  -0.021470  -0.050126   0.273442
    20  Cl   0.107149  -0.182568  -0.492423   0.003043  -0.005329   0.707940
    21  Cl   0.655351  -0.185833  -2.160480   0.114975  -0.136178   1.318426
    22  Cl  -0.054511  -0.058704  -0.006057  -0.000321   0.003529   0.022521
              13         14         15         16         17         18
     1  C    0.079714   0.008155   0.033447   0.005105   0.007451  -0.000986
     2  C   -0.005095  -0.004349  -0.058311  -0.000032   0.002070   0.000650
     3  C    0.203326   0.055135  -0.026154  -0.000491   0.000217  -0.000258
     4  C    0.007570   0.043424  -0.017978   0.000104   0.000013   0.000083
     5  C    0.075569   0.303069  -0.048213  -0.000616  -0.000126  -0.000478
     6  C   -0.028406  -0.056625   0.317818   0.001587  -0.001741   0.000943
     7  C    0.021203   0.005834   0.069902   0.108107   0.039042  -0.006712
     8  C   -0.001911  -0.001032   0.099013   0.024864  -0.044888   0.014398
     9  C   -0.000555  -0.000437   0.022086   0.289359   0.019328  -0.027752
    10  C    0.000123   0.000125   0.005130  -0.057596   0.338833   0.012360
    11  C   -0.000264  -0.000378  -0.012421  -0.029762   0.042034   0.354018
    12  C    0.003663   0.002037  -0.028079   0.014738  -0.051880   0.002371
    13  H    0.494811  -0.000271   0.000047   0.000000  -0.000000   0.000000
    14  H   -0.000271   0.510447  -0.007392   0.000000  -0.000000   0.000000
    15  H    0.000047  -0.007392   0.529582   0.000001  -0.000003   0.000003
    16  H    0.000000   0.000000   0.000001   0.513286  -0.007800  -0.000211
    17  H   -0.000000  -0.000000  -0.000003  -0.007800   0.530767  -0.007641
    18  H    0.000000   0.000000   0.000003  -0.000211  -0.007641   0.532421
    19  H    0.000000   0.000007  -0.000359   0.000053  -0.000260  -0.007303
    20  Cl  -0.005783   0.000877  -0.001877  -0.000859  -0.000309  -0.000257
    21  Cl  -0.000570  -0.000253  -0.009214  -0.009292  -0.000002   0.001169
    22  Cl  -0.012684  -0.011294  -0.000498  -0.000001   0.000000  -0.000001
              19         20         21         22
     1  C    0.091942  -1.417675  -1.005460  -0.180308
     2  C    0.061848   1.029935  -0.068682  -0.108758
     3  C    0.017729  -0.548398  -0.575154   0.480930
     4  C    0.005421  -0.209523   0.055083  -1.124261
     5  C   -0.012151   0.346546  -0.012959   0.002225
     6  C   -0.002100  -0.342702   0.625919   0.284312
     7  C    0.048619   0.107149   0.655351  -0.054511
     8  C   -0.081058  -0.182568  -0.185833  -0.058704
     9  C    0.020837  -0.492423  -2.160480  -0.006057
    10  C   -0.021470   0.003043   0.114975  -0.000321
    11  C   -0.050126  -0.005329  -0.136178   0.003529
    12  C    0.273442   0.707940   1.318426   0.022521
    13  H    0.000000  -0.005783  -0.000570  -0.012684
    14  H    0.000007   0.000877  -0.000253  -0.011294
    15  H   -0.000359  -0.001877  -0.009214  -0.000498
    16  H    0.000053  -0.000859  -0.009292  -0.000001
    17  H   -0.000260  -0.000309  -0.000002   0.000000
    18  H   -0.007303  -0.000257   0.001169  -0.000001
    19  H    0.536438  -0.006387  -0.003462   0.000066
    20  Cl  -0.006387  17.584690   0.114750  -0.029677
    21  Cl  -0.003462   0.114750  17.894307   0.005800
    22  Cl   0.000066  -0.029677   0.005800  17.394288
 Mulliken charges:
               1
     1  C    0.636974
     2  C   -0.853428
     3  C   -0.498127
     4  C    0.976174
     5  C   -0.825139
     6  C   -0.504562
     7  C    0.970530
     8  C   -0.384356
     9  C   -0.795847
    10  C   -0.077390
    11  C   -0.245728
    12  C   -0.524807
    13  H    0.169513
    14  H    0.152923
    15  H    0.133467
    16  H    0.149453
    17  H    0.134896
    18  H    0.133181
    19  H    0.128275
    20  Cl   0.348837
    21  Cl   0.381757
    22  Cl   0.393404
 Sum of Mulliken charges =  -0.00000
 Mulliken charges with hydrogens summed into heavy atoms:
               1
     1  C    0.636974
     2  C   -0.853428
     3  C   -0.328615
     4  C    0.976174
     5  C   -0.672216
     6  C   -0.371095
     7  C    0.970530
     8  C   -0.384356
     9  C   -0.646394
    10  C    0.057505
    11  C   -0.112547
    12  C   -0.396531
    20  Cl   0.348837
    21  Cl   0.381757
    22  Cl   0.393404
 Electronic spatial extent (au):  <R**2>=           4656.8743
 Charge=             -0.0000 electrons
 Dipole moment (field-independent basis, Debye):
    X=              1.8061    Y=              2.0317    Z=             -0.6960  Tot=              2.8061
 Quadrupole moment (field-independent basis, Debye-Ang):
   XX=           -101.6685   YY=           -105.2428   ZZ=           -108.4886
   XY=              2.3676   XZ=             -2.1296   YZ=             -0.6136
 Traceless Quadrupole moment (field-independent basis, Debye-Ang):
   XX=              3.4648   YY=             -0.1095   ZZ=             -3.3553
   XY=              2.3676   XZ=             -2.1296   YZ=             -0.6136
 Octapole moment (field-independent basis, Debye-Ang**2):
  XXX=             65.4605  YYY=             -7.6344  ZZZ=             -0.5346  XYY=            -13.3935
  XXY=             -1.7845  XXZ=             -3.4494  XZZ=             -0.8269  YZZ=              1.8226
  YYZ=              1.5523  XYZ=            -13.3770
 Hexadecapole moment (field-independent basis, Debye-Ang**3):
 XXXX=          -4338.0813 YYYY=           -891.0231 ZZZZ=           -840.0415 XXXY=             35.1171
 XXXZ=              1.0542 YYYX=            -32.9016 YYYZ=             17.8331 ZZZX=             -6.6081
 ZZZY=            -18.3447 XXYY=           -906.6026 XXZZ=           -894.5696 YYZZ=           -271.1165
 XXYZ=            -16.7310 YYXZ=            -21.0454 ZZXY=              9.6236
 N-N= 1.219519971461D+03 E-N=-6.791329276754D+03  KE= 1.836982451783D+03
 1\1\GINC-DAMODAR\FOpt\RB3LYP\6-311+G(d,p)\C12H7Cl3\PKC\14-Mar-2022\0\\
 # opt b3lyp/6-311+g(d,p) scf=xqc\\Title Card Required\\0,1\C,-0.958736
 849,-0.9175865571,-0.1979470096\C,0.3749773322,-0.779888441,0.20345484
 34\C,1.0350044432,0.4454073991,0.1592491558\C,0.3429387132,1.560370644
 7,-0.2970898062\C,-0.9841326964,1.469869666,-0.701890904\C,-1.61759292
 92,0.232982139,-0.6463511616\C,-1.6892371936,-2.2169548916,-0.13735911
 47\C,-1.6105556908,-3.1730113534,-1.1567087046\C,-2.317736957,-4.37044
 06596,-1.0902704873\C,-3.1252529409,-4.6305665643,0.0128717161\C,-3.22
 50537716,-3.6946199707,1.0397044876\C,-2.5128755929,-2.5019334857,0.95
 89207326\H,2.0655778909,0.5235805928,0.4763807369\H,-1.5099607971,2.34
 70929632,-1.0550181188\H,-2.6499800928,0.1494776146,-0.9653894826\H,-2
 .2330405791,-5.085952434,-1.8981138695\H,-3.674499747,-5.5634773246,0.
 0649291074\H,-3.8524928317,-3.8916901029,1.9009077121\H,-2.5822693392,
 -1.7728111072,1.7581244813\Cl,1.2687291441,-2.1700895589,0.7940821965\
 Cl,-0.6105229394,-2.8738132216,-2.5718820491\Cl,1.1662570651,3.1102593
 526,-0.3572573487\\Version=EM64L-G16RevB.01\State=1-A\HF=-1842.2830944
 \RMSD=6.301e-09\RMSF=5.140e-06\Dipole=-1.0113006,-0.2969679,0.3285192\
 Quadrupole=1.6931929,0.7941384,-2.4873313,2.1163406,-1.2815847,-1.1324
 425\PG=C01 [X(C12H7Cl3)]\\@


 HE WHO LAUGHS LAST PROBABLY DIDN'T GET THE JOKE.
 Job cpu time:       0 days 20 hours  9 minutes  5.6 seconds.
 Elapsed time:       0 days  5 hours 52 minutes 45.3 seconds.
 File lengths (MBytes):  RWF=    105 Int=      0 D2E=      0 Chk=     16 Scr=      1
 Normal termination of Gaussian 16 at Mon Mar 14 22:53:08 2022.
