 Entering Gaussian System, Link 0=g16
 Input=2,2prime,6-Trichlorobiphenyl1.gjf
 Output=2,2prime,6-Trichlorobiphenyl1.log
 Initial command:
 /home/apps/g16/l1.exe "./Gau-290126.inp" -scrdir="./"
 Entering Link 1 = /home/apps/g16/l1.exe PID=    290127.
  
 Copyright (c) 1988-2017, Gaussian, Inc.  All Rights Reserved.
  
 This is part of the Gaussian(R) 16 program.  It is based on
 the Gaussian(R) 09 system (copyright 2009, Gaussian, Inc.),
 the Gaussian(R) 03 system (copyright 2003, Gaussian, Inc.),
 the Gaussian(R) 98 system (copyright 1998, Gaussian, Inc.),
 the Gaussian(R) 94 system (copyright 1995, Gaussian, Inc.),
 the Gaussian 92(TM) system (copyright 1992, Gaussian, Inc.),
 the Gaussian 90(TM) system (copyright 1990, Gaussian, Inc.),
 the Gaussian 88(TM) system (copyright 1988, Gaussian, Inc.),
 the Gaussian 86(TM) system (copyright 1986, Carnegie Mellon
 University), and the Gaussian 82(TM) system (copyright 1983,
 Carnegie Mellon University). Gaussian is a federally registered
 trademark of Gaussian, Inc.
  
 This software contains proprietary and confidential information,
 including trade secrets, belonging to Gaussian, Inc.
  
 This software is provided under written license and may be
 used, copied, transmitted, or stored only in accord with that
 written license.
  
 The following legend is applicable only to US Government
 contracts under FAR:
  
                    RESTRICTED RIGHTS LEGEND
  
 Use, reproduction and disclosure by the US Government is
 subject to restrictions as set forth in subparagraphs (a)
 and (c) of the Commercial Computer Software - Restricted
 Rights clause in FAR 52.227-19.
  
 Gaussian, Inc.
 340 Quinnipiac St., Bldg. 40, Wallingford CT 06492
  
  
 ---------------------------------------------------------------
 Warning -- This program may not be used in any manner that
 competes with the business of Gaussian, Inc. or will provide
 assistance to any competitor of Gaussian, Inc.  The licensee
 of this program is prohibited from giving any competitor of
 Gaussian, Inc. access to this program.  By using this program,
 the user acknowledges that Gaussian, Inc. is engaged in the
 business of creating and licensing software in the field of
 computational chemistry and represents and warrants to the
 licensee that it is not a competitor of Gaussian, Inc. and that
 it will not use this program in any manner prohibited above.
 ---------------------------------------------------------------
  

 Cite this work as:
 Gaussian 16, Revision B.01,
 M. J. Frisch, G. W. Trucks, H. B. Schlegel, G. E. Scuseria, 
 M. A. Robb, J. R. Cheeseman, G. Scalmani, V. Barone, 
 G. A. Petersson, H. Nakatsuji, X. Li, M. Caricato, A. V. Marenich, 
 J. Bloino, B. G. Janesko, R. Gomperts, B. Mennucci, H. P. Hratchian, 
 J. V. Ortiz, A. F. Izmaylov, J. L. Sonnenberg, D. Williams-Young, 
 F. Ding, F. Lipparini, F. Egidi, J. Goings, B. Peng, A. Petrone, 
 T. Henderson, D. Ranasinghe, V. G. Zakrzewski, J. Gao, N. Rega, 
 G. Zheng, W. Liang, M. Hada, M. Ehara, K. Toyota, R. Fukuda, 
 J. Hasegawa, M. Ishida, T. Nakajima, Y. Honda, O. Kitao, H. Nakai, 
 T. Vreven, K. Throssell, J. A. Montgomery, Jr., J. E. Peralta, 
 F. Ogliaro, M. J. Bearpark, J. J. Heyd, E. N. Brothers, K. N. Kudin, 
 V. N. Staroverov, T. A. Keith, R. Kobayashi, J. Normand, 
 K. Raghavachari, A. P. Rendell, J. C. Burant, S. S. Iyengar, 
 J. Tomasi, M. Cossi, J. M. Millam, M. Klene, C. Adamo, R. Cammi, 
 J. W. Ochterski, R. L. Martin, K. Morokuma, O. Farkas, 
 J. B. Foresman, and D. J. Fox, Gaussian, Inc., Wallingford CT, 2016.
 
 ******************************************
 Gaussian 16:  EM64L-G16RevB.01 20-Dec-2017
                 8-Apr-2022 
 ******************************************
 %mem=16GB
 %nprocshared=8
 Will use up to    8 processors via shared memory.
 --------------------------------
 # opt b3lyp/6-311+g(d,p) scf=xqc
 --------------------------------
 1/18=20,19=15,26=3,38=1/1,3;
 2/9=110,12=2,17=6,18=5,40=1/2;
 3/5=4,6=6,7=111,11=2,25=1,30=1,71=1,74=-5/1,2,3;
 4//1;
 5/5=2,8=3,13=1,38=5/2,8;
 6/7=2,8=2,9=2,10=2,28=1/1;
 7//1,2,3,16;
 1/18=20,19=15,26=3/3(2);
 2/9=110/2;
 99//99;
 2/9=110/2;
 3/5=4,6=6,7=111,11=2,25=1,30=1,71=1,74=-5/1,2,3;
 4/5=5,16=3,69=1/1;
 5/5=2,8=3,13=1,38=5/2,8;
 7//1,2,3,16;
 1/18=20,19=15,26=3/3(-5);
 2/9=110/2;
 6/7=2,8=2,9=2,10=2,19=2,28=1/1;
 99/9=1/99;
 -------------------
 Title Card Required
 -------------------
 Symbolic Z-matrix:
 Charge =  0 Multiplicity = 1
 C                    -3.83105  -2.83235   0.07981 
 C                    -2.49867  -2.80247  -0.35354 
 C                    -1.79078  -1.59302  -0.35961 
 C                    -2.41527  -0.41345   0.06767 
 C                    -3.74765  -0.44334   0.50101 
 C                    -4.45554  -1.65279   0.50708 
 C                    -4.85723  -4.5856    0.08861 
 C                    -4.23274  -5.76517  -0.33866 
 C                    -4.94064  -6.97462  -0.33259 
 C                    -6.27302  -7.0045    0.10076 
 C                    -6.8975   -5.82494   0.52804 
 C                    -6.18961  -4.61549   0.52196 
 H                    -0.77348  -1.5702   -0.69048 
 H                    -1.87477   0.50999   0.06303 
 H                    -4.22446   0.45729   0.82724 
 H                    -3.21544  -5.74235  -0.66953 
 H                    -4.46383  -7.87524  -0.65882 
 H                    -6.81351  -7.92795   0.1054 
 H                    -7.91481  -5.84776   0.85891 
 Cl                   -6.12886  -1.69032   1.05132 
 Cl                   -6.9739   -3.13409   1.05857 
 Cl                   -1.71439  -4.28387  -0.89014 
 

 GradGradGradGradGradGradGradGradGradGradGradGradGradGradGradGradGradGrad
 Berny optimization.
 Initialization pass.
                           ----------------------------
                           !    Initial Parameters    !
                           ! (Angstroms and Degrees)  !
 --------------------------                            --------------------------
 ! Name  Definition              Value          Derivative Info.                !
 --------------------------------------------------------------------------------
 ! R1    R(1,2)                  1.4014         estimate D2E/DX2                !
 ! R2    R(1,6)                  1.4014         estimate D2E/DX2                !
 ! R3    R(2,3)                  1.4014         estimate D2E/DX2                !
 ! R4    R(2,22)                 1.76           estimate D2E/DX2                !
 ! R5    R(3,4)                  1.4014         estimate D2E/DX2                !
 ! R6    R(3,13)                 1.07           estimate D2E/DX2                !
 ! R7    R(4,5)                  1.4014         estimate D2E/DX2                !
 ! R8    R(4,14)                 1.07           estimate D2E/DX2                !
 ! R9    R(5,6)                  1.4014         estimate D2E/DX2                !
 ! R10   R(5,15)                 1.07           estimate D2E/DX2                !
 ! R11   R(6,20)                 1.76           estimate D2E/DX2                !
 ! R12   R(7,8)                  1.4014         estimate D2E/DX2                !
 ! R13   R(7,12)                 1.4014         estimate D2E/DX2                !
 ! R14   R(8,9)                  1.4014         estimate D2E/DX2                !
 ! R15   R(8,16)                 1.07           estimate D2E/DX2                !
 ! R16   R(9,10)                 1.4014         estimate D2E/DX2                !
 ! R17   R(9,17)                 1.07           estimate D2E/DX2                !
 ! R18   R(10,11)                1.4014         estimate D2E/DX2                !
 ! R19   R(10,18)                1.07           estimate D2E/DX2                !
 ! R20   R(11,12)                1.4014         estimate D2E/DX2                !
 ! R21   R(11,19)                1.07           estimate D2E/DX2                !
 ! R22   R(12,21)                1.76           estimate D2E/DX2                !
 ! R23   R(20,21)                1.6729         estimate D2E/DX2                !
 ! A1    A(2,1,6)              120.0            estimate D2E/DX2                !
 ! A2    A(1,2,3)              120.0            estimate D2E/DX2                !
 ! A3    A(1,2,22)             120.0            estimate D2E/DX2                !
 ! A4    A(3,2,22)             120.0            estimate D2E/DX2                !
 ! A5    A(2,3,4)              120.0            estimate D2E/DX2                !
 ! A6    A(2,3,13)             120.0            estimate D2E/DX2                !
 ! A7    A(4,3,13)             120.0            estimate D2E/DX2                !
 ! A8    A(3,4,5)              120.0            estimate D2E/DX2                !
 ! A9    A(3,4,14)             120.0            estimate D2E/DX2                !
 ! A10   A(5,4,14)             120.0            estimate D2E/DX2                !
 ! A11   A(4,5,6)              120.0            estimate D2E/DX2                !
 ! A12   A(4,5,15)             120.0            estimate D2E/DX2                !
 ! A13   A(6,5,15)             120.0            estimate D2E/DX2                !
 ! A14   A(1,6,5)              120.0            estimate D2E/DX2                !
 ! A15   A(1,6,20)             120.0            estimate D2E/DX2                !
 ! A16   A(5,6,20)             120.0            estimate D2E/DX2                !
 ! A17   A(8,7,12)             120.0            estimate D2E/DX2                !
 ! A18   A(7,8,9)              120.0            estimate D2E/DX2                !
 ! A19   A(7,8,16)             120.0            estimate D2E/DX2                !
 ! A20   A(9,8,16)             120.0            estimate D2E/DX2                !
 ! A21   A(8,9,10)             120.0            estimate D2E/DX2                !
 ! A22   A(8,9,17)             120.0            estimate D2E/DX2                !
 ! A23   A(10,9,17)            120.0            estimate D2E/DX2                !
 ! A24   A(9,10,11)            120.0            estimate D2E/DX2                !
 ! A25   A(9,10,18)            120.0            estimate D2E/DX2                !
 ! A26   A(11,10,18)           120.0            estimate D2E/DX2                !
 ! A27   A(10,11,12)           120.0            estimate D2E/DX2                !
 ! A28   A(10,11,19)           120.0            estimate D2E/DX2                !
 ! A29   A(12,11,19)           120.0            estimate D2E/DX2                !
 ! A30   A(7,12,11)            120.0            estimate D2E/DX2                !
 ! A31   A(7,12,21)            120.0            estimate D2E/DX2                !
 ! A32   A(11,12,21)           120.0            estimate D2E/DX2                !
 ! A33   A(6,20,21)            120.0            estimate D2E/DX2                !
 ! A34   A(12,21,20)           120.0            estimate D2E/DX2                !
 ! D1    D(6,1,2,3)              0.0001         estimate D2E/DX2                !
 ! D2    D(6,1,2,22)           180.0            estimate D2E/DX2                !
 ! D3    D(2,1,6,5)             -0.0001         estimate D2E/DX2                !
 ! D4    D(2,1,6,20)           180.0            estimate D2E/DX2                !
 ! D5    D(1,2,3,4)              0.0            estimate D2E/DX2                !
 ! D6    D(1,2,3,13)           180.0            estimate D2E/DX2                !
 ! D7    D(22,2,3,4)          -179.9999         estimate D2E/DX2                !
 ! D8    D(22,2,3,13)            0.0001         estimate D2E/DX2                !
 ! D9    D(2,3,4,5)             -0.0001         estimate D2E/DX2                !
 ! D10   D(2,3,4,14)           180.0            estimate D2E/DX2                !
 ! D11   D(13,3,4,5)           179.9999         estimate D2E/DX2                !
 ! D12   D(13,3,4,14)            0.0            estimate D2E/DX2                !
 ! D13   D(3,4,5,6)              0.0001         estimate D2E/DX2                !
 ! D14   D(3,4,5,15)          -179.9999         estimate D2E/DX2                !
 ! D15   D(14,4,5,6)          -180.0            estimate D2E/DX2                !
 ! D16   D(14,4,5,15)            0.0            estimate D2E/DX2                !
 ! D17   D(4,5,6,1)              0.0            estimate D2E/DX2                !
 ! D18   D(4,5,6,20)           179.9999         estimate D2E/DX2                !
 ! D19   D(15,5,6,1)           180.0            estimate D2E/DX2                !
 ! D20   D(15,5,6,20)           -0.0001         estimate D2E/DX2                !
 ! D21   D(1,6,20,21)            0.0004         estimate D2E/DX2                !
 ! D22   D(5,6,20,21)         -179.9996         estimate D2E/DX2                !
 ! D23   D(12,7,8,9)             0.0001         estimate D2E/DX2                !
 ! D24   D(12,7,8,16)         -179.9998         estimate D2E/DX2                !
 ! D25   D(8,7,12,11)           -0.0001         estimate D2E/DX2                !
 ! D26   D(8,7,12,21)          179.9999         estimate D2E/DX2                !
 ! D27   D(7,8,9,10)             0.0            estimate D2E/DX2                !
 ! D28   D(7,8,9,17)           180.0            estimate D2E/DX2                !
 ! D29   D(16,8,9,10)          179.9998         estimate D2E/DX2                !
 ! D30   D(16,8,9,17)           -0.0002         estimate D2E/DX2                !
 ! D31   D(8,9,10,11)            0.0            estimate D2E/DX2                !
 ! D32   D(8,9,10,18)         -179.9999         estimate D2E/DX2                !
 ! D33   D(17,9,10,11)         180.0            estimate D2E/DX2                !
 ! D34   D(17,9,10,18)           0.0001         estimate D2E/DX2                !
 ! D35   D(9,10,11,12)           0.0            estimate D2E/DX2                !
 ! D36   D(9,10,11,19)        -179.9998         estimate D2E/DX2                !
 ! D37   D(18,10,11,12)        179.9999         estimate D2E/DX2                !
 ! D38   D(18,10,11,19)          0.0001         estimate D2E/DX2                !
 ! D39   D(10,11,12,7)           0.0            estimate D2E/DX2                !
 ! D40   D(10,11,12,21)       -179.9999         estimate D2E/DX2                !
 ! D41   D(19,11,12,7)         179.9999         estimate D2E/DX2                !
 ! D42   D(19,11,12,21)         -0.0001         estimate D2E/DX2                !
 ! D43   D(7,12,21,20)           0.0004         estimate D2E/DX2                !
 ! D44   D(11,12,21,20)       -179.9997         estimate D2E/DX2                !
 ! D45   D(6,20,21,12)          -0.0006         estimate D2E/DX2                !
 --------------------------------------------------------------------------------
 Trust Radius=3.00D-01 FncErr=1.00D-07 GrdErr=1.00D-06 EigMax=2.50D+02 EigMin=1.00D-04
 Number of steps in this run=    112 maximum allowed number of steps=    132.
 GradGradGradGradGradGradGradGradGradGradGradGradGradGradGradGradGradGrad

                          Input orientation:                          
 ---------------------------------------------------------------------
 Center     Atomic      Atomic             Coordinates (Angstroms)
 Number     Number       Type             X           Y           Z
 ---------------------------------------------------------------------
      1          6           0       -3.831054   -2.832353    0.079809
      2          6           0       -2.498673   -2.802468   -0.353537
      3          6           0       -1.790780   -1.593017   -0.359610
      4          6           0       -2.415267   -0.413452    0.067665
      5          6           0       -3.747649   -0.443337    0.501010
      6          6           0       -4.455542   -1.652788    0.507082
      7          6           0       -4.857232   -4.585600    0.088613
      8          6           0       -4.232745   -5.765165   -0.338662
      9          6           0       -4.940638   -6.974617   -0.332587
     10          6           0       -6.273018   -7.004503    0.100762
     11          6           0       -6.897505   -5.824938    0.528038
     12          6           0       -6.189612   -4.615487    0.521963
     13          1           0       -0.773477   -1.570198   -0.690479
     14          1           0       -1.874775    0.509991    0.063029
     15          1           0       -4.224460    0.457288    0.827241
     16          1           0       -3.215442   -5.742347   -0.669531
     17          1           0       -4.463828   -7.875241   -0.658821
     18          1           0       -6.813509   -7.927946    0.105402
     19          1           0       -7.914806   -5.847758    0.858912
     20         17           0       -6.128863   -1.690321    1.051316
     21         17           0       -6.973897   -3.134087    1.058575
     22         17           0       -1.714387   -4.283869   -0.890143
 ---------------------------------------------------------------------
                    Distance matrix (angstroms):
                    1          2          3          4          5
     1  C    0.000000
     2  C    1.401400   0.000000
     3  C    2.427296   1.401400   0.000000
     4  C    2.802800   2.427296   1.401400   0.000000
     5  C    2.427296   2.802800   2.427296   1.401400   0.000000
     6  C    1.401400   2.427296   2.802800   2.427296   1.401400
     7  C    2.031500   2.989625   4.308084   4.834300   4.308084
     8  C    2.989625   3.432900   4.834300   5.666495   5.409457
     9  C    4.308084   4.834300   6.235700   7.041774   6.691466
    10  C    4.834300   5.666495   7.041774   7.637100   7.041774
    11  C    4.308084   5.409457   6.691466   7.041774   6.235700
    12  C    2.989625   4.204351   5.409457   5.666495   4.834300
    13  H    3.396345   2.146700   1.070000   2.146700   3.396345
    14  H    3.872800   3.396345   2.146700   1.070000   2.146700
    15  H    3.396345   3.872800   3.396345   2.146700   1.070000
    16  H    3.067336   3.042450   4.398029   5.438829   5.452790
    17  H    5.135824   5.448675   6.833817   7.771916   7.555879
    18  H    5.904300   6.715576   8.097863   8.707100   8.097863
    19  H    5.135824   6.330744   7.555879   7.771916   6.833817
    20  Cl   2.743718   4.048303   4.562800   4.048303   2.743718
    21  Cl   3.305523   4.704429   5.590246   5.400450   4.237887
    22  Cl   2.743718   1.760000   2.743718   4.048303   4.562800
                    6          7          8          9         10
     6  C    0.000000
     7  C    2.989625   0.000000
     8  C    4.204351   1.401400   0.000000
     9  C    5.409457   2.427296   1.401400   0.000000
    10  C    5.666495   2.802800   2.427296   1.401400   0.000000
    11  C    4.834300   2.427296   2.802800   2.427296   1.401400
    12  C    3.432900   1.401400   2.427296   2.802800   2.427296
    13  H    3.872800   5.135824   5.448675   6.833817   7.771916
    14  H    3.396345   5.904300   6.715576   8.097863   8.707100
    15  H    2.146700   5.135824   6.330744   7.555879   7.771916
    16  H    4.432467   2.146700   1.070000   2.146700   3.396345
    17  H    6.330744   3.396345   2.146700   1.070000   2.146700
    18  H    6.715576   3.872800   3.396345   2.146700   1.070000
    19  H    5.448675   3.396345   3.872800   3.396345   2.146700
    20  Cl   1.760000   3.305523   4.704429   5.590246   5.400450
    21  Cl   2.973298   2.743718   4.048303   4.562800   4.048303
    22  Cl   4.048303   3.305523   2.973298   4.237887   5.400450
                   11         12         13         14         15
    11  C    0.000000
    12  C    1.401400   0.000000
    13  H    7.555879   6.330744   0.000000
    14  H    8.097863   6.715576   2.471400   0.000000
    15  H    6.833817   5.448675   4.280590   2.471400   0.000000
    16  H    3.872800   3.396345   4.834300   6.436285   6.457082
    17  H    3.396345   3.872800   7.305700   8.805474   8.467391
    18  H    2.146700   3.396345   8.805474   9.777100   8.805474
    19  H    1.070000   2.146700   8.467391   8.805474   7.305700
    20  Cl   4.237887   2.973298   5.632800   4.890332   2.879094
    21  Cl   2.743718   1.760000   6.629490   6.345980   4.528895
    22  Cl   5.590246   4.704429   2.879094   4.890332   5.632800
                   16         17         18         19         20
    16  H    0.000000
    17  H    2.471400   0.000000
    18  H    4.280590   2.471400   0.000000
    19  H    4.942800   4.280590   2.471400   0.000000
    20  Cl   5.279038   6.629490   6.345980   4.528895   0.000000
    21  Cl   4.890332   5.632800   4.890332   2.879094   1.672900
    22  Cl   2.104518   4.528895   6.345980   6.629490   5.475705
                   21         22
    21  Cl   0.000000
    22  Cl   5.725552   0.000000
 Stoichiometry    C12H7Cl3
 Framework group  C1[X(C12H7Cl3)]
 Deg. of freedom    60
 Full point group                 C1      NOp   1
 Largest Abelian subgroup         C1      NOp   1
 Largest concise Abelian subgroup C1      NOp   1
                         Standard orientation:                         
 ---------------------------------------------------------------------
 Center     Atomic      Atomic             Coordinates (Angstroms)
 Number     Number       Type             X           Y           Z
 ---------------------------------------------------------------------
      1          6           0        0.968821    0.126930    0.000001
      2          6           0        1.924516    1.151903    0.000000
      3          6           0        3.290016    0.836732   -0.000001
      4          6           0        3.699821   -0.503410   -0.000002
      5          6           0        2.744125   -1.528383    0.000001
      6          6           0        1.378626   -1.213212    0.000002
      7          6           0       -1.010637    0.583808    0.000002
      8          6           0       -1.420442    1.923950    0.000003
      9          6           0       -2.785942    2.239120    0.000003
     10          6           0       -3.741637    1.214148    0.000000
     11          6           0       -3.331832   -0.125995   -0.000001
     12          6           0       -1.966333   -0.441165   -0.000001
     13          1           0        4.019711    1.619322   -0.000003
     14          1           0        4.742410   -0.744050   -0.000004
     15          1           0        3.057020   -2.551611    0.000002
     16          1           0       -0.690747    2.706539    0.000003
     17          1           0       -3.098837    3.262349    0.000004
     18          1           0       -4.784226    1.454787   -0.000002
     19          1           0       -4.061527   -0.908584   -0.000006
     20         17           0        0.178380   -2.500462    0.000004
     21         17           0       -1.451664   -2.124232   -0.000005
     22         17           0        1.409848    2.834970   -0.000002
 ---------------------------------------------------------------------
 Rotational constants (GHZ):           0.5691665           0.4264322           0.2437839
 Standard basis: 6-311+G(d,p) (5D, 7F)
 There are   411 symmetry adapted cartesian basis functions of A   symmetry.
 There are   396 symmetry adapted basis functions of A   symmetry.
   396 basis functions,   647 primitive gaussians,   411 cartesian basis functions
    65 alpha electrons       65 beta electrons
       nuclear repulsion energy      1280.1208637000 Hartrees.
 NAtoms=   22 NActive=   22 NUniq=   22 SFac= 1.00D+00 NAtFMM=   60 NAOKFM=F Big=F
 Integral buffers will be    131072 words long.
 Raffenetti 2 integral format.
 Two-electron integral symmetry is turned on.
 One-electron integrals computed using PRISM.
 NBasis=   396 RedAO= T EigKep=  1.41D-06  NBF=   396
 NBsUse=   392 1.00D-06 EigRej=  7.65D-07 NBFU=   392
 ExpMin= 4.38D-02 ExpMax= 1.06D+05 ExpMxC= 3.62D+03 IAcc=3 IRadAn=         5 AccDes= 0.00D+00
 Harris functional with IExCor=  402 and IRadAn=       5 diagonalized for initial guess.
 HarFok:  IExCor=  402 AccDes= 0.00D+00 IRadAn=         5 IDoV= 1 UseB2=F ITyADJ=14
 ICtDFT=  3500011 ScaDFX=  1.000000  1.000000  1.000000  1.000000
 FoFCou: FMM=F IPFlag=           0 FMFlag=      100000 FMFlg1=           0
         NFxFlg=           0 DoJE=T BraDBF=F KetDBF=T FulRan=T
         wScrn=  0.000000 ICntrl=       500 IOpCl=  0 I1Cent=   200000004 NGrid=           0
         NMat0=    1 NMatS0=      1 NMatT0=    0 NMatD0=    1 NMtDS0=    0 NMtDT0=    0
 Petite list used in FoFCou.
 Requested convergence on RMS density matrix=1.00D-08 within  32 cycles.
 Requested convergence on MAX density matrix=1.00D-06.
 Requested convergence on             energy=1.00D-06.
 No special actions if energy rises.
 EnCoef did     3 forward-backward iterations
 EnCoef did     4 forward-backward iterations
 EnCoef did     7 forward-backward iterations
 Restarting incremental Fock formation.
 SCF Done:  E(RB3LYP) =  -1841.70478181     A.U. after   28 cycles
            NFock= 28  Conv=0.40D-08     -V/T= 2.0017
 QCSCF skips out because SCF is already converged.

 **********************************************************************

            Population analysis using the SCF Density.

 **********************************************************************

 Orbital symmetries:
       Occupied  (A) (A) (A) (A) (A) (A) (A) (A) (A) (A) (A) (A)
                 (A) (A) (A) (A) (A) (A) (A) (A) (A) (A) (A) (A)
                 (A) (A) (A) (A) (A) (A) (A) (A) (A) (A) (A) (A)
                 (A) (A) (A) (A) (A) (A) (A) (A) (A) (A) (A) (A)
                 (A) (A) (A) (A) (A) (A) (A) (A) (A) (A) (A) (A)
                 (A) (A) (A) (A) (A)
       Virtual   (A) (A) (A) (A) (A) (A) (A) (A) (A) (A) (A) (A)
                 (A) (A) (A) (A) (A) (A) (A) (A) (A) (A) (A) (A)
                 (A) (A) (A) (A) (A) (A) (A) (A) (A) (A) (A) (A)
                 (A) (A) (A) (A) (A) (A) (A) (A) (A) (A) (A) (A)
                 (A) (A) (A) (A) (A) (A) (A) (A) (A) (A) (A) (A)
                 (A) (A) (A) (A) (A) (A) (A) (A) (A) (A) (A) (A)
                 (A) (A) (A) (A) (A) (A) (A) (A) (A) (A) (A) (A)
                 (A) (A) (A) (A) (A) (A) (A) (A) (A) (A) (A) (A)
                 (A) (A) (A) (A) (A) (A) (A) (A) (A) (A) (A) (A)
                 (A) (A) (A) (A) (A) (A) (A) (A) (A) (A) (A) (A)
                 (A) (A) (A) (A) (A) (A) (A) (A) (A) (A) (A) (A)
                 (A) (A) (A) (A) (A) (A) (A) (A) (A) (A) (A) (A)
                 (A) (A) (A) (A) (A) (A) (A) (A) (A) (A) (A) (A)
                 (A) (A) (A) (A) (A) (A) (A) (A) (A) (A) (A) (A)
                 (A) (A) (A) (A) (A) (A) (A) (A) (A) (A) (A) (A)
                 (A) (A) (A) (A) (A) (A) (A) (A) (A) (A) (A) (A)
                 (A) (A) (A) (A) (A) (A) (A) (A) (A) (A) (A) (A)
                 (A) (A) (A) (A) (A) (A) (A) (A) (A) (A) (A) (A)
                 (A) (A) (A) (A) (A) (A) (A) (A) (A) (A) (A) (A)
                 (A) (A) (A) (A) (A) (A) (A) (A) (A) (A) (A) (A)
                 (A) (A) (A) (A) (A) (A) (A) (A) (A) (A) (A) (A)
                 (A) (A) (A) (A) (A) (A) (A) (A) (A) (A) (A) (A)
                 (A) (A) (A) (A) (A) (A) (A) (A) (A) (A) (A) (A)
                 (A) (A) (A) (A) (A) (A) (A) (A) (A) (A) (A) (A)
                 (A) (A) (A) (A) (A) (A) (A) (A) (A) (A) (A) (A)
                 (A) (A) (A) (A) (A) (A) (A) (A) (A) (A) (A) (A)
                 (A) (A) (A) (A) (A) (A) (A) (A) (A) (A) (A) (A)
                 (A) (A) (A)
 The electronic state is 1-A.
 Alpha  occ. eigenvalues -- -101.59779-101.59501-101.55733 -10.25318 -10.25298
 Alpha  occ. eigenvalues --  -10.24014 -10.22177 -10.21655 -10.20044 -10.19846
 Alpha  occ. eigenvalues --  -10.19709 -10.19349 -10.18925 -10.18790 -10.18471
 Alpha  occ. eigenvalues --   -9.52492  -9.52275  -9.47297  -7.29070  -7.28919
 Alpha  occ. eigenvalues --   -7.27922  -7.27624  -7.27499  -7.27193  -7.23735
 Alpha  occ. eigenvalues --   -7.22777  -7.22737  -1.09162  -0.90263  -0.88633
 Alpha  occ. eigenvalues --   -0.85801  -0.82851  -0.77846  -0.76071  -0.74619
 Alpha  occ. eigenvalues --   -0.73032  -0.65798  -0.62675  -0.61471  -0.59515
 Alpha  occ. eigenvalues --   -0.57139  -0.52240  -0.51499  -0.50326  -0.49833
 Alpha  occ. eigenvalues --   -0.47845  -0.46720  -0.46313  -0.45019  -0.42955
 Alpha  occ. eigenvalues --   -0.42346  -0.40798  -0.40038  -0.39245  -0.38686
 Alpha  occ. eigenvalues --   -0.37404  -0.35207  -0.32724  -0.32268  -0.30418
 Alpha  occ. eigenvalues --   -0.28388  -0.26823  -0.25747  -0.24192  -0.10288
 Alpha virt. eigenvalues --   -0.06461  -0.04702  -0.03807  -0.03125  -0.02908
 Alpha virt. eigenvalues --   -0.00940  -0.00292   0.00996   0.01278   0.01918
 Alpha virt. eigenvalues --    0.02771   0.03726   0.04176   0.04401   0.04808
 Alpha virt. eigenvalues --    0.05223   0.06180   0.06721   0.06820   0.07368
 Alpha virt. eigenvalues --    0.07921   0.08304   0.08806   0.09267   0.09790
 Alpha virt. eigenvalues --    0.09919   0.11182   0.11692   0.11711   0.11926
 Alpha virt. eigenvalues --    0.12031   0.12279   0.13015   0.14410   0.14521
 Alpha virt. eigenvalues --    0.15006   0.15754   0.15947   0.16120   0.16642
 Alpha virt. eigenvalues --    0.16654   0.17018   0.17449   0.17518   0.18106
 Alpha virt. eigenvalues --    0.18284   0.18529   0.19318   0.19749   0.20160
 Alpha virt. eigenvalues --    0.20735   0.21084   0.21307   0.21481   0.22247
 Alpha virt. eigenvalues --    0.22589   0.23312   0.23367   0.23905   0.24402
 Alpha virt. eigenvalues --    0.24695   0.25076   0.25500   0.25885   0.27151
 Alpha virt. eigenvalues --    0.27327   0.27574   0.28709   0.28972   0.29565
 Alpha virt. eigenvalues --    0.29937   0.30297   0.30548   0.31497   0.32382
 Alpha virt. eigenvalues --    0.32953   0.34697   0.35348   0.35890   0.38371
 Alpha virt. eigenvalues --    0.40625   0.41010   0.41163   0.42384   0.43425
 Alpha virt. eigenvalues --    0.44806   0.45634   0.46034   0.47012   0.47492
 Alpha virt. eigenvalues --    0.48997   0.50556   0.51013   0.51508   0.51772
 Alpha virt. eigenvalues --    0.52900   0.53793   0.54005   0.54009   0.54388
 Alpha virt. eigenvalues --    0.56270   0.57098   0.57412   0.58782   0.58813
 Alpha virt. eigenvalues --    0.59042   0.59658   0.59811   0.61094   0.61354
 Alpha virt. eigenvalues --    0.62508   0.63489   0.65176   0.65578   0.65618
 Alpha virt. eigenvalues --    0.66064   0.66948   0.67063   0.68218   0.70869
 Alpha virt. eigenvalues --    0.71131   0.71573   0.72115   0.72941   0.77477
 Alpha virt. eigenvalues --    0.77662   0.78406   0.80103   0.80501   0.81059
 Alpha virt. eigenvalues --    0.81866   0.81964   0.83607   0.84005   0.84235
 Alpha virt. eigenvalues --    0.84814   0.85593   0.86685   0.87929   0.88051
 Alpha virt. eigenvalues --    0.88761   0.90344   0.90739   0.91958   0.92368
 Alpha virt. eigenvalues --    0.93416   0.94951   0.95774   0.97523   0.98501
 Alpha virt. eigenvalues --    0.99070   0.99269   0.99616   1.00495   1.01877
 Alpha virt. eigenvalues --    1.02012   1.02093   1.04245   1.06580   1.07665
 Alpha virt. eigenvalues --    1.08509   1.09671   1.11535   1.11589   1.13737
 Alpha virt. eigenvalues --    1.13927   1.15786   1.19727   1.22330   1.24451
 Alpha virt. eigenvalues --    1.26104   1.27537   1.27565   1.28034   1.29928
 Alpha virt. eigenvalues --    1.31203   1.31852   1.33204   1.41510   1.46406
 Alpha virt. eigenvalues --    1.47177   1.51195   1.51542   1.51952   1.52734
 Alpha virt. eigenvalues --    1.53494   1.55749   1.55981   1.56278   1.57492
 Alpha virt. eigenvalues --    1.61495   1.62183   1.65384   1.65707   1.66491
 Alpha virt. eigenvalues --    1.69334   1.69871   1.73503   1.73534   1.74545
 Alpha virt. eigenvalues --    1.75466   1.76419   1.82102   1.83995   1.84586
 Alpha virt. eigenvalues --    1.86271   1.88459   1.89062   1.89314   1.90165
 Alpha virt. eigenvalues --    1.90375   1.91487   1.92014   1.93801   1.94530
 Alpha virt. eigenvalues --    1.97086   1.97200   1.97598   2.01300   2.02275
 Alpha virt. eigenvalues --    2.04608   2.06492   2.06707   2.07879   2.17967
 Alpha virt. eigenvalues --    2.19752   2.21272   2.25435   2.26777   2.28257
 Alpha virt. eigenvalues --    2.28282   2.29848   2.31411   2.31893   2.32805
 Alpha virt. eigenvalues --    2.36432   2.38037   2.39234   2.41281   2.42433
 Alpha virt. eigenvalues --    2.45046   2.47051   2.52853   2.56349   2.57478
 Alpha virt. eigenvalues --    2.60494   2.60881   2.62413   2.62512   2.64387
 Alpha virt. eigenvalues --    2.64945   2.66832   2.69006   2.69454   2.70421
 Alpha virt. eigenvalues --    2.72824   2.73837   2.74603   2.76161   2.77027
 Alpha virt. eigenvalues --    2.77285   2.78351   2.78867   2.78942   2.80063
 Alpha virt. eigenvalues --    2.82332   2.85000   2.85812   2.87443   2.87885
 Alpha virt. eigenvalues --    2.88515   2.90000   3.06245   3.07083   3.07770
 Alpha virt. eigenvalues --    3.12576   3.15582   3.20208   3.21282   3.29173
 Alpha virt. eigenvalues --    3.32824   3.35560   3.35761   3.38416   3.41296
 Alpha virt. eigenvalues --    3.49764   3.53799   3.56017   3.68527   3.72434
 Alpha virt. eigenvalues --    3.75853   3.88129   4.00328   4.04935   4.05867
 Alpha virt. eigenvalues --    4.11317   4.12571   4.18684   4.81657   4.82532
 Alpha virt. eigenvalues --    9.72757   9.84353   9.99709  23.42250  23.50071
 Alpha virt. eigenvalues --   23.86847  23.89231  23.91041  23.93306  23.99724
 Alpha virt. eigenvalues --   24.02060  24.03132  24.06010  24.12896  24.15291
 Alpha virt. eigenvalues --   25.78353  25.84714  25.97097  26.26170  26.33266
 Alpha virt. eigenvalues --   26.69057  26.75503  26.93966  27.00442 215.74954
 Alpha virt. eigenvalues --  215.84797 216.05836
          Condensed to atoms (all electrons):
               1          2          3          4          5          6
     1  C   23.148379   2.940828  -5.709623   3.134009  -6.654136  -5.216087
     2  C    2.940828  15.238060  -5.627563  -1.693276   0.461128  -4.587754
     3  C   -5.709623  -5.627563  15.316934  -0.587552  -0.683105   2.961572
     4  C    3.134009  -1.693276  -0.587552  10.889759  -0.021253  -2.851482
     5  C   -6.654136   0.461128  -0.683105  -0.021253  13.818797  -2.055170
     6  C   -5.216087  -4.587754   2.961572  -2.851482  -2.055170  32.751110
     7  C    4.753314  -0.808829  -3.081615   0.851799  -1.042362  -2.537796
     8  C    3.621215   2.068250   0.701380   0.025238  -0.817750  -5.425112
     9  C   -1.110462  -0.029629  -0.334954   0.136824   0.092796   0.322408
    10  C    1.092215   0.229278   0.142689  -0.064664  -0.061219  -0.959721
    11  C   -1.865723   0.378247   0.293371  -0.027846  -0.514478   1.428516
    12  C   -5.894683  -0.868548   0.568849  -0.329756   1.210276  -0.659403
    13  H    0.023258  -0.036541   0.438578  -0.083404  -0.045361   0.050049
    14  H   -0.089873   0.014055   0.023369   0.332782  -0.025519   0.065937
    15  H   -0.080296  -0.008596  -0.009498  -0.092818   0.497857  -0.122882
    16  H   -0.021026   0.005367   0.029965   0.010087  -0.005449  -0.010823
    17  H    0.001748  -0.000713  -0.001116   0.000040  -0.000016  -0.002633
    18  H   -0.003113  -0.000522  -0.000066   0.000015   0.000035   0.002386
    19  H   -0.008571   0.000046  -0.000187   0.000261  -0.000258   0.023441
    20  Cl  -8.627052  -0.713047   3.619040  -4.805441   4.325378 -26.050887
    21  Cl   2.678822   0.012398  -1.637938   1.756764  -2.743210  19.875369
    22  Cl  -0.081263  -0.896923  -0.151575  -0.232755   0.252790   0.510401
               7          8          9         10         11         12
     1  C    4.753314   3.621215  -1.110462   1.092215  -1.865723  -5.894683
     2  C   -0.808829   2.068250  -0.029629   0.229278   0.378247  -0.868548
     3  C   -3.081615   0.701380  -0.334954   0.142689   0.293371   0.568849
     4  C    0.851799   0.025238   0.136824  -0.064664  -0.027846  -0.329756
     5  C   -1.042362  -0.817750   0.092796  -0.061219  -0.514478   1.210276
     6  C   -2.537796  -5.425112   0.322408  -0.959721   1.428516  -0.659403
     7  C   19.679807  -2.764120  -2.965615   2.032754  -4.394135   0.949623
     8  C   -2.764120  17.349686  -2.251722   2.215675  -0.917170  -6.857701
     9  C   -2.965615  -2.251722  10.323476  -1.264301  -0.380000   2.595958
    10  C    2.032754   2.215675  -1.264301   9.792464  -0.938029  -3.811554
    11  C   -4.394135  -0.917170  -0.380000  -0.938029  12.676181  -1.594375
    12  C    0.949623  -6.857701   2.595958  -3.811554  -1.594375  22.331884
    13  H   -0.008625   0.005780  -0.000482   0.000185  -0.000212  -0.002552
    14  H   -0.007757  -0.000612  -0.000113   0.000033   0.000015   0.002202
    15  H   -0.001921  -0.000841  -0.000141   0.000177   0.000150   0.016090
    16  H   -0.043626   0.347452  -0.041259  -0.010101   0.000240   0.069204
    17  H   -0.025093  -0.069203   0.448048  -0.016620  -0.033147   0.039195
    18  H   -0.018452  -0.005177   0.012049   0.363947  -0.053702   0.036067
    19  H   -0.072700  -0.024826   0.009832  -0.124861   0.522856  -0.109701
    20  Cl   2.515918   2.706842  -1.397080   2.030049  -3.031694  13.564810
    21  Cl  -7.675480  -2.939619   2.515091  -4.379541   4.397737 -14.076423
    22  Cl   0.665919  -0.718924  -0.408056  -0.060939   0.032186   0.043799
              13         14         15         16         17         18
     1  C    0.023258  -0.089873  -0.080296  -0.021026   0.001748  -0.003113
     2  C   -0.036541   0.014055  -0.008596   0.005367  -0.000713  -0.000522
     3  C    0.438578   0.023369  -0.009498   0.029965  -0.001116  -0.000066
     4  C   -0.083404   0.332782  -0.092818   0.010087   0.000040   0.000015
     5  C   -0.045361  -0.025519   0.497857  -0.005449  -0.000016   0.000035
     6  C    0.050049   0.065937  -0.122882  -0.010823  -0.002633   0.002386
     7  C   -0.008625  -0.007757  -0.001921  -0.043626  -0.025093  -0.018452
     8  C    0.005780  -0.000612  -0.000841   0.347452  -0.069203  -0.005177
     9  C   -0.000482  -0.000113  -0.000141  -0.041259   0.448048   0.012049
    10  C    0.000185   0.000033   0.000177  -0.010101  -0.016620   0.363947
    11  C   -0.000212   0.000015   0.000150   0.000240  -0.033147  -0.053702
    12  C   -0.002552   0.002202   0.016090   0.069204   0.039195   0.036067
    13  H    0.520839  -0.005959  -0.000112   0.000013  -0.000000  -0.000000
    14  H   -0.005959   0.534101  -0.005453  -0.000002  -0.000000  -0.000000
    15  H   -0.000112  -0.005453   0.533330   0.000001  -0.000000  -0.000000
    16  H    0.000013  -0.000002   0.000001   0.590605  -0.009183  -0.000413
    17  H   -0.000000  -0.000000  -0.000000  -0.009183   0.539030  -0.006015
    18  H   -0.000000  -0.000000  -0.000000  -0.000413  -0.006015   0.532973
    19  H   -0.000000  -0.000000  -0.000000   0.000111  -0.000160  -0.005923
    20  Cl   0.014486   0.031113   0.185143  -0.016727  -0.002285  -0.003546
    21  Cl  -0.003174  -0.004916  -0.050289   0.025086   0.009403   0.016988
    22  Cl  -0.010891   0.003571   0.000969  -0.059046   0.000025   0.000213
              19         20         21         22
     1  C   -0.008571  -8.627052   2.678822  -0.081263
     2  C    0.000046  -0.713047   0.012398  -0.896923
     3  C   -0.000187   3.619040  -1.637938  -0.151575
     4  C    0.000261  -4.805441   1.756764  -0.232755
     5  C   -0.000258   4.325378  -2.743210   0.252790
     6  C    0.023441 -26.050887  19.875369   0.510401
     7  C   -0.072700   2.515918  -7.675480   0.665919
     8  C   -0.024826   2.706842  -2.939619  -0.718924
     9  C    0.009832  -1.397080   2.515091  -0.408056
    10  C   -0.124861   2.030049  -4.379541  -0.060939
    11  C    0.522856  -3.031694   4.397737   0.032186
    12  C   -0.109701  13.564810 -14.076423   0.043799
    13  H   -0.000000   0.014486  -0.003174  -0.010891
    14  H   -0.000000   0.031113  -0.004916   0.003571
    15  H   -0.000000   0.185143  -0.050289   0.000969
    16  H    0.000111  -0.016727   0.025086  -0.059046
    17  H   -0.000160  -0.002285   0.009403   0.000025
    18  H   -0.005923  -0.003546   0.016988   0.000213
    19  H    0.527816  -0.065803   0.180432  -0.000066
    20  Cl  -0.065803  90.055185 -58.827087   0.123184
    21  Cl   0.180432 -58.827087  76.666230  -0.086705
    22  Cl  -0.000066   0.123184  -0.086705  17.538987
 Mulliken charges:
               1
     1  C   -0.031878
     2  C   -0.075713
     3  C   -0.270958
     4  C   -0.347331
     5  C    0.010229
     6  C   -1.511442
     7  C   -0.001006
     8  C   -0.248740
     9  C   -0.272668
    10  C   -0.207917
    11  C    0.021012
    12  C   -1.223262
    13  H    0.144125
    14  H    0.133026
    15  H    0.139129
    16  H    0.139523
    17  H    0.128694
    18  H    0.132255
    19  H    0.148258
    20  Cl   1.369501
    21  Cl   1.290064
    22  Cl   0.535099
 Sum of Mulliken charges =  -0.00000
 Mulliken charges with hydrogens summed into heavy atoms:
               1
     1  C   -0.031878
     2  C   -0.075713
     3  C   -0.126832
     4  C   -0.214305
     5  C    0.149358
     6  C   -1.511442
     7  C   -0.001006
     8  C   -0.109216
     9  C   -0.143974
    10  C   -0.075662
    11  C    0.169270
    12  C   -1.223262
    20  Cl   1.369501
    21  Cl   1.290064
    22  Cl   0.535099
 Electronic spatial extent (au):  <R**2>=           4121.6166
 Charge=             -0.0000 electrons
 Dipole moment (field-independent basis, Debye):
    X=             -0.1411    Y=             -0.5894    Z=             -0.0000  Tot=              0.6060
 Quadrupole moment (field-independent basis, Debye-Ang):
   XX=            -95.3995   YY=           -104.5544   ZZ=           -112.9014
   XY=             -4.4060   XZ=             -0.0000   YZ=              0.0000
 Traceless Quadrupole moment (field-independent basis, Debye-Ang):
   XX=              8.8856   YY=             -0.2693   ZZ=             -8.6163
   XY=             -4.4060   XZ=             -0.0000   YZ=              0.0000
 Octapole moment (field-independent basis, Debye-Ang**2):
  XXX=              9.6787  YYY=             -1.9781  ZZZ=             -0.0000  XYY=            -11.1091
  XXY=              7.0948  XXZ=             -0.0001  XZZ=              0.1429  YZZ=             -8.0345
  YYZ=             -0.0000  XYZ=              0.0001
 Hexadecapole moment (field-independent basis, Debye-Ang**3):
 XXXX=          -2961.6189 YYYY=          -2175.6777 ZZZZ=           -136.0946 XXXY=            -33.4565
 XXXZ=             -0.0000 YYYX=            -21.1725 YYYZ=              0.0002 ZZZX=             -0.0000
 ZZZY=             -0.0000 XXYY=           -898.2290 XXZZ=           -637.0532 YYZZ=           -408.2079
 XXYZ=             -0.0001 YYXZ=             -0.0003 ZZXY=             22.5412
 N-N= 1.280120863700D+03 E-N=-6.912163456516D+03  KE= 1.838526649955D+03
 Calling FoFJK, ICntrl=      2127 FMM=F ISym2X=0 I1Cent= 0 IOpClX= 0 NMat=1 NMatS=1 NMatT=0.
 ***** Axes restored to original set *****
 -------------------------------------------------------------------
 Center     Atomic                   Forces (Hartrees/Bohr)
 Number     Number              X              Y              Z
 -------------------------------------------------------------------
      1        6          -0.027009278   -0.017895986    0.005537657
      2        6          -0.022161800    0.014222385    0.009972485
      3        6          -0.010193744    0.000318955    0.003418345
      4        6          -0.007682164   -0.018154545   -0.000878807
      5        6           0.010125788   -0.009795878   -0.005175419
      6        6           0.089080940    0.023998949   -0.024841299
      7        6           0.007489923    0.031967785    0.003535874
      8        6          -0.019701251   -0.002483932    0.006024369
      9        6          -0.013107024    0.013498973    0.006853430
     10        6           0.013436752    0.012835337   -0.002016270
     11        6           0.006784564   -0.000960048   -0.002415552
     12        6           0.022224379   -0.046770056   -0.016105866
     13        1           0.009132208   -0.000731481   -0.003145975
     14        1           0.006053888    0.008962727   -0.000311251
     15        1          -0.001827174    0.008358654    0.002171790
     16        1          -0.004169880   -0.004644531    0.000501341
     17        1           0.004921383   -0.008005627   -0.003124901
     18        1          -0.006406163   -0.007952022    0.000617081
     19        1          -0.007340946   -0.001740037    0.002091680
     20       17           0.260712253    0.477285959    0.003741274
     21       17          -0.333257077   -0.485118697    0.018688169
     22       17           0.022894423    0.012803118   -0.005138155
 -------------------------------------------------------------------
 Cartesian Forces:  Max     0.485118697 RMS     0.100063625

 GradGradGradGradGradGradGradGradGradGradGradGradGradGradGradGradGradGrad
 Berny optimization.
 FormGI is forming the generalized inverse of G from B-inverse, IUseBI=4.
 Internal  Forces:  Max     0.597289562 RMS     0.061604350
 Search for a local minimum.
 Step number   1 out of a maximum of  112
 All quantities printed in internal units (Hartrees-Bohrs-Radians)
 Mixed Optimization -- RFO/linear search
 Second derivative matrix not updated -- first step.
 ITU=  0
     Eigenvalues ---    0.00238   0.00238   0.01655   0.01655   0.02070
     Eigenvalues ---    0.02070   0.02070   0.02070   0.02070   0.02070
     Eigenvalues ---    0.02070   0.02070   0.02070   0.02070   0.02070
     Eigenvalues ---    0.02070   0.02070   0.02070   0.04301   0.16000
     Eigenvalues ---    0.16000   0.16000   0.16000   0.16000   0.16000
     Eigenvalues ---    0.16000   0.22000   0.22068   0.22408   0.23478
     Eigenvalues ---    0.24406   0.24896   0.25000   0.25000   0.25000
     Eigenvalues ---    0.25000   0.25000   0.29539   0.29539   0.29539
     Eigenvalues ---    0.37230   0.37230   0.37230   0.37230   0.37230
     Eigenvalues ---    0.37230   0.37230   0.41408   0.41554   0.41941
     Eigenvalues ---    0.41956   0.45389   0.45389   0.45389   0.45389
     Eigenvalues ---    0.45389   0.45389   0.45389   0.45389   1.32680
 RFO step:  Lambda=-2.77842444D-01 EMin= 2.37799072D-03
 Linear search not attempted -- first point.
 Maximum step size (   0.300) exceeded in Quadratic search.
    -- Step size scaled by   0.611
 Iteration  1 RMS(Cart)=  0.28488446 RMS(Int)=  0.00725746
 Iteration  2 RMS(Cart)=  0.02328012 RMS(Int)=  0.00005554
 Iteration  3 RMS(Cart)=  0.00013592 RMS(Int)=  0.00003234
 Iteration  4 RMS(Cart)=  0.00000001 RMS(Int)=  0.00003234
 Variable       Old X    -DE/DX   Delta X   Delta X   Delta X     New X
                                 (Linear)    (Quad)   (Total)
    R1        2.64826   0.01670   0.00000   0.01452   0.01457   2.66283
    R2        2.64826   0.00246   0.00000   0.00267   0.00273   2.65099
    R3        2.64826  -0.00809   0.00000  -0.00681  -0.00682   2.64144
    R4        3.32592   0.00099   0.00000   0.00106   0.00106   3.32698
    R5        2.64826  -0.02522   0.00000  -0.02169  -0.02175   2.62651
    R6        2.02201   0.00964   0.00000   0.00907   0.00907   2.03107
    R7        2.64826  -0.01940   0.00000  -0.01677  -0.01682   2.63144
    R8        2.02201   0.01079   0.00000   0.01015   0.01015   2.03216
    R9        2.64826   0.00141   0.00000   0.00123   0.00124   2.64950
   R10        2.02201   0.00851   0.00000   0.00800   0.00800   2.03001
   R11        3.32592   0.07121   0.00000   0.07595   0.07595   3.40187
   R12        2.64826  -0.00175   0.00000  -0.00141  -0.00139   2.64687
   R13        2.64826  -0.00993   0.00000  -0.00813  -0.00810   2.64017
   R14        2.64826  -0.00335   0.00000  -0.00292  -0.00293   2.64533
   R15        2.02201  -0.00422   0.00000  -0.00397  -0.00397   2.01804
   R16        2.64826  -0.01705   0.00000  -0.01441  -0.01445   2.63382
   R17        2.02201   0.00988   0.00000   0.00930   0.00930   2.03130
   R18        2.64826  -0.01484   0.00000  -0.01245  -0.01247   2.63579
   R19        2.02201   0.01010   0.00000   0.00950   0.00950   2.03151
   R20        2.64826  -0.00240   0.00000  -0.00189  -0.00188   2.64638
   R21        2.02201   0.00766   0.00000   0.00721   0.00721   2.02921
   R22        3.32592   0.01507   0.00000   0.01607   0.01607   3.34199
   R23        3.16132   0.59729   0.00000   0.22760   0.22760   3.38892
    A1        2.09440  -0.03830   0.00000  -0.04211  -0.04195   2.05245
    A2        2.09440   0.01883   0.00000   0.02237   0.02240   2.11679
    A3        2.09440   0.03501   0.00000   0.04027   0.04025   2.13465
    A4        2.09440  -0.05383   0.00000  -0.06264  -0.06265   2.03174
    A5        2.09440   0.00505   0.00000   0.00503   0.00495   2.09935
    A6        2.09440  -0.00349   0.00000  -0.00386  -0.00382   2.09057
    A7        2.09440  -0.00156   0.00000  -0.00117  -0.00113   2.09326
    A8        2.09440  -0.00714   0.00000  -0.01069  -0.01081   2.08358
    A9        2.09440   0.00282   0.00000   0.00429   0.00435   2.09875
   A10        2.09440   0.00433   0.00000   0.00640   0.00646   2.10086
   A11        2.09440   0.00737   0.00000   0.00815   0.00810   2.10249
   A12        2.09440  -0.00605   0.00000  -0.00738  -0.00735   2.08704
   A13        2.09440  -0.00132   0.00000  -0.00077  -0.00075   2.09365
   A14        2.09440   0.01420   0.00000   0.01725   0.01731   2.11171
   A15        2.09440   0.01490   0.00000   0.01686   0.01683   2.11122
   A16        2.09440  -0.02910   0.00000  -0.03411  -0.03414   2.06025
   A17        2.09440  -0.03095   0.00000  -0.03556  -0.03548   2.05892
   A18        2.09440   0.01462   0.00000   0.01774   0.01775   2.11214
   A19        2.09440  -0.00263   0.00000  -0.00234  -0.00234   2.09205
   A20        2.09440  -0.01199   0.00000  -0.01540  -0.01541   2.07899
   A21        2.09440   0.00396   0.00000   0.00433   0.00428   2.09867
   A22        2.09440  -0.00260   0.00000  -0.00303  -0.00301   2.09139
   A23        2.09440  -0.00136   0.00000  -0.00130  -0.00127   2.09312
   A24        2.09440  -0.00710   0.00000  -0.00917  -0.00923   2.08516
   A25        2.09440   0.00519   0.00000   0.00687   0.00690   2.10130
   A26        2.09440   0.00192   0.00000   0.00230   0.00233   2.09673
   A27        2.09440  -0.00218   0.00000  -0.00270  -0.00272   2.09168
   A28        2.09440  -0.00053   0.00000  -0.00091  -0.00090   2.09349
   A29        2.09440   0.00271   0.00000   0.00361   0.00362   2.09801
   A30        2.09440   0.02164   0.00000   0.02536   0.02540   2.11979
   A31        2.09440  -0.01295   0.00000  -0.01515  -0.01517   2.07923
   A32        2.09440  -0.00869   0.00000  -0.01021  -0.01023   2.08417
   A33        2.09440   0.11349   0.00000   0.13147   0.13147   2.22586
   A34        2.09440   0.00597   0.00000   0.00692   0.00692   2.10131
    D1        0.00000   0.00000   0.00000   0.00000   0.00000   0.00000
    D2        3.14159  -0.00000   0.00000   0.00000   0.00000   3.14159
    D3       -0.00000  -0.00000   0.00000  -0.00000  -0.00000  -0.00000
    D4        3.14159   0.00000   0.00000   0.00000   0.00000   3.14159
    D5        0.00000   0.00000   0.00000   0.00000   0.00000   0.00000
    D6        3.14159   0.00000   0.00000   0.00000   0.00000   3.14159
    D7       -3.14159  -0.00000   0.00000  -0.00000  -0.00000  -3.14159
    D8        0.00000  -0.00000   0.00000  -0.00000  -0.00000   0.00000
    D9       -0.00000   0.00000   0.00000   0.00000   0.00000  -0.00000
   D10        3.14159  -0.00000   0.00000  -0.00000  -0.00000   3.14159
   D11        3.14159   0.00000   0.00000   0.00000   0.00000   3.14159
   D12        0.00000   0.00000   0.00000   0.00000   0.00000   0.00000
   D13        0.00000  -0.00000   0.00000  -0.00000  -0.00000   0.00000
   D14       -3.14159  -0.00000   0.00000  -0.00000  -0.00000  -3.14159
   D15       -3.14159  -0.00000   0.00000  -0.00000  -0.00000  -3.14159
   D16        0.00000  -0.00000   0.00000  -0.00000  -0.00000   0.00000
   D17       -0.00000   0.00000   0.00000   0.00000   0.00000  -0.00000
   D18        3.14159  -0.00000   0.00000  -0.00000  -0.00000   3.14159
   D19        3.14159   0.00000   0.00000   0.00000   0.00000   3.14159
   D20       -0.00000  -0.00000   0.00000  -0.00000  -0.00000  -0.00000
   D21        0.00001  -0.00000   0.00000  -0.00000  -0.00000   0.00001
   D22       -3.14159  -0.00000   0.00000  -0.00000  -0.00000  -3.14159
   D23        0.00000   0.00000   0.00000   0.00000   0.00000   0.00000
   D24       -3.14159  -0.00000   0.00000  -0.00000  -0.00000  -3.14159
   D25       -0.00000  -0.00000   0.00000  -0.00000  -0.00000  -0.00000
   D26        3.14159   0.00000   0.00000   0.00000   0.00000   3.14159
   D27       -0.00000   0.00000   0.00000   0.00000   0.00000  -0.00000
   D28        3.14159  -0.00000   0.00000  -0.00000  -0.00000   3.14159
   D29        3.14159   0.00000   0.00000   0.00000   0.00000   3.14159
   D30       -0.00000   0.00000   0.00000   0.00000   0.00000  -0.00000
   D31       -0.00000  -0.00000   0.00000  -0.00000  -0.00000  -0.00000
   D32       -3.14159  -0.00000   0.00000  -0.00000  -0.00000  -3.14159
   D33        3.14159   0.00000   0.00000   0.00000   0.00000   3.14159
   D34        0.00000  -0.00000   0.00000  -0.00000  -0.00000   0.00000
   D35        0.00000  -0.00000   0.00000  -0.00000  -0.00000   0.00000
   D36       -3.14159  -0.00000   0.00000  -0.00000  -0.00000  -3.14159
   D37        3.14159   0.00000   0.00000   0.00000   0.00000   3.14159
   D38        0.00000  -0.00000   0.00000  -0.00000  -0.00000   0.00000
   D39        0.00000   0.00000   0.00000   0.00000   0.00000   0.00000
   D40       -3.14159  -0.00000   0.00000  -0.00000  -0.00000  -3.14159
   D41        3.14159   0.00000   0.00000   0.00000   0.00000   3.14159
   D42       -0.00000  -0.00000   0.00000  -0.00000  -0.00000  -0.00000
   D43        0.00001  -0.00000   0.00000  -0.00000  -0.00000   0.00001
   D44       -3.14159  -0.00000   0.00000  -0.00000  -0.00000  -3.14159
   D45       -0.00001  -0.00000   0.00000  -0.00000  -0.00000  -0.00002
         Item               Value     Threshold  Converged?
 Maximum Force            0.597290     0.000450     NO 
 RMS     Force            0.061604     0.000300     NO 
 Maximum Displacement     1.037997     0.001800     NO 
 RMS     Displacement     0.306049     0.001200     NO 
 Predicted change in Energy=-1.304494D-01
 GradGradGradGradGradGradGradGradGradGradGradGradGradGradGradGradGradGrad

                          Input orientation:                          
 ---------------------------------------------------------------------
 Center     Atomic      Atomic             Coordinates (Angstroms)
 Number     Number       Type             X           Y           Z
 ---------------------------------------------------------------------
      1          6           0       -3.525899   -2.715884    0.001154
      2          6           0       -2.191448   -2.503800   -0.398656
      3          6           0       -1.612665   -1.232379   -0.350557
      4          6           0       -2.350479   -0.142884    0.097134
      5          6           0       -3.671114   -0.330037    0.497071
      6          6           0       -4.254346   -1.604158    0.449931
      7          6           0       -4.941006   -4.850764    0.066408
      8          6           0       -4.419842   -6.086563   -0.337389
      9          6           0       -5.201888   -7.246912   -0.297661
     10          6           0       -6.521273   -7.189366    0.147833
     11          6           0       -7.055836   -5.966637    0.553591
     12          6           0       -6.265233   -4.811566    0.510052
     13          1           0       -0.592601   -1.098082   -0.661398
     14          1           0       -1.904648    0.835026    0.133911
     15          1           0       -4.244299    0.509805    0.843635
     16          1           0       -3.411111   -6.151323   -0.681887
     17          1           0       -4.782483   -8.185360   -0.612088
     18          1           0       -7.124019   -8.078966    0.179340
     19          1           0       -8.071468   -5.913506    0.898184
     20         17           0       -5.965829   -1.771758    0.982309
     21         17           0       -6.954570   -3.267230    1.027205
     22         17           0       -1.165103   -3.809868   -0.982073
 ---------------------------------------------------------------------
                    Distance matrix (angstroms):
                    1          2          3          4          5
     1  C    0.000000
     2  C    1.409108   0.000000
     3  C    2.446416   1.397789   0.000000
     4  C    2.830398   2.417649   1.389891   0.000000
     5  C    2.441165   2.777946   2.402062   1.392498   0.000000
     6  C    1.402844   2.405204   2.785225   2.425798   1.402057
     7  C    2.562128   3.644803   4.934006   5.373631   4.715407
     8  C    3.503601   4.219678   5.607452   6.308597   5.864683
     9  C    4.840293   5.618723   7.004279   7.665090   7.128676
    10  C    5.385706   6.403168   7.734890   8.188468   7.436112
    11  C    4.830428   6.046510   7.270405   7.500989   6.575013
    12  C    3.486376   4.769409   5.932758   6.106750   5.178197
    13  H    3.414747   2.145085   1.074798   2.139605   3.377749
    14  H    3.905770   3.393176   2.143391   1.075372   2.147012
    15  H    3.410417   3.852181   3.374432   2.137713   1.074236
    16  H    3.504563   3.856452   5.247876   6.150866   5.945159
    17  H    5.645373   6.248130   7.645920   8.432026   8.010710
    18  H    6.460717   7.466379   8.805201   9.261471   8.489370
    19  H    5.629534   6.919720   8.073936   8.165260   7.120332
    20  Cl   2.794155   4.085206   4.584485   4.062945   2.753132
    21  Cl   3.621126   5.030232   5.880034   5.641297   4.437255
    22  Cl   2.781527   1.760560   2.691203   4.002072   4.536208
                    6          7          8          9         10
     6  C    0.000000
     7  C    3.340515   0.000000
     8  C    4.554033   1.400665   0.000000
     9  C    5.770390   2.437649   1.399851   0.000000
    10  C    6.035294   2.823639   2.422318   1.393755   0.000000
    11  C    5.185588   2.440292   2.785083   2.408497   1.394799
    12  C    3.786126   1.397116   2.397757   2.777411   2.418821
    13  H    3.859993   5.789728   6.295848   7.693240   8.538604
    14  H    3.401553   6.446102   7.379479   8.739322   9.257661
    15  H    2.150335   5.461243   6.703559   7.898493   8.058908
    16  H    4.761173   2.142890   1.067900   2.134203   3.382170
    17  H    6.687229   3.406614   2.147537   1.074919   2.143099
    18  H    7.087411   3.898665   3.398419   2.148123   1.075027
    19  H    5.774239   3.408969   3.858881   3.382678   2.143351
    20  Cl   1.800192   3.371856   4.769614   5.674437   5.509569
    21  Cl   3.223394   2.735900   4.029342   4.545880   4.042795
    22  Cl   4.056996   4.054655   4.023964   5.345776   6.433215
                   11         12         13         14         15
    11  C    0.000000
    12  C    1.400406   0.000000
    13  H    8.182447   6.880481   0.000000
    14  H    8.542452   7.144242   2.467973   0.000000
    15  H    7.066341   5.701969   4.264425   2.466463   0.000000
    16  H    3.852860   3.370709   5.786162   7.193332   6.884188
    17  H    3.383737   3.852302   8.233290   9.497674   8.832591
    18  H    2.146310   3.394523   9.596823  10.329722   9.083010
    19  H    1.073814   2.151140   9.030729   9.173683   7.477241
    20  Cl   4.355333   3.090810   5.659258   4.899826   2.861543
    21  Cl   2.742510   1.768504   6.930458   6.567206   4.652448
    22  Cl   6.458379   5.407510   2.790049   4.833982   5.610190
                   16         17         18         19         20
    16  H    0.000000
    17  H    2.454147   0.000000
    18  H    4.271206   2.473958   0.000000
    19  H    4.926673   4.273134   2.470550   0.000000
    20  Cl   5.336359   6.713919   6.462742   4.647028   0.000000
    21  Cl   4.878021   5.620787   4.888802   2.875219   1.793338
    22  Cl   3.258386   5.689223   7.421776   7.460466   5.573120
                   21         22
    21  Cl   0.000000
    22  Cl   6.152202   0.000000
 Stoichiometry    C12H7Cl3
 Framework group  C1[X(C12H7Cl3)]
 Deg. of freedom    60
 Full point group                 C1      NOp   1
 Largest Abelian subgroup         C1      NOp   1
 Largest concise Abelian subgroup C1      NOp   1
                         Standard orientation:                         
 ---------------------------------------------------------------------
 Center     Atomic      Atomic             Coordinates (Angstroms)
 Number     Number       Type             X           Y           Z
 ---------------------------------------------------------------------
      1          6           0        1.191719    0.168070   -0.000001
      2          6           0        2.322606    1.008713   -0.000002
      3          6           0        3.617776    0.483025    0.000001
      4          6           0        3.815830   -0.892683    0.000003
      5          6           0        2.712163   -1.741783    0.000006
      6          6           0        1.411863   -1.217393    0.000003
      7          6           0       -1.310614    0.718366    0.000008
      8          6           0       -1.768594    2.042042    0.000012
      9          6           0       -3.138200    2.331456    0.000008
     10          6           0       -4.073998    1.298578   -0.000000
     11          6           0       -3.634838   -0.025281   -0.000005
     12          6           0       -2.262508   -0.304294   -0.000001
     13          1           0        4.463254    1.146619    0.000000
     14          1           0        4.812495   -1.296518    0.000005
     15          1           0        2.861554   -2.805580    0.000010
     16          1           0       -1.067300    2.847397    0.000016
     17          1           0       -3.468512    3.354366    0.000012
     18          1           0       -5.126378    1.518078   -0.000004
     19          1           0       -4.349167   -0.827036   -0.000014
     20         17           0        0.032689   -2.374360    0.000004
     21         17           0       -1.718312   -1.986987   -0.000009
     22         17           0        2.190026    2.764275   -0.000008
 ---------------------------------------------------------------------
 Rotational constants (GHZ):           0.5906916           0.3358436           0.2141095
 Standard basis: 6-311+G(d,p) (5D, 7F)
 There are   411 symmetry adapted cartesian basis functions of A   symmetry.
 There are   396 symmetry adapted basis functions of A   symmetry.
   396 basis functions,   647 primitive gaussians,   411 cartesian basis functions
    65 alpha electrons       65 beta electrons
       nuclear repulsion energy      1228.6640280876 Hartrees.
 NAtoms=   22 NActive=   22 NUniq=   22 SFac= 1.00D+00 NAtFMM=   60 NAOKFM=F Big=F
 Integral buffers will be    131072 words long.
 Raffenetti 2 integral format.
 Two-electron integral symmetry is turned on.
 One-electron integrals computed using PRISM.
 NBasis=   396 RedAO= T EigKep=  1.41D-06  NBF=   396
 NBsUse=   393 1.00D-06 EigRej=  9.43D-07 NBFU=   393
 Initial guess from the checkpoint file:  "./Gau-290127.chk"
 B after Tr=    -0.000000   -0.000000   -0.000000
         Rot=    0.999312    0.000000    0.000000    0.037077 Ang=   4.25 deg.
 ExpMin= 4.38D-02 ExpMax= 1.06D+05 ExpMxC= 3.62D+03 IAcc=3 IRadAn=         5 AccDes= 0.00D+00
 Harris functional with IExCor=  402 and IRadAn=       5 diagonalized for initial guess.
 HarFok:  IExCor=  402 AccDes= 0.00D+00 IRadAn=         5 IDoV= 1 UseB2=F ITyADJ=14
 ICtDFT=  3500011 ScaDFX=  1.000000  1.000000  1.000000  1.000000
 FoFCou: FMM=F IPFlag=           0 FMFlag=      100000 FMFlg1=           0
         NFxFlg=           0 DoJE=T BraDBF=F KetDBF=T FulRan=T
         wScrn=  0.000000 ICntrl=       500 IOpCl=  0 I1Cent=   200000004 NGrid=           0
         NMat0=    1 NMatS0=      1 NMatT0=    0 NMatD0=    1 NMtDS0=    0 NMtDT0=    0
 Petite list used in FoFCou.
 Requested convergence on RMS density matrix=1.00D-08 within  32 cycles.
 Requested convergence on MAX density matrix=1.00D-06.
 Requested convergence on             energy=1.00D-06.
 No special actions if energy rises.
 SCF Done:  E(RB3LYP) =  -1841.81225713     A.U. after   20 cycles
            NFock= 20  Conv=0.73D-08     -V/T= 2.0022
 QCSCF skips out because SCF is already converged.
 Calling FoFJK, ICntrl=      2127 FMM=F ISym2X=0 I1Cent= 0 IOpClX= 0 NMat=1 NMatS=1 NMatT=0.
 ***** Axes restored to original set *****
 -------------------------------------------------------------------
 Center     Atomic                   Forces (Hartrees/Bohr)
 Number     Number              X              Y              Z
 -------------------------------------------------------------------
      1        6          -0.015883100    0.025365337    0.009996291
      2        6          -0.023250179   -0.001293328    0.007416965
      3        6          -0.003949338    0.001063952    0.001501087
      4        6          -0.003413392   -0.011646941   -0.001063047
      5        6          -0.004072778   -0.001472918    0.001065388
      6        6           0.079256482    0.000283783   -0.026057988
      7        6          -0.004920147    0.005827879    0.002715738
      8        6          -0.009825617    0.009384309    0.004999761
      9        6          -0.004239028    0.007638124    0.002830999
     10        6           0.009658052    0.009203070   -0.001453455
     11        6          -0.004649503    0.004589696    0.002393872
     12        6           0.037301708   -0.021705322   -0.016366232
     13        1           0.005888065   -0.000727752   -0.002076482
     14        1           0.002029623    0.005460301    0.000356783
     15        1          -0.002392265    0.006349715    0.001980688
     16        1           0.011210073    0.000903888   -0.003523589
     17        1           0.003278438   -0.005408950   -0.002095946
     18        1          -0.004615843   -0.003683756    0.000828862
     19        1          -0.005881422   -0.001067484    0.001737129
     20       17           0.185894646    0.262864961   -0.011878728
     21       17          -0.246046788   -0.285816788    0.027385904
     22       17          -0.001377687   -0.006111776   -0.000694002
 -------------------------------------------------------------------
 Cartesian Forces:  Max     0.285816788 RMS     0.062602190

 GradGradGradGradGradGradGradGradGradGradGradGradGradGradGradGradGradGrad
 Berny optimization.
 Using GEDIIS/GDIIS optimizer.
 FormGI is forming the generalized inverse of G from B-inverse, IUseBI=4.
 Internal  Forces:  Max     0.354687991 RMS     0.039750154
 Search for a local minimum.
 Step number   2 out of a maximum of  112
 All quantities printed in internal units (Hartrees-Bohrs-Radians)
 Mixed Optimization -- RFO/linear search
 Update second derivatives using D2CorX and points    1    2
 DE= -1.07D-01 DEPred=-1.30D-01 R= 8.24D-01
 TightC=F SS=  1.41D+00  RLast= 3.00D-01 DXNew= 5.0454D-01 9.0000D-01
 Trust test= 8.24D-01 RLast= 3.00D-01 DXMaxT set to 5.05D-01
 ITU=  1  0
 Use linear search instead of GDIIS.
 Linear search step of   0.571 exceeds DXMaxT=   0.505 but not scaled.
 Quartic linear search produced a step of  1.90359.
 Iteration  1 RMS(Cart)=  0.36156605 RMS(Int)=  0.03113168
 Iteration  2 RMS(Cart)=  0.18092200 RMS(Int)=  0.00672334
 Iteration  3 RMS(Cart)=  0.01133166 RMS(Int)=  0.00017561
 Iteration  4 RMS(Cart)=  0.00001274 RMS(Int)=  0.00017557
 Iteration  5 RMS(Cart)=  0.00000000 RMS(Int)=  0.00017557
 Variable       Old X    -DE/DX   Delta X   Delta X   Delta X     New X
                                 (Linear)    (Quad)   (Total)
    R1        2.66283  -0.02815   0.02773   0.00000   0.02799   2.69082
    R2        2.65099  -0.04384   0.00519   0.00000   0.00551   2.65650
    R3        2.64144   0.00137  -0.01299   0.00000  -0.01304   2.62840
    R4        3.32698   0.00396   0.00202   0.00000   0.00202   3.32899
    R5        2.62651   0.00418  -0.04140   0.00000  -0.04172   2.58479
    R6        2.03107   0.00610   0.01726   0.00000   0.01726   2.04833
    R7        2.63144   0.00196  -0.03202   0.00000  -0.03229   2.59915
    R8        2.03216   0.00582   0.01933   0.00000   0.01933   2.05148
    R9        2.64950  -0.00465   0.00236   0.00000   0.00241   2.65191
   R10        2.03001   0.00688   0.01524   0.00000   0.01524   2.04525
   R11        3.40187   0.03507   0.14458   0.00000   0.14458   3.54645
   R12        2.64687  -0.01311  -0.00264   0.00000  -0.00252   2.64435
   R13        2.64017  -0.00981  -0.01541   0.00000  -0.01522   2.62495
   R14        2.64533   0.00054  -0.00557   0.00000  -0.00563   2.63970
   R15        2.01804   0.01167  -0.00755   0.00000  -0.00755   2.01049
   R16        2.63382   0.00347  -0.02750   0.00000  -0.02769   2.60612
   R17        2.03130   0.00661   0.01769   0.00000   0.01769   2.04900
   R18        2.63579  -0.00110  -0.02374   0.00000  -0.02387   2.61192
   R19        2.03151   0.00566   0.01808   0.00000   0.01808   2.04959
   R20        2.64638  -0.00610  -0.00358   0.00000  -0.00351   2.64287
   R21        2.02921   0.00607   0.01372   0.00000   0.01372   2.04293
   R22        3.34199   0.00800   0.03059   0.00000   0.03059   3.37258
   R23        3.38892   0.35469   0.43325   0.00000   0.43325   3.82217
    A1        2.05245   0.00667  -0.07985   0.00000  -0.07896   1.97349
    A2        2.11679  -0.00248   0.04264   0.00000   0.04281   2.15961
    A3        2.13465  -0.00692   0.07663   0.00000   0.07654   2.21119
    A4        2.03174   0.00940  -0.11927   0.00000  -0.11935   1.91239
    A5        2.09935  -0.00377   0.00943   0.00000   0.00899   2.10834
    A6        2.09057   0.00034  -0.00727   0.00000  -0.00706   2.08352
    A7        2.09326   0.00343  -0.00215   0.00000  -0.00194   2.09133
    A8        2.08358  -0.00079  -0.02059   0.00000  -0.02125   2.06233
    A9        2.09875   0.00085   0.00829   0.00000   0.00862   2.10737
   A10        2.10086  -0.00006   0.01230   0.00000   0.01263   2.11349
   A11        2.10249  -0.01682   0.01541   0.00000   0.01513   2.11762
   A12        2.08704   0.00676  -0.01399   0.00000  -0.01385   2.07319
   A13        2.09365   0.01006  -0.00142   0.00000  -0.00128   2.09237
   A14        2.11171   0.01719   0.03296   0.00000   0.03328   2.14499
   A15        2.11122  -0.05499   0.03203   0.00000   0.03187   2.14309
   A16        2.06025   0.03780  -0.06499   0.00000  -0.06515   1.99510
   A17        2.05892  -0.00008  -0.06753   0.00000  -0.06707   1.99185
   A18        2.11214  -0.00520   0.03379   0.00000   0.03383   2.14597
   A19        2.09205   0.00094  -0.00445   0.00000  -0.00448   2.08758
   A20        2.07899   0.00425  -0.02933   0.00000  -0.02935   2.04964
   A21        2.09867   0.00220   0.00814   0.00000   0.00786   2.10654
   A22        2.09139  -0.00192  -0.00572   0.00000  -0.00558   2.08581
   A23        2.09312  -0.00028  -0.00242   0.00000  -0.00228   2.09084
   A24        2.08516   0.00276  -0.01757   0.00000  -0.01793   2.06723
   A25        2.10130   0.00053   0.01314   0.00000   0.01331   2.11461
   A26        2.09673  -0.00328   0.00444   0.00000   0.00462   2.10134
   A27        2.09168  -0.01459  -0.00517   0.00000  -0.00526   2.08641
   A28        2.09349   0.00588  -0.00172   0.00000  -0.00167   2.09182
   A29        2.09801   0.00871   0.00689   0.00000   0.00694   2.10495
   A30        2.11979   0.01491   0.04835   0.00000   0.04857   2.16836
   A31        2.07923  -0.03361  -0.02887   0.00000  -0.02899   2.05024
   A32        2.08417   0.01870  -0.01947   0.00000  -0.01958   2.06458
   A33        2.22586  -0.04418   0.25026   0.00000   0.25026   2.47613
   A34        2.10131  -0.14549   0.01316   0.00000   0.01316   2.11447
    D1        0.00000  -0.00000   0.00000   0.00000   0.00000   0.00000
    D2        3.14159   0.00000   0.00000   0.00000   0.00000   3.14159
    D3       -0.00000   0.00000  -0.00000   0.00000  -0.00000  -0.00000
    D4        3.14159  -0.00000   0.00000   0.00000   0.00000  -3.14159
    D5        0.00000  -0.00000   0.00000   0.00000   0.00000   0.00000
    D6        3.14159   0.00000  -0.00000   0.00000  -0.00000   3.14159
    D7       -3.14159  -0.00000  -0.00000   0.00000  -0.00000  -3.14159
    D8        0.00000  -0.00000  -0.00000   0.00000  -0.00000   0.00000
    D9       -0.00000   0.00000   0.00000   0.00000   0.00000  -0.00000
   D10        3.14159   0.00000  -0.00000   0.00000  -0.00000   3.14159
   D11        3.14159   0.00000   0.00000   0.00000   0.00000   3.14159
   D12        0.00000  -0.00000   0.00000   0.00000   0.00000   0.00000
   D13        0.00000  -0.00000  -0.00000   0.00000  -0.00000   0.00000
   D14       -3.14159  -0.00000  -0.00000   0.00000  -0.00000  -3.14159
   D15       -3.14159  -0.00000  -0.00000   0.00000  -0.00000  -3.14159
   D16        0.00000  -0.00000  -0.00000   0.00000  -0.00000   0.00000
   D17       -0.00000   0.00000   0.00000   0.00000   0.00000   0.00000
   D18        3.14159   0.00000  -0.00000   0.00000  -0.00000   3.14159
   D19        3.14159  -0.00000   0.00000   0.00000   0.00000   3.14159
   D20       -0.00000   0.00000  -0.00000   0.00000  -0.00000  -0.00000
   D21        0.00001   0.00000  -0.00000   0.00000  -0.00000   0.00000
   D22       -3.14159   0.00000  -0.00000   0.00000  -0.00000  -3.14159
   D23        0.00000  -0.00000   0.00000   0.00000   0.00000   0.00000
   D24       -3.14159  -0.00000  -0.00000   0.00000  -0.00000  -3.14159
   D25       -0.00000   0.00000  -0.00000   0.00000  -0.00000  -0.00000
   D26        3.14159  -0.00000   0.00000   0.00000   0.00000   3.14159
   D27       -0.00000  -0.00000   0.00000   0.00000   0.00000  -0.00000
   D28        3.14159  -0.00000  -0.00000   0.00000  -0.00000   3.14159
   D29        3.14159   0.00000   0.00000   0.00000   0.00000   3.14159
   D30       -0.00000   0.00000   0.00000   0.00000   0.00000  -0.00000
   D31       -0.00000   0.00000  -0.00000   0.00000  -0.00000  -0.00000
   D32       -3.14159  -0.00000  -0.00000   0.00000  -0.00000  -3.14159
   D33        3.14159   0.00000   0.00000   0.00000   0.00000   3.14159
   D34        0.00000  -0.00000  -0.00000   0.00000  -0.00000   0.00000
   D35        0.00000   0.00000  -0.00000   0.00000  -0.00000  -0.00000
   D36       -3.14159  -0.00000  -0.00000   0.00000  -0.00000  -3.14159
   D37        3.14159   0.00000   0.00000   0.00000   0.00000   3.14159
   D38        0.00000  -0.00000  -0.00000   0.00000  -0.00000   0.00000
   D39        0.00000  -0.00000   0.00000   0.00000   0.00000   0.00000
   D40       -3.14159   0.00000  -0.00000   0.00000  -0.00000  -3.14159
   D41        3.14159   0.00000   0.00000   0.00000   0.00000   3.14159
   D42       -0.00000   0.00000  -0.00000   0.00000  -0.00000  -0.00000
   D43        0.00001   0.00000  -0.00000   0.00000  -0.00000   0.00000
   D44       -3.14159   0.00000  -0.00000   0.00000  -0.00000  -3.14159
   D45       -0.00002   0.00000  -0.00001   0.00000  -0.00001  -0.00002
         Item               Value     Threshold  Converged?
 Maximum Force            0.354688     0.000450     NO 
 RMS     Force            0.039750     0.000300     NO 
 Maximum Displacement     1.874222     0.001800     NO 
 RMS     Displacement     0.548163     0.001200     NO 
 Predicted change in Energy=-3.412399D-02
 GradGradGradGradGradGradGradGradGradGradGradGradGradGradGradGradGradGrad

                          Input orientation:                          
 ---------------------------------------------------------------------
 Center     Atomic      Atomic             Coordinates (Angstroms)
 Number     Number       Type             X           Y           Z
 ---------------------------------------------------------------------
      1          6           0       -2.929889   -2.494436   -0.153602
      2          6           0       -1.655041   -1.944939   -0.470406
      3          6           0       -1.335623   -0.599280   -0.322924
      4          6           0       -2.259505    0.292212    0.148873
      5          6           0       -3.510387   -0.179342    0.472416
      6          6           0       -3.839266   -1.535717    0.326038
      7          6           0       -5.083599   -5.337911    0.021890
      8          6           0       -4.768698   -6.655347   -0.329290
      9          6           0       -5.681163   -7.707990   -0.226363
     10          6           0       -6.961262   -7.487283    0.236838
     11          6           0       -7.318786   -6.201410    0.596133
     12          6           0       -6.383220   -5.168154    0.481954
     13          1           0       -0.341467   -0.256820   -0.586135
     14          1           0       -2.009223    1.342314    0.263626
     15          1           0       -4.249258    0.517345    0.846674
     16          1           0       -3.795389   -6.884106   -0.692924
     17          1           0       -5.377339   -8.708211   -0.514317
     18          1           0       -7.675776   -8.299034    0.319790
     19          1           0       -8.316405   -6.002634    0.962149
     20         17           0       -5.597310   -1.962659    0.825048
     21         17           0       -6.880423   -3.520739    0.955171
     22         17           0       -0.258130   -2.818072   -1.094591
 ---------------------------------------------------------------------
                    Distance matrix (angstroms):
                    1          2          3          4          5
     1  C    0.000000
     2  C    1.423921   0.000000
     3  C    2.482332   1.390891   0.000000
     4  C    2.882068   2.398693   1.367811   0.000000
     5  C    2.467496   2.729204   2.353404   1.375409   0.000000
     6  C    1.405760   2.360641   2.750690   2.422470   1.403332
     7  C    3.571360   4.848672   6.051516   6.299994   5.411913
     8  C    4.552501   5.648249   6.961465   7.402248   6.645654
     9  C    5.895418   7.034343   8.332275   8.709293   7.866454
    10  C    6.429070   7.705437   8.910990   9.090369   8.085174
    11  C    5.793632   7.164709   8.247834   8.243997   7.126325
    12  C    4.413411   5.801016   6.855704   6.850662   5.756866
    13  H    3.448759   2.142105   1.083930   2.126157   3.341944
    14  H    3.967664   3.386781   2.137186   1.085599   2.147679
    15  H    3.436875   3.811496   3.332278   2.120549   1.082299
    16  H    4.506569   5.387576   6.759171   7.386955   6.811248
    17  H    6.688133   7.720057   9.062387   9.548210   8.786396
    18  H    7.512716   8.789095   9.994841  10.157496   9.127056
    19  H    6.524332   7.930377   8.920704   8.773400   7.566266
    20  Cl   2.890619   4.149699   4.619375   4.084434   2.767637
    21  Cl   4.229585   5.640925   6.396347   6.044964   4.770233
    22  Cl   2.851052   1.761627   2.584473   3.901996   4.471642
                    6          7          8          9         10
     6  C    0.000000
     7  C    4.012175   0.000000
     8  C    5.244416   1.399331   0.000000
     9  C    6.464880   2.456824   1.396869   0.000000
    10  C    6.721306   2.862101   2.412458   1.379101   0.000000
    11  C    5.826551   2.464031   2.750530   2.372360   1.382167
    12  C    4.437410   1.389061   2.340201   2.728619   2.402618
    13  H    3.834350   6.976747   7.785082   9.173970   9.837610
    14  H    3.411161   7.357692   8.481087   9.779123  10.123498
    15  H    2.157364   5.971634   7.286990   8.417713   8.473543
    16  H    5.444765   2.135687   1.063903   2.110120   3.354255
    17  H    7.383531   3.425306   2.149169   1.084282   2.136285
    18  H    7.775686   3.946692   3.402075   2.150837   1.084597
    19  H    6.356316   3.431760   3.831458   3.356382   2.136977
    20  Cl   1.876702   3.507320   4.903103   5.841346   5.720824
    21  Cl   3.685750   2.720608   3.991865   4.513016   4.031874
    22  Cl   4.060438   5.557092   5.971230   7.353530   8.276848
[...]
     19          1           0       -3.650965    0.001658   -1.451224
     20         17           0        0.592390   -2.734290    0.270676
     21         17           0       -0.964350    0.002630   -2.333702
     22         17           0        0.593151    2.733838    0.273848
 ---------------------------------------------------------------------
 Rotational constants (GHZ):           0.5568978           0.3997738           0.3241623

 **********************************************************************

            Population analysis using the SCF Density.

 **********************************************************************

 Orbital symmetries:
       Occupied  (A) (A) (A) (A) (A) (A) (A) (A) (A) (A) (A) (A)
                 (A) (A) (A) (A) (A) (A) (A) (A) (A) (A) (A) (A)
                 (A) (A) (A) (A) (A) (A) (A) (A) (A) (A) (A) (A)
                 (A) (A) (A) (A) (A) (A) (A) (A) (A) (A) (A) (A)
                 (A) (A) (A) (A) (A) (A) (A) (A) (A) (A) (A) (A)
                 (A) (A) (A) (A) (A)
       Virtual   (A) (A) (A) (A) (A) (A) (A) (A) (A) (A) (A) (A)
                 (A) (A) (A) (A) (A) (A) (A) (A) (A) (A) (A) (A)
                 (A) (A) (A) (A) (A) (A) (A) (A) (A) (A) (A) (A)
                 (A) (A) (A) (A) (A) (A) (A) (A) (A) (A) (A) (A)
                 (A) (A) (A) (A) (A) (A) (A) (A) (A) (A) (A) (A)
                 (A) (A) (A) (A) (A) (A) (A) (A) (A) (A) (A) (A)
                 (A) (A) (A) (A) (A) (A) (A) (A) (A) (A) (A) (A)
                 (A) (A) (A) (A) (A) (A) (A) (A) (A) (A) (A) (A)
                 (A) (A) (A) (A) (A) (A) (A) (A) (A) (A) (A) (A)
                 (A) (A) (A) (A) (A) (A) (A) (A) (A) (A) (A) (A)
                 (A) (A) (A) (A) (A) (A) (A) (A) (A) (A) (A) (A)
                 (A) (A) (A) (A) (A) (A) (A) (A) (A) (A) (A) (A)
                 (A) (A) (A) (A) (A) (A) (A) (A) (A) (A) (A) (A)
                 (A) (A) (A) (A) (A) (A) (A) (A) (A) (A) (A) (A)
                 (A) (A) (A) (A) (A) (A) (A) (A) (A) (A) (A) (A)
                 (A) (A) (A) (A) (A) (A) (A) (A) (A) (A) (A) (A)
                 (A) (A) (A) (A) (A) (A) (A) (A) (A) (A) (A) (A)
                 (A) (A) (A) (A) (A) (A) (A) (A) (A) (A) (A) (A)
                 (A) (A) (A) (A) (A) (A) (A) (A) (A) (A) (A) (A)
                 (A) (A) (A) (A) (A) (A) (A) (A) (A) (A) (A) (A)
                 (A) (A) (A) (A) (A) (A) (A) (A) (A) (A) (A) (A)
                 (A) (A) (A) (A) (A) (A) (A) (A) (A) (A) (A) (A)
                 (A) (A) (A) (A) (A) (A) (A) (A) (A) (A) (A) (A)
                 (A) (A) (A) (A) (A) (A) (A) (A) (A) (A) (A) (A)
                 (A) (A) (A) (A) (A) (A) (A) (A) (A) (A) (A) (A)
                 (A) (A) (A) (A) (A) (A) (A) (A) (A) (A) (A) (A)
                 (A) (A) (A) (A) (A) (A) (A) (A) (A) (A) (A) (A)
                 (A) (A) (A) (A)
 The electronic state is 1-A.
 Alpha  occ. eigenvalues -- -101.56167-101.56167-101.55633 -10.25707 -10.25706
 Alpha  occ. eigenvalues --  -10.24794 -10.22136 -10.21143 -10.20380 -10.20120
 Alpha  occ. eigenvalues --  -10.20113 -10.19510 -10.19502 -10.19405 -10.19044
 Alpha  occ. eigenvalues --   -9.47639  -9.47638  -9.47106  -7.24105  -7.24104
 Alpha  occ. eigenvalues --   -7.23564  -7.23125  -7.23124  -7.23073  -7.23072
 Alpha  occ. eigenvalues --   -7.22591  -7.22550  -0.92770  -0.89948  -0.88327
 Alpha  occ. eigenvalues --   -0.84709  -0.83777  -0.80109  -0.75451  -0.74746
 Alpha  occ. eigenvalues --   -0.73950  -0.65178  -0.62371  -0.61808  -0.60377
 Alpha  occ. eigenvalues --   -0.54710  -0.51884  -0.50799  -0.49043  -0.48286
 Alpha  occ. eigenvalues --   -0.46748  -0.44944  -0.44753  -0.44192  -0.42070
 Alpha  occ. eigenvalues --   -0.40808  -0.40383  -0.38767  -0.37464  -0.37333
 Alpha  occ. eigenvalues --   -0.37331  -0.34119  -0.33290  -0.32826  -0.32277
 Alpha  occ. eigenvalues --   -0.32007  -0.27266  -0.27223  -0.26076  -0.25766
 Alpha virt. eigenvalues --   -0.04235  -0.04111  -0.03408  -0.02841  -0.01400
 Alpha virt. eigenvalues --   -0.00184   0.00593   0.01629   0.02067   0.02150
 Alpha virt. eigenvalues --    0.02548   0.03236   0.04467   0.04680   0.05228
 Alpha virt. eigenvalues --    0.05523   0.06159   0.06725   0.06792   0.06981
 Alpha virt. eigenvalues --    0.08543   0.08917   0.09496   0.09633   0.09800
 Alpha virt. eigenvalues --    0.10483   0.10868   0.11119   0.11875   0.12530
 Alpha virt. eigenvalues --    0.13363   0.13436   0.13887   0.14026   0.14037
 Alpha virt. eigenvalues --    0.14462   0.14815   0.15093   0.16182   0.16605
 Alpha virt. eigenvalues --    0.16769   0.17048   0.17646   0.18060   0.18112
 Alpha virt. eigenvalues --    0.18358   0.18495   0.18818   0.19708   0.20289
 Alpha virt. eigenvalues --    0.20506   0.20509   0.20866   0.21381   0.21782
 Alpha virt. eigenvalues --    0.22100   0.22475   0.22895   0.23734   0.23747
 Alpha virt. eigenvalues --    0.24302   0.24787   0.24814   0.26073   0.26315
 Alpha virt. eigenvalues --    0.26976   0.27094   0.27104   0.27726   0.27895
 Alpha virt. eigenvalues --    0.27990   0.29352   0.29826   0.30652   0.30771
 Alpha virt. eigenvalues --    0.31461   0.32596   0.32979   0.33134   0.33998
 Alpha virt. eigenvalues --    0.34911   0.37409   0.41588   0.42587   0.44176
 Alpha virt. eigenvalues --    0.45297   0.45581   0.47424   0.48003   0.49534
 Alpha virt. eigenvalues --    0.50573   0.50770   0.50976   0.51129   0.51787
 Alpha virt. eigenvalues --    0.52761   0.53382   0.53806   0.54666   0.55791
 Alpha virt. eigenvalues --    0.57149   0.57585   0.57751   0.57937   0.58750
 Alpha virt. eigenvalues --    0.58850   0.60010   0.60966   0.61895   0.62388
 Alpha virt. eigenvalues --    0.64285   0.64452   0.65284   0.65681   0.66196
 Alpha virt. eigenvalues --    0.66744   0.68011   0.68286   0.68967   0.70059
 Alpha virt. eigenvalues --    0.70598   0.70822   0.71196   0.72347   0.73663
 Alpha virt. eigenvalues --    0.74061   0.77305   0.79438   0.79918   0.81324
 Alpha virt. eigenvalues --    0.81860   0.82716   0.83552   0.83872   0.84407
 Alpha virt. eigenvalues --    0.84745   0.85896   0.86206   0.86337   0.86928
 Alpha virt. eigenvalues --    0.88250   0.89295   0.90026   0.90106   0.91387
 Alpha virt. eigenvalues --    0.91575   0.93631   0.96057   0.96559   0.97002
 Alpha virt. eigenvalues --    0.97228   0.97823   0.98614   0.99118   1.00455
 Alpha virt. eigenvalues --    1.00487   1.01894   1.02812   1.03841   1.04038
 Alpha virt. eigenvalues --    1.05070   1.05110   1.07688   1.08700   1.09951
 Alpha virt. eigenvalues --    1.13307   1.15974   1.19909   1.21592   1.24405
 Alpha virt. eigenvalues --    1.25280   1.26458   1.29663   1.31338   1.31683
 Alpha virt. eigenvalues --    1.32288   1.33581   1.34196   1.40589   1.42653
 Alpha virt. eigenvalues --    1.44563   1.47484   1.49018   1.49379   1.49977
 Alpha virt. eigenvalues --    1.53879   1.55466   1.55945   1.55976   1.58123
 Alpha virt. eigenvalues --    1.58226   1.60193   1.60847   1.64109   1.65859
 Alpha virt. eigenvalues --    1.67241   1.67957   1.69616   1.70278   1.72594
 Alpha virt. eigenvalues --    1.73882   1.76103   1.79140   1.81800   1.81834
 Alpha virt. eigenvalues --    1.83837   1.86743   1.86935   1.87976   1.88804
 Alpha virt. eigenvalues --    1.90156   1.92621   1.94828   1.94917   1.95863
 Alpha virt. eigenvalues --    1.96277   1.96423   1.98975   2.00186   2.02065
 Alpha virt. eigenvalues --    2.03165   2.03474   2.05377   2.05692   2.15814
 Alpha virt. eigenvalues --    2.19212   2.20031   2.22011   2.27017   2.27726
 Alpha virt. eigenvalues --    2.28899   2.31083   2.32098   2.32393   2.35582
 Alpha virt. eigenvalues --    2.37492   2.38874   2.39414   2.41272   2.41428
 Alpha virt. eigenvalues --    2.44984   2.47790   2.51413   2.51943   2.52597
 Alpha virt. eigenvalues --    2.56035   2.56383   2.58827   2.60073   2.62574
 Alpha virt. eigenvalues --    2.68276   2.69316   2.69880   2.70061   2.70824
 Alpha virt. eigenvalues --    2.72581   2.73442   2.75230   2.75845   2.77129
 Alpha virt. eigenvalues --    2.77184   2.78089   2.78529   2.79524   2.80784
 Alpha virt. eigenvalues --    2.84207   2.84305   2.84828   2.85976   2.87630
 Alpha virt. eigenvalues --    2.90766   2.97950   3.00540   3.10714   3.10832
 Alpha virt. eigenvalues --    3.13712   3.14672   3.18349   3.22457   3.22857
 Alpha virt. eigenvalues --    3.27852   3.34056   3.34567   3.38860   3.40279
 Alpha virt. eigenvalues --    3.52594   3.53482   3.57397   3.62154   3.71093
 Alpha virt. eigenvalues --    3.73181   3.84668   3.97884   4.01507   4.03485
 Alpha virt. eigenvalues --    4.07908   4.08949   4.14040   4.37095   4.81676
 Alpha virt. eigenvalues --    4.83135   9.80780   9.83873   9.84934  23.44595
 Alpha virt. eigenvalues --   23.60852  23.85865  23.90503  23.91279  23.95722
 Alpha virt. eigenvalues --   23.99843  24.04671  24.06738  24.10238  24.15206
 Alpha virt. eigenvalues --   24.17683  25.82469  25.94076  25.97736  26.22834
 Alpha virt. eigenvalues --   26.28324  26.28742  26.62318  26.67614  26.91979
 Alpha virt. eigenvalues --  215.80419 215.84078 215.85846
          Condensed to atoms (all electrons):
               1          2          3          4          5          6
     1  C   15.177181   1.168988  -4.145442  -0.561151  -4.143750   1.171884
     2  C    1.168988  13.619304  -2.709485  -1.231691   3.257587  -1.190077
     3  C   -4.145442  -2.709485  12.813009   1.253768   1.164929   3.256197
     4  C   -0.561151  -1.231691   1.253768   6.964156   1.250807  -1.231902
     5  C   -4.143750   3.257587   1.164929   1.250807  12.809704  -2.708180
     6  C    1.171884  -1.190077   3.256197  -1.231902  -2.708180  13.610829
     7  C    4.345327  -1.904019  -3.500937  -0.510271  -3.500968  -1.908197
     8  C    0.686527  -0.325793  -0.068934  -0.489232  -0.054644  -0.296671
     9  C    0.436116   0.138332   0.083277  -0.037352   0.082931   0.138009
    10  C   -0.793588  -0.137759  -0.030373   0.006283  -0.029606  -0.136002
    11  C   -2.288327  -0.089095   0.039960   0.234892   0.033490  -0.110362
    12  C   -5.199082  -3.686313  -1.984830   0.620757  -1.993465  -3.692936
    13  H    0.076897   0.033475   0.302419  -0.033796  -0.029809  -0.008777
    14  H   -0.007305   0.008848  -0.035596   0.408975  -0.035662   0.008847
    15  H    0.076906  -0.008790  -0.029789  -0.033887   0.302388   0.033555
    16  H    0.074786   0.056683   0.014543   0.004075   0.014479   0.056589
    17  H    0.002166   0.001735   0.000158   0.000053   0.000162   0.001763
    18  H    0.005251   0.001109   0.000101  -0.000001   0.000101   0.001094
    19  H    0.009247   0.001046  -0.000284   0.000121  -0.000282   0.001082
    20  Cl  -0.079014  -0.504620   0.314769  -0.085495  -0.507928  -0.056012
    21  Cl  -0.138396  -0.219285  -0.201497  -0.139892  -0.199525  -0.214863
    22  Cl  -0.078109  -0.057592  -0.507587  -0.085632   0.315275  -0.503168
               7          8          9         10         11         12
     1  C    4.345327   0.686527   0.436116  -0.793588  -2.288327  -5.199082
     2  C   -1.904019  -0.325793   0.138332  -0.137759  -0.089095  -3.686313
     3  C   -3.500937  -0.068934   0.083277  -0.030373   0.039960  -1.984830
     4  C   -0.510271  -0.489232  -0.037352   0.006283   0.234892   0.620757
     5  C   -3.500968  -0.054644   0.082931  -0.029606   0.033490  -1.993465
     6  C   -1.908197  -0.296671   0.138009  -0.136002  -0.110362  -3.692936
     7  C   29.100199  -8.159568  -1.738401  -3.830366  -1.831327  -1.750545
     8  C   -8.159568  24.386145  -0.283855   1.717133 -10.213015  -2.168634
     9  C   -1.738401  -0.283855   8.724320   0.087094   2.435748  -4.050921
    10  C   -3.830366   1.717133   0.087094   7.505507   1.312246  -0.011149
    11  C   -1.831327 -10.213015   2.435748   1.312246  26.842793  -8.020139
    12  C   -1.750545  -2.168634  -4.050921  -0.011149  -8.020139  38.528949
    13  H    0.014529  -0.001689  -0.000286   0.000020   0.000255   0.003537
    14  H    0.001592  -0.001423  -0.000133  -0.000000   0.000128   0.001949
    15  H    0.014541  -0.001710  -0.000285   0.000020   0.000256   0.003557
    16  H    0.009324   0.306807  -0.059752  -0.015758   0.006431  -0.112343
    17  H   -0.008073   0.007633   0.337988   0.024108  -0.032089   0.012910
    18  H    0.043525  -0.051497   0.042041   0.343863   0.022203  -0.056987
    19  H    0.096458   0.026672  -0.042993  -0.037869   0.243415   0.061310
    20  Cl   0.057881   0.444113   0.052203  -0.022268  -0.290667  -0.111441
    21  Cl   0.165247   0.875738  -0.104633   0.137567  -1.542833   0.417790
    22  Cl   0.057385   0.448148   0.051179  -0.021770  -0.293649  -0.113447
              13         14         15         16         17         18
     1  C    0.076897  -0.007305   0.076906   0.074786   0.002166   0.005251
     2  C    0.033475   0.008848  -0.008790   0.056683   0.001735   0.001109
     3  C    0.302419  -0.035596  -0.029789   0.014543   0.000158   0.000101
     4  C   -0.033796   0.408975  -0.033887   0.004075   0.000053  -0.000001
     5  C   -0.029809  -0.035662   0.302388   0.014479   0.000162   0.000101
     6  C   -0.008777   0.008847   0.033555   0.056589   0.001763   0.001094
     7  C    0.014529   0.001592   0.014541   0.009324  -0.008073   0.043525
     8  C   -0.001689  -0.001423  -0.001710   0.306807   0.007633  -0.051497
     9  C   -0.000286  -0.000133  -0.000285  -0.059752   0.337988   0.042041
    10  C    0.000020  -0.000000   0.000020  -0.015758   0.024108   0.343863
    11  C    0.000255   0.000128   0.000256   0.006431  -0.032089   0.022203
    12  C    0.003537   0.001949   0.003557  -0.112343   0.012910  -0.056987
    13  H    0.511570  -0.007558  -0.000184   0.000004   0.000000  -0.000000
    14  H   -0.007558   0.524436  -0.007565  -0.000003  -0.000000  -0.000000
    15  H   -0.000184  -0.007565   0.511592   0.000004   0.000000  -0.000000
    16  H    0.000004  -0.000003   0.000004   0.540660  -0.007358  -0.000265
    17  H    0.000000  -0.000000   0.000000  -0.007358   0.534474  -0.007628
    18  H   -0.000000  -0.000000  -0.000000  -0.000265  -0.007628   0.531626
    19  H    0.000000  -0.000000   0.000000   0.000052  -0.000199  -0.007799
    20  Cl   0.000455   0.000215  -0.009544  -0.006197  -0.000395  -0.000231
    21  Cl  -0.000641  -0.000322  -0.000640  -0.003924   0.000983  -0.000598
    22  Cl  -0.009552   0.000215   0.000454  -0.006208  -0.000392  -0.000231
              19         20         21         22
     1  C    0.009247  -0.079014  -0.138396  -0.078109
     2  C    0.001046  -0.504620  -0.219285  -0.057592
     3  C   -0.000284   0.314769  -0.201497  -0.507587
     4  C    0.000121  -0.085495  -0.139892  -0.085632
     5  C   -0.000282  -0.507928  -0.199525   0.315275
     6  C    0.001082  -0.056012  -0.214863  -0.503168
     7  C    0.096458   0.057881   0.165247   0.057385
     8  C    0.026672   0.444113   0.875738   0.448148
     9  C   -0.042993   0.052203  -0.104633   0.051179
    10  C   -0.037869  -0.022268   0.137567  -0.021770
    11  C    0.243415  -0.290667  -1.542833  -0.293649
    12  C    0.061310  -0.111441   0.417790  -0.113447
    13  H    0.000000   0.000455  -0.000641  -0.009552
    14  H   -0.000000   0.000215  -0.000322   0.000215
    15  H    0.000000  -0.009544  -0.000640   0.000454
    16  H    0.000052  -0.006197  -0.003924  -0.006208
    17  H   -0.000199  -0.000395   0.000983  -0.000392
    18  H   -0.007799  -0.000231  -0.000598  -0.000231
    19  H    0.515628  -0.000691  -0.011676  -0.000690
    20  Cl  -0.000691  17.387671   0.080565  -0.062429
    21  Cl  -0.011676   0.080565  17.632735   0.081025
    22  Cl  -0.000690  -0.062429   0.081025  17.387887
 Mulliken charges:
               1
     1  C    0.202887
     2  C   -0.222586
     3  C   -0.028379
     4  C   -0.303584
     5  C   -0.028033
     6  C   -0.222702
     7  C    0.736663
     8  C   -0.782249
     9  C   -0.290627
    10  C   -0.067332
    11  C   -0.460313
    12  C   -0.698529
    13  H    0.149132
    14  H    0.140363
    15  H    0.149122
    16  H    0.127370
    17  H    0.132001
    18  H    0.134323
    19  H    0.147451
    20  Cl   0.399061
    21  Cl   0.387074
    22  Cl   0.398888
 Sum of Mulliken charges =  -0.00000
 Mulliken charges with hydrogens summed into heavy atoms:
               1
     1  C    0.202887
     2  C   -0.222586
     3  C    0.120753
     4  C   -0.163221
     5  C    0.121089
     6  C   -0.222702
     7  C    0.736663
     8  C   -0.654879
     9  C   -0.158626
    10  C    0.066990
    11  C   -0.312862
    12  C   -0.698529
    20  Cl   0.399061
    21  Cl   0.387074
    22  Cl   0.398888
 Electronic spatial extent (au):  <R**2>=           3726.2250
 Charge=             -0.0000 electrons
 Dipole moment (field-independent basis, Debye):
    X=              0.5921    Y=             -0.0019    Z=              1.3704  Tot=              1.4928
 Quadrupole moment (field-independent basis, Debye-Ang):
   XX=            -88.0363   YY=           -112.4124   ZZ=           -107.3326
   XY=             -0.0002   XZ=             -2.4985   YZ=             -0.0061
 Traceless Quadrupole moment (field-independent basis, Debye-Ang):
   XX=             14.5575   YY=             -9.8186   ZZ=             -4.7389
   XY=             -0.0002   XZ=             -2.4985   YZ=             -0.0061
 Octapole moment (field-independent basis, Debye-Ang**2):
  XXX=              6.7267  YYY=              0.0189  ZZZ=              2.5831  XYY=             10.9178
  XXY=             -0.0068  XXZ=             -1.2149  XZZ=            -13.1007  YZZ=             -0.0138
  YYZ=             -6.6209  XYZ=              0.0185
 Hexadecapole moment (field-independent basis, Debye-Ang**3):
 XXXX=          -2335.6135 YYYY=          -1471.7419 ZZZZ=           -827.4417 XXXY=             -0.0360
 XXXZ=            -12.2790 YYYX=             -0.0163 YYYZ=              0.0583 ZZZX=            -21.8716
 ZZZY=             -0.0859 XXYY=           -695.8391 XXZZ=           -595.8522 YYZZ=           -411.8208
 XXYZ=             -0.0271 YYXZ=              5.7472 ZZXY=              0.0402
 N-N= 1.269293230510D+03 E-N=-6.891164590479D+03  KE= 1.836982355087D+03
 1\1\GINC-CN040\FOpt\RB3LYP\6-311+G(d,p)\C12H7Cl3\20CY91R06\08-Apr-2022
 \0\\# opt b3lyp/6-311+g(d,p) scf=xqc\\Title Card Required\\0,1\C,-3.98
 07857513,-3.0689387853,0.1247216359\C,-2.6544541116,-3.0368200986,0.57
 98170065\C,-1.9124364369,-1.8612800699,0.6303589659\C,-2.4986288113,-0
 .6704350383,0.2159406794\C,-3.8108070978,-0.6550293807,-0.2440693148\C
 ,-4.5302184936,-1.8448973389,-0.2840988091\C,-4.758179746,-4.339961536
 7,0.0586218105\C,-4.7210866564,-5.121224955,-1.1017292832\C,-5.4352809
 707,-6.3110723025,-1.1932717611\C,-6.204816416,-6.7409163515,-0.114310
 1988\C,-6.2580281032,-5.9816471348,1.0505542635\C,-5.5378731807,-4.792
 9986511,1.1274570909\H,-0.8926789012,-1.8861590534,0.990948225\H,-1.92
 989226,0.2511862774,0.2521390547\H,-4.2779377962,0.2652973893,-0.56862
 82884\H,-4.1207028638,-4.7817577367,-1.9378792816\H,-5.3907107564,-6.8
 988755158,-2.1024283873\H,-6.7654825952,-7.6665530234,-0.1744413637\H,
 -6.8513288153,-6.3024279966,1.8971712647\Cl,-6.1859853676,-1.788896699
 ,-0.8672036181\Cl,-5.6254890383,-3.8565295281,2.6124080583\Cl,-1.88435
 37775,-4.522273862,1.1139695791\\Version=EM64L-G16RevB.01\State=1-A\HF
 =-1842.2809191\RMSD=9.389e-09\RMSF=1.996e-05\Dipole=0.279905,0.0706207
 ,-0.5114644\Quadrupole=-2.1148283,6.2469821,-4.1321538,7.857479,-0.417
 3838,1.634403\PG=C01 [X(C12H7Cl3)]\\@


 THE THINKER DIES, BUT HIS THOUGHTS ARE BEYOND THE 
 REACH OF DESTRUCTION.  MEN ARE MORTAL; BUT IDEAS 
 ARE IMMORTAL.
                              -- WALTER LIPPMANN
 Job cpu time:       0 days 20 hours  6 minutes  7.7 seconds.
 Elapsed time:       0 days  2 hours 31 minutes 10.8 seconds.
 File lengths (MBytes):  RWF=    105 Int=      0 D2E=      0 Chk=     17 Scr=      1
 Normal termination of Gaussian 16 at Fri Apr  8 13:36:40 2022.
