 Entering Gaussian System, Link 0=g16
 Input=2,2prime,3,4,5,6prime-Hexachlorobiphenyl1.gjf
 Output=2,2prime,3,4,5,6prime-Hexachlorobiphenyl1.log
 Initial command:
 /home/apps/g16/l1.exe "./Gau-187307.inp" -scrdir="./"
 Entering Link 1 = /home/apps/g16/l1.exe PID=    187308.
  
 Copyright (c) 1988-2017, Gaussian, Inc.  All Rights Reserved.
  
 This is part of the Gaussian(R) 16 program.  It is based on
 the Gaussian(R) 09 system (copyright 2009, Gaussian, Inc.),
 the Gaussian(R) 03 system (copyright 2003, Gaussian, Inc.),
 the Gaussian(R) 98 system (copyright 1998, Gaussian, Inc.),
 the Gaussian(R) 94 system (copyright 1995, Gaussian, Inc.),
 the Gaussian 92(TM) system (copyright 1992, Gaussian, Inc.),
 the Gaussian 90(TM) system (copyright 1990, Gaussian, Inc.),
 the Gaussian 88(TM) system (copyright 1988, Gaussian, Inc.),
 the Gaussian 86(TM) system (copyright 1986, Carnegie Mellon
 University), and the Gaussian 82(TM) system (copyright 1983,
 Carnegie Mellon University). Gaussian is a federally registered
 trademark of Gaussian, Inc.
  
 This software contains proprietary and confidential information,
 including trade secrets, belonging to Gaussian, Inc.
  
 This software is provided under written license and may be
 used, copied, transmitted, or stored only in accord with that
 written license.
  
 The following legend is applicable only to US Government
 contracts under FAR:
  
                    RESTRICTED RIGHTS LEGEND
  
 Use, reproduction and disclosure by the US Government is
 subject to restrictions as set forth in subparagraphs (a)
 and (c) of the Commercial Computer Software - Restricted
 Rights clause in FAR 52.227-19.
  
 Gaussian, Inc.
 340 Quinnipiac St., Bldg. 40, Wallingford CT 06492
  
  
 ---------------------------------------------------------------
 Warning -- This program may not be used in any manner that
 competes with the business of Gaussian, Inc. or will provide
 assistance to any competitor of Gaussian, Inc.  The licensee
 of this program is prohibited from giving any competitor of
 Gaussian, Inc. access to this program.  By using this program,
 the user acknowledges that Gaussian, Inc. is engaged in the
 business of creating and licensing software in the field of
 computational chemistry and represents and warrants to the
 licensee that it is not a competitor of Gaussian, Inc. and that
 it will not use this program in any manner prohibited above.
 ---------------------------------------------------------------
  

 Cite this work as:
 Gaussian 16, Revision B.01,
 M. J. Frisch, G. W. Trucks, H. B. Schlegel, G. E. Scuseria, 
 M. A. Robb, J. R. Cheeseman, G. Scalmani, V. Barone, 
 G. A. Petersson, H. Nakatsuji, X. Li, M. Caricato, A. V. Marenich, 
 J. Bloino, B. G. Janesko, R. Gomperts, B. Mennucci, H. P. Hratchian, 
 J. V. Ortiz, A. F. Izmaylov, J. L. Sonnenberg, D. Williams-Young, 
 F. Ding, F. Lipparini, F. Egidi, J. Goings, B. Peng, A. Petrone, 
 T. Henderson, D. Ranasinghe, V. G. Zakrzewski, J. Gao, N. Rega, 
 G. Zheng, W. Liang, M. Hada, M. Ehara, K. Toyota, R. Fukuda, 
 J. Hasegawa, M. Ishida, T. Nakajima, Y. Honda, O. Kitao, H. Nakai, 
 T. Vreven, K. Throssell, J. A. Montgomery, Jr., J. E. Peralta, 
 F. Ogliaro, M. J. Bearpark, J. J. Heyd, E. N. Brothers, K. N. Kudin, 
 V. N. Staroverov, T. A. Keith, R. Kobayashi, J. Normand, 
 K. Raghavachari, A. P. Rendell, J. C. Burant, S. S. Iyengar, 
 J. Tomasi, M. Cossi, J. M. Millam, M. Klene, C. Adamo, R. Cammi, 
 J. W. Ochterski, R. L. Martin, K. Morokuma, O. Farkas, 
 J. B. Foresman, and D. J. Fox, Gaussian, Inc., Wallingford CT, 2016.
 
 ******************************************
 Gaussian 16:  EM64L-G16RevB.01 20-Dec-2017
                13-Apr-2022 
 ******************************************
 %mem=48GB
 %nprocshared=16
 Will use up to   16 processors via shared memory.
 --------------------------------
 # opt b3lyp/6-311+g(d,p) scf=xqc
 --------------------------------
 1/18=20,19=15,26=3,38=1/1,3;
 2/9=110,12=2,17=6,18=5,40=1/2;
 3/5=4,6=6,7=111,11=2,25=1,30=1,71=1,74=-5/1,2,3;
 4//1;
 5/5=2,8=3,13=1,38=5/2,8;
 6/7=2,8=2,9=2,10=2,28=1/1;
 7//1,2,3,16;
 1/18=20,19=15,26=3/3(2);
 2/9=110/2;
 99//99;
 2/9=110/2;
 3/5=4,6=6,7=111,11=2,25=1,30=1,71=1,74=-5/1,2,3;
 4/5=5,16=3,69=1/1;
 5/5=2,8=3,13=1,38=5/2,8;
 7//1,2,3,16;
 1/18=20,19=15,26=3/3(-5);
 2/9=110/2;
 6/7=2,8=2,9=2,10=2,19=2,28=1/1;
 99/9=1/99;
 -------------------
 Title Card Required
 -------------------
 Symbolic Z-matrix:
 Charge =  0 Multiplicity = 1
 C                    -0.31495   2.10766   0.31733 
 C                     1.01743   2.13755  -0.11602 
 C                     1.72532   3.347    -0.12209 
 C                     1.10083   4.52656   0.30518 
 C                    -0.23155   4.49668   0.73853 
 C                    -0.93944   3.28723   0.7446 
 C                    -1.39498   0.26242   0.32659 
 C                    -0.77049  -0.91715  -0.10068 
 C                    -1.47838  -2.1266   -0.09461 
 C                    -2.81076  -2.15649   0.33874 
 C                    -3.43525  -0.97692   0.76602 
 C                    -2.72736   0.23253   0.75994 
 H                     2.74262   3.36982  -0.45296 
 H                     1.64133   5.45001   0.30055 
 H                    -0.70836   5.3973    1.06476 
 H                     0.24681  -0.89433  -0.43155 
 Cl                   -3.51164   1.71393   1.29656 
 Cl                   -2.61276   3.2497    1.28884 
 Cl                   -5.10857  -1.01446   1.31026 
 Cl                   -3.6998   -3.67542   0.34638 
 Cl                   -0.6941   -3.608    -0.63122 
 Cl                    1.80171   0.65615  -0.65262 
 

 GradGradGradGradGradGradGradGradGradGradGradGradGradGradGradGradGradGrad
 Berny optimization.
 Initialization pass.
                           ----------------------------
                           !    Initial Parameters    !
                           ! (Angstroms and Degrees)  !
 --------------------------                            --------------------------
 ! Name  Definition              Value          Derivative Info.                !
 --------------------------------------------------------------------------------
 ! R1    R(1,2)                  1.4014         estimate D2E/DX2                !
 ! R2    R(1,6)                  1.4014         estimate D2E/DX2                !
 ! R3    R(2,3)                  1.4014         estimate D2E/DX2                !
 ! R4    R(2,22)                 1.76           estimate D2E/DX2                !
 ! R5    R(3,4)                  1.4014         estimate D2E/DX2                !
 ! R6    R(3,13)                 1.07           estimate D2E/DX2                !
 ! R7    R(4,5)                  1.4014         estimate D2E/DX2                !
 ! R8    R(4,14)                 1.07           estimate D2E/DX2                !
 ! R9    R(5,6)                  1.4014         estimate D2E/DX2                !
 ! R10   R(5,15)                 1.07           estimate D2E/DX2                !
 ! R11   R(6,18)                 1.76           estimate D2E/DX2                !
 ! R12   R(7,8)                  1.4014         estimate D2E/DX2                !
 ! R13   R(7,12)                 1.4014         estimate D2E/DX2                !
 ! R14   R(8,9)                  1.4014         estimate D2E/DX2                !
 ! R15   R(8,16)                 1.07           estimate D2E/DX2                !
 ! R16   R(9,10)                 1.4014         estimate D2E/DX2                !
 ! R17   R(9,21)                 1.76           estimate D2E/DX2                !
 ! R18   R(10,11)                1.4014         estimate D2E/DX2                !
 ! R19   R(10,20)                1.76           estimate D2E/DX2                !
 ! R20   R(11,12)                1.4014         estimate D2E/DX2                !
 ! R21   R(11,19)                1.76           estimate D2E/DX2                !
 ! R22   R(12,17)                1.76           estimate D2E/DX2                !
 ! R23   R(17,18)                1.7795         estimate D2E/DX2                !
 ! A1    A(2,1,6)              120.0            estimate D2E/DX2                !
 ! A2    A(1,2,3)              120.0            estimate D2E/DX2                !
 ! A3    A(1,2,22)             120.0            estimate D2E/DX2                !
 ! A4    A(3,2,22)             120.0            estimate D2E/DX2                !
 ! A5    A(2,3,4)              120.0            estimate D2E/DX2                !
 ! A6    A(2,3,13)             120.0            estimate D2E/DX2                !
 ! A7    A(4,3,13)             120.0            estimate D2E/DX2                !
 ! A8    A(3,4,5)              120.0            estimate D2E/DX2                !
 ! A9    A(3,4,14)             120.0            estimate D2E/DX2                !
 ! A10   A(5,4,14)             120.0            estimate D2E/DX2                !
 ! A11   A(4,5,6)              120.0            estimate D2E/DX2                !
 ! A12   A(4,5,15)             120.0            estimate D2E/DX2                !
 ! A13   A(6,5,15)             120.0            estimate D2E/DX2                !
 ! A14   A(1,6,5)              120.0            estimate D2E/DX2                !
 ! A15   A(1,6,18)             120.0            estimate D2E/DX2                !
 ! A16   A(5,6,18)             120.0            estimate D2E/DX2                !
 ! A17   A(8,7,12)             120.0            estimate D2E/DX2                !
 ! A18   A(7,8,9)              120.0            estimate D2E/DX2                !
 ! A19   A(7,8,16)             120.0            estimate D2E/DX2                !
 ! A20   A(9,8,16)             120.0            estimate D2E/DX2                !
 ! A21   A(8,9,10)             120.0            estimate D2E/DX2                !
 ! A22   A(8,9,21)             120.0            estimate D2E/DX2                !
 ! A23   A(10,9,21)            120.0            estimate D2E/DX2                !
 ! A24   A(9,10,11)            120.0            estimate D2E/DX2                !
 ! A25   A(9,10,20)            120.0            estimate D2E/DX2                !
 ! A26   A(11,10,20)           120.0            estimate D2E/DX2                !
 ! A27   A(10,11,12)           120.0            estimate D2E/DX2                !
 ! A28   A(10,11,19)           120.0            estimate D2E/DX2                !
 ! A29   A(12,11,19)           120.0            estimate D2E/DX2                !
 ! A30   A(7,12,11)            120.0            estimate D2E/DX2                !
 ! A31   A(7,12,17)            120.0            estimate D2E/DX2                !
 ! A32   A(11,12,17)           120.0            estimate D2E/DX2                !
 ! A33   A(12,17,18)           120.0            estimate D2E/DX2                !
 ! A34   A(6,18,17)            120.0            estimate D2E/DX2                !
 ! D1    D(6,1,2,3)              0.0001         estimate D2E/DX2                !
 ! D2    D(6,1,2,22)           180.0            estimate D2E/DX2                !
 ! D3    D(2,1,6,5)             -0.0001         estimate D2E/DX2                !
 ! D4    D(2,1,6,18)           180.0            estimate D2E/DX2                !
 ! D5    D(1,2,3,4)              0.0            estimate D2E/DX2                !
 ! D6    D(1,2,3,13)           180.0            estimate D2E/DX2                !
 ! D7    D(22,2,3,4)          -179.9999         estimate D2E/DX2                !
 ! D8    D(22,2,3,13)            0.0001         estimate D2E/DX2                !
 ! D9    D(2,3,4,5)             -0.0001         estimate D2E/DX2                !
 ! D10   D(2,3,4,14)           180.0            estimate D2E/DX2                !
 ! D11   D(13,3,4,5)           179.9999         estimate D2E/DX2                !
 ! D12   D(13,3,4,14)            0.0            estimate D2E/DX2                !
 ! D13   D(3,4,5,6)              0.0001         estimate D2E/DX2                !
 ! D14   D(3,4,5,15)          -179.9999         estimate D2E/DX2                !
 ! D15   D(14,4,5,6)          -180.0            estimate D2E/DX2                !
 ! D16   D(14,4,5,15)            0.0            estimate D2E/DX2                !
 ! D17   D(4,5,6,1)              0.0            estimate D2E/DX2                !
 ! D18   D(4,5,6,18)           179.9999         estimate D2E/DX2                !
 ! D19   D(15,5,6,1)           180.0            estimate D2E/DX2                !
 ! D20   D(15,5,6,18)           -0.0001         estimate D2E/DX2                !
 ! D21   D(1,6,18,17)            0.0004         estimate D2E/DX2                !
 ! D22   D(5,6,18,17)         -179.9996         estimate D2E/DX2                !
 ! D23   D(12,7,8,9)             0.0001         estimate D2E/DX2                !
 ! D24   D(12,7,8,16)         -179.9998         estimate D2E/DX2                !
 ! D25   D(8,7,12,11)           -0.0001         estimate D2E/DX2                !
 ! D26   D(8,7,12,17)          179.9999         estimate D2E/DX2                !
 ! D27   D(7,8,9,10)             0.0            estimate D2E/DX2                !
 ! D28   D(7,8,9,21)           180.0            estimate D2E/DX2                !
 ! D29   D(16,8,9,10)          179.9998         estimate D2E/DX2                !
 ! D30   D(16,8,9,21)           -0.0002         estimate D2E/DX2                !
 ! D31   D(8,9,10,11)            0.0            estimate D2E/DX2                !
 ! D32   D(8,9,10,20)         -179.9999         estimate D2E/DX2                !
 ! D33   D(21,9,10,11)         180.0            estimate D2E/DX2                !
 ! D34   D(21,9,10,20)           0.0001         estimate D2E/DX2                !
 ! D35   D(9,10,11,12)           0.0            estimate D2E/DX2                !
 ! D36   D(9,10,11,19)        -179.9998         estimate D2E/DX2                !
 ! D37   D(20,10,11,12)        179.9999         estimate D2E/DX2                !
 ! D38   D(20,10,11,19)          0.0001         estimate D2E/DX2                !
 ! D39   D(10,11,12,7)           0.0            estimate D2E/DX2                !
 ! D40   D(10,11,12,17)       -179.9999         estimate D2E/DX2                !
 ! D41   D(19,11,12,7)         179.9999         estimate D2E/DX2                !
 ! D42   D(19,11,12,17)         -0.0001         estimate D2E/DX2                !
 ! D43   D(7,12,17,18)           0.0004         estimate D2E/DX2                !
 ! D44   D(11,12,17,18)       -179.9997         estimate D2E/DX2                !
 ! D45   D(12,17,18,6)          -0.0006         estimate D2E/DX2                !
 --------------------------------------------------------------------------------
 Trust Radius=3.00D-01 FncErr=1.00D-07 GrdErr=1.00D-06 EigMax=2.50D+02 EigMin=1.00D-04
 Number of steps in this run=    112 maximum allowed number of steps=    132.
 GradGradGradGradGradGradGradGradGradGradGradGradGradGradGradGradGradGrad

                          Input orientation:                          
 ---------------------------------------------------------------------
 Center     Atomic      Atomic             Coordinates (Angstroms)
 Number     Number       Type             X           Y           Z
 ---------------------------------------------------------------------
      1          6           0       -0.314953    2.107663    0.317329
      2          6           0        1.017428    2.137549   -0.116018
      3          6           0        1.725321    3.347000   -0.122090
      4          6           0        1.100834    4.526565    0.305185
      5          6           0       -0.231548    4.496679    0.738529
      6          6           0       -0.939441    3.287228    0.744602
      7          6           0       -1.394978    0.262417    0.326595
      8          6           0       -0.770491   -0.917148   -0.100680
      9          6           0       -1.478384   -2.126599   -0.094606
     10          6           0       -2.810764   -2.156486    0.338744
     11          6           0       -3.435251   -0.976921    0.766019
     12          6           0       -2.727358    0.232531    0.759945
     13          1           0        2.742624    3.369818   -0.452959
     14          1           0        1.641327    5.450007    0.300549
     15          1           0       -0.708358    5.397304    1.064761
     16          1           0        0.246812   -0.894329   -0.431550
     17         17           0       -3.511643    1.713930    1.296556
     18         17           0       -2.612762    3.249695    1.288835
     19         17           0       -5.108568   -1.014456    1.310262
     20         17           0       -3.699796   -3.675421    0.346375
     21         17           0       -0.694098   -3.608000   -0.631215
     22         17           0        1.801714    0.656148   -0.652623
 ---------------------------------------------------------------------
                    Distance matrix (angstroms):
                    1          2          3          4          5
     1  C    0.000000
     2  C    1.401400   0.000000
     3  C    2.427296   1.401400   0.000000
     4  C    2.802800   2.427296   1.401400   0.000000
     5  C    2.427296   2.802800   2.427296   1.401400   0.000000
     6  C    1.401400   2.427296   2.802800   2.427296   1.401400
     7  C    2.138100   3.087349   4.410469   4.940900   4.410469
     8  C    3.087349   3.539500   4.940900   5.770667   5.504930
     9  C    4.410469   4.940900   6.342300   7.146803   6.790916
    10  C    4.940900   5.770667   7.146803   7.743700   7.146803
    11  C    4.410469   5.504930   6.790916   7.146803   6.342300
    12  C    3.087349   4.291832   5.504930   5.770667   4.940900
    13  H    3.396345   2.146700   1.070000   2.146700   3.396345
    14  H    3.872800   3.396345   2.146700   1.070000   2.146700
    15  H    3.396345   3.872800   3.396345   2.146700   1.070000
    16  H    3.144576   3.144153   4.502292   5.536987   5.537228
    17  Cl   3.366413   4.763119   5.666151   5.492602   4.337523
    18  Cl   2.743718   4.048303   4.562800   4.048303   2.743718
    19  Cl   5.806228   7.035427   8.232617   8.382706   7.381383
    20  Cl   6.700900   7.500442   8.886268   9.503700   8.886268
    21  Cl   5.806228   6.017149   7.381383   8.382706   8.232617
    22  Cl   2.743718   1.760000   2.743718   4.048303   4.562800
                    6          7          8          9         10
     6  C    0.000000
     7  C    3.087350   0.000000
     8  C    4.291832   1.401400   0.000000
     9  C    5.504930   2.427296   1.401400   0.000000
    10  C    5.770667   2.802800   2.427296   1.401400   0.000000
    11  C    4.940900   2.427296   2.802800   2.427296   1.401400
    12  C    3.539500   1.401400   2.427296   2.802800   2.427296
    13  H    3.872800   5.232915   5.553752   6.939447   7.874449
    14  H    3.396345   6.010900   6.820448   8.203274   8.813700
    15  H    2.146700   5.232915   6.421403   7.651548   7.874449
    16  H    4.502883   2.146700   1.070000   2.146700   3.396345
    17  Cl   3.065312   2.743718   4.048303   4.562800   4.048303
    18  Cl   1.760000   3.366413   4.763119   5.666151   5.492602
    19  Cl   6.017149   4.048303   4.562800   4.048303   2.743718
    20  Cl   7.500442   4.562800   4.048303   2.743718   1.760000
    21  Cl   7.035427   4.048303   2.743718   1.760000   2.743718
    22  Cl   4.048303   3.366413   3.065312   4.337523   5.492602
                   11         12         13         14         15
    11  C    0.000000
    12  C    1.401400   0.000000
    13  H    7.651548   6.421403   0.000000
    14  H    8.203274   6.820448   2.471400   0.000000
    15  H    6.939447   5.553752   4.280590   2.471400   0.000000
    16  H    3.872800   3.396345   4.940900   6.536915   6.537274
    17  Cl   2.743718   1.760000   6.702136   6.442313   4.634584
    18  Cl   4.337523   3.065312   5.632800   4.890332   2.879094
    19  Cl   1.760000   2.743718   9.163625   9.400526   7.780281
    20  Cl   2.743718   4.048303   9.580141  10.573700   9.580141
    21  Cl   4.048303   4.562800   7.780281   9.400526   9.163625
    22  Cl   5.666151   4.763119   2.879094   4.890333   5.632800
                   16         17         18         19         20
    16  H    0.000000
    17  Cl   4.890332   0.000000
    18  Cl   5.320698   1.779500   0.000000
    19  Cl   5.632800   3.161400   4.940900   0.000000
    20  Cl   4.890332   5.475705   7.072984   3.161400   0.000000
    21  Cl   2.879094   6.322800   7.375354   5.475705   3.161400
    22  Cl   2.206938   5.757601   5.475705   7.375354   7.072984
                   21         22
    21  Cl   0.000000
    22  Cl   4.940900   0.000000
 Stoichiometry    C12H4Cl6
 Framework group  C1[X(C12H4Cl6)]
 Deg. of freedom    60
 Full point group                 C1      NOp   1
 Largest Abelian subgroup         C1      NOp   1
 Largest concise Abelian subgroup C1      NOp   1
                         Standard orientation:                         
 ---------------------------------------------------------------------
 Center     Atomic      Atomic             Coordinates (Angstroms)
 Number     Number       Type             X           Y           Z
 ---------------------------------------------------------------------
      1          6           0        2.228660    0.287929    0.000001
      2          6           0        2.908329    1.513478   -0.000001
      3          6           0        4.309520    1.537643   -0.000003
      4          6           0        5.031044    0.336258   -0.000003
      5          6           0        4.351375   -0.889292    0.000001
      6          6           0        2.950183   -0.913457    0.000003
      7          6           0        0.090878    0.251061    0.000003
      8          6           0       -0.630645    1.452446    0.000003
      9          6           0       -2.031837    1.428281    0.000003
     10          6           0       -2.711505    0.202731    0.000002
     11          6           0       -1.989982   -0.998654    0.000001
     12          6           0       -0.588790   -0.974489    0.000001
     13          1           0        4.828462    2.473378   -0.000005
     14          1           0        6.100885    0.354709   -0.000005
     15          1           0        4.902274   -1.806576    0.000003
     16          1           0       -0.111703    2.388180    0.000001
     17         17           0        0.317361   -2.483293   -0.000002
     18         17           0        2.096597   -2.452609    0.000006
     19         17           0       -2.843569   -2.537806   -0.000005
     20         17           0       -4.471243    0.172383   -0.000001
     21         17           0       -2.937988    2.937085    0.000004
     22         17           0        2.002177    3.022282   -0.000004
 ---------------------------------------------------------------------
 Rotational constants (GHZ):           0.3507943           0.1755516           0.1170001
 Standard basis: 6-311+G(d,p) (5D, 7F)
 There are   486 symmetry adapted cartesian basis functions of A   symmetry.
 There are   468 symmetry adapted basis functions of A   symmetry.
   468 basis functions,   782 primitive gaussians,   486 cartesian basis functions
    89 alpha electrons       89 beta electrons
       nuclear repulsion energy      2059.1175468888 Hartrees.
 NAtoms=   22 NActive=   22 NUniq=   22 SFac= 1.00D+00 NAtFMM=   60 NAOKFM=F Big=F
 Integral buffers will be    131072 words long.
 Raffenetti 2 integral format.
 Two-electron integral symmetry is turned on.
 One-electron integrals computed using PRISM.
 NBasis=   468 RedAO= T EigKep=  1.49D-06  NBF=   468
 NBsUse=   462 1.00D-06 EigRej=  8.98D-07 NBFU=   462
 ExpMin= 4.38D-02 ExpMax= 1.06D+05 ExpMxC= 3.62D+03 IAcc=3 IRadAn=         5 AccDes= 0.00D+00
 Harris functional with IExCor=  402 and IRadAn=       5 diagonalized for initial guess.
 HarFok:  IExCor=  402 AccDes= 0.00D+00 IRadAn=         5 IDoV= 1 UseB2=F ITyADJ=14
 ICtDFT=  3500011 ScaDFX=  1.000000  1.000000  1.000000  1.000000
 FoFCou: FMM=F IPFlag=           0 FMFlag=      100000 FMFlg1=           0
         NFxFlg=           0 DoJE=T BraDBF=F KetDBF=T FulRan=T
         wScrn=  0.000000 ICntrl=       500 IOpCl=  0 I1Cent=   200000004 NGrid=           0
         NMat0=    1 NMatS0=      1 NMatT0=    0 NMatD0=    1 NMtDS0=    0 NMtDT0=    0
 Petite list used in FoFCou.
 Requested convergence on RMS density matrix=1.00D-08 within  32 cycles.
 Requested convergence on MAX density matrix=1.00D-06.
 Requested convergence on             energy=1.00D-06.
 No special actions if energy rises.
 EnCoef did     2 forward-backward iterations
 EnCoef did     3 forward-backward iterations
 EnCoef did     5 forward-backward iterations
 Restarting incremental Fock formation.
 SCF Done:  E(RB3LYP) =  -3220.66299546     A.U. after   24 cycles
            NFock= 24  Conv=0.51D-08     -V/T= 2.0022
 QCSCF skips out because SCF is already converged.

 **********************************************************************

            Population analysis using the SCF Density.

 **********************************************************************

 Orbital symmetries:
       Occupied  (A) (A) (A) (A) (A) (A) (A) (A) (A) (A) (A) (A)
                 (A) (A) (A) (A) (A) (A) (A) (A) (A) (A) (A) (A)
                 (A) (A) (A) (A) (A) (A) (A) (A) (A) (A) (A) (A)
                 (A) (A) (A) (A) (A) (A) (A) (A) (A) (A) (A) (A)
                 (A) (A) (A) (A) (A) (A) (A) (A) (A) (A) (A) (A)
                 (A) (A) (A) (A) (A) (A) (A) (A) (A) (A) (A) (A)
                 (A) (A) (A) (A) (A) (A) (A) (A) (A) (A) (A) (A)
                 (A) (A) (A) (A) (A)
       Virtual   (A) (A) (A) (A) (A) (A) (A) (A) (A) (A) (A) (A)
                 (A) (A) (A) (A) (A) (A) (A) (A) (A) (A) (A) (A)
                 (A) (A) (A) (A) (A) (A) (A) (A) (A) (A) (A) (A)
                 (A) (A) (A) (A) (A) (A) (A) (A) (A) (A) (A) (A)
                 (A) (A) (A) (A) (A) (A) (A) (A) (A) (A) (A) (A)
                 (A) (A) (A) (A) (A) (A) (A) (A) (A) (A) (A) (A)
                 (A) (A) (A) (A) (A) (A) (A) (A) (A) (A) (A) (A)
                 (A) (A) (A) (A) (A) (A) (A) (A) (A) (A) (A) (A)
                 (A) (A) (A) (A) (A) (A) (A) (A) (A) (A) (A) (A)
                 (A) (A) (A) (A) (A) (A) (A) (A) (A) (A) (A) (A)
                 (A) (A) (A) (A) (A) (A) (A) (A) (A) (A) (A) (A)
                 (A) (A) (A) (A) (A) (A) (A) (A) (A) (A) (A) (A)
                 (A) (A) (A) (A) (A) (A) (A) (A) (A) (A) (A) (A)
                 (A) (A) (A) (A) (A) (A) (A) (A) (A) (A) (A) (A)
                 (A) (A) (A) (A) (A) (A) (A) (A) (A) (A) (A) (A)
                 (A) (A) (A) (A) (A) (A) (A) (A) (A) (A) (A) (A)
                 (A) (A) (A) (A) (A) (A) (A) (A) (A) (A) (A) (A)
                 (A) (A) (A) (A) (A) (A) (A) (A) (A) (A) (A) (A)
                 (A) (A) (A) (A) (A) (A) (A) (A) (A) (A) (A) (A)
                 (A) (A) (A) (A) (A) (A) (A) (A) (A) (A) (A) (A)
                 (A) (A) (A) (A) (A) (A) (A) (A) (A) (A) (A) (A)
                 (A) (A) (A) (A) (A) (A) (A) (A) (A) (A) (A) (A)
                 (A) (A) (A) (A) (A) (A) (A) (A) (A) (A) (A) (A)
                 (A) (A) (A) (A) (A) (A) (A) (A) (A) (A) (A) (A)
                 (A) (A) (A) (A) (A) (A) (A) (A) (A) (A) (A) (A)
                 (A) (A) (A) (A) (A) (A) (A) (A) (A) (A) (A) (A)
                 (A) (A) (A) (A) (A) (A) (A) (A) (A) (A) (A) (A)
                 (A) (A) (A) (A) (A) (A) (A) (A) (A) (A) (A) (A)
                 (A) (A) (A) (A) (A) (A) (A) (A) (A) (A) (A) (A)
                 (A) (A) (A) (A) (A) (A) (A) (A) (A) (A) (A) (A)
                 (A) (A) (A) (A) (A) (A) (A) (A) (A) (A) (A) (A)
                 (A)
 The electronic state is 1-A.
 Alpha  occ. eigenvalues -- -101.60064-101.59638-101.57497-101.56897-101.56701
 Alpha  occ. eigenvalues -- -101.56577 -10.27655 -10.27540 -10.27233 -10.27039
 Alpha  occ. eigenvalues --  -10.26845 -10.26462 -10.24543 -10.24418 -10.21962
 Alpha  occ. eigenvalues --  -10.21559 -10.21356 -10.21202  -9.52498  -9.52109
 Alpha  occ. eigenvalues --   -9.49011  -9.48322  -9.48175  -9.48018  -7.29008
 Alpha  occ. eigenvalues --   -7.28723  -7.27952  -7.27608  -7.27476  -7.27170
 Alpha  occ. eigenvalues --   -7.25472  -7.24816  -7.24663  -7.24518  -7.24484
 Alpha  occ. eigenvalues --   -7.24450  -7.23803  -7.23743  -7.23659  -7.23581
 Alpha  occ. eigenvalues --   -7.23506  -7.23420  -1.05080  -0.94217  -0.92130
 Alpha  occ. eigenvalues --   -0.89543  -0.88164  -0.86483  -0.84785  -0.83597
 Alpha  occ. eigenvalues --   -0.78275  -0.76623  -0.75347  -0.73795  -0.66306
 Alpha  occ. eigenvalues --   -0.63819  -0.63011  -0.61124  -0.57775  -0.53772
 Alpha  occ. eigenvalues --   -0.52887  -0.51146  -0.50763  -0.48514  -0.48057
 Alpha  occ. eigenvalues --   -0.47583  -0.46654  -0.45001  -0.44330  -0.44295
 Alpha  occ. eigenvalues --   -0.42867  -0.42469  -0.41343  -0.39868  -0.38402
 Alpha  occ. eigenvalues --   -0.37130  -0.35639  -0.35016  -0.34728  -0.33979
 Alpha  occ. eigenvalues --   -0.33328  -0.32930  -0.32298  -0.30963  -0.28858
 Alpha  occ. eigenvalues --   -0.27653  -0.26749  -0.25509  -0.14814
 Alpha virt. eigenvalues --   -0.07519  -0.07345  -0.06375  -0.05605  -0.04839
 Alpha virt. eigenvalues --   -0.03120  -0.02306  -0.00904   0.00140   0.00697
 Alpha virt. eigenvalues --    0.01416   0.01600   0.02488   0.02989   0.03682
 Alpha virt. eigenvalues --    0.03772   0.04109   0.05210   0.05638   0.05660
 Alpha virt. eigenvalues --    0.06201   0.06288   0.07412   0.07605   0.07767
 Alpha virt. eigenvalues --    0.08158   0.08314   0.08613   0.09238   0.09402
 Alpha virt. eigenvalues --    0.09630   0.10515   0.10661   0.10801   0.11455
 Alpha virt. eigenvalues --    0.11567   0.12431   0.12754   0.12851   0.13651
 Alpha virt. eigenvalues --    0.13702   0.14282   0.14407   0.14855   0.14878
 Alpha virt. eigenvalues --    0.15211   0.15972   0.16187   0.16357   0.16609
 Alpha virt. eigenvalues --    0.17554   0.17884   0.17906   0.18197   0.18748
 Alpha virt. eigenvalues --    0.18935   0.18970   0.19412   0.19905   0.20141
 Alpha virt. eigenvalues --    0.20891   0.21719   0.22443   0.22451   0.23267
 Alpha virt. eigenvalues --    0.23406   0.23474   0.24179   0.24783   0.24930
 Alpha virt. eigenvalues --    0.25205   0.25703   0.25988   0.26468   0.26865
 Alpha virt. eigenvalues --    0.27205   0.28179   0.28271   0.28350   0.28674
 Alpha virt. eigenvalues --    0.29351   0.29728   0.30910   0.31527   0.32115
 Alpha virt. eigenvalues --    0.32930   0.33505   0.34164   0.34404   0.36178
 Alpha virt. eigenvalues --    0.38480   0.39595   0.41786   0.42415   0.43046
 Alpha virt. eigenvalues --    0.43395   0.43479   0.43718   0.44073   0.44134
 Alpha virt. eigenvalues --    0.44811   0.45424   0.45951   0.46042   0.47025
 Alpha virt. eigenvalues --    0.48367   0.48504   0.49707   0.49772   0.50037
 Alpha virt. eigenvalues --    0.50416   0.50649   0.51501   0.52496   0.52659
 Alpha virt. eigenvalues --    0.53785   0.54494   0.55941   0.56424   0.56729
 Alpha virt. eigenvalues --    0.57780   0.58055   0.58486   0.58968   0.59040
 Alpha virt. eigenvalues --    0.60595   0.60663   0.61106   0.62753   0.62797
 Alpha virt. eigenvalues --    0.63558   0.64207   0.64924   0.65055   0.66186
 Alpha virt. eigenvalues --    0.66814   0.68121   0.69358   0.70191   0.70202
 Alpha virt. eigenvalues --    0.73844   0.75373   0.76977   0.78184   0.79274
 Alpha virt. eigenvalues --    0.79884   0.80608   0.81566   0.82089   0.82360
 Alpha virt. eigenvalues --    0.83023   0.83943   0.84031   0.84298   0.84966
 Alpha virt. eigenvalues --    0.85061   0.85417   0.85493   0.86212   0.86353
 Alpha virt. eigenvalues --    0.86436   0.87681   0.88073   0.88815   0.88995
 Alpha virt. eigenvalues --    0.89611   0.90223   0.91860   0.92241   0.93234
 Alpha virt. eigenvalues --    0.93943   0.94954   0.95237   0.95684   0.96281
 Alpha virt. eigenvalues --    0.96495   0.96500   0.96745   0.97799   0.98126
 Alpha virt. eigenvalues --    0.98442   1.00370   1.00864   1.01228   1.02370
 Alpha virt. eigenvalues --    1.03361   1.03803   1.06793   1.07832   1.08368
 Alpha virt. eigenvalues --    1.09127   1.12285   1.15957   1.18115   1.20175
 Alpha virt. eigenvalues --    1.20184   1.21855   1.22533   1.22641   1.24044
 Alpha virt. eigenvalues --    1.24390   1.25210   1.25865   1.27587   1.28247
 Alpha virt. eigenvalues --    1.28826   1.29216   1.29820   1.30368   1.33064
 Alpha virt. eigenvalues --    1.34172   1.42474   1.44820   1.48032   1.49172
 Alpha virt. eigenvalues --    1.49718   1.50210   1.51351   1.53403   1.53983
 Alpha virt. eigenvalues --    1.57997   1.59631   1.59716   1.60898   1.64610
 Alpha virt. eigenvalues --    1.64790   1.67699   1.70942   1.71184   1.72870
 Alpha virt. eigenvalues --    1.76255   1.76537   1.79381   1.81248   1.83065
 Alpha virt. eigenvalues --    1.84485   1.85491   1.86576   1.86658   1.87046
 Alpha virt. eigenvalues --    1.87454   1.88231   1.88483   1.89718   1.94854
 Alpha virt. eigenvalues --    1.95209   1.98396   2.00218   2.01651   2.04059
 Alpha virt. eigenvalues --    2.05881   2.10262   2.16309   2.16765   2.19169
 Alpha virt. eigenvalues --    2.20116   2.23348   2.23620   2.24589   2.25667
 Alpha virt. eigenvalues --    2.26793   2.26819   2.27462   2.29036   2.29657
 Alpha virt. eigenvalues --    2.30639   2.32801   2.32843   2.36450   2.37817
 Alpha virt. eigenvalues --    2.40520   2.41638   2.42412   2.43352   2.44770
 Alpha virt. eigenvalues --    2.46118   2.51001   2.52572   2.55144   2.56282
 Alpha virt. eigenvalues --    2.56971   2.59335   2.59753   2.61431   2.61586
 Alpha virt. eigenvalues --    2.63510   2.65161   2.67450   2.69194   2.71483
 Alpha virt. eigenvalues --    2.72528   2.73546   2.74151   2.75107   2.75467
 Alpha virt. eigenvalues --    2.76771   2.77074   2.78315   2.79639   2.84054
 Alpha virt. eigenvalues --    2.86083   2.86260   2.87963   2.95124   3.04253
 Alpha virt. eigenvalues --    3.06794   3.08913   3.09655   3.13716   3.15470
 Alpha virt. eigenvalues --    3.17799   3.19551   3.21204   3.27118   3.28316
 Alpha virt. eigenvalues --    3.34364   3.34544   3.39495   3.49231   3.52160
 Alpha virt. eigenvalues --    3.66138   3.67943   3.71760   3.74970   3.88970
 Alpha virt. eigenvalues --    3.99180   4.04509   4.06892   4.09657   4.79466
 Alpha virt. eigenvalues --    4.81066   9.71478   9.77521   9.79704   9.81515
 Alpha virt. eigenvalues --    9.83163   9.92688  23.30075  23.39976  23.79229
 Alpha virt. eigenvalues --   23.83170  23.84347  23.88259  23.94013  23.96170
 Alpha virt. eigenvalues --   23.97804  24.00935  24.06385  24.10861  25.74856
 Alpha virt. eigenvalues --   25.77573  25.81609  25.83370  25.88576  25.99415
 Alpha virt. eigenvalues --   26.10056  26.11274  26.16782  26.24408  26.32673
 Alpha virt. eigenvalues --   26.47484  26.54001  26.67037  26.69331  26.89525
 Alpha virt. eigenvalues --   26.99189  27.15755 215.70932 215.77770 215.79942
 Alpha virt. eigenvalues --  215.82103 215.83600 215.97755
          Condensed to atoms (all electrons):
               1          2          3          4          5          6
     1  C   28.700275   1.554532  -8.479784   2.506355  -5.226407  -6.130188
     2  C    1.554532  14.389059  -4.395800  -1.473944   0.689461  -2.517760
     3  C   -8.479784  -4.395800  15.171819  -0.296775   0.881162   4.252584
     4  C    2.506355  -1.473944  -0.296775  10.751260  -0.572461  -3.317769
     5  C   -5.226407   0.689461   0.881162  -0.572461  11.935894  -1.070402
     6  C   -6.130188  -2.517760   4.252584  -3.317769  -1.070402  20.149060
     7  C    5.324025  -1.460362  -2.845121   0.741959  -1.846426  -1.727528
     8  C    1.202293   0.205511  -0.656859   0.179481  -0.079891  -1.863193
     9  C   -1.172492   0.297597   0.317761   0.097444  -0.258794  -1.220147
    10  C    1.192539   0.671627   0.268384  -0.049696   0.101960  -0.168584
    11  C   -3.441435   0.085412  -0.024285   0.021372   0.099492   1.264470
    12  C   -5.179298  -0.283858   0.635899  -0.396856   0.088428  -1.262183
    13  H    0.067646   0.012038   0.377138  -0.090406  -0.049779   0.030080
    14  H   -0.049640   0.013650  -0.006181   0.366989  -0.030186   0.042470
    15  H   -0.019033  -0.013603  -0.021191  -0.088227   0.426617  -0.026909
    16  H   -0.020671  -0.002845   0.022973   0.007533  -0.002441  -0.000558
    17  Cl   1.419998   0.662256  -0.960123   1.200270  -1.261915   7.137831
    18  Cl  -5.357652  -1.236545   1.909746  -3.148589   2.111158  -6.961092
    19  Cl  -0.060995  -0.042950  -0.004266  -0.003345  -0.011058  -0.042743
    20  Cl  -0.045545   0.000882  -0.001359   0.000256  -0.001590   0.000871
    21  Cl  -0.120166   0.003761  -0.004587   0.002194  -0.007079  -0.053738
    22  Cl  -0.159022  -0.880628   0.040518  -0.098373   0.192757   0.243056
               7          8          9         10         11         12
     1  C    5.324025   1.202293  -1.172492   1.192539  -3.441435  -5.179298
     2  C   -1.460362   0.205511   0.297597   0.671627   0.085412  -0.283858
     3  C   -2.845121  -0.656859   0.317761   0.268384  -0.024285   0.635899
     4  C    0.741959   0.179481   0.097444  -0.049696   0.021372  -0.396856
     5  C   -1.846426  -0.079891  -0.258794   0.101960   0.099492   0.088428
     6  C   -1.727528  -1.863193  -1.220147  -0.168584   1.264470  -1.262183
     7  C   26.835027  -4.210270  -6.612394   8.927765  -5.503002  -4.744015
     8  C   -4.210270  12.388935   1.769990  -6.934320   3.018111   1.201957
     9  C   -6.612394   1.769990  17.391458  -4.197502  -2.631197   2.010356
    10  C    8.927765  -6.934320  -4.197502  26.987554  -8.676882  -8.068086
    11  C   -5.503002   3.018111  -2.631197  -8.676882  18.108229   2.001255
    12  C   -4.744015   1.201957   2.010356  -8.068086   2.001255  23.707906
    13  H    0.004481   0.000642  -0.000233   0.000003  -0.000016  -0.000566
    14  H   -0.002273  -0.000760  -0.000057   0.000018   0.000056   0.001521
    15  H    0.005342  -0.001658  -0.000050   0.000051   0.000521   0.012364
    16  H    0.016160   0.316807  -0.122823   0.018133   0.010984   0.061722
    17  Cl  -6.726443   1.260203   0.709529  -4.064476   4.200593 -13.368246
    18  Cl   1.165403  -0.671500  -0.145488   1.439498  -1.424030   9.525639
    19  Cl  -0.377412   0.316373  -0.177041  -0.417203  -0.507449   0.933293
    20  Cl   0.029183  -0.378106  -0.037420  -0.277151   0.120363  -0.252163
    21  Cl  -1.124772   0.523000   0.237350  -0.460451  -0.114031   0.350759
    22  Cl   0.667547  -0.469802  -0.620180  -0.085856   0.154443   0.031128
              13         14         15         16         17         18
     1  C    0.067646  -0.049640  -0.019033  -0.020671   1.419998  -5.357652
     2  C    0.012038   0.013650  -0.013603  -0.002845   0.662256  -1.236545
     3  C    0.377138  -0.006181  -0.021191   0.022973  -0.960123   1.909746
     4  C   -0.090406   0.366989  -0.088227   0.007533   1.200270  -3.148589
     5  C   -0.049779  -0.030186   0.426617  -0.002441  -1.261915   2.111158
     6  C    0.030080   0.042470  -0.026909  -0.000558   7.137831  -6.961092
     7  C    0.004481  -0.002273   0.005342   0.016160  -6.726443   1.165403
     8  C    0.000642  -0.000760  -0.001658   0.316807   1.260203  -0.671500
     9  C   -0.000233  -0.000057  -0.000050  -0.122823   0.709529  -0.145488
    10  C    0.000003   0.000018   0.000051   0.018133  -4.064476   1.439498
    11  C   -0.000016   0.000056   0.000521   0.010984   4.200593  -1.424030
    12  C   -0.000566   0.001521   0.012364   0.061722 -13.368246   9.525639
    13  H    0.509736  -0.006500  -0.000121   0.000006  -0.001601   0.007442
    14  H   -0.006500   0.519188  -0.006289  -0.000002  -0.001828   0.013328
    15  H   -0.000121  -0.006289   0.515031  -0.000000  -0.027459   0.091628
    16  H    0.000006  -0.000002  -0.000000   0.547957   0.030703  -0.016615
    17  Cl  -0.001601  -0.001828  -0.027459   0.030703  55.617080 -29.331184
    18  Cl   0.007442   0.013328   0.091628  -0.016615 -29.331184  47.849989
    19  Cl   0.000000   0.000001   0.000018   0.000732  -0.893288  -0.007838
    20  Cl  -0.000000  -0.000000  -0.000001   0.001942   0.182910  -0.037906
    21  Cl  -0.000001  -0.000000   0.000000  -0.016307   0.004852   0.002948
    22  Cl  -0.011940   0.002635   0.000629  -0.013843  -0.022706   0.012038
              19         20         21         22
     1  C   -0.060995  -0.045545  -0.120166  -0.159022
     2  C   -0.042950   0.000882   0.003761  -0.880628
     3  C   -0.004266  -0.001359  -0.004587   0.040518
     4  C   -0.003345   0.000256   0.002194  -0.098373
     5  C   -0.011058  -0.001590  -0.007079   0.192757
     6  C   -0.042743   0.000871  -0.053738   0.243056
     7  C   -0.377412   0.029183  -1.124772   0.667547
     8  C    0.316373  -0.378106   0.523000  -0.469802
     9  C   -0.177041  -0.037420   0.237350  -0.620180
    10  C   -0.417203  -0.277151  -0.460451  -0.085856
    11  C   -0.507449   0.120363  -0.114031   0.154443
    12  C    0.933293  -0.252163   0.350759   0.031128
    13  H    0.000000  -0.000000  -0.000001  -0.011940
    14  H    0.000001  -0.000000  -0.000000   0.002635
    15  H    0.000018  -0.000001   0.000000   0.000629
    16  H    0.000732   0.001942  -0.016307  -0.013843
    17  Cl  -0.893288   0.182910   0.004852  -0.022706
    18  Cl  -0.007838  -0.037906   0.002948   0.012038
    19  Cl  17.983810  -0.339428   0.011593   0.002541
    20  Cl  -0.339428  17.621964  -0.233858  -0.002280
    21  Cl   0.011593  -0.233858  17.496449  -0.030287
    22  Cl   0.002541  -0.002280  -0.030287  17.480350
 Mulliken charges:
               1
     1  C   -0.505336
     2  C   -0.277490
     3  C   -0.181653
     4  C   -0.338673
     5  C   -0.108500
     6  C   -0.757625
     7  C   -0.536873
     8  C   -1.116943
     9  C    0.364333
    10  C   -0.207323
    11  C   -0.762974
    12  C   -1.006953
    13  H    0.151951
    14  H    0.143858
    15  H    0.152340
    16  H    0.160453
    17  Cl   1.233045
    18  Cl   1.209624
    19  Cl   0.636655
    20  Cl   0.648437
    21  Cl   0.532372
    22  Cl   0.567275
 Sum of Mulliken charges =  -0.00000
 Mulliken charges with hydrogens summed into heavy atoms:
               1
     1  C   -0.505336
     2  C   -0.277490
     3  C   -0.029702
     4  C   -0.194814
     5  C    0.043840
     6  C   -0.757625
     7  C   -0.536873
     8  C   -0.956490
     9  C    0.364333
    10  C   -0.207323
    11  C   -0.762974
    12  C   -1.006953
    17  Cl   1.233045
    18  Cl   1.209624
    19  Cl   0.636655
    20  Cl   0.648437
    21  Cl   0.532372
    22  Cl   0.567275
 Electronic spatial extent (au):  <R**2>=           8066.8920
 Charge=             -0.0000 electrons
 Dipole moment (field-independent basis, Debye):
    X=              4.8889    Y=             -0.6683    Z=             -0.0000  Tot=              4.9343
 Quadrupole moment (field-independent basis, Debye-Ang):
   XX=           -134.4888   YY=           -143.3576   ZZ=           -147.7068
   XY=             -0.1390   XZ=             -0.0000   YZ=             -0.0000
 Traceless Quadrupole moment (field-independent basis, Debye-Ang):
   XX=              7.3622   YY=             -1.5066   ZZ=             -5.8557
   XY=             -0.1390   XZ=             -0.0000   YZ=             -0.0000
 Octapole moment (field-independent basis, Debye-Ang**2):
  XXX=            107.3098  YYY=            -15.6734  ZZZ=             -0.0000  XYY=              2.6070
  XXY=              6.1817  XXZ=             -0.0002  XZZ=            -16.9846  YZZ=             -6.4628
  YYZ=             -0.0001  XYZ=              0.0000
 Hexadecapole moment (field-independent basis, Debye-Ang**3):
 XXXX=          -6511.4630 YYYY=          -3323.4958 ZZZZ=           -172.9407 XXXY=             58.2045
 XXXZ=             -0.0006 YYYX=            -17.2795 YYYZ=              0.0000 ZZZX=              0.0001
 ZZZY=             -0.0000 XXYY=          -1732.5455 XXZZ=          -1288.6885 YYZZ=           -607.8752
 XXYZ=              0.0000 YYXZ=             -0.0002 ZZXY=             -8.6430
 N-N= 2.059117546889D+03 E-N=-1.174724249895D+04  KE= 3.213637899217D+03
 Calling FoFJK, ICntrl=      2127 FMM=F ISym2X=0 I1Cent= 0 IOpClX= 0 NMat=1 NMatS=1 NMatT=0.
 ***** Axes restored to original set *****
 -------------------------------------------------------------------
 Center     Atomic                   Forces (Hartrees/Bohr)
 Number     Number              X              Y              Z
 -------------------------------------------------------------------
      1        6          -0.024175247   -0.029822763    0.002363775
      2        6          -0.016123598    0.007699593    0.006758123
      3        6          -0.010408003    0.001443517    0.003700176
      4        6          -0.009240272   -0.021102390   -0.000919206
      5        6           0.005276422   -0.005321144   -0.002737541
      6        6           0.040634019   -0.001374285   -0.013645120
      7        6           0.001685593    0.023072947    0.003777943
      8        6          -0.013861346    0.004060437    0.005329420
      9        6          -0.002310794    0.005294287    0.001755588
     10        6          -0.005386669   -0.007741713    0.000320742
     11        6           0.006387440    0.004856700   -0.001192204
     12        6           0.010259702   -0.053337526   -0.013397405
     13        1           0.008831674   -0.001041398   -0.003105190
     14        1           0.004646742    0.008141818   -0.000001792
     15        1          -0.002902867    0.006961110    0.002263749
     16        1          -0.000466896   -0.004348174   -0.000662944
     17       17          -0.211576895   -0.357215665    0.002619733
     18       17           0.200437646    0.400153461    0.009114106
     19       17           0.001246358   -0.003942141   -0.001151063
     20       17           0.002886179    0.003497816   -0.000293987
     21       17           0.000512101    0.007347252    0.001211160
     22       17           0.013648711    0.012718262   -0.002108062
 -------------------------------------------------------------------
 Cartesian Forces:  Max     0.400153461 RMS     0.076075275

 GradGradGradGradGradGradGradGradGradGradGradGradGradGradGradGradGradGrad
 Berny optimization.
 FormGI is forming the generalized inverse of G from B-inverse, IUseBI=4.
 Internal  Forces:  Max     0.433005411 RMS     0.044965999
 Search for a local minimum.
 Step number   1 out of a maximum of  112
 All quantities printed in internal units (Hartrees-Bohrs-Radians)
 Mixed Optimization -- RFO/linear search
 Second derivative matrix not updated -- first step.
 ITU=  0
     Eigenvalues ---    0.00238   0.00238   0.01655   0.01655   0.02070
     Eigenvalues ---    0.02070   0.02070   0.02070   0.02070   0.02070
     Eigenvalues ---    0.02070   0.02070   0.02070   0.02070   0.02070
     Eigenvalues ---    0.02070   0.02070   0.02070   0.02891   0.16000
     Eigenvalues ---    0.16000   0.16000   0.16000   0.22068   0.23353
     Eigenvalues ---    0.23478   0.24896   0.25000   0.25000   0.25000
     Eigenvalues ---    0.25000   0.25000   0.25000   0.25000   0.25000
     Eigenvalues ---    0.25000   0.25000   0.29539   0.29539   0.29539
     Eigenvalues ---    0.29539   0.29539   0.29539   0.37230   0.37230
     Eigenvalues ---    0.37230   0.37230   0.41554   0.41671   0.41956
     Eigenvalues ---    0.42184   0.45389   0.45389   0.45389   0.45389
     Eigenvalues ---    0.45389   0.45389   0.45389   0.45389   0.79887
 RFO step:  Lambda=-2.22349814D-01 EMin= 2.37799153D-03
 Linear search not attempted -- first point.
 Maximum step size (   0.300) exceeded in Quadratic search.
    -- Step size scaled by   0.588
 Iteration  1 RMS(Cart)=  0.23604557 RMS(Int)=  0.00823350
 Iteration  2 RMS(Cart)=  0.01289831 RMS(Int)=  0.00003145
 Iteration  3 RMS(Cart)=  0.00006290 RMS(Int)=  0.00002538
 Iteration  4 RMS(Cart)=  0.00000000 RMS(Int)=  0.00002538
 Variable       Old X    -DE/DX   Delta X   Delta X   Delta X     New X
                                 (Linear)    (Quad)   (Total)
    R1        2.64826   0.00691   0.00000   0.00648   0.00653   2.65479
    R2        2.64826   0.00970   0.00000   0.00900   0.00905   2.65731
    R3        2.64826  -0.00553   0.00000  -0.00490  -0.00490   2.64336
    R4        3.32592  -0.00398   0.00000  -0.00452  -0.00452   3.32140
    R5        2.64826  -0.01702   0.00000  -0.01536  -0.01541   2.63285
    R6        2.02201   0.00933   0.00000   0.00923   0.00923   2.03124
    R7        2.64826  -0.01630   0.00000  -0.01464  -0.01469   2.63357
    R8        2.02201   0.00937   0.00000   0.00927   0.00927   2.03127
    R9        2.64826  -0.00581   0.00000  -0.00495  -0.00495   2.64331
   R10        2.02201   0.00784   0.00000   0.00775   0.00775   2.02976
   R11        3.32592   0.01152   0.00000   0.01308   0.01308   3.33900
   R12        2.64826  -0.01212   0.00000  -0.01076  -0.01076   2.63750
   R13        2.64826  -0.01181   0.00000  -0.01038  -0.01037   2.63789
   R14        2.64826  -0.00690   0.00000  -0.00611  -0.00612   2.64215
   R15        2.02201  -0.00033   0.00000  -0.00033  -0.00033   2.02168
   R16        2.64826  -0.00470   0.00000  -0.00397  -0.00398   2.64428
   R17        3.32592  -0.00633   0.00000  -0.00718  -0.00718   3.31874
   R18        2.64826  -0.00534   0.00000  -0.00442  -0.00442   2.64385
   R19        3.32592  -0.00448   0.00000  -0.00508  -0.00508   3.32083
   R20        2.64826  -0.00282   0.00000  -0.00234  -0.00233   2.64593
   R21        3.32592  -0.00146   0.00000  -0.00165  -0.00165   3.32426
   R22        3.32592   0.01962   0.00000   0.02227   0.02227   3.34819
   R23        3.36277   0.43301   0.00000   0.24928   0.24928   3.61205
    A1        2.09440  -0.03395   0.00000  -0.04013  -0.03998   2.05441
    A2        2.09440   0.01272   0.00000   0.01629   0.01634   2.11073
    A3        2.09440   0.02415   0.00000   0.02983   0.02981   2.12420
    A4        2.09440  -0.03687   0.00000  -0.04612  -0.04614   2.04825
    A5        2.09440   0.00564   0.00000   0.00638   0.00632   2.10072
    A6        2.09440  -0.00409   0.00000  -0.00515  -0.00512   2.08928
    A7        2.09440  -0.00155   0.00000  -0.00123  -0.00120   2.09319
    A8        2.09440  -0.00213   0.00000  -0.00453  -0.00464   2.08975
    A9        2.09440   0.00118   0.00000   0.00244   0.00249   2.09689
   A10        2.09440   0.00095   0.00000   0.00209   0.00215   2.09654
   A11        2.09440  -0.00308   0.00000  -0.00477  -0.00483   2.08956
   A12        2.09440   0.00083   0.00000   0.00129   0.00132   2.09572
   A13        2.09440   0.00225   0.00000   0.00348   0.00351   2.09791
   A14        2.09440   0.02080   0.00000   0.02676   0.02680   2.12120
   A15        2.09440  -0.01341   0.00000  -0.01713  -0.01715   2.07724
   A16        2.09440  -0.00739   0.00000  -0.00963  -0.00965   2.08475
   A17        2.09440  -0.01554   0.00000  -0.02013  -0.02012   2.07428
   A18        2.09440   0.00621   0.00000   0.00769   0.00768   2.10208
   A19        2.09440   0.00135   0.00000   0.00301   0.00301   2.09741
   A20        2.09440  -0.00757   0.00000  -0.01070  -0.01070   2.08370
   A21        2.09440   0.00705   0.00000   0.00874   0.00873   2.10312
   A22        2.09440  -0.01012   0.00000  -0.01257  -0.01257   2.08183
   A23        2.09440   0.00306   0.00000   0.00383   0.00384   2.09824
   A24        2.09440  -0.00929   0.00000  -0.01111  -0.01112   2.08328
   A25        2.09440   0.00335   0.00000   0.00395   0.00395   2.09835
   A26        2.09440   0.00593   0.00000   0.00716   0.00716   2.10156
   A27        2.09440  -0.00544   0.00000  -0.00632  -0.00631   2.08808
   A28        2.09440  -0.00399   0.00000  -0.00520  -0.00520   2.08919
   A29        2.09440   0.00943   0.00000   0.01152   0.01151   2.10591
   A30        2.09440   0.01700   0.00000   0.02112   0.02114   2.11553
   A31        2.09440  -0.04710   0.00000  -0.05860  -0.05861   2.03578
   A32        2.09440   0.03010   0.00000   0.03748   0.03748   2.13187
   A33        2.09440  -0.04639   0.00000  -0.05773  -0.05773   2.03666
   A34        2.09440  -0.08017   0.00000  -0.09979  -0.09979   1.99460
    D1        0.00000  -0.00000   0.00000  -0.00000  -0.00000   0.00000
    D2        3.14159  -0.00000   0.00000   0.00000   0.00000   3.14159
    D3       -0.00000  -0.00000   0.00000  -0.00000  -0.00000  -0.00000
    D4        3.14159   0.00000   0.00000   0.00000   0.00000   3.14159
    D5        0.00000  -0.00000   0.00000   0.00000   0.00000   0.00000
    D6        3.14159   0.00000   0.00000   0.00000   0.00000   3.14159
    D7       -3.14159  -0.00000   0.00000  -0.00000  -0.00000  -3.14159
    D8        0.00000  -0.00000   0.00000  -0.00000  -0.00000   0.00000
    D9       -0.00000   0.00000   0.00000   0.00000   0.00000  -0.00000
   D10        3.14159  -0.00000   0.00000  -0.00000  -0.00000   3.14159
   D11        3.14159   0.00000   0.00000   0.00000   0.00000   3.14159
   D12        0.00000  -0.00000   0.00000  -0.00000  -0.00000   0.00000
   D13        0.00000  -0.00000   0.00000  -0.00000  -0.00000   0.00000
   D14       -3.14159  -0.00000   0.00000  -0.00000  -0.00000  -3.14159
   D15       -3.14159  -0.00000   0.00000  -0.00000  -0.00000  -3.14159
   D16        0.00000  -0.00000   0.00000  -0.00000  -0.00000   0.00000
   D17       -0.00000   0.00000   0.00000   0.00000   0.00000  -0.00000
   D18        3.14159  -0.00000   0.00000  -0.00000  -0.00000   3.14159
   D19        3.14159   0.00000   0.00000   0.00000   0.00000   3.14159
   D20       -0.00000  -0.00000   0.00000  -0.00000  -0.00000  -0.00000
   D21        0.00001  -0.00000   0.00000  -0.00000  -0.00000   0.00001
   D22       -3.14159  -0.00000   0.00000  -0.00000  -0.00000  -3.14159
   D23        0.00000   0.00000   0.00000   0.00000   0.00000   0.00000
   D24       -3.14159  -0.00000   0.00000  -0.00000  -0.00000  -3.14159
   D25       -0.00000  -0.00000   0.00000  -0.00000  -0.00000  -0.00000
   D26        3.14159   0.00000   0.00000   0.00000   0.00000   3.14159
   D27       -0.00000  -0.00000   0.00000  -0.00000  -0.00000  -0.00000
   D28        3.14159  -0.00000   0.00000  -0.00000  -0.00000   3.14159
   D29        3.14159   0.00000   0.00000   0.00000   0.00000   3.14159
   D30       -0.00000   0.00000   0.00000   0.00000   0.00000  -0.00000
   D31       -0.00000   0.00000   0.00000   0.00000   0.00000  -0.00000
   D32       -3.14159  -0.00000   0.00000  -0.00000  -0.00000  -3.14159
   D33        3.14159   0.00000   0.00000   0.00000   0.00000   3.14159
   D34        0.00000  -0.00000   0.00000  -0.00000  -0.00000   0.00000
   D35        0.00000  -0.00000   0.00000  -0.00000  -0.00000   0.00000
   D36       -3.14159  -0.00000   0.00000  -0.00000  -0.00000  -3.14159
   D37        3.14159   0.00000   0.00000   0.00000   0.00000   3.14159
   D38        0.00000  -0.00000   0.00000  -0.00000  -0.00000   0.00000
   D39        0.00000   0.00000   0.00000   0.00000   0.00000   0.00000
   D40       -3.14159  -0.00000   0.00000  -0.00000  -0.00000  -3.14159
   D41        3.14159   0.00000   0.00000   0.00000   0.00000   3.14159
   D42       -0.00000  -0.00000   0.00000  -0.00000  -0.00000  -0.00000
   D43        0.00001  -0.00000   0.00000  -0.00000  -0.00000   0.00001
   D44       -3.14159   0.00000   0.00000   0.00000   0.00000  -3.14159
   D45       -0.00001  -0.00000   0.00000  -0.00000  -0.00000  -0.00001
         Item               Value     Threshold  Converged?
 Maximum Force            0.433005     0.000450     NO 
 RMS     Force            0.044966     0.000300     NO 
 Maximum Displacement     0.777361     0.001800     NO 
 RMS     Displacement     0.244221     0.001200     NO 
 Predicted change in Energy=-1.023014D-01
 GradGradGradGradGradGradGradGradGradGradGradGradGradGradGradGradGradGrad

                          Input orientation:                          
 ---------------------------------------------------------------------
 Center     Atomic      Atomic             Coordinates (Angstroms)
 Number     Number       Type             X           Y           Z
 ---------------------------------------------------------------------
      1          6           0       -0.534857    2.002966    0.370117
      2          6           0        0.792587    1.921506   -0.082514
      3          6           0        1.604994    3.058929   -0.136548
      4          6           0        1.108154    4.298706    0.259978
      5          6           0       -0.205685    4.404176    0.712633
      6          6           0       -1.014749    3.264332    0.765112
      7          6           0       -1.457479    0.503972    0.392550
      8          6           0       -0.729729   -0.599881   -0.054527
      9          6           0       -1.319604   -1.866769   -0.098120
     10          6           0       -2.647317   -2.046249    0.305599
     11          6           0       -3.382702   -0.944096    0.754873
     12          6           0       -2.781616    0.319870    0.794224
     13          1           0        2.617860    2.973954   -0.486199
     14          1           0        1.735542    5.170461    0.217005
     15          1           0       -0.594360    5.357251    1.019677
     16          1           0        0.286619   -0.482968   -0.367412
     17         17           0       -3.650521    1.760097    1.350983
     18         17           0       -2.679405    3.406404    1.340221
     19         17           0       -5.052528   -1.159572    1.264549
     20         17           0       -3.381556   -3.641773    0.247850
     21         17           0       -0.375777   -3.234606   -0.665965
     22         17           0        1.499797    0.398466   -0.601543
 ---------------------------------------------------------------------
                    Distance matrix (angstroms):
                    1          2          3          4          5
     1  C    0.000000
     2  C    1.404855   0.000000
     3  C    2.439411   1.398806   0.000000
     4  C    2.825250   2.422388   1.393244   0.000000
     5  C    2.447750   2.791497   2.410260   1.393625   0.000000
     6  C    1.406187   2.405850   2.778171   2.414913   1.398779
     7  C    1.760317   2.701459   4.023243   4.582581   4.108653
     8  C    2.644449   2.945440   4.341031   5.241458   5.089572
     9  C    3.976170   4.337352   5.728635   6.635912   6.420505
    10  C    4.567581   5.265610   6.658865   7.373202   6.909068
    11  C    4.116240   5.132828   6.457240   6.920960   6.220871
    12  C    2.839120   4.013580   5.254629   5.589889   4.829454
    13  H    3.408184   2.145281   1.074884   2.142653   3.384544
    14  H    3.900151   3.396261   2.144904   1.074904   2.145041
    15  H    3.417119   3.865591   3.384716   2.143878   1.074103
    16  H    2.720044   2.473593   3.786350   4.892131   5.029218
    17  Cl   3.275431   4.671420   5.614280   5.502709   4.389253
    18  Cl   2.740406   4.035322   4.545069   4.038407   2.740202
    19  Cl   5.586681   6.743366   8.005087   8.291921   7.399445
    20  Cl   6.323110   6.962950   8.361390   9.121888   8.662532
    21  Cl   5.341436   5.318927   6.619088   7.733707   7.764049
    22  Cl   2.767374   1.757608   2.702841   4.013412   4.547684
                    6          7          8          9         10
     6  C    0.000000
     7  C    2.820355   0.000000
     8  C    3.960453   1.395703   0.000000
     9  C    5.212131   2.424909   1.398163   0.000000
    10  C    5.574828   2.815476   2.428748   1.399294   0.000000
    11  C    4.828890   2.436117   2.794973   2.415635   1.399063
    12  C    3.434024   1.395914   2.403447   2.777616   2.419775
    13  H    3.853044   4.845761   4.915790   6.251946   7.317887
    14  H    3.390848   5.657059   6.280775   7.678270   8.443827
    15  H    2.149847   4.969163   6.054723   7.345878   7.715981
    16  H    4.125339   2.143238   1.069827   2.137142   3.391869
    17  Cl   3.090835   2.702939   4.009486   4.548322   4.072777
    18  Cl   1.766922   3.288661   4.668712   5.632427   5.550035
    19  Cl   6.010326   4.056124   4.554098   4.036300   2.736936
    20  Cl   7.318717   4.572768   4.046816   2.742622   1.757309
    21  Cl   6.685243   4.033299   2.727804   1.756199   2.741537
    22  Cl   4.050170   3.121671   2.503340   3.651541   4.898785
                   11         12         13         14         15
    11  C    0.000000
    12  C    1.400166   0.000000
    13  H    7.273109   6.151259   0.000000
    14  H    7.992092   6.653279   2.469338   0.000000
    15  H    6.895793   5.496374   4.273889   2.471359   0.000000
    16  H    3.864722   3.377575   4.171223   5.865337   6.066984
    17  Cl   2.782038   1.771787   6.643891   6.475041   4.731744
    18  Cl   4.445684   3.136120   5.619950   4.885209   2.873320
    19  Cl   1.759124   2.750817   8.887407   9.340479   7.899633
    20  Cl   2.744910   4.043893   8.961007  10.190245   9.452334
    21  Cl   4.038169   4.533709   6.894955   8.711054   8.758378
    22  Cl   5.242245   4.503869   2.810072   4.847425   5.621690
                   16         17         18         19         20
    16  H    0.000000
    17  Cl   4.846162   0.000000
    18  Cl   5.180783   1.911415   0.000000
    19  Cl   5.623840   3.239994   5.146413   0.000000
    20  Cl   4.879764   5.519913   7.166804   3.160245   0.000000
    21  Cl   2.845948   6.303895   7.309890   5.468515   3.167893
    22  Cl   1.517743   5.673814   5.503077   6.988759   6.393168
                   21         22
    21  Cl   0.000000
    22  Cl   4.089150   0.000000
 Stoichiometry    C12H4Cl6
 Framework group  C1[X(C12H4Cl6)]
 Deg. of freedom    60
 Full point group                 C1      NOp   1
 Largest Abelian subgroup         C1      NOp   1
 Largest concise Abelian subgroup C1      NOp   1
                         Standard orientation:                         
 ---------------------------------------------------------------------
 Center     Atomic      Atomic             Coordinates (Angstroms)
 Number     Number       Type             X           Y           Z
 ---------------------------------------------------------------------
      1          6           0        1.996302    0.251186   -0.000001
      2          6           0        2.505813    1.560390   -0.000004
      3          6           0        3.884739    1.795380   -0.000005
      4          6           0        4.780920    0.728614   -0.000002
      5          6           0        4.298960   -0.579020    0.000003
      6          6           0        2.919326   -0.809656    0.000004
      7          6           0        0.244021    0.083171    0.000005
      8          6           0       -0.428629    1.306089    0.000007
      9          6           0       -1.826228    1.345807    0.000006
     10          6           0       -2.570385    0.160795    0.000002
     11          6           0       -1.902615   -1.068620    0.000000
     12          6           0       -0.502720   -1.096216    0.000001
     13          1           0        4.252997    2.805212   -0.000008
     14          1           0        5.839849    0.913247   -0.000003
     15          1           0        4.984943   -1.405534    0.000007
     16          1           0        0.122610    2.222967    0.000007
     17         17           0        0.410290   -2.614649   -0.000003
     18         17           0        2.316260   -2.470477    0.000009
     19         17           0       -2.829305   -2.563867   -0.000008
     20         17           0       -4.326727    0.219095   -0.000002
     21         17           0       -2.641287    2.901415    0.000009
     22         17           0        1.447391    2.963576   -0.000010
 ---------------------------------------------------------------------
 Rotational constants (GHZ):           0.3464776           0.1948840           0.1247280
 Standard basis: 6-311+G(d,p) (5D, 7F)
 There are   486 symmetry adapted cartesian basis functions of A   symmetry.
 There are   468 symmetry adapted basis functions of A   symmetry.
   468 basis functions,   782 primitive gaussians,   486 cartesian basis functions
    89 alpha electrons       89 beta electrons
       nuclear repulsion energy      2096.6326389357 Hartrees.
 NAtoms=   22 NActive=   22 NUniq=   22 SFac= 1.00D+00 NAtFMM=   60 NAOKFM=F Big=F
 Integral buffers will be    131072 words long.
 Raffenetti 2 integral format.
 Two-electron integral symmetry is turned on.
 One-electron integrals computed using PRISM.
 NBasis=   468 RedAO= T EigKep=  1.71D-06  NBF=   468
 NBsUse=   461 1.00D-06 EigRej=  8.09D-07 NBFU=   461
 Initial guess from the checkpoint file:  "./Gau-187308.chk"
 B after Tr=    -0.000000    0.000000    0.000000
         Rot=    0.999866   -0.000000   -0.000000   -0.016352 Ang=  -1.87 deg.
 ExpMin= 4.38D-02 ExpMax= 1.06D+05 ExpMxC= 3.62D+03 IAcc=3 IRadAn=         5 AccDes= 0.00D+00
 Harris functional with IExCor=  402 and IRadAn=       5 diagonalized for initial guess.
 HarFok:  IExCor=  402 AccDes= 0.00D+00 IRadAn=         5 IDoV= 1 UseB2=F ITyADJ=14
 ICtDFT=  3500011 ScaDFX=  1.000000  1.000000  1.000000  1.000000
 FoFCou: FMM=F IPFlag=           0 FMFlag=      100000 FMFlg1=           0
         NFxFlg=           0 DoJE=T BraDBF=F KetDBF=T FulRan=T
         wScrn=  0.000000 ICntrl=       500 IOpCl=  0 I1Cent=   200000004 NGrid=           0
         NMat0=    1 NMatS0=      1 NMatT0=    0 NMatD0=    1 NMtDS0=    0 NMtDT0=    0
 Petite list used in FoFCou.
 Requested convergence on RMS density matrix=1.00D-08 within  32 cycles.
 Requested convergence on MAX density matrix=1.00D-06.
 Requested convergence on             energy=1.00D-06.
 No special actions if energy rises.
 SCF Done:  E(RB3LYP) =  -3220.74802657     A.U. after   20 cycles
            NFock= 20  Conv=0.39D-08     -V/T= 2.0021
 QCSCF skips out because SCF is already converged.
 Calling FoFJK, ICntrl=      2127 FMM=F ISym2X=0 I1Cent= 0 IOpClX= 0 NMat=1 NMatS=1 NMatT=0.
 ***** Axes restored to original set *****
 -------------------------------------------------------------------
 Center     Atomic                   Forces (Hartrees/Bohr)
 Number     Number              X              Y              Z
 -------------------------------------------------------------------
      1        6          -0.035278976   -0.058360034    0.000661727
      2        6          -0.008470275    0.013428200    0.005312531
      3        6          -0.002514388   -0.001624940    0.000523368
      4        6          -0.006877201   -0.012762795   -0.000131444
      5        6           0.001215329   -0.006450755   -0.001611664
      6        6           0.003707869    0.001431874   -0.000952516
      7        6           0.038366920    0.042574403   -0.004643712
      8        6          -0.061528655   -0.033067428    0.014060152
      9        6          -0.006319698    0.007823370    0.003551251
     10        6          -0.001198693   -0.011875344   -0.001835305
     11        6          -0.002002213    0.000448465    0.000743842
     12        6          -0.017826706   -0.011779332    0.003660965
     13        1           0.004857062   -0.002073671   -0.001989620
     14        1           0.003501898    0.004344989   -0.000337712
     15        1          -0.003674419    0.002984288    0.001771061
     16        1          -0.052055531   -0.034383747    0.010691499
     17       17          -0.166086444   -0.316919769   -0.004799356
     18       17           0.182984552    0.338830434    0.003346960
     19       17           0.008805621    0.001652914   -0.002590756
     20       17           0.002206624    0.004425771    0.000104186
     21       17           0.000845344    0.004250300    0.000519736
     22       17           0.117341980    0.067102806   -0.026055194
 -------------------------------------------------------------------
 Cartesian Forces:  Max     0.338830434 RMS     0.068959057

 GradGradGradGradGradGradGradGradGradGradGradGradGradGradGradGradGradGrad
 Berny optimization.
 Using GEDIIS/GDIIS optimizer.
 FormGI is forming the generalized inverse of G from B-inverse, IUseBI=4.
 Internal  Forces:  Max     0.901377767 RMS     0.148224836
 Search for a local minimum.
 Step number   2 out of a maximum of  112
 All quantities printed in internal units (Hartrees-Bohrs-Radians)
 Mixed Optimization -- RFO/linear search
 Update second derivatives using D2CorX and points    1    2
 DE= -8.50D-02 DEPred=-1.02D-01 R= 8.31D-01
 TightC=F SS=  1.41D+00  RLast= 3.00D-01 DXNew= 5.0454D-01 9.0000D-01
 Trust test= 8.31D-01 RLast= 3.00D-01 DXMaxT set to 5.05D-01
 ITU=  1  0
 Use linear search instead of GDIIS.
     Eigenvalues ---    0.00238   0.00238   0.01669   0.01671   0.02070
     Eigenvalues ---    0.02070   0.02070   0.02070   0.02070   0.02070
     Eigenvalues ---    0.02070   0.02070   0.02070   0.02070   0.02070
     Eigenvalues ---    0.02070   0.02070   0.02070   0.02672   0.02891
     Eigenvalues ---    0.16000   0.16000   0.16000   0.16031   0.22099
     Eigenvalues ---    0.23397   0.23489   0.24915   0.25000   0.25000
     Eigenvalues ---    0.25000   0.25000   0.25000   0.25000   0.25000
     Eigenvalues ---    0.25000   0.28368   0.29525   0.29539   0.29539
     Eigenvalues ---    0.29539   0.29539   0.30354   0.37211   0.37230
     Eigenvalues ---    0.37230   0.37326   0.41458   0.41605   0.41936
     Eigenvalues ---    0.42328   0.45302   0.45389   0.45389   0.45389
     Eigenvalues ---    0.45389   0.45389   0.45389   0.45546  16.02281
 RFO step:  Lambda=-5.04923814D-01 EMin= 2.37799153D-03
 Quartic linear search produced a step of -0.03974.
 Maximum step size (   0.505) exceeded in Quadratic search.
    -- Step size scaled by   0.589
 Iteration  1 RMS(Cart)=  0.09865893 RMS(Int)=  0.02603230
 Iteration  2 RMS(Cart)=  0.04617170 RMS(Int)=  0.00612066
 Iteration  3 RMS(Cart)=  0.01435273 RMS(Int)=  0.00006668
 Iteration  4 RMS(Cart)=  0.00000056 RMS(Int)=  0.00006668
 Variable       Old X    -DE/DX   Delta X   Delta X   Delta X     New X
                                 (Linear)    (Quad)   (Total)
    R1        2.65479   0.18311  -0.00026   0.02573   0.02559   2.68038
    R2        2.65731   0.11858  -0.00036   0.02370   0.02347   2.68078
    R3        2.64336  -0.02891   0.00019  -0.00968  -0.00949   2.63387
    R4        3.32140  -0.00324   0.00018  -0.00602  -0.00584   3.31556
    R5        2.63285  -0.10371   0.00061  -0.03182  -0.03134   2.60151
    R6        2.03124   0.00539  -0.00037   0.01321   0.01284   2.04408
    R7        2.63357  -0.07909   0.00058  -0.02871  -0.02826   2.60531
    R8        2.03127   0.00558  -0.00037   0.01328   0.01291   2.04418
    R9        2.64331   0.01460   0.00020  -0.00615  -0.00596   2.63735
   R10        2.02976   0.00448  -0.00031   0.01109   0.01078   2.04055
   R11        3.33900   0.07631  -0.00052   0.02444   0.02392   3.36292
   R12        2.63750   0.02500   0.00043  -0.01352  -0.01307   2.62442
   R13        2.63789  -0.01616   0.00041  -0.01654  -0.01611   2.62178
   R14        2.64215  -0.02516   0.00024  -0.01124  -0.01100   2.63114
   R15        2.02168  -0.05634   0.00001  -0.00584  -0.00582   2.01586
   R16        2.64428  -0.06911   0.00016  -0.01215  -0.01201   2.63228
   R17        3.31874  -0.00302   0.00029  -0.00935  -0.00906   3.30967
   R18        2.64385  -0.04582   0.00018  -0.01077  -0.01061   2.63324
   R19        3.32083  -0.00494   0.00020  -0.00691  -0.00671   3.31412
   R20        2.64593   0.01859   0.00009  -0.00183  -0.00174   2.64419
   R21        3.32426  -0.00931   0.00007  -0.00306  -0.00299   3.32127
   R22        3.34819  -0.02777  -0.00089   0.02509   0.02421   3.37240
   R23        3.61205   0.42932  -0.00991   0.47049   0.46058   4.07263
    A1        2.05441  -0.14896   0.00159  -0.06366  -0.06169   1.99272
    A2        2.11073   0.06642  -0.00065   0.02671   0.02617   2.13691
    A3        2.12420   0.19534  -0.00118   0.05671   0.05547   2.17967
    A4        2.04825  -0.26176   0.00183  -0.08342  -0.08164   1.96661
    A5        2.10072   0.02641  -0.00025   0.01021   0.00981   2.11052
    A6        2.08928  -0.01491   0.00020  -0.00725  -0.00697   2.08231
    A7        2.09319  -0.01150   0.00005  -0.00296  -0.00284   2.09035
    A8        2.08975  -0.02600   0.00018  -0.00833  -0.00843   2.08132
    A9        2.09689   0.01267  -0.00010   0.00429   0.00434   2.10122
   A10        2.09654   0.01333  -0.00009   0.00404   0.00410   2.10064
   A11        2.08956   0.09275   0.00019   0.00500   0.00504   2.09460
   A12        2.09572  -0.04401  -0.00005  -0.00328  -0.00325   2.09246
   A13        2.09791  -0.04874  -0.00014  -0.00172  -0.00178   2.09612
   A14        2.12120  -0.01061  -0.00107   0.03007   0.02911   2.15030
   A15        2.07724   0.43190   0.00068   0.02795   0.02858   2.10582
   A16        2.08475  -0.42129   0.00038  -0.05801  -0.05768   2.02706
   A17        2.07428  -0.11306   0.00080  -0.03543  -0.03458   2.03969
   A18        2.10208   0.08772  -0.00031   0.01901   0.01872   2.12080
   A19        2.09741  -0.01470  -0.00012   0.00091   0.00079   2.09820
   A20        2.08370  -0.07303   0.00043  -0.01993  -0.01951   2.06419
   A21        2.10312  -0.00164  -0.00035   0.00978   0.00941   2.11253
   A22        2.08183  -0.00440   0.00050  -0.01512  -0.01461   2.06722
   A23        2.09824   0.00604  -0.00015   0.00534   0.00520   2.10343
   A24        2.08328  -0.04351   0.00044  -0.01852  -0.01811   2.06517
   A25        2.09835   0.02148  -0.00016   0.00734   0.00720   2.10555
   A26        2.10156   0.02203  -0.00028   0.01118   0.01091   2.11247
   A27        2.08808   0.05021   0.00025  -0.00219  -0.00195   2.08613
   A28        2.08919  -0.02423   0.00021  -0.00864  -0.00842   2.08077
   A29        2.10591  -0.02597  -0.00046   0.01083   0.01038   2.11628
   A30        2.11553   0.02029  -0.00084   0.02734   0.02652   2.14205
   A31        2.03578   0.19543   0.00233  -0.04735  -0.04503   1.99075
   A32        2.13187  -0.21572  -0.00149   0.02001   0.01851   2.15038
   A33        2.03666   0.72773   0.00229   0.01293   0.01523   2.05189
   A34        1.99460   0.90138   0.00397  -0.01725  -0.01329   1.98132
    D1        0.00000  -0.00000   0.00000  -0.00000  -0.00000   0.00000
    D2        3.14159  -0.00000  -0.00000  -0.00000  -0.00000   3.14159
    D3       -0.00000   0.00000   0.00000   0.00000   0.00000  -0.00000
    D4        3.14159   0.00000  -0.00000   0.00000   0.00000  -3.14159
    D5        0.00000   0.00000  -0.00000   0.00000   0.00000   0.00000
    D6        3.14159  -0.00000  -0.00000   0.00000   0.00000   3.14159
    D7       -3.14159   0.00000   0.00000   0.00000   0.00000  -3.14159
    D8        0.00000   0.00000   0.00000   0.00000   0.00000   0.00000
    D9       -0.00000   0.00000  -0.00000   0.00000   0.00000  -0.00000
   D10        3.14159  -0.00000   0.00000  -0.00000  -0.00000   3.14159
   D11        3.14159   0.00000  -0.00000   0.00000   0.00000   3.14159
   D12        0.00000   0.00000   0.00000  -0.00000  -0.00000   0.00000
   D13        0.00000  -0.00000   0.00000  -0.00000  -0.00000   0.00000
   D14       -3.14159  -0.00000   0.00000  -0.00000  -0.00000  -3.14159
   D15       -3.14159   0.00000   0.00000  -0.00000  -0.00000  -3.14159
   D16        0.00000  -0.00000   0.00000  -0.00000  -0.00000   0.00000
   D17       -0.00000   0.00000  -0.00000   0.00000   0.00000  -0.00000
   D18        3.14159  -0.00000   0.00000  -0.00000  -0.00000   3.14159
   D19        3.14159   0.00000  -0.00000   0.00000   0.00000   3.14159
   D20       -0.00000  -0.00000   0.00000  -0.00000  -0.00000  -0.00000
   D21        0.00001  -0.00000   0.00000  -0.00000  -0.00000   0.00001
   D22       -3.14159  -0.00000   0.00000  -0.00000  -0.00000  -3.14159
   D23        0.00000  -0.00000  -0.00000  -0.00000  -0.00000   0.00000
   D24       -3.14159  -0.00000   0.00000  -0.00000  -0.00000  -3.14159
   D25       -0.00000   0.00000   0.00000   0.00000   0.00000  -0.00000
   D26        3.14159   0.00000  -0.00000   0.00000   0.00000   3.14159
   D27       -0.00000   0.00000   0.00000   0.00000   0.00000  -0.00000
   D28        3.14159   0.00000   0.00000  -0.00000  -0.00000   3.14159
   D29        3.14159   0.00000  -0.00000   0.00000   0.00000   3.14159
   D30       -0.00000   0.00000  -0.00000   0.00000   0.00000  -0.00000
   D31       -0.00000   0.00000  -0.00000   0.00000   0.00000  -0.00000
   D32       -3.14159  -0.00000   0.00000  -0.00000  -0.00000  -3.14159
   D33        3.14159   0.00000  -0.00000   0.00000   0.00000  -3.14159
   D34        0.00000  -0.00000   0.00000  -0.00000  -0.00000   0.00000
   D35        0.00000  -0.00000   0.00000  -0.00000  -0.00000  -0.00000
   D36       -3.14159  -0.00000   0.00000  -0.00000  -0.00000  -3.14159
   D37        3.14159   0.00000  -0.00000   0.00000   0.00000   3.14159
   D38        0.00000  -0.00000   0.00000  -0.00000  -0.00000   0.00000
   D39        0.00000   0.00000  -0.00000   0.00000   0.00000   0.00000
   D40       -3.14159  -0.00000   0.00000  -0.00000  -0.00000  -3.14159
   D41        3.14159   0.00000  -0.00000   0.00000   0.00000   3.14159
   D42       -0.00000  -0.00000   0.00000  -0.00000  -0.00000  -0.00000
   D43        0.00001  -0.00000   0.00000  -0.00000  -0.00000   0.00001
   D44       -3.14159  -0.00000  -0.00000  -0.00000  -0.00000  -3.14159
   D45       -0.00001  -0.00001   0.00000  -0.00000  -0.00000  -0.00001
         Item               Value     Threshold  Converged?
 Maximum Force            0.901378     0.000450     NO 
 RMS     Force            0.148225     0.000300     NO 
 Maximum Displacement     0.567842     0.001800     NO 
 RMS     Displacement     0.150203     0.001200     NO 
 Predicted change in Energy=-2.637215D-01
 GradGradGradGradGradGradGradGradGradGradGradGradGradGradGradGradGradGrad

                          Input orientation:                          
 ---------------------------------------------------------------------
 Center     Atomic      Atomic             Coordinates (Angstroms)
 Number     Number       Type             X           Y           Z
 ---------------------------------------------------------------------
      1          6           0       -0.426554    2.046026    0.342527
      2          6           0        0.920902    2.051301   -0.100406
      3          6           0        1.691488    3.212141   -0.136266
      4          6           0        1.168282    4.421228    0.263179
      5          6           0       -0.136852    4.477926    0.703805
      6          6           0       -0.911972    3.317945    0.741320
      7          6           0       -1.554775    0.392454    0.403658
      8          6           0       -0.851815   -0.721234   -0.037101
      9          6           0       -1.439628   -1.982670   -0.080349
     10          6           0       -2.760382   -2.173670    0.318918
     11          6           0       -3.482803   -1.068552    0.764480
     12          6           0       -2.869097    0.188471    0.798368
     13          1           0        2.714502    3.158049   -0.483459
     14          1           0        1.774107    5.316853    0.231791
     15          1           0       -0.557708    5.420888    1.019548
     16          1           0        0.162480   -0.625384   -0.353269
     17         17           0       -3.700999    1.667707    1.350263
     18         17           0       -2.581430    3.509089    1.327225
     19         17           0       -5.151194   -1.282788    1.273920
     20         17           0       -3.490324   -3.767219    0.260126
     21         17           0       -0.478847   -3.331579   -0.650227
     22         17           0        1.800286    0.638193   -0.655507
 ---------------------------------------------------------------------
                    Distance matrix (angstroms):
                    1          2          3          4          5
[...]
                 (A) (A) (A) (A) (A) (A) (A) (A) (A) (A) (A) (A)
                 (A) (A) (A) (A) (A) (A) (A) (A) (A) (A) (A) (A)
                 (A) (A) (A) (A) (A) (A) (A) (A) (A) (A) (A) (A)
                 (A) (A) (A) (A) (A) (A) (A) (A) (A) (A) (A) (A)
                 (A) (A) (A) (A) (A) (A) (A) (A) (A) (A) (A) (A)
                 (A) (A) (A) (A) (A) (A) (A) (A) (A) (A) (A) (A)
                 (A) (A) (A) (A) (A) (A) (A) (A) (A) (A) (A) (A)
                 (A) (A) (A) (A) (A) (A) (A) (A) (A) (A) (A) (A)
                 (A) (A) (A) (A) (A) (A) (A) (A) (A) (A) (A) (A)
                 (A) (A) (A) (A) (A) (A) (A) (A) (A) (A) (A) (A)
                 (A) (A) (A) (A) (A) (A) (A) (A) (A) (A) (A) (A)
                 (A) (A) (A) (A) (A) (A) (A) (A) (A) (A) (A) (A)
                 (A) (A) (A) (A) (A) (A) (A) (A) (A) (A) (A) (A)
                 (A) (A) (A) (A) (A) (A) (A) (A) (A) (A) (A) (A)
                 (A) (A) (A) (A) (A) (A) (A) (A) (A) (A) (A) (A)
                 (A) (A) (A) (A) (A) (A) (A) (A) (A) (A) (A) (A)
                 (A) (A) (A) (A) (A) (A) (A) (A) (A) (A) (A) (A)
                 (A) (A) (A) (A) (A) (A) (A) (A) (A) (A) (A) (A)
                 (A) (A) (A) (A) (A) (A) (A) (A) (A) (A) (A) (A)
                 (A) (A) (A) (A) (A) (A) (A) (A) (A) (A) (A) (A)
                 (A) (A) (A) (A) (A) (A) (A) (A) (A) (A) (A) (A)
                 (A) (A) (A) (A) (A) (A) (A) (A) (A) (A) (A) (A)
                 (A) (A) (A) (A) (A) (A) (A) (A) (A) (A) (A) (A)
                 (A) (A) (A) (A) (A) (A) (A) (A) (A) (A) (A) (A)
                 (A) (A) (A) (A) (A) (A) (A) (A) (A) (A) (A) (A)
                 (A) (A) (A) (A) (A) (A) (A) (A) (A) (A) (A) (A)
                 (A) (A) (A) (A) (A) (A) (A) (A) (A) (A) (A) (A)
                 (A) (A)
 The electronic state is 1-A.
 Alpha  occ. eigenvalues -- -101.57737-101.57676-101.57541-101.57473-101.57190
 Alpha  occ. eigenvalues -- -101.57190 -10.27894 -10.27836 -10.27384 -10.27198
 Alpha  occ. eigenvalues --  -10.26780 -10.26779 -10.23436 -10.23369 -10.21884
 Alpha  occ. eigenvalues --  -10.21337 -10.21077 -10.21070  -9.49202  -9.49143
 Alpha  occ. eigenvalues --   -9.48997  -9.48949  -9.48662  -9.48661  -7.25705
 Alpha  occ. eigenvalues --   -7.25647  -7.25488  -7.25437  -7.25129  -7.25128
 Alpha  occ. eigenvalues --   -7.24683  -7.24624  -7.24597  -7.24537  -7.24474
 Alpha  occ. eigenvalues --   -7.24428  -7.24416  -7.24360  -7.24145  -7.24144
 Alpha  occ. eigenvalues --   -7.24095  -7.24094  -0.96047  -0.93484  -0.91253
 Alpha  occ. eigenvalues --   -0.89386  -0.89289  -0.86573  -0.85006  -0.84678
 Alpha  occ. eigenvalues --   -0.79965  -0.75748  -0.75592  -0.74276  -0.66465
 Alpha  occ. eigenvalues --   -0.63762  -0.62892  -0.61656  -0.55400  -0.54506
 Alpha  occ. eigenvalues --   -0.52667  -0.51911  -0.49553  -0.48135  -0.46732
 Alpha  occ. eigenvalues --   -0.46623  -0.45950  -0.45770  -0.43731  -0.43330
 Alpha  occ. eigenvalues --   -0.41708  -0.40412  -0.40085  -0.39874  -0.38227
 Alpha  occ. eigenvalues --   -0.37647  -0.35416  -0.35211  -0.34914  -0.34238
 Alpha  occ. eigenvalues --   -0.33854  -0.33808  -0.33270  -0.32659  -0.31591
 Alpha  occ. eigenvalues --   -0.28294  -0.27425  -0.27040  -0.26490
 Alpha virt. eigenvalues --   -0.05911  -0.05608  -0.05230  -0.04656  -0.04650
 Alpha virt. eigenvalues --   -0.02003  -0.00655   0.00085   0.01217   0.01380
 Alpha virt. eigenvalues --    0.01877   0.02158   0.02316   0.02749   0.03581
 Alpha virt. eigenvalues --    0.04109   0.04844   0.05093   0.05655   0.06019
 Alpha virt. eigenvalues --    0.06236   0.06459   0.07717   0.07950   0.08143
 Alpha virt. eigenvalues --    0.08556   0.08557   0.09237   0.09410   0.09848
 Alpha virt. eigenvalues --    0.10130   0.10422   0.11122   0.11139   0.11935
 Alpha virt. eigenvalues --    0.11946   0.12317   0.12454   0.12663   0.13110
 Alpha virt. eigenvalues --    0.13852   0.14172   0.14366   0.14804   0.15380
 Alpha virt. eigenvalues --    0.16206   0.16265   0.16292   0.16649   0.17041
 Alpha virt. eigenvalues --    0.17166   0.17708   0.17985   0.18466   0.18521
 Alpha virt. eigenvalues --    0.19091   0.19370   0.19411   0.20179   0.20344
 Alpha virt. eigenvalues --    0.20714   0.20875   0.21770   0.22069   0.22445
 Alpha virt. eigenvalues --    0.22598   0.23054   0.23492   0.24267   0.24279
 Alpha virt. eigenvalues --    0.24927   0.25153   0.26063   0.26420   0.26593
 Alpha virt. eigenvalues --    0.26786   0.26843   0.27217   0.27443   0.27992
 Alpha virt. eigenvalues --    0.28527   0.29320   0.29455   0.29754   0.29791
 Alpha virt. eigenvalues --    0.30315   0.31044   0.31886   0.31894   0.32122
 Alpha virt. eigenvalues --    0.33626   0.36054   0.40390   0.41014   0.41065
 Alpha virt. eigenvalues --    0.43507   0.43962   0.44281   0.45205   0.45234
 Alpha virt. eigenvalues --    0.45751   0.45877   0.46567   0.47471   0.47682
 Alpha virt. eigenvalues --    0.48505   0.48614   0.49736   0.50156   0.50381
 Alpha virt. eigenvalues --    0.50596   0.50918   0.51133   0.53609   0.53762
 Alpha virt. eigenvalues --    0.54281   0.56518   0.56531   0.57326   0.57628
 Alpha virt. eigenvalues --    0.58155   0.58864   0.59052   0.60073   0.60705
 Alpha virt. eigenvalues --    0.61341   0.61734   0.62953   0.62999   0.64000
 Alpha virt. eigenvalues --    0.64409   0.64474   0.64730   0.65798   0.67158
 Alpha virt. eigenvalues --    0.67638   0.68351   0.69016   0.69196   0.69602
 Alpha virt. eigenvalues --    0.70967   0.71944   0.75934   0.77316   0.78525
 Alpha virt. eigenvalues --    0.80539   0.80683   0.81542   0.81933   0.82600
 Alpha virt. eigenvalues --    0.83406   0.83680   0.84216   0.84341   0.84367
 Alpha virt. eigenvalues --    0.84433   0.85245   0.85402   0.85749   0.85814
 Alpha virt. eigenvalues --    0.86457   0.86998   0.87601   0.88524   0.89243
 Alpha virt. eigenvalues --    0.89645   0.90802   0.90913   0.91232   0.91627
 Alpha virt. eigenvalues --    0.93488   0.94473   0.94771   0.94952   0.95213
 Alpha virt. eigenvalues --    0.95358   0.95938   0.96187   0.96443   0.97123
 Alpha virt. eigenvalues --    0.98649   1.00105   1.00776   1.01173   1.02282
 Alpha virt. eigenvalues --    1.02657   1.04049   1.05258   1.06592   1.06736
 Alpha virt. eigenvalues --    1.08052   1.10709   1.13437   1.17273   1.18752
 Alpha virt. eigenvalues --    1.19957   1.21076   1.21643   1.23669   1.24072
 Alpha virt. eigenvalues --    1.26741   1.27251   1.27377   1.28947   1.29070
 Alpha virt. eigenvalues --    1.29889   1.30789   1.31964   1.32299   1.34232
 Alpha virt. eigenvalues --    1.37362   1.39213   1.41588   1.43037   1.45848
 Alpha virt. eigenvalues --    1.47981   1.48478   1.48848   1.54771   1.54972
 Alpha virt. eigenvalues --    1.55980   1.58846   1.58957   1.61814   1.64123
 Alpha virt. eigenvalues --    1.65003   1.66007   1.67518   1.70157   1.73072
 Alpha virt. eigenvalues --    1.74046   1.75948   1.77501   1.79280   1.80794
 Alpha virt. eigenvalues --    1.82846   1.83702   1.84290   1.85538   1.87803
 Alpha virt. eigenvalues --    1.88443   1.91691   1.92058   1.92631   1.95139
 Alpha virt. eigenvalues --    1.96077   1.96253   1.98571   2.02016   2.04030
 Alpha virt. eigenvalues --    2.06449   2.07087   2.11727   2.15527   2.18051
 Alpha virt. eigenvalues --    2.21052   2.22846   2.24475   2.24725   2.26469
 Alpha virt. eigenvalues --    2.26559   2.28690   2.29065   2.29384   2.30814
 Alpha virt. eigenvalues --    2.31696   2.34792   2.34983   2.35124   2.38694
 Alpha virt. eigenvalues --    2.40635   2.40851   2.41884   2.42494   2.45841
 Alpha virt. eigenvalues --    2.48046   2.49421   2.50564   2.53309   2.53435
 Alpha virt. eigenvalues --    2.55068   2.55317   2.58007   2.61439   2.62733
 Alpha virt. eigenvalues --    2.67157   2.67541   2.67824   2.69205   2.70098
 Alpha virt. eigenvalues --    2.70732   2.72407   2.74945   2.75219   2.77038
 Alpha virt. eigenvalues --    2.77212   2.78451   2.82525   2.82805   2.83224
 Alpha virt. eigenvalues --    2.86248   2.89270   2.96215   2.98114   3.06753
 Alpha virt. eigenvalues --    3.08864   3.09369   3.11470   3.13344   3.14833
 Alpha virt. eigenvalues --    3.16409   3.19657   3.21953   3.23905   3.27995
 Alpha virt. eigenvalues --    3.33717   3.37133   3.38977   3.51269   3.53846
 Alpha virt. eigenvalues --    3.63867   3.67233   3.70216   3.75374   3.90114
 Alpha virt. eigenvalues --    3.97933   4.01276   4.03545   4.08032   4.32839
 Alpha virt. eigenvalues --    4.80782   4.81053   9.74735   9.79185   9.80114
 Alpha virt. eigenvalues --    9.80937   9.83984   9.84539  23.32864  23.52265
 Alpha virt. eigenvalues --   23.80093  23.84898  23.85310  23.91125  23.94336
 Alpha virt. eigenvalues --   23.95623  24.03091  24.03740  24.11968  24.14699
 Alpha virt. eigenvalues --   25.76892  25.79816  25.83477  25.89300  25.93048
 Alpha virt. eigenvalues --   25.98188  26.08707  26.10474  26.17576  26.22536
 Alpha virt. eigenvalues --   26.29241  26.36315  26.49656  26.59736  26.62944
 Alpha virt. eigenvalues --   26.72346  26.85954  27.03280 215.73759 215.78728
 Alpha virt. eigenvalues --  215.79809 215.80746 215.84537 215.85489
          Condensed to atoms (all electrons):
               1          2          3          4          5          6
     1  C   19.540335   0.174484  -6.003223  -1.209492  -5.996378   0.170671
     2  C    0.174484  15.205652  -2.868943  -1.568831   3.286301  -0.105334
     3  C   -6.003223  -2.868943  14.597068   1.623870   1.659226   3.286129
     4  C   -1.209492  -1.568831   1.623870   8.227788   1.617553  -1.562015
     5  C   -5.996378   3.286301   1.659226   1.617553  14.586809  -2.871567
     6  C    0.170671  -0.105334   3.286129  -1.562015  -2.871567  15.193530
     7  C    7.839548  -1.989464  -3.991279  -0.955888  -3.986070  -1.986892
     8  C    2.882481  -0.905843   0.187646  -0.075975   0.191301  -0.907856
     9  C   -1.560452  -0.345747   0.081656  -0.062396   0.082118  -0.347106
    10  C   -1.573140   0.681548   0.102399   0.057968   0.101913   0.682596
    11  C   -2.035000  -1.034388  -0.133550   0.026504  -0.132673  -1.031673
    12  C   -6.138590  -3.074407  -2.438719   0.338833  -2.437382  -3.065518
    13  H    0.083675   0.030999   0.306624  -0.034425  -0.031596  -0.007234
    14  H   -0.000366   0.019229  -0.043507   0.396166  -0.043604   0.019211
    15  H    0.083478  -0.007295  -0.031515  -0.034469   0.306695   0.031161
    16  H    0.068789   0.063135   0.017713   0.006647   0.017672   0.063003
    17  Cl  -0.383343   0.050459  -0.022634  -0.158514  -0.022347   0.049790
    18  Cl   0.144034  -0.629731   0.247814  -0.159920  -0.574707  -0.594890
    19  Cl  -0.060663  -0.048548  -0.004623   0.001551  -0.004551  -0.048444
    20  Cl  -0.035934  -0.035668  -0.004565  -0.001438  -0.004515  -0.035532
    21  Cl  -0.203756  -0.001282   0.010212   0.001534   0.010270  -0.001306
    22  Cl   0.142219  -0.593601  -0.572713  -0.159091   0.249914  -0.628421
               7          8          9         10         11         12
     1  C    7.839548   2.882481  -1.560452  -1.573140  -2.035000  -6.138590
     2  C   -1.989464  -0.905843  -0.345747   0.681548  -1.034388  -3.074407
     3  C   -3.991279   0.187646   0.081656   0.102399  -0.133550  -2.438719
     4  C   -0.955888  -0.075975  -0.062396   0.057968   0.026504   0.338833
     5  C   -3.986070   0.191301   0.082118   0.101913  -0.132673  -2.437382
     6  C   -1.986892  -0.907856  -0.347106   0.682596  -1.031673  -3.065518
     7  C   29.535819  -0.451165  -7.552980   3.857584  -2.599201  -9.536277
     8  C   -0.451165  30.753917  -4.981491  -9.701803   8.519685 -17.849365
     9  C   -7.552980  -4.981491  24.097822  -6.973278  -5.295941   9.506120
    10  C    3.857584  -9.701803  -6.973278  26.385809  -3.299869  -3.422368
    11  C   -2.599201   8.519685  -5.295941  -3.299869  18.117796  -5.083845
    12  C   -9.536277 -17.849365   9.506120  -3.422368  -5.083845  48.485544
    13  H    0.011759  -0.001506  -0.000722   0.000093  -0.000068   0.002473
    14  H    0.003061  -0.000660  -0.000254   0.000012   0.000077   0.000705
    15  H    0.011751  -0.001516  -0.000721   0.000094  -0.000069   0.002479
    16  H    0.043815   0.315764  -0.080451  -0.019090  -0.051303  -0.074742
    17  Cl  -1.669282  -1.253930   1.004336  -0.589304  -0.517453   1.686398
    18  Cl   0.257584   0.133558   0.131394  -0.104167  -0.014999   0.086811
    19  Cl  -0.212403   0.566549  -0.092788  -0.550987  -0.023026  -0.081661
    20  Cl   0.131888  -0.169796  -0.824804   0.252882   0.652340  -0.597379
    21  Cl  -0.852223  -0.330204  -0.107228  -0.060972  -0.159268   0.819789
    22  Cl   0.253623   0.135006   0.130825  -0.105254  -0.015337   0.087298
              13         14         15         16         17         18
     1  C    0.083675  -0.000366   0.083478   0.068789  -0.383343   0.144034
     2  C    0.030999   0.019229  -0.007295   0.063135   0.050459  -0.629731
     3  C    0.306624  -0.043507  -0.031515   0.017713  -0.022634   0.247814
     4  C   -0.034425   0.396166  -0.034469   0.006647  -0.158514  -0.159920
     5  C   -0.031596  -0.043604   0.306695   0.017672  -0.022347  -0.574707
     6  C   -0.007234   0.019211   0.031161   0.063003   0.049790  -0.594890
     7  C    0.011759   0.003061   0.011751   0.043815  -1.669282   0.257584
     8  C   -0.001506  -0.000660  -0.001516   0.315764  -1.253930   0.133558
     9  C   -0.000722  -0.000254  -0.000721  -0.080451   1.004336   0.131394
    10  C    0.000093   0.000012   0.000094  -0.019090  -0.589304  -0.104167
    11  C   -0.000068   0.000077  -0.000069  -0.051303  -0.517453  -0.014999
    12  C    0.002473   0.000705   0.002479  -0.074742   1.686398   0.086811
    13  H    0.507469  -0.007488  -0.000181   0.000005  -0.000948   0.000502
    14  H   -0.007488   0.520329  -0.007490  -0.000005  -0.000480   0.000672
    15  H   -0.000181  -0.007490   0.507464   0.000005  -0.000946  -0.010934
    16  H    0.000005  -0.000005   0.000005   0.509504  -0.002748  -0.010080
    17  Cl  -0.000948  -0.000480  -0.000946  -0.002748  18.455607   0.102778
    18  Cl   0.000502   0.000672  -0.010934  -0.010080   0.102778  17.660542
    19  Cl  -0.000003   0.000000  -0.000003   0.000509  -0.332253  -0.004655
    20  Cl  -0.000000   0.000000  -0.000000  -0.001500  -0.022298   0.010137
    21  Cl  -0.000010  -0.000001  -0.000010  -0.007827   0.015414  -0.003491
    22  Cl  -0.010945   0.000662   0.000500  -0.010018   0.102483  -0.058912
              19         20         21         22
     1  C   -0.060663  -0.035934  -0.203756   0.142219
     2  C   -0.048548  -0.035668  -0.001282  -0.593601
     3  C   -0.004623  -0.004565   0.010212  -0.572713
     4  C    0.001551  -0.001438   0.001534  -0.159091
     5  C   -0.004551  -0.004515   0.010270   0.249914
     6  C   -0.048444  -0.035532  -0.001306  -0.628421
     7  C   -0.212403   0.131888  -0.852223   0.253623
     8  C    0.566549  -0.169796  -0.330204   0.135006
     9  C   -0.092788  -0.824804  -0.107228   0.130825
    10  C   -0.550987   0.252882  -0.060972  -0.105254
    11  C   -0.023026   0.652340  -0.159268  -0.015337
    12  C   -0.081661  -0.597379   0.819789   0.087298
    13  H   -0.000003  -0.000000  -0.000010  -0.010945
    14  H    0.000000   0.000000  -0.000001   0.000662
    15  H   -0.000003  -0.000000  -0.000010   0.000500
    16  H    0.000509  -0.001500  -0.007827  -0.010018
    17  Cl  -0.332253  -0.022298   0.015414   0.102483
    18  Cl  -0.004655   0.010137  -0.003491  -0.058912
    19  Cl  17.504900  -0.231083   0.002348  -0.004602
    20  Cl  -0.231083  17.497943  -0.213224   0.010089
    21  Cl   0.002348  -0.213224  17.506767  -0.003438
    22  Cl  -0.004602   0.010089  -0.003438  17.658920
 Mulliken charges:
               1
     1  C    0.070620
     2  C   -0.302724
     3  C   -0.005085
     4  C   -0.315960
     5  C   -0.004380
     6  C   -0.302302
     7  C   -0.163306
     8  C   -1.054796
     9  C   -0.807912
    10  C    0.277335
    11  C    0.111261
    12  C   -1.216197
    13  H    0.151527
    14  H    0.143730
    15  H    0.151522
    16  H    0.151203
    17  Cl   0.509217
    18  Cl   0.390657
    19  Cl   0.624436
    20  Cl   0.622458
    21  Cl   0.577905
    22  Cl   0.390792
 Sum of Mulliken charges =  -0.00000
 Mulliken charges with hydrogens summed into heavy atoms:
               1
     1  C    0.070620
     2  C   -0.302724
     3  C    0.146442
     4  C   -0.172230
     5  C    0.147142
     6  C   -0.302302
     7  C   -0.163306
     8  C   -0.903593
     9  C   -0.807912
    10  C    0.277335
    11  C    0.111261
    12  C   -1.216197
    17  Cl   0.509217
    18  Cl   0.390657
    19  Cl   0.624436
    20  Cl   0.622458
    21  Cl   0.577905
    22  Cl   0.390792
 Electronic spatial extent (au):  <R**2>=           7138.9817
 Charge=             -0.0000 electrons
 Dipole moment (field-independent basis, Debye):
    X=              3.4696    Y=              0.9005    Z=             -0.0019  Tot=              3.5845
 Quadrupole moment (field-independent basis, Debye-Ang):
   XX=           -129.3087   YY=           -146.2373   ZZ=           -146.1826
   XY=              2.5868   XZ=             -0.0114   YZ=             -0.0013
 Traceless Quadrupole moment (field-independent basis, Debye-Ang):
   XX=             11.2675   YY=             -5.6611   ZZ=             -5.6064
   XY=              2.5868   XZ=             -0.0114   YZ=             -0.0013
 Octapole moment (field-independent basis, Debye-Ang**2):
  XXX=             75.8046  YYY=            -10.5694  ZZZ=             -0.0095  XYY=            -14.6432
  XXY=              1.1866  XXZ=             -0.0656  XZZ=             -4.8238  YZZ=             -3.8349
  YYZ=              0.0034  XYZ=             -0.0123
 Hexadecapole moment (field-independent basis, Debye-Ang**3):
 XXXX=          -5296.2365 YYYY=          -1964.0643 ZZZZ=          -1496.1230 XXXY=             42.9804
 XXXZ=             -0.1759 YYYX=            -22.6622 YYYZ=              0.0548 ZZZX=             -0.0102
 ZZZY=             -0.0432 XXYY=          -1343.7360 XXZZ=          -1204.0855 YYZZ=           -609.6283
 XXYZ=             -0.0698 YYXZ=              0.0276 ZZXY=             -0.4413
 N-N= 2.085211869122D+03 E-N=-1.179976091056D+04  KE= 3.212690385093D+03
 1\1\GINC-CN255\FOpt\RB3LYP\6-311+G(d,p)\C12H4Cl6\20CY91R06\13-Apr-2022
 \0\\# opt b3lyp/6-311+g(d,p) scf=xqc\\Title Card Required\\0,1\C,-0.53
 09184553,1.8384692932,0.2772627682\C,0.1947810835,2.1955408031,-0.8681
 305012\C,0.8959712747,3.3934571803,-0.9569721318\C,0.8817649468,4.2698
 203865,0.1227000877\C,0.1758973184,3.9539704918,1.278594544\C,-0.51736
 87018,2.7499929646,1.3427462819\C,-1.2588448491,0.5395037227,0.3690150
 013\C,-0.5936579768,-0.5782360861,0.8644521517\C,-1.2341850626,-1.8054
 418922,0.9673615453\C,-2.5693258179,-1.9424944213,0.5724002099\C,-3.25
 21420031,-0.8221894709,0.0707712203\C,-2.5940324911,0.4112971461,-0.02
 80749143\H,1.4415931613,3.6294138288,-1.8608914979\H,1.4244388372,5.20
 57337373,0.0629059513\H,0.1581460742,4.628637405,2.1241479416\H,0.4389
 552712,-0.492906432,1.1754223041\Cl,-3.432786619,1.8066611787,-0.64918
 5188\Cl,-1.403023876,2.3791212423,2.8119822401\Cl,-4.9098599745,-0.969
 204189,-0.4254916337\Cl,-3.3708300076,-3.476580603,0.700798251\Cl,-0.3
 339371155,-3.1601085041,1.5982005884\Cl,0.227031633,1.1107175482,-2.24
 7472\\Version=EM64L-G16RevB.01\State=1-A\HF=-3221.1296862\RMSD=4.665e-
 09\RMSF=1.684e-05\Dipole=0.9255017,1.0636247,0.0310727\Quadrupole=-0.0
 472325,4.2584909,-4.2112584,6.1910913,-0.2266023,-0.1201668\PG=C01 [X(
 C12H4Cl6)]\\@


 WHEN ALL ELSE FAILS, TRY THE BOSS'S SUGGESTION.
 Job cpu time:       1 days  8 hours 40 minutes 42.7 seconds.
 Elapsed time:       0 days  2 hours 43 minutes 50.6 seconds.
 File lengths (MBytes):  RWF=    143 Int=      0 D2E=      0 Chk=     21 Scr=      1
 Normal termination of Gaussian 16 at Wed Apr 13 20:30:54 2022.
