 Entering Gaussian System, Link 0=g16
 Input=2,2prime,3,3prime,5,6,6prime-Heptachlorobiphenyl.gjf
 Output=2,2prime,3,3prime,5,6,6prime-Heptachlorobiphenyl.log
 Initial command:
 /home/apps/g16/l1.exe "./Gau-72137.inp" -scrdir="./"
 Entering Link 1 = /home/apps/g16/l1.exe PID=     72138.
  
 Copyright (c) 1988-2017, Gaussian, Inc.  All Rights Reserved.
  
 This is part of the Gaussian(R) 16 program.  It is based on
 the Gaussian(R) 09 system (copyright 2009, Gaussian, Inc.),
 the Gaussian(R) 03 system (copyright 2003, Gaussian, Inc.),
 the Gaussian(R) 98 system (copyright 1998, Gaussian, Inc.),
 the Gaussian(R) 94 system (copyright 1995, Gaussian, Inc.),
 the Gaussian 92(TM) system (copyright 1992, Gaussian, Inc.),
 the Gaussian 90(TM) system (copyright 1990, Gaussian, Inc.),
 the Gaussian 88(TM) system (copyright 1988, Gaussian, Inc.),
 the Gaussian 86(TM) system (copyright 1986, Carnegie Mellon
 University), and the Gaussian 82(TM) system (copyright 1983,
 Carnegie Mellon University). Gaussian is a federally registered
 trademark of Gaussian, Inc.
  
 This software contains proprietary and confidential information,
 including trade secrets, belonging to Gaussian, Inc.
  
 This software is provided under written license and may be
 used, copied, transmitted, or stored only in accord with that
 written license.
  
 The following legend is applicable only to US Government
 contracts under FAR:
  
                    RESTRICTED RIGHTS LEGEND
  
 Use, reproduction and disclosure by the US Government is
 subject to restrictions as set forth in subparagraphs (a)
 and (c) of the Commercial Computer Software - Restricted
 Rights clause in FAR 52.227-19.
  
 Gaussian, Inc.
 340 Quinnipiac St., Bldg. 40, Wallingford CT 06492
  
  
 ---------------------------------------------------------------
 Warning -- This program may not be used in any manner that
 competes with the business of Gaussian, Inc. or will provide
 assistance to any competitor of Gaussian, Inc.  The licensee
 of this program is prohibited from giving any competitor of
 Gaussian, Inc. access to this program.  By using this program,
 the user acknowledges that Gaussian, Inc. is engaged in the
 business of creating and licensing software in the field of
 computational chemistry and represents and warrants to the
 licensee that it is not a competitor of Gaussian, Inc. and that
 it will not use this program in any manner prohibited above.
 ---------------------------------------------------------------
  

 Cite this work as:
 Gaussian 16, Revision B.01,
 M. J. Frisch, G. W. Trucks, H. B. Schlegel, G. E. Scuseria, 
 M. A. Robb, J. R. Cheeseman, G. Scalmani, V. Barone, 
 G. A. Petersson, H. Nakatsuji, X. Li, M. Caricato, A. V. Marenich, 
 J. Bloino, B. G. Janesko, R. Gomperts, B. Mennucci, H. P. Hratchian, 
 J. V. Ortiz, A. F. Izmaylov, J. L. Sonnenberg, D. Williams-Young, 
 F. Ding, F. Lipparini, F. Egidi, J. Goings, B. Peng, A. Petrone, 
 T. Henderson, D. Ranasinghe, V. G. Zakrzewski, J. Gao, N. Rega, 
 G. Zheng, W. Liang, M. Hada, M. Ehara, K. Toyota, R. Fukuda, 
 J. Hasegawa, M. Ishida, T. Nakajima, Y. Honda, O. Kitao, H. Nakai, 
 T. Vreven, K. Throssell, J. A. Montgomery, Jr., J. E. Peralta, 
 F. Ogliaro, M. J. Bearpark, J. J. Heyd, E. N. Brothers, K. N. Kudin, 
 V. N. Staroverov, T. A. Keith, R. Kobayashi, J. Normand, 
 K. Raghavachari, A. P. Rendell, J. C. Burant, S. S. Iyengar, 
 J. Tomasi, M. Cossi, J. M. Millam, M. Klene, C. Adamo, R. Cammi, 
 J. W. Ochterski, R. L. Martin, K. Morokuma, O. Farkas, 
 J. B. Foresman, and D. J. Fox, Gaussian, Inc., Wallingford CT, 2016.
 
 ******************************************
 Gaussian 16:  EM64L-G16RevB.01 20-Dec-2017
                25-Mar-2022 
 ******************************************
 %mem=10GB
 %nprocshared=4
 Will use up to    4 processors via shared memory.
 --------------------------------
 # opt b3lyp/6-311+g(d,p) scf=xqc
 --------------------------------
 1/18=20,19=15,26=3,38=1/1,3;
 2/9=110,12=2,17=6,18=5,40=1/2;
 3/5=4,6=6,7=111,11=2,25=1,30=1,71=1,74=-5/1,2,3;
 4//1;
 5/5=2,8=3,13=1,38=5/2,8;
 6/7=2,8=2,9=2,10=2,28=1/1;
 7//1,2,3,16;
 1/18=20,19=15,26=3/3(2);
 2/9=110/2;
 99//99;
 2/9=110/2;
 3/5=4,6=6,7=111,11=2,25=1,30=1,71=1,74=-5/1,2,3;
 4/5=5,16=3,69=1/1;
 5/5=2,8=3,13=1,38=5/2,8;
 7//1,2,3,16;
 1/18=20,19=15,26=3/3(-5);
 2/9=110/2;
 6/7=2,8=2,9=2,10=2,19=2,28=1/1;
 99/9=1/99;
 -------------------
 Title Card Required
 -------------------
 Symbolic Z-matrix:
 Charge =  0 Multiplicity = 1
 C                     0.46061  -0.12958   0.00144 
 C                     1.79299  -0.0997   -0.43191 
 C                     2.50089   1.10975  -0.43798 
 C                     1.8764    2.28932  -0.0107 
 C                     0.54402   2.25943   0.42264 
 C                    -0.16388   1.04998   0.42871 
 C                    -0.31729  -1.45865   0.00811 
 C                     0.3072   -2.63822  -0.41916 
 C                    -0.4007   -3.84767  -0.41309 
 C                    -1.73308  -3.87755   0.02026 
 C                    -2.35756  -2.69799   0.44754 
 C                    -1.64967  -1.48854   0.44146 
 H                     3.51819   1.13257  -0.76885 
 H                     2.41689   3.21276  -0.01534 
 H                    -2.27357  -4.801     0.0249 
 Cl                   -2.43396  -0.00714   0.97808 
 Cl                   -1.8372    1.01245   0.97295 
 Cl                   -4.03088  -2.73552   0.99178 
 Cl                   -0.24027   3.74083   0.95925 
 Cl                    0.38359  -5.32907  -0.9497 
 Cl                    1.98052  -2.60068  -0.96339 
 Cl                    2.57728  -1.5811   -0.96851 
 

 GradGradGradGradGradGradGradGradGradGradGradGradGradGradGradGradGradGrad
 Berny optimization.
 Initialization pass.
                           ----------------------------
                           !    Initial Parameters    !
                           ! (Angstroms and Degrees)  !
 --------------------------                            --------------------------
 ! Name  Definition              Value          Derivative Info.                !
 --------------------------------------------------------------------------------
 ! R1    R(1,2)                  1.4014         estimate D2E/DX2                !
 ! R2    R(1,6)                  1.4014         estimate D2E/DX2                !
 ! R3    R(1,7)                  1.54           estimate D2E/DX2                !
 ! R4    R(2,3)                  1.4014         estimate D2E/DX2                !
 ! R5    R(2,22)                 1.76           estimate D2E/DX2                !
 ! R6    R(3,4)                  1.4014         estimate D2E/DX2                !
 ! R7    R(3,13)                 1.07           estimate D2E/DX2                !
 ! R8    R(4,5)                  1.4014         estimate D2E/DX2                !
 ! R9    R(4,14)                 1.07           estimate D2E/DX2                !
 ! R10   R(5,6)                  1.4014         estimate D2E/DX2                !
 ! R11   R(5,19)                 1.76           estimate D2E/DX2                !
 ! R12   R(6,17)                 1.76           estimate D2E/DX2                !
 ! R13   R(7,8)                  1.4014         estimate D2E/DX2                !
 ! R14   R(7,12)                 1.4014         estimate D2E/DX2                !
 ! R15   R(8,9)                  1.4014         estimate D2E/DX2                !
 ! R16   R(8,21)                 1.76           estimate D2E/DX2                !
 ! R17   R(9,10)                 1.4014         estimate D2E/DX2                !
 ! R18   R(9,20)                 1.76           estimate D2E/DX2                !
 ! R19   R(10,11)                1.4014         estimate D2E/DX2                !
 ! R20   R(10,15)                1.07           estimate D2E/DX2                !
 ! R21   R(11,12)                1.4014         estimate D2E/DX2                !
 ! R22   R(11,18)                1.76           estimate D2E/DX2                !
 ! R23   R(12,16)                1.76           estimate D2E/DX2                !
 ! R24   R(16,17)                1.1814         estimate D2E/DX2                !
 ! R25   R(21,22)                1.1814         estimate D2E/DX2                !
 ! A1    A(2,1,6)              120.0            estimate D2E/DX2                !
 ! A2    A(2,1,7)              120.0            estimate D2E/DX2                !
 ! A3    A(6,1,7)              120.0            estimate D2E/DX2                !
 ! A4    A(1,2,3)              120.0            estimate D2E/DX2                !
 ! A5    A(1,2,22)             120.0            estimate D2E/DX2                !
 ! A6    A(3,2,22)             120.0            estimate D2E/DX2                !
 ! A7    A(2,3,4)              120.0            estimate D2E/DX2                !
 ! A8    A(2,3,13)             120.0            estimate D2E/DX2                !
 ! A9    A(4,3,13)             120.0            estimate D2E/DX2                !
 ! A10   A(3,4,5)              120.0            estimate D2E/DX2                !
 ! A11   A(3,4,14)             120.0            estimate D2E/DX2                !
 ! A12   A(5,4,14)             120.0            estimate D2E/DX2                !
 ! A13   A(4,5,6)              120.0            estimate D2E/DX2                !
 ! A14   A(4,5,19)             120.0            estimate D2E/DX2                !
 ! A15   A(6,5,19)             120.0            estimate D2E/DX2                !
 ! A16   A(1,6,5)              120.0            estimate D2E/DX2                !
 ! A17   A(1,6,17)             120.0            estimate D2E/DX2                !
 ! A18   A(5,6,17)             120.0            estimate D2E/DX2                !
 ! A19   A(1,7,8)              120.0            estimate D2E/DX2                !
 ! A20   A(1,7,12)             120.0            estimate D2E/DX2                !
 ! A21   A(8,7,12)             120.0            estimate D2E/DX2                !
 ! A22   A(7,8,9)              120.0            estimate D2E/DX2                !
 ! A23   A(7,8,21)             120.0            estimate D2E/DX2                !
 ! A24   A(9,8,21)             120.0            estimate D2E/DX2                !
 ! A25   A(8,9,10)             120.0            estimate D2E/DX2                !
 ! A26   A(8,9,20)             120.0            estimate D2E/DX2                !
 ! A27   A(10,9,20)            120.0            estimate D2E/DX2                !
 ! A28   A(9,10,11)            120.0            estimate D2E/DX2                !
 ! A29   A(9,10,15)            120.0            estimate D2E/DX2                !
 ! A30   A(11,10,15)           120.0            estimate D2E/DX2                !
 ! A31   A(10,11,12)           120.0            estimate D2E/DX2                !
 ! A32   A(10,11,18)           120.0            estimate D2E/DX2                !
 ! A33   A(12,11,18)           120.0            estimate D2E/DX2                !
 ! A34   A(7,12,11)            120.0            estimate D2E/DX2                !
 ! A35   A(7,12,16)            120.0            estimate D2E/DX2                !
 ! A36   A(11,12,16)           120.0            estimate D2E/DX2                !
 ! A37   A(12,16,17)           120.0            estimate D2E/DX2                !
 ! A38   A(6,17,16)            120.0            estimate D2E/DX2                !
 ! A39   A(8,21,22)            120.0            estimate D2E/DX2                !
 ! A40   A(2,22,21)            120.0            estimate D2E/DX2                !
 ! D1    D(6,1,2,3)              0.0001         estimate D2E/DX2                !
 ! D2    D(6,1,2,22)           180.0            estimate D2E/DX2                !
 ! D3    D(7,1,2,3)           -180.0            estimate D2E/DX2                !
 ! D4    D(7,1,2,22)            -0.0001         estimate D2E/DX2                !
 ! D5    D(2,1,6,5)             -0.0001         estimate D2E/DX2                !
 ! D6    D(2,1,6,17)           180.0            estimate D2E/DX2                !
 ! D7    D(7,1,6,5)            180.0            estimate D2E/DX2                !
 ! D8    D(7,1,6,17)             0.0            estimate D2E/DX2                !
 ! D9    D(2,1,7,8)             -0.0001         estimate D2E/DX2                !
 ! D10   D(2,1,7,12)           179.9998         estimate D2E/DX2                !
 ! D11   D(6,1,7,8)            179.9999         estimate D2E/DX2                !
 ! D12   D(6,1,7,12)            -0.0002         estimate D2E/DX2                !
 ! D13   D(1,2,3,4)              0.0            estimate D2E/DX2                !
 ! D14   D(1,2,3,13)           180.0            estimate D2E/DX2                !
 ! D15   D(22,2,3,4)          -179.9999         estimate D2E/DX2                !
 ! D16   D(22,2,3,13)            0.0001         estimate D2E/DX2                !
 ! D17   D(1,2,22,21)            0.0002         estimate D2E/DX2                !
 ! D18   D(3,2,22,21)         -179.9999         estimate D2E/DX2                !
 ! D19   D(2,3,4,5)             -0.0001         estimate D2E/DX2                !
 ! D20   D(2,3,4,14)           180.0            estimate D2E/DX2                !
 ! D21   D(13,3,4,5)           179.9999         estimate D2E/DX2                !
 ! D22   D(13,3,4,14)            0.0            estimate D2E/DX2                !
 ! D23   D(3,4,5,6)              0.0001         estimate D2E/DX2                !
 ! D24   D(3,4,5,19)          -179.9999         estimate D2E/DX2                !
 ! D25   D(14,4,5,6)          -180.0            estimate D2E/DX2                !
 ! D26   D(14,4,5,19)            0.0            estimate D2E/DX2                !
 ! D27   D(4,5,6,1)              0.0            estimate D2E/DX2                !
 ! D28   D(4,5,6,17)           179.9999         estimate D2E/DX2                !
 ! D29   D(19,5,6,1)           180.0            estimate D2E/DX2                !
 ! D30   D(19,5,6,17)           -0.0001         estimate D2E/DX2                !
 ! D31   D(1,6,17,16)            0.0006         estimate D2E/DX2                !
 ! D32   D(5,6,17,16)         -179.9994         estimate D2E/DX2                !
 ! D33   D(1,7,8,9)            179.9999         estimate D2E/DX2                !
 ! D34   D(1,7,8,21)             0.0001         estimate D2E/DX2                !
 ! D35   D(12,7,8,9)             0.0001         estimate D2E/DX2                !
 ! D36   D(12,7,8,21)         -179.9998         estimate D2E/DX2                !
 ! D37   D(1,7,12,11)         -179.9999         estimate D2E/DX2                !
 ! D38   D(1,7,12,16)            0.0            estimate D2E/DX2                !
 ! D39   D(8,7,12,11)           -0.0001         estimate D2E/DX2                !
 ! D40   D(8,7,12,16)          179.9999         estimate D2E/DX2                !
 ! D41   D(7,8,9,10)             0.0            estimate D2E/DX2                !
 ! D42   D(7,8,9,20)           180.0            estimate D2E/DX2                !
 ! D43   D(21,8,9,10)          179.9998         estimate D2E/DX2                !
 ! D44   D(21,8,9,20)           -0.0002         estimate D2E/DX2                !
 ! D45   D(7,8,21,22)            0.0001         estimate D2E/DX2                !
 ! D46   D(9,8,21,22)         -179.9998         estimate D2E/DX2                !
 ! D47   D(8,9,10,11)            0.0            estimate D2E/DX2                !
 ! D48   D(8,9,10,15)         -179.9999         estimate D2E/DX2                !
 ! D49   D(20,9,10,11)         180.0            estimate D2E/DX2                !
 ! D50   D(20,9,10,15)           0.0001         estimate D2E/DX2                !
 ! D51   D(9,10,11,12)           0.0            estimate D2E/DX2                !
 ! D52   D(9,10,11,18)        -179.9998         estimate D2E/DX2                !
 ! D53   D(15,10,11,12)        179.9999         estimate D2E/DX2                !
 ! D54   D(15,10,11,18)          0.0001         estimate D2E/DX2                !
 ! D55   D(10,11,12,7)           0.0            estimate D2E/DX2                !
 ! D56   D(10,11,12,16)       -179.9999         estimate D2E/DX2                !
 ! D57   D(18,11,12,7)         179.9999         estimate D2E/DX2                !
 ! D58   D(18,11,12,16)         -0.0001         estimate D2E/DX2                !
 ! D59   D(7,12,16,17)           0.0005         estimate D2E/DX2                !
 ! D60   D(11,12,16,17)       -179.9995         estimate D2E/DX2                !
 ! D61   D(12,16,17,6)          -0.0008         estimate D2E/DX2                !
 ! D62   D(8,21,22,2)           -0.0002         estimate D2E/DX2                !
 --------------------------------------------------------------------------------
 Trust Radius=3.00D-01 FncErr=1.00D-07 GrdErr=1.00D-06 EigMax=2.50D+02 EigMin=1.00D-04
 Number of steps in this run=    132 maximum allowed number of steps=    132.
 GradGradGradGradGradGradGradGradGradGradGradGradGradGradGradGradGradGrad

                          Input orientation:                          
 ---------------------------------------------------------------------
 Center     Atomic      Atomic             Coordinates (Angstroms)
 Number     Number       Type             X           Y           Z
 ---------------------------------------------------------------------
      1          6           0        0.460613   -0.129583    0.001440
      2          6           0        1.792994   -0.099698   -0.431906
      3          6           0        2.500888    1.109754   -0.437979
      4          6           0        1.876400    2.289319   -0.010704
      5          6           0        0.544018    2.259433    0.422641
      6          6           0       -0.163875    1.049982    0.428713
      7          6           0       -0.317292   -1.458651    0.008114
      8          6           0        0.307195   -2.638216   -0.419161
      9          6           0       -0.400698   -3.847667   -0.413086
     10          6           0       -1.733078   -3.877553    0.020263
     11          6           0       -2.357565   -2.697988    0.447539
     12          6           0       -1.649672   -1.488537    0.441464
     13          1           0        3.518190    1.132572   -0.768848
     14          1           0        2.416893    3.212761   -0.015340
     15          1           0       -2.273569   -4.800997    0.024903
     16         17           0       -2.433957   -0.007137    0.978076
     17         17           0       -1.837196    1.012449    0.972947
     18         17           0       -4.030882   -2.735523    0.991781
     19         17           0       -0.240268    3.740834    0.959246
     20         17           0        0.383588   -5.329067   -0.949696
     21         17           0        1.980516   -2.600682   -0.963395
     22         17           0        2.577281   -1.581099   -0.968512
 ---------------------------------------------------------------------
                    Distance matrix (angstroms):
                    1          2          3          4          5
     1  C    0.000000
     2  C    1.401400   0.000000
     3  C    2.427296   1.401400   0.000000
     4  C    2.802800   2.427296   1.401400   0.000000
     5  C    2.427296   2.802800   2.427296   1.401400   0.000000
     6  C    1.401400   2.427296   2.802800   2.427296   1.401400
     7  C    1.540000   2.548270   3.838989   4.342800   3.838989
     8  C    2.548270   2.941400   4.342800   5.187469   4.975106
     9  C    3.838989   4.342800   5.744200   6.558176   6.235992
    10  C    4.342800   5.187469   6.558176   7.145600   6.558176
    11  C    3.838989   4.975106   6.235992   6.558176   5.744200
    12  C    2.548270   3.813607   4.975106   5.187469   4.342800
    13  H    3.396345   2.146700   1.070000   2.146700   3.396345
    14  H    3.872800   3.396345   2.146700   1.070000   2.146700
    15  H    5.412800   6.232802   7.612271   8.215600   7.612271
    16  Cl   3.057342   4.456874   5.254079   4.983028   3.783409
    17  Cl   2.743718   4.048303   4.562800   4.048303   2.743718
    18  Cl   5.286324   6.549198   7.713260   7.819846   6.797295
    19  Cl   4.048303   4.562800   4.048303   2.743718   1.760000
    20  Cl   5.286324   5.440665   6.797295   7.819846   7.713260
    21  Cl   3.057342   2.563702   3.783409   4.983028   5.254079
    22  Cl   2.743718   1.760000   2.743718   4.048303   4.562800
                    6          7          8          9         10
     6  C    0.000000
     7  C    2.548270   0.000000
     8  C    3.813607   1.401400   0.000000
     9  C    4.975106   2.427296   1.401400   0.000000
    10  C    5.187469   2.802800   2.427296   1.401400   0.000000
    11  C    4.342800   2.427296   2.802800   2.427296   1.401400
    12  C    2.941400   1.401400   2.427296   2.802800   2.427296
    13  H    3.872800   4.693509   4.965039   6.347206   7.300676
    14  H    3.396345   5.412800   6.232802   7.612271   8.215600
    15  H    6.232802   3.872800   3.396345   2.146700   1.070000
    16  Cl   2.563702   2.743718   4.048303   4.562800   4.048303
    17  Cl   1.760000   3.057342   4.456874   5.254079   4.983028
    18  Cl   5.440665   4.048303   4.562800   4.048303   2.743718
    19  Cl   2.743718   5.286324   6.549198   7.713260   7.819846
    20  Cl   6.549198   4.048303   2.743718   1.760000   2.743718
    21  Cl   4.456874   2.743718   1.760000   2.743718   4.048303
    22  Cl   4.048303   3.057342   2.563702   3.783409   4.983028
                   11         12         13         14         15
    11  C    0.000000
    12  C    1.401400   0.000000
    13  H    7.118798   5.919617   0.000000
    14  H    7.612271   6.232802   2.471400   0.000000
    15  H    2.146700   3.396345   8.329571   9.285600   0.000000
    16  Cl   2.743718   1.760000   6.307038   5.906383   4.890332
    17  Cl   3.783409   2.563702   5.632800   4.890332   5.906383
    18  Cl   1.760000   2.743718   8.663168   8.830073   2.879094
    19  Cl   6.797295   5.440665   4.890332   2.879094   8.830073
    20  Cl   4.048303   4.562800   7.184095   8.830073   2.879094
    21  Cl   4.562800   4.048303   4.042212   5.906383   4.890332
    22  Cl   5.254079   4.456874   2.879094   4.890332   5.906383
                   16         17         18         19         20
    16  Cl   0.000000
    17  Cl   1.181400   0.000000
    18  Cl   3.161400   4.342800   0.000000
    19  Cl   4.342800   3.161400   7.504200   0.000000
    20  Cl   6.322800   6.988795   5.475705   9.289584   0.000000
    21  Cl   5.475705   5.601701   6.322800   6.988795   3.161400
    22  Cl   5.601701   5.475705   6.988795   6.322800   4.342800
                   21         22
    21  Cl   0.000000
    22  Cl   1.181400   0.000000
 Stoichiometry    C12H3Cl7
 Framework group  C1[X(C12H3Cl7)]
 Deg. of freedom    60
 Full point group                 C1      NOp   1
 Largest Abelian subgroup         C1      NOp   1
 Largest concise Abelian subgroup C1      NOp   1
                         Standard orientation:                         
 ---------------------------------------------------------------------
 Center     Atomic      Atomic             Coordinates (Angstroms)
 Number     Number       Type             X           Y           Z
 ---------------------------------------------------------------------
      1          6           0        0.837764   -0.720830   -0.000001
      2          6           0        0.868163   -2.121900    0.000001
      3          6           0        2.096725   -2.796110    0.000004
      4          6           0        3.294888   -2.069248    0.000004
      5          6           0        3.264489   -0.668178    0.000000
      6          6           0        2.035928    0.006031   -0.000002
      7          6           0       -0.512303    0.020059   -0.000002
      8          6           0       -1.710467   -0.706802   -0.000003
      9          6           0       -2.939028   -0.032593   -0.000003
     10          6           0       -2.969427    1.368477   -0.000002
     11          6           0       -1.771264    2.095338   -0.000000
     12          6           0       -0.542702    1.421129   -0.000000
     13          1           0        2.119935   -3.865858    0.000006
     14          1           0        4.232922   -2.584022    0.000006
     15          1           0       -3.907461    1.883251    0.000000
     16         17           0        0.962055    2.333985    0.000003
     17         17           0        1.997750    1.765617   -0.000006
     18         17           0       -1.809441    3.854924    0.000006
     19         17           0        4.769247    0.244677   -0.000003
     20         17           0       -4.443786   -0.945448   -0.000004
     21         17           0       -1.672289   -2.466388    0.000000
     22         17           0       -0.636594   -3.034756    0.000004
 ---------------------------------------------------------------------
 Rotational constants (GHZ):           0.2925914           0.1950663           0.1170385
 Standard basis: 6-311+G(d,p) (5D, 7F)
 There are   511 symmetry adapted cartesian basis functions of A   symmetry.
 There are   492 symmetry adapted basis functions of A   symmetry.
   492 basis functions,   827 primitive gaussians,   511 cartesian basis functions
    97 alpha electrons       97 beta electrons
       nuclear repulsion energy      2618.0399267319 Hartrees.
 NAtoms=   22 NActive=   22 NUniq=   22 SFac= 1.00D+00 NAtFMM=   60 NAOKFM=F Big=F
 Integral buffers will be    131072 words long.
 Raffenetti 2 integral format.
 Two-electron integral symmetry is turned on.
 One-electron integrals computed using PRISM.
 NBasis=   492 RedAO= T EigKep=  1.21D-06  NBF=   492
 NBsUse=   484 1.00D-06 EigRej=  7.57D-07 NBFU=   484
 ExpMin= 4.38D-02 ExpMax= 1.06D+05 ExpMxC= 3.62D+03 IAcc=3 IRadAn=         5 AccDes= 0.00D+00
 Harris functional with IExCor=  402 and IRadAn=       5 diagonalized for initial guess.
 HarFok:  IExCor=  402 AccDes= 0.00D+00 IRadAn=         5 IDoV= 1 UseB2=F ITyADJ=14
 ICtDFT=  3500011 ScaDFX=  1.000000  1.000000  1.000000  1.000000
 FoFCou: FMM=F IPFlag=           0 FMFlag=      100000 FMFlg1=           0
         NFxFlg=           0 DoJE=T BraDBF=F KetDBF=T FulRan=T
         wScrn=  0.000000 ICntrl=       500 IOpCl=  0 I1Cent=   200000004 NGrid=           0
         NMat0=    1 NMatS0=      1 NMatT0=    0 NMatD0=    1 NMtDS0=    0 NMtDT0=    0
 Petite list used in FoFCou.
 Requested convergence on RMS density matrix=1.00D-08 within  32 cycles.
 Requested convergence on MAX density matrix=1.00D-06.
 Requested convergence on             energy=1.00D-06.
 No special actions if energy rises.
 Restarting incremental Fock formation.
 SCF Done:  E(RB3LYP) =  -3677.51779554     A.U. after   22 cycles
            NFock= 22  Conv=0.85D-08     -V/T= 1.9983
 QCSCF skips out because SCF is already converged.

 **********************************************************************

            Population analysis using the SCF Density.

 **********************************************************************

 Orbital symmetries:
       Occupied  (A) (A) (A) (A) (A) (A) (A) (A) (A) (A) (A) (A)
                 (A) (A) (A) (A) (A) (A) (A) (A) (A) (A) (A) (A)
                 (A) (A) (A) (A) (A) (A) (A) (A) (A) (A) (A) (A)
                 (A) (A) (A) (A) (A) (A) (A) (A) (A) (A) (A) (A)
                 (A) (A) (A) (A) (A) (A) (A) (A) (A) (A) (A) (A)
                 (A) (A) (A) (A) (A) (A) (A) (A) (A) (A) (A) (A)
                 (A) (A) (A) (A) (A) (A) (A) (A) (A) (A) (A) (A)
                 (A) (A) (A) (A) (A) (A) (A) (A) (A) (A) (A) (A)
                 (A)
       Virtual   (A) (A) (A) (A) (A) (A) (A) (A) (A) (A) (A) (A)
                 (A) (A) (A) (A) (A) (A) (A) (A) (A) (A) (A) (A)
                 (A) (A) (A) (A) (A) (A) (A) (A) (A) (A) (A) (A)
                 (A) (A) (A) (A) (A) (A) (A) (A) (A) (A) (A) (A)
                 (A) (A) (A) (A) (A) (A) (A) (A) (A) (A) (A) (A)
                 (A) (A) (A) (A) (A) (A) (A) (A) (A) (A) (A) (A)
                 (A) (A) (A) (A) (A) (A) (A) (A) (A) (A) (A) (A)
                 (A) (A) (A) (A) (A) (A) (A) (A) (A) (A) (A) (A)
                 (A) (A) (A) (A) (A) (A) (A) (A) (A) (A) (A) (A)
                 (A) (A) (A) (A) (A) (A) (A) (A) (A) (A) (A) (A)
                 (A) (A) (A) (A) (A) (A) (A) (A) (A) (A) (A) (A)
                 (A) (A) (A) (A) (A) (A) (A) (A) (A) (A) (A) (A)
                 (A) (A) (A) (A) (A) (A) (A) (A) (A) (A) (A) (A)
                 (A) (A) (A) (A) (A) (A) (A) (A) (A) (A) (A) (A)
                 (A) (A) (A) (A) (A) (A) (A) (A) (A) (A) (A) (A)
                 (A) (A) (A) (A) (A) (A) (A) (A) (A) (A) (A) (A)
                 (A) (A) (A) (A) (A) (A) (A) (A) (A) (A) (A) (A)
                 (A) (A) (A) (A) (A) (A) (A) (A) (A) (A) (A) (A)
                 (A) (A) (A) (A) (A) (A) (A) (A) (A) (A) (A) (A)
                 (A) (A) (A) (A) (A) (A) (A) (A) (A) (A) (A) (A)
                 (A) (A) (A) (A) (A) (A) (A) (A) (A) (A) (A) (A)
                 (A) (A) (A) (A) (A) (A) (A) (A) (A) (A) (A) (A)
                 (A) (A) (A) (A) (A) (A) (A) (A) (A) (A) (A) (A)
                 (A) (A) (A) (A) (A) (A) (A) (A) (A) (A) (A) (A)
                 (A) (A) (A) (A) (A) (A) (A) (A) (A) (A) (A) (A)
                 (A) (A) (A) (A) (A) (A) (A) (A) (A) (A) (A) (A)
                 (A) (A) (A) (A) (A) (A) (A) (A) (A) (A) (A) (A)
                 (A) (A) (A) (A) (A) (A) (A) (A) (A) (A) (A) (A)
                 (A) (A) (A) (A) (A) (A) (A) (A) (A) (A) (A) (A)
                 (A) (A) (A) (A) (A) (A) (A) (A) (A) (A) (A) (A)
                 (A) (A) (A) (A) (A) (A) (A) (A) (A) (A) (A) (A)
                 (A) (A) (A) (A) (A) (A) (A) (A) (A) (A) (A) (A)
                 (A) (A) (A)
 The electronic state is 1-A.
 Alpha  occ. eigenvalues -- -101.65533-101.65319-101.65315-101.65176-101.55949
 Alpha  occ. eigenvalues -- -101.55918-101.55714 -10.24438 -10.24396 -10.24077
 Alpha  occ. eigenvalues --  -10.20733 -10.20380 -10.19823 -10.19444 -10.18974
 Alpha  occ. eigenvalues --  -10.17091 -10.17069 -10.16857 -10.16790  -9.64157
 Alpha  occ. eigenvalues --   -9.64153  -9.62025  -9.62012  -9.47414  -9.47384
 Alpha  occ. eigenvalues --   -9.47185  -7.42553  -7.42540  -7.37616  -7.37589
 Alpha  occ. eigenvalues --   -7.37542  -7.37541  -7.37154  -7.37111  -7.36961
 Alpha  occ. eigenvalues --   -7.36926  -7.36508  -7.36479  -7.23855  -7.23823
 Alpha  occ. eigenvalues --   -7.23618  -7.22902  -7.22875  -7.22874  -7.22846
 Alpha  occ. eigenvalues --   -7.22678  -7.22649  -1.38594  -1.38523  -0.91460
 Alpha  occ. eigenvalues --   -0.90356  -0.88208  -0.86456  -0.84243  -0.82183
 Alpha  occ. eigenvalues --   -0.81304  -0.79300  -0.78814  -0.73295  -0.71795
 Alpha  occ. eigenvalues --   -0.71751  -0.71378  -0.70361  -0.69077  -0.66700
 Alpha  occ. eigenvalues --   -0.62162  -0.59480  -0.58386  -0.56402  -0.55669
 Alpha  occ. eigenvalues --   -0.50261  -0.49376  -0.48686  -0.47154  -0.44791
 Alpha  occ. eigenvalues --   -0.42415  -0.42153  -0.42026  -0.41356  -0.40743
 Alpha  occ. eigenvalues --   -0.38386  -0.37572  -0.37081  -0.35598  -0.34231
 Alpha  occ. eigenvalues --   -0.33523  -0.32809  -0.32348  -0.31699  -0.30631
 Alpha  occ. eigenvalues --   -0.28641  -0.27917  -0.26272  -0.20722  -0.20484
 Alpha  occ. eigenvalues --   -0.17546  -0.13545
 Alpha virt. eigenvalues --   -0.06621  -0.05384  -0.02613  -0.01376  -0.00828
 Alpha virt. eigenvalues --   -0.00311   0.00500   0.00747   0.01226   0.01690
 Alpha virt. eigenvalues --    0.02193   0.02210   0.02361   0.02932   0.03336
 Alpha virt. eigenvalues --    0.04015   0.04849   0.05657   0.06146   0.06337
 Alpha virt. eigenvalues --    0.06759   0.07287   0.07495   0.07790   0.08362
 Alpha virt. eigenvalues --    0.08796   0.09272   0.09706   0.09919   0.10000
 Alpha virt. eigenvalues --    0.10750   0.10870   0.11175   0.11463   0.11489
 Alpha virt. eigenvalues --    0.12325   0.12657   0.12710   0.14030   0.14058
 Alpha virt. eigenvalues --    0.14373   0.14435   0.15152   0.15599   0.15816
 Alpha virt. eigenvalues --    0.15900   0.16416   0.17120   0.17512   0.17604
 Alpha virt. eigenvalues --    0.17908   0.17994   0.18475   0.18488   0.18823
 Alpha virt. eigenvalues --    0.19393   0.19487   0.19810   0.20836   0.21180
 Alpha virt. eigenvalues --    0.21555   0.21766   0.22020   0.22363   0.22709
 Alpha virt. eigenvalues --    0.23168   0.23264   0.23724   0.23973   0.25073
 Alpha virt. eigenvalues --    0.25219   0.25372   0.26130   0.26230   0.26611
 Alpha virt. eigenvalues --    0.27160   0.27535   0.27821   0.27926   0.28483
 Alpha virt. eigenvalues --    0.28754   0.29050   0.29197   0.29266   0.30033
 Alpha virt. eigenvalues --    0.30148   0.31646   0.32799   0.32994   0.33481
 Alpha virt. eigenvalues --    0.33964   0.34479   0.35682   0.36327   0.37057
 Alpha virt. eigenvalues --    0.38220   0.39052   0.40932   0.42443   0.44025
 Alpha virt. eigenvalues --    0.44172   0.44447   0.45011   0.45438   0.45668
 Alpha virt. eigenvalues --    0.45963   0.46057   0.46695   0.47607   0.48585
 Alpha virt. eigenvalues --    0.49127   0.49261   0.49647   0.50557   0.50901
 Alpha virt. eigenvalues --    0.52486   0.53422   0.53592   0.55233   0.55466
 Alpha virt. eigenvalues --    0.55870   0.56377   0.56567   0.58170   0.59460
 Alpha virt. eigenvalues --    0.59678   0.59905   0.60656   0.60916   0.61431
 Alpha virt. eigenvalues --    0.61876   0.62633   0.63145   0.63276   0.65039
 Alpha virt. eigenvalues --    0.66433   0.66637   0.67570   0.67758   0.67982
 Alpha virt. eigenvalues --    0.68706   0.68749   0.70215   0.71266   0.72252
 Alpha virt. eigenvalues --    0.72506   0.72838   0.73139   0.75820   0.78840
 Alpha virt. eigenvalues --    0.80057   0.80258   0.82033   0.82281   0.83110
 Alpha virt. eigenvalues --    0.83359   0.84411   0.84448   0.85776   0.85938
 Alpha virt. eigenvalues --    0.86339   0.86426   0.86783   0.87246   0.87692
 Alpha virt. eigenvalues --    0.88611   0.88843   0.89183   0.89374   0.90516
 Alpha virt. eigenvalues --    0.91319   0.92259   0.93688   0.94736   0.95495
 Alpha virt. eigenvalues --    0.96386   0.96643   0.97075   0.97548   0.97677
 Alpha virt. eigenvalues --    0.98302   0.99114   1.00071   1.00769   1.01240
 Alpha virt. eigenvalues --    1.02836   1.02908   1.04628   1.05727   1.06607
 Alpha virt. eigenvalues --    1.08647   1.09287   1.10108   1.12509   1.16330
 Alpha virt. eigenvalues --    1.16845   1.17883   1.18372   1.22599   1.23856
 Alpha virt. eigenvalues --    1.24262   1.25473   1.26406   1.27200   1.27204
 Alpha virt. eigenvalues --    1.27739   1.29218   1.31195   1.31406   1.32934
 Alpha virt. eigenvalues --    1.33597   1.34628   1.35430   1.37737   1.38724
 Alpha virt. eigenvalues --    1.40555   1.44593   1.44922   1.46737   1.47588
 Alpha virt. eigenvalues --    1.49632   1.50364   1.52120   1.52573   1.53849
 Alpha virt. eigenvalues --    1.56118   1.58139   1.59066   1.61869   1.63528
 Alpha virt. eigenvalues --    1.67514   1.68087   1.70863   1.71959   1.76220
 Alpha virt. eigenvalues --    1.77908   1.78376   1.78457   1.78943   1.80228
 Alpha virt. eigenvalues --    1.83029   1.84587   1.87432   1.87489   1.88993
 Alpha virt. eigenvalues --    1.90271   1.93512   1.95529   1.96034   1.97941
 Alpha virt. eigenvalues --    1.99193   2.00261   2.02228   2.03580   2.05983
 Alpha virt. eigenvalues --    2.08024   2.09704   2.10420   2.10455   2.14082
 Alpha virt. eigenvalues --    2.15876   2.16489   2.19371   2.21035   2.22868
 Alpha virt. eigenvalues --    2.23638   2.24935   2.26650   2.27385   2.28104
 Alpha virt. eigenvalues --    2.29331   2.29719   2.30710   2.33949   2.36311
 Alpha virt. eigenvalues --    2.36683   2.37634   2.39129   2.41371   2.42200
 Alpha virt. eigenvalues --    2.42573   2.44495   2.45876   2.48180   2.48910
 Alpha virt. eigenvalues --    2.52166   2.55493   2.56309   2.58880   2.60338
 Alpha virt. eigenvalues --    2.62808   2.64009   2.65389   2.67850   2.69595
 Alpha virt. eigenvalues --    2.70852   2.72397   2.74560   2.75018   2.75301
 Alpha virt. eigenvalues --    2.76898   2.78498   2.81059   2.82205   2.83930
 Alpha virt. eigenvalues --    2.84205   2.86748   2.87597   2.87824   2.94869
 Alpha virt. eigenvalues --    2.95554   2.96921   3.04988   3.09227   3.11108
 Alpha virt. eigenvalues --    3.13734   3.16131   3.16688   3.18248   3.21989
 Alpha virt. eigenvalues --    3.24548   3.25335   3.32364   3.37706   3.40609
 Alpha virt. eigenvalues --    3.44558   3.47105   3.58324   3.59788   3.66426
 Alpha virt. eigenvalues --    3.70750   3.80740   3.89645   3.97978   4.01706
 Alpha virt. eigenvalues --    4.05319   4.10485   4.48505   4.83030   4.85106
 Alpha virt. eigenvalues --    9.74320   9.77912   9.79882   9.82950   9.83862
 Alpha virt. eigenvalues --   10.55204  10.57092  23.34621  23.52498  23.84181
 Alpha virt. eigenvalues --   23.87317  23.88573  23.93078  24.00850  24.02355
 Alpha virt. eigenvalues --   24.03193  24.04856  24.09109  24.12430  25.41460
 Alpha virt. eigenvalues --   25.42403  25.82591  25.82990  25.83594  25.97273
 Alpha virt. eigenvalues --   26.00053  26.15526  26.20663  26.21248  26.23503
 Alpha virt. eigenvalues --   26.30649  26.62202  26.65358  26.69366  27.12271
 Alpha virt. eigenvalues --   27.12578  27.30892  27.57255  28.40748  28.55461
 Alpha virt. eigenvalues --  215.75186 215.78429 215.79878 215.91885 215.93061
 Alpha virt. eigenvalues --  216.87074 216.89105
          Condensed to atoms (all electrons):
               1          2          3          4          5          6
     1  C   36.557074   6.257642 -11.469405 -10.056088   0.923899  -0.541171
     2  C    6.257642  35.335366 -18.972882  -7.784527   2.846866  -2.707402
     3  C  -11.469405 -18.972882  31.472645   6.104949  -2.988289   9.239292
     4  C  -10.056088  -7.784527   6.104949  27.912639  -8.018889  -4.143149
     5  C    0.923899   2.846866  -2.988289  -8.018889  20.927014  -5.143119
     6  C   -0.541171  -2.707402   9.239292  -4.143149  -5.143119  36.334991
     7  C   16.013044   2.626511 -12.540028  -4.231174  -0.048598  -6.250885
     8  C   -1.007072   4.689926  -9.893285  -0.318750  -0.516652  -4.227123
     9  C   -3.598708  -1.938100  -0.405663  -0.067754  -0.331192  -1.441094
    10  C   -3.971654   2.280235   1.018660   0.488249  -0.080505   0.811284
    11  C   -4.047140  -1.098730  -0.976103   0.448272   0.479673  -3.216414
    12  C    2.433835  -1.361844  -2.230442  -0.224381  -1.195616   2.864650
    13  H    0.150770   0.149466   0.188411  -0.024644  -0.050971  -0.039604
    14  H   -0.021097  -0.058942  -0.041240   0.562040  -0.151770   0.071052
    15  H    0.015861   0.007126   0.001187   0.000103  -0.000182   0.002360
    16  Cl  -4.115948   0.000990   0.910485   0.837785  -1.178904  -7.932697
    17  Cl  -6.708282  -0.311014   0.863490   2.930291   0.423945 -14.532211
    18  Cl   0.299061  -0.139144  -0.011439  -0.005938  -0.019860   0.034177
    19  Cl   0.663555   0.388939  -0.369917  -2.840943  -0.132725   3.398382
    20  Cl   0.313607  -0.356151  -0.350065  -0.062690   0.001307  -0.247714
    21  Cl  -3.297654  -4.395628   7.406886   1.562439   0.095475   2.385789
    22  Cl  -7.907287  -9.914513   9.693598   3.658500  -0.226827   2.004754
               7          8          9         10         11         12
     1  C   16.013044  -1.007072  -3.598708  -3.971654  -4.047140   2.433835
     2  C    2.626511   4.689926  -1.938100   2.280235  -1.098730  -1.361844
     3  C  -12.540028  -9.893285  -0.405663   1.018660  -0.976103  -2.230442
     4  C   -4.231174  -0.318750  -0.067754   0.488249   0.448272  -0.224381
     5  C   -0.048598  -0.516652  -0.331192  -0.080505   0.479673  -1.195616
     6  C   -6.250885  -4.227123  -1.441094   0.811284  -3.216414   2.864650
     7  C   33.423326   4.161523  -4.083625  -3.538662  -3.027437   5.600805
     8  C    4.161523  48.929785  -6.402337  -9.788497   6.694652   3.599526
     9  C   -4.083625  -6.402337  29.123802  -7.725065  -6.856364   6.790351
    10  C   -3.538662  -9.788497  -7.725065  35.071673  -2.863998 -11.667868
    11  C   -3.027437   6.694652  -6.856364  -2.863998  25.764981  -8.354048
    12  C    5.600805   3.599526   6.790351 -11.667868  -8.354048  35.270279
    13  H    0.048867   0.026006   0.000172  -0.000423   0.001131   0.006294
    14  H   -0.012648   0.000921   0.000176   0.000128  -0.000209  -0.000672
    15  H    0.097659   0.011668  -0.156765   0.418224  -0.076489   0.046367
    16  Cl  -4.759093  -0.496593   1.758249   3.297187   0.802800 -12.145818
    17  Cl  -2.447038  -0.067527   1.789439   1.734107   1.509721 -11.058118
    18  Cl   0.339191   0.675957  -0.802518  -2.530843  -0.417165   3.598961
    19  Cl   0.234158  -0.216300  -0.005661  -0.032112  -0.093612  -0.046944
    20  Cl   0.284248   5.408871   0.028297  -4.009324  -0.787325   1.247166
    21  Cl  -8.231902 -23.373343  -0.091837   5.811626   0.943438  -4.147211
    22  Cl  -6.791238 -11.289599   0.097147   2.062921   0.812779  -2.283910
              13         14         15         16         17         18
     1  C    0.150770  -0.021097   0.015861  -4.115948  -6.708282   0.299061
     2  C    0.149466  -0.058942   0.007126   0.000990  -0.311014  -0.139144
     3  C    0.188411  -0.041240   0.001187   0.910485   0.863490  -0.011439
     4  C   -0.024644   0.562040   0.000103   0.837785   2.930291  -0.005938
     5  C   -0.050971  -0.151770  -0.000182  -1.178904   0.423945  -0.019860
     6  C   -0.039604   0.071052   0.002360  -7.932697 -14.532211   0.034177
     7  C    0.048867  -0.012648   0.097659  -4.759093  -2.447038   0.339191
     8  C    0.026006   0.000921   0.011668  -0.496593  -0.067527   0.675957
     9  C    0.000172   0.000176  -0.156765   1.758249   1.789439  -0.802518
    10  C   -0.000423   0.000128   0.418224   3.297187   1.734107  -2.530843
    11  C    0.001131  -0.000209  -0.076489   0.802800   1.509721  -0.417165
    12  C    0.006294  -0.000672   0.046367 -12.145818 -11.058118   3.598961
    13  H    0.534806  -0.009302  -0.000000  -0.000553   0.000795   0.000003
    14  H   -0.009302   0.532184   0.000000   0.005452   0.013299  -0.000006
    15  H   -0.000000   0.000000   0.518585   0.009853   0.002822  -0.027321
    16  Cl  -0.000553   0.005452   0.009853  35.742959   7.116113  -1.990633
    17  Cl   0.000795   0.013299   0.002822   7.116113  39.861490  -1.486924
    18  Cl   0.000003  -0.000006  -0.027321  -1.990633  -1.486924  18.932816
    19  Cl   0.000592  -0.034397  -0.000006  -1.177174  -2.231784   0.001254
    20  Cl   0.000157  -0.000003  -0.034878   0.038252   0.047953  -0.041737
    21  Cl  -0.025862   0.003621   0.014791  -0.016346  -0.995757   0.041467
    22  Cl  -0.087373   0.006022   0.003383  -0.377135  -0.148373   0.028698
              19         20         21         22
     1  C    0.663555   0.313607  -3.297654  -7.907287
     2  C    0.388939  -0.356151  -4.395628  -9.914513
     3  C   -0.369917  -0.350065   7.406886   9.693598
     4  C   -2.840943  -0.062690   1.562439   3.658500
     5  C   -0.132725   0.001307   0.095475  -0.226827
     6  C    3.398382  -0.247714   2.385789   2.004754
     7  C    0.234158   0.284248  -8.231902  -6.791238
     8  C   -0.216300   5.408871 -23.373343 -11.289599
     9  C   -0.005661   0.028297  -0.091837   0.097147
    10  C   -0.032112  -4.009324   5.811626   2.062921
    11  C   -0.093612  -0.787325   0.943438   0.812779
    12  C   -0.046944   1.247166  -4.147211  -2.283910
    13  H    0.000592   0.000157  -0.025862  -0.087373
    14  H   -0.034397  -0.000003   0.003621   0.006022
    15  H   -0.000006  -0.034878   0.014791   0.003383
    16  Cl  -1.177174   0.038252  -0.016346  -0.377135
    17  Cl  -2.231784   0.047953  -0.995757  -0.148373
    18  Cl   0.001254  -0.041737   0.041467   0.028698
    19  Cl  18.982483   0.000408   0.004929  -0.026627
    20  Cl   0.000408  19.555468  -3.156784  -1.417500
    21  Cl   0.004929  -3.156784  39.810105   6.124455
    22  Cl  -0.026627  -1.417500   6.124455  32.410671
 Mulliken charges:
               1
     1  C   -0.886843
     2  C    0.455809
     3  C   -0.650844
     4  C   -0.726341
     5  C    0.385919
     6  C   -0.724149
     7  C   -0.867003
     8  C   -0.601756
     9  C    0.319049
    10  C   -0.785343
    11  C    0.357585
    12  C   -0.741362
    13  H    0.131263
    14  H    0.135392
    15  H    0.145653
    16  Cl   0.670768
    17  Cl   0.693560
    18  Cl   0.521943
    19  Cl   0.533501
    20  Cl   0.538439
    21  Cl   0.527304
    22  Cl   0.567456
 Sum of Mulliken charges =  -0.00000
 Mulliken charges with hydrogens summed into heavy atoms:
               1
     1  C   -0.886843
     2  C    0.455809
     3  C   -0.519581
     4  C   -0.590948
     5  C    0.385919
     6  C   -0.724149
     7  C   -0.867003
     8  C   -0.601756
     9  C    0.319049
    10  C   -0.639690
    11  C    0.357585
    12  C   -0.741362
    16  Cl   0.670768
    17  Cl   0.693560
    18  Cl   0.521943
    19  Cl   0.533501
    20  Cl   0.538439
    21  Cl   0.527304
    22  Cl   0.567456
 Electronic spatial extent (au):  <R**2>=           8006.6583
 Charge=             -0.0000 electrons
 Dipole moment (field-independent basis, Debye):
    X=              0.6319    Y=             -1.6836    Z=              0.0000  Tot=              1.7983
 Quadrupole moment (field-independent basis, Debye-Ang):
   XX=           -167.2453   YY=           -142.5037   ZZ=           -156.8515
   XY=              6.7325   XZ=             -0.0000   YZ=             -0.0000
 Traceless Quadrupole moment (field-independent basis, Debye-Ang):
   XX=            -11.7118   YY=             13.0298   ZZ=             -1.3180
   XY=              6.7325   XZ=             -0.0000   YZ=             -0.0000
 Octapole moment (field-independent basis, Debye-Ang**2):
  XXX=            -12.9996  YYY=            -35.3877  ZZZ=              0.0000  XYY=             17.2061
  XXY=              1.4287  XXZ=              0.0001  XZZ=             -2.1005  YZZ=              4.5000
  YYZ=              0.0001  XYZ=             -0.0000
 Hexadecapole moment (field-independent basis, Debye-Ang**3):
 XXXX=          -6489.3483 YYYY=          -3934.3016 ZZZZ=           -189.6812 XXXY=             13.3255
 XXXZ=             -0.0001 YYYX=            193.7435 YYYZ=             -0.0002 ZZZX=             -0.0002
 ZZZY=              0.0000 XXYY=          -1619.8340 XXZZ=          -1112.2279 YYZZ=           -725.9250
 XXYZ=             -0.0002 YYXZ=              0.0000 ZZXY=             49.4258
 N-N= 2.618039926732D+03 E-N=-1.395829034020D+04  KE= 3.683823120742D+03
 Calling FoFJK, ICntrl=      2127 FMM=F ISym2X=0 I1Cent= 0 IOpClX= 0 NMat=1 NMatS=1 NMatT=0.
 ***** Axes restored to original set *****
 -------------------------------------------------------------------
 Center     Atomic                   Forces (Hartrees/Bohr)
 Number     Number              X              Y              Z
 -------------------------------------------------------------------
      1        6          -0.006024572   -0.012733139   -0.000406495
      2        6          -0.054199539    0.081929749    0.033243548
      3        6          -0.022396878   -0.004254466    0.006579842
      4        6          -0.005918666   -0.007919203    0.000462489
      5        6           0.009054824   -0.026401205   -0.007941365
      6        6           0.102170217    0.003777846   -0.032951747
      7        6           0.004878138    0.008345585   -0.000039757
      8        6          -0.103795763   -0.004035169    0.033437728
      9        6          -0.010012561    0.029741917    0.008884486
     10        6           0.002207042    0.003402633   -0.000088022
     11        6           0.029222020    0.005412286   -0.008610903
     12        6           0.046492609   -0.089011606   -0.032033957
     13        1           0.012413810    0.000710766   -0.003956309
     14        1           0.004747383    0.009472799    0.000215040
     15        1          -0.005384844   -0.009023423    0.000079344
     16       17          -1.715184882   -2.712548281    0.055663833
     17       17           1.525591520    2.823756228    0.027684807
     18       17          -0.004800370   -0.002000572    0.001205769
     19       17          -0.001793915    0.006101295    0.001736866
     20       17           0.000841058   -0.005539910   -0.001317531
     21       17          -1.521626289   -2.821990516   -0.028696080
     22       17           1.713519658    2.722806388   -0.053151589
 -------------------------------------------------------------------
 Cartesian Forces:  Max     2.823756228 RMS     0.790921637

 GradGradGradGradGradGradGradGradGradGradGradGradGradGradGradGradGradGrad
 Berny optimization.
 FormGI is forming the generalized inverse of G from B-inverse, IUseBI=4.
 Internal  Forces:  Max     3.025461184 RMS     0.394435358
 Search for a local minimum.
 Step number   1 out of a maximum of  132
 All quantities printed in internal units (Hartrees-Bohrs-Radians)
 Mixed Optimization -- RFO/linear search
 Second derivative matrix not updated -- first step.
 ITU=  0
     Eigenvalues ---    0.01036   0.01292   0.01426   0.01600   0.01677
     Eigenvalues ---    0.01713   0.01839   0.01901   0.01914   0.02070
     Eigenvalues ---    0.02070   0.02070   0.02070   0.02070   0.02070
     Eigenvalues ---    0.02070   0.02070   0.03828   0.04012   0.16000
     Eigenvalues ---    0.16000   0.16000   0.22558   0.23544   0.24531
     Eigenvalues ---    0.25000   0.25000   0.25000   0.25000   0.25000
     Eigenvalues ---    0.25000   0.25000   0.25000   0.25000   0.25000
     Eigenvalues ---    0.27731   0.28927   0.29127   0.29411   0.29456
     Eigenvalues ---    0.29539   0.29539   0.29539   0.37230   0.37230
     Eigenvalues ---    0.37230   0.38603   0.39210   0.40711   0.41585
     Eigenvalues ---    0.44385   0.44767   0.45090   0.45158   0.45389
     Eigenvalues ---    0.45389   0.45389   0.45389  16.13879  16.74783
 RFO step:  Lambda=-1.18443091D+00 EMin= 1.03631774D-02
 Linear search not attempted -- first point.
 Maximum step size (   0.300) exceeded in Quadratic search.
    -- Step size scaled by   0.958
 Iteration  1 RMS(Cart)=  0.02873685 RMS(Int)=  0.00034211
 Iteration  2 RMS(Cart)=  0.00039642 RMS(Int)=  0.00018634
 Iteration  3 RMS(Cart)=  0.00000005 RMS(Int)=  0.00018634
 Variable       Old X    -DE/DX   Delta X   Delta X   Delta X     New X
                                 (Linear)    (Quad)   (Total)
    R1        2.64826   0.21731   0.00000   0.01870   0.01836   2.66663
    R2        2.64826   0.21822   0.00000   0.01924   0.01890   2.66717
    R3        2.91018   0.43617   0.00000   0.01082   0.01004   2.92022
    R4        2.64826  -0.00931   0.00000  -0.00545  -0.00546   2.64281
    R5        3.32592  -0.00026   0.00000   0.06773   0.06792   3.39384
    R6        2.64826  -0.09804   0.00000  -0.01031  -0.01017   2.63809
    R7        2.02201   0.01304   0.00000   0.00803   0.00803   2.03003
    R8        2.64826  -0.09813   0.00000  -0.01035  -0.01021   2.63805
    R9        2.02201   0.01057   0.00000   0.00651   0.00651   2.02851
   R10        2.64826  -0.01188   0.00000  -0.00694  -0.00694   2.64133
   R11        3.32592   0.00646   0.00000   0.00419   0.00419   3.33010
   R12        3.32592   0.01072   0.00000   0.07486   0.07505   3.40096
   R13        2.64826   0.21766   0.00000   0.01894   0.01859   2.66686
   R14        2.64826   0.21819   0.00000   0.01923   0.01888   2.66715
   R15        2.64826  -0.01285   0.00000  -0.00752  -0.00751   2.64075
   R16        3.32592   0.01473   0.00000   0.07747   0.07764   3.40356
   R17        2.64826  -0.09990   0.00000  -0.01140  -0.01125   2.63701
   R18        3.32592   0.00544   0.00000   0.00352   0.00352   3.32944
   R19        2.64826  -0.09996   0.00000  -0.01143  -0.01128   2.63698
   R20        2.02201   0.01051   0.00000   0.00647   0.00647   2.02847
   R21        2.64826  -0.01223   0.00000  -0.00715  -0.00715   2.64111
   R22        3.32592   0.00498   0.00000   0.00322   0.00322   3.32914
   R23        3.32592   0.01074   0.00000   0.07489   0.07507   3.40099
   R24        2.23252   3.02546   0.00000   0.16734   0.16773   2.40025
   R25        2.23252   3.02449   0.00000   0.16729   0.16767   2.40020
    A1        2.09440  -0.28070   0.00000  -0.01488  -0.01438   2.08001
    A2        2.09440   0.14004   0.00000   0.00725   0.00701   2.10140
    A3        2.09440   0.14066   0.00000   0.00763   0.00737   2.10177
    A4        2.09440   0.10040   0.00000   0.00248   0.00230   2.09670
    A5        2.09440   0.16525   0.00000   0.02611   0.02588   2.12027
    A6        2.09440  -0.26564   0.00000  -0.02859  -0.02818   2.06622
    A7        2.09440   0.05856   0.00000   0.00647   0.00637   2.10076
    A8        2.09440  -0.02883   0.00000  -0.00292  -0.00287   2.09153
    A9        2.09440  -0.02972   0.00000  -0.00355  -0.00350   2.09090
   A10        2.09440  -0.03815   0.00000  -0.00356  -0.00352   2.09088
   A11        2.09440   0.01982   0.00000   0.00231   0.00229   2.09668
   A12        2.09440   0.01833   0.00000   0.00125   0.00123   2.09563
   A13        2.09440   0.06490   0.00000   0.01060   0.01051   2.10490
   A14        2.09440  -0.03460   0.00000  -0.00674  -0.00669   2.08770
   A15        2.09440  -0.03030   0.00000  -0.00386  -0.00382   2.09058
   A16        2.09440   0.09500   0.00000  -0.00111  -0.00127   2.09312
   A17        2.09440   0.16146   0.00000   0.02359   0.02334   2.11774
   A18        2.09440  -0.25646   0.00000  -0.02248  -0.02207   2.07233
   A19        2.09440   0.13792   0.00000   0.00584   0.00560   2.09999
   A20        2.09440   0.13954   0.00000   0.00685   0.00660   2.10100
   A21        2.09440  -0.27746   0.00000  -0.01269  -0.01220   2.08219
   A22        2.09440   0.09386   0.00000  -0.00187  -0.00204   2.09236
   A23        2.09440   0.16108   0.00000   0.02338   0.02312   2.11751
   A24        2.09440  -0.25494   0.00000  -0.02151  -0.02108   2.07331
   A25        2.09440   0.06555   0.00000   0.01106   0.01096   2.10535
   A26        2.09440  -0.02964   0.00000  -0.00344  -0.00339   2.09101
   A27        2.09440  -0.03591   0.00000  -0.00762  -0.00757   2.08682
   A28        2.09440  -0.04100   0.00000  -0.00548  -0.00543   2.08897
   A29        2.09440   0.02060   0.00000   0.00281   0.00278   2.09718
   A30        2.09440   0.02040   0.00000   0.00267   0.00264   2.09704
   A31        2.09440   0.06511   0.00000   0.01077   0.01067   2.10506
   A32        2.09440  -0.03575   0.00000  -0.00752  -0.00747   2.08692
   A33        2.09440  -0.02936   0.00000  -0.00325  -0.00320   2.09120
   A34        2.09440   0.09394   0.00000  -0.00179  -0.00197   2.09243
   A35        2.09440   0.16216   0.00000   0.02407   0.02382   2.11821
   A36        2.09440  -0.25610   0.00000  -0.02228  -0.02185   2.07254
   A37        2.09440  -0.30205   0.00000  -0.03115  -0.03066   2.06374
   A38        2.09440  -0.30177   0.00000  -0.03098  -0.03048   2.06391
   A39        2.09440  -0.30153   0.00000  -0.03085  -0.03037   2.06403
   A40        2.09440  -0.30276   0.00000  -0.03172  -0.03123   2.06317
    D1        0.00000   0.00000   0.00000   0.00000   0.00000   0.00000
    D2        3.14159   0.00000   0.00000   0.00000   0.00000   3.14159
    D3       -3.14159   0.00000   0.00000   0.00000   0.00000  -3.14159
    D4       -0.00000   0.00000   0.00000   0.00000   0.00000  -0.00000
    D5       -0.00000  -0.00000   0.00000  -0.00000  -0.00000  -0.00000
    D6        3.14159  -0.00000   0.00000   0.00000   0.00000   3.14159
    D7        3.14159  -0.00000   0.00000  -0.00000  -0.00000   3.14159
    D8        0.00000  -0.00000   0.00000   0.00000   0.00000   0.00000
    D9       -0.00000  -0.00000   0.00000  -0.00000  -0.00000  -0.00000
   D10        3.14159  -0.00000   0.00000  -0.00000  -0.00000   3.14159
   D11        3.14159  -0.00000   0.00000  -0.00000  -0.00000   3.14159
   D12       -0.00000  -0.00000   0.00000  -0.00000  -0.00000  -0.00000
   D13        0.00000  -0.00000   0.00000  -0.00000  -0.00000   0.00000
   D14        3.14159  -0.00000   0.00000   0.00000   0.00000   3.14159
   D15       -3.14159  -0.00000   0.00000  -0.00000  -0.00000  -3.14159
   D16        0.00000  -0.00000   0.00000  -0.00000  -0.00000   0.00000
   D17        0.00000  -0.00000   0.00000  -0.00000  -0.00000   0.00000
   D18       -3.14159  -0.00000   0.00000  -0.00000  -0.00000  -3.14159
   D19       -0.00000  -0.00000   0.00000  -0.00000  -0.00000  -0.00000
   D20        3.14159   0.00000   0.00000   0.00000   0.00000   3.14159
   D21        3.14159  -0.00000   0.00000  -0.00000  -0.00000   3.14159
   D22        0.00000   0.00000   0.00000  -0.00000  -0.00000   0.00000
   D23        0.00000   0.00000   0.00000  -0.00000  -0.00000   0.00000
   D24       -3.14159   0.00000   0.00000   0.00000   0.00000  -3.14159
   D25       -3.14159  -0.00000   0.00000  -0.00000  -0.00000  -3.14159
   D26        0.00000   0.00000   0.00000   0.00000   0.00000   0.00000
   D27       -0.00000   0.00000   0.00000   0.00000   0.00000  -0.00000
   D28        3.14159   0.00000   0.00000   0.00000   0.00000   3.14159
   D29        3.14159  -0.00000   0.00000   0.00000   0.00000   3.14159
   D30       -0.00000   0.00000   0.00000  -0.00000  -0.00000  -0.00000
   D31        0.00001  -0.00000   0.00000  -0.00000  -0.00000   0.00001
   D32       -3.14158  -0.00000   0.00000  -0.00000  -0.00000  -3.14158
   D33        3.14159   0.00000   0.00000   0.00000   0.00000   3.14159
   D34        0.00000   0.00000   0.00000   0.00000   0.00000   0.00000
   D35        0.00000   0.00000   0.00000   0.00000   0.00000   0.00000
   D36       -3.14159   0.00000   0.00000   0.00000   0.00000  -3.14159
   D37       -3.14159  -0.00000   0.00000  -0.00000  -0.00000  -3.14159
   D38        0.00000  -0.00000   0.00000  -0.00000  -0.00000   0.00000
   D39       -0.00000  -0.00000   0.00000  -0.00000  -0.00000  -0.00000
   D40        3.14159  -0.00000   0.00000   0.00000   0.00000   3.14159
   D41       -0.00000  -0.00000   0.00000   0.00000   0.00000  -0.00000
   D42        3.14159  -0.00000   0.00000  -0.00000  -0.00000   3.14159
   D43        3.14159   0.00000   0.00000   0.00000   0.00000   3.14159
   D44       -0.00000   0.00000   0.00000  -0.00000  -0.00000  -0.00000
   D45        0.00000  -0.00000   0.00000  -0.00000  -0.00000   0.00000
   D46       -3.14159  -0.00000   0.00000  -0.00000  -0.00000  -3.14159
   D47       -0.00000  -0.00000   0.00000  -0.00000  -0.00000  -0.00000
   D48       -3.14159   0.00000   0.00000  -0.00000  -0.00000  -3.14159
   D49        3.14159  -0.00000   0.00000  -0.00000  -0.00000   3.14159
   D50        0.00000   0.00000   0.00000  -0.00000  -0.00000   0.00000
   D51        0.00000   0.00000   0.00000  -0.00000   0.00000   0.00000
   D52       -3.14159   0.00000   0.00000  -0.00000  -0.00000  -3.14159
   D53        3.14159  -0.00000   0.00000   0.00000   0.00000   3.14159
   D54        0.00000   0.00000   0.00000  -0.00000  -0.00000   0.00000
   D55        0.00000   0.00000   0.00000   0.00000   0.00000   0.00000
   D56       -3.14159   0.00000   0.00000  -0.00000  -0.00000  -3.14159
   D57        3.14159   0.00000   0.00000   0.00000   0.00000   3.14159
   D58       -0.00000   0.00000   0.00000  -0.00000  -0.00000  -0.00000
   D59        0.00001  -0.00000   0.00000  -0.00000  -0.00000   0.00001
   D60       -3.14158  -0.00000   0.00000  -0.00000  -0.00000  -3.14158
   D61       -0.00001   0.00000   0.00000   0.00000   0.00000  -0.00001
   D62       -0.00000  -0.00000   0.00000   0.00000   0.00000  -0.00000
         Item               Value     Threshold  Converged?
 Maximum Force            3.025461     0.000450     NO 
 RMS     Force            0.394435     0.000300     NO 
 Maximum Displacement     0.143793     0.001800     NO 
 RMS     Displacement     0.028554     0.001200     NO 
 Predicted change in Energy=-6.422140D-01
 GradGradGradGradGradGradGradGradGradGradGradGradGradGradGradGradGradGrad

                          Input orientation:                          
 ---------------------------------------------------------------------
 Center     Atomic      Atomic             Coordinates (Angstroms)
 Number     Number       Type             X           Y           Z
 ---------------------------------------------------------------------
      1          6           0        0.460372   -0.127429    0.001924
      2          6           0        1.802304   -0.087447   -0.432673
      3          6           0        2.503297    1.122692   -0.436342
      4          6           0        1.883022    2.298828   -0.011100
      5          6           0        0.555685    2.266346    0.420095
      6          6           0       -0.159945    1.065756    0.430381
      7          6           0       -0.320073   -1.461167    0.008558
      8          6           0        0.302287   -2.652947   -0.420310
      9          6           0       -0.412049   -3.853955   -0.410528
     10          6           0       -1.738925   -3.888439    0.020145
     11          6           0       -2.358421   -2.712488    0.445098
     12          6           0       -1.662250   -1.500599    0.443343
     13          1           0        3.524708    1.147665   -0.768160
     14          1           0        2.424611    3.225619   -0.015468
     15          1           0       -2.280577   -4.815170    0.024550
     16         17           0       -2.510049   -0.014524    1.001758
     17         17           0       -1.868329    1.081591    0.996189
     18         17           0       -4.033667   -2.759569    0.988183
     19         17           0       -0.222591    3.753840    0.955865
     20         17           0        0.366939   -5.340630   -0.946382
     21         17           0        2.012201   -2.665246   -0.985959
     22         17           0        2.651973   -1.568024   -0.990664
 ---------------------------------------------------------------------
                    Distance matrix (angstroms):
                    1          2          3          4          5
     1  C    0.000000
     2  C    1.411118   0.000000
     3  C    2.434835   1.398513   0.000000
     4  C    2.812619   2.424571   1.396019   0.000000
     5  C    2.431895   2.796715   2.415496   1.395997   0.000000
     6  C    1.411404   2.434165   2.801305   2.426744   1.397730
     7  C    1.545314   2.566375   3.853009   4.357933   3.851061
     8  C    2.565446   2.971867   4.370371   5.214043   4.996993
     9  C    3.849446   4.369261   5.767748   6.579030   6.251763
    10  C    4.356884   5.214681   6.581509   7.169501   6.580773
    11  C    3.850263   4.997295   6.254745   6.581127   5.769006
    12  C    2.566314   3.842855   5.000727   5.216427   4.371459
    13  H    3.407206   2.145863   1.074248   2.143233   3.387993
    14  H    3.886061   3.396724   2.146074   1.073443   2.145415
    15  H    5.430306   6.263412   7.639114   8.242923   7.638633
    16  Cl   3.136210   4.545250   5.338073   5.067203   3.865155
    17  Cl   2.805912   4.108752   4.600538   4.070496   2.758873
    18  Cl   5.300685   6.574012   7.735187   7.848131   6.829693
    19  Cl   4.054713   4.558917   4.036291   2.735998   1.762215
    20  Cl   5.299573   5.469927   6.826323   7.844397   7.731039
    21  Cl   3.134422   2.644851   3.858980   5.060541   5.330951
    22  Cl   2.804222   1.795940   2.751241   4.062435   4.592065
                    6          7          8          9         10
     6  C    0.000000
     7  C    2.566888   0.000000
     8  C    3.842666   1.411240   0.000000
     9  C    4.997424   2.430952   1.397424   0.000000
    10  C    5.215891   2.811570   2.426312   1.395446   0.000000
    11  C    4.371343   2.431302   2.798542   2.413173   1.395429
    12  C    2.973763   1.411393   2.435817   2.798282   2.426264
    13  H    3.875549   4.710800   4.994962   6.375121   7.327319
    14  H    3.397605   5.431375   6.263042   7.636956   8.242944
    15  H    6.264748   3.884992   3.397689   2.145838   1.073422
    16  Cl   2.648861   2.806281   4.110083   4.597541   4.070063
    17  Cl   1.799713   3.136579   4.545857   5.334718   5.066616
    18  Cl   5.472657   4.054170   4.560232   4.033632   2.734463
    19  Cl   2.739681   5.301245   6.573908   7.731848   7.847246
    20  Cl   6.573801   4.053903   2.739447   1.761863   2.734538
    21  Cl   4.543635   2.806844   1.801087   2.760641   4.071780
    22  Cl   4.106464   3.137343   2.650167   3.866558   5.068140
                   11         12         13         14         15
    11  C    0.000000
    12  C    1.397616   0.000000
    13  H    7.140307   5.948577   0.000000
    14  H    7.638758   6.264988   2.468735   0.000000
    15  H    2.145738   3.397661   8.359732   9.316367   0.000000
    16  Cl   2.758961   1.799724   6.395434   5.990338   4.904467
    17  Cl   3.865090   2.648737   5.674694   4.904044   5.990477
    18  Cl   1.761706   2.739613   8.687937   8.862232   2.868346
    19  Cl   6.829059   5.472150   4.879207   2.868830   8.861749
    20  Cl   4.033724   4.560129   7.218119   8.858964   2.868476
    21  Cl   4.599183   4.111070   4.107726   5.984500   4.906244
    22  Cl   5.336221   4.546805   2.861144   4.897113   5.992050
                   16         17         18         19         20
    16  Cl   0.000000
    17  Cl   1.270158   0.000000
    18  Cl   3.139565   4.409451   0.000000
    19  Cl   4.408530   3.138630   7.546512   0.000000
    20  Cl   6.359222   7.072123   5.456166   9.309966   0.000000
    21  Cl   5.606076   5.746844   6.360712   7.068921   3.141039
    22  Cl   5.747136   5.603675   7.073429   6.354080   4.410884
                   21         22
    21  Cl   0.000000
    22  Cl   1.270129   0.000000
 Stoichiometry    C12H3Cl7
 Framework group  C1[X(C12H3Cl7)]
 Deg. of freedom    60
 Full point group                 C1      NOp   1
 Largest Abelian subgroup         C1      NOp   1
 Largest concise Abelian subgroup C1      NOp   1
                         Standard orientation:                         
 ---------------------------------------------------------------------
 Center     Atomic      Atomic             Coordinates (Angstroms)
 Number     Number       Type             X           Y           Z
 ---------------------------------------------------------------------
      1          6           0        0.837042   -0.725361   -0.000001
      2          6           0        0.869928   -2.136096    0.000001
      3          6           0        2.095496   -2.809758    0.000004
      4          6           0        3.294136   -2.094125    0.000004
      5          6           0        3.268787   -0.698358    0.000000
      6          6           0        2.053005   -0.008776   -0.000002
      7          6           0       -0.513656    0.025379   -0.000002
      8          6           0       -1.728203   -0.693282   -0.000003
      9          6           0       -2.944418   -0.005085   -0.000003
     10          6           0       -2.971803    1.390092   -0.000002
     11          6           0       -1.773355    2.104896   -0.000000
     12          6           0       -0.545981    1.436402   -0.000000
     13          1           0        2.114980   -3.883829    0.000006
     14          1           0        4.232717   -2.615033    0.000006
     15          1           0       -3.910321    1.911070   -0.000000
     16         17           0        0.968898    2.408076    0.000004
     17         17           0        2.078947    1.790750   -0.000006
     18         17           0       -1.811530    3.866188    0.000006
     19         17           0        4.784705    0.200192   -0.000003
     20         17           0       -4.459508   -0.904342   -0.000004
     21         17           0       -1.750563   -2.494231   -0.000000
     22         17           0       -0.639374   -3.109444    0.000004
 ---------------------------------------------------------------------
 Rotational constants (GHZ):           0.2857614           0.1925095           0.1150222
 Standard basis: 6-311+G(d,p) (5D, 7F)
 There are   511 symmetry adapted cartesian basis functions of A   symmetry.
 There are   492 symmetry adapted basis functions of A   symmetry.
   492 basis functions,   827 primitive gaussians,   511 cartesian basis functions
    97 alpha electrons       97 beta electrons
       nuclear repulsion energy      2579.8844788581 Hartrees.
 NAtoms=   22 NActive=   22 NUniq=   22 SFac= 1.00D+00 NAtFMM=   60 NAOKFM=F Big=F
 Integral buffers will be    131072 words long.
 Raffenetti 2 integral format.
 Two-electron integral symmetry is turned on.
 One-electron integrals computed using PRISM.
 NBasis=   492 RedAO= T EigKep=  1.04D-06  NBF=   492
 NBsUse=   485 1.00D-06 EigRej=  8.40D-07 NBFU=   485
 Initial guess from the checkpoint file:  "./Gau-72138.chk"
 B after Tr=     0.000000   -0.000000   -0.000000
         Rot=    0.999996   -0.000000    0.000000    0.002937 Ang=   0.34 deg.
 ExpMin= 4.38D-02 ExpMax= 1.06D+05 ExpMxC= 3.62D+03 IAcc=3 IRadAn=         5 AccDes= 0.00D+00
 Harris functional with IExCor=  402 and IRadAn=       5 diagonalized for initial guess.
 HarFok:  IExCor=  402 AccDes= 0.00D+00 IRadAn=         5 IDoV= 1 UseB2=F ITyADJ=14
 ICtDFT=  3500011 ScaDFX=  1.000000  1.000000  1.000000  1.000000
 FoFCou: FMM=F IPFlag=           0 FMFlag=      100000 FMFlg1=           0
         NFxFlg=           0 DoJE=T BraDBF=F KetDBF=T FulRan=T
         wScrn=  0.000000 ICntrl=       500 IOpCl=  0 I1Cent=   200000004 NGrid=           0
         NMat0=    1 NMatS0=      1 NMatT0=    0 NMatD0=    1 NMtDS0=    0 NMtDT0=    0
 Petite list used in FoFCou.
 Requested convergence on RMS density matrix=1.00D-08 within  32 cycles.
 Requested convergence on MAX density matrix=1.00D-06.
 Requested convergence on             energy=1.00D-06.
 No special actions if energy rises.
 SCF Done:  E(RB3LYP) =  -3678.45014542     A.U. after   18 cycles
            NFock= 18  Conv=0.60D-08     -V/T= 1.9995
 QCSCF skips out because SCF is already converged.
 Calling FoFJK, ICntrl=      2127 FMM=F ISym2X=0 I1Cent= 0 IOpClX= 0 NMat=1 NMatS=1 NMatT=0.
 ***** Axes restored to original set *****
 -------------------------------------------------------------------
 Center     Atomic                   Forces (Hartrees/Bohr)
 Number     Number              X              Y              Z
 -------------------------------------------------------------------
      1        6          -0.005719451   -0.011396579   -0.000256026
      2        6          -0.059142905    0.070209786    0.032670990
      3        6          -0.017047943   -0.008088692    0.004097507
      4        6          -0.003178156   -0.002703967    0.000539088
      5        6           0.004620713   -0.026444890   -0.006488732
      6        6           0.095550023   -0.006161215   -0.032637199
      7        6           0.004557269    0.007373744   -0.000116527
      8        6          -0.098002134    0.005819714    0.033379890
      9        6          -0.005245016    0.030030815    0.007368035
     10        6          -0.000591700   -0.001528300   -0.000092013
     11        6           0.026530919    0.009531275   -0.006950730
     12        6           0.051556274   -0.077648033   -0.031568142
     13        1           0.009992814    0.000598241   -0.003179833
     14        1           0.003593495    0.007322780    0.000191399
     15        1          -0.004170575   -0.006883726    0.000081146
     16       17          -1.139648618   -1.744871296    0.047778923
     17       17           0.963562378    1.847825001    0.029569483
     18       17          -0.006339207   -0.001853990    0.001740278
     19       17          -0.002533734    0.007369891    0.002218861
     20       17           0.001874789   -0.007057748   -0.001943163
     21       17          -0.955397564   -1.848087671   -0.032332342
     22       17           1.135178330    1.756644859   -0.044070891
 -------------------------------------------------------------------
 Cartesian Forces:  Max     1.848087671 RMS     0.514028481

 GradGradGradGradGradGradGradGradGradGradGradGradGradGradGradGradGradGrad
 Berny optimization.
 Using GEDIIS/GDIIS optimizer.
 FormGI is forming the generalized inverse of G from B-inverse, IUseBI=4.
 Internal  Forces:  Max     1.975955849 RMS     0.257705544
 Search for a local minimum.
 Step number   2 out of a maximum of  132
 All quantities printed in internal units (Hartrees-Bohrs-Radians)
 Mixed Optimization -- RFO/linear search
 Update second derivatives using D2CorX and points    1    2
 DE= -9.32D-01 DEPred=-6.42D-01 R= 1.45D+00
 TightC=F SS=  1.41D+00  RLast= 3.00D-01 DXNew= 5.0454D-01 8.9993D-01
 Trust test= 1.45D+00 RLast= 3.00D-01 DXMaxT set to 5.05D-01
 ITU=  1  0
 Use linear search instead of GDIIS.
 Linear search step of   0.600 exceeds DXMaxT=   0.505 but not scaled.
 Quartic linear search produced a step of  2.00000.
 Iteration  1 RMS(Cart)=  0.04608811 RMS(Int)=  0.01676675
 Iteration  2 RMS(Cart)=  0.01423488 RMS(Int)=  0.00106165
 Iteration  3 RMS(Cart)=  0.00006360 RMS(Int)=  0.00106037
 Iteration  4 RMS(Cart)=  0.00000009 RMS(Int)=  0.00106037
 Variable       Old X    -DE/DX   Delta X   Delta X   Delta X     New X
                                 (Linear)    (Quad)   (Total)
    R1        2.66663   0.13781   0.03673   0.00000   0.03484   2.70147
    R2        2.66717   0.13876   0.03781   0.00000   0.03590   2.70307
    R3        2.92022   0.25966   0.02008   0.00000   0.01583   2.93606
    R4        2.64281  -0.00963  -0.01091   0.00000  -0.01092   2.63189
    R5        3.39384   0.03587   0.13583   0.00000   0.13675   3.53059
    R6        2.63809  -0.06294  -0.02034   0.00000  -0.01952   2.61857
    R7        2.03003   0.01050   0.01605   0.00000   0.01605   2.04609
    R8        2.63805  -0.06339  -0.02042   0.00000  -0.01958   2.61847
    R9        2.02851   0.00813   0.01301   0.00000   0.01301   2.04153
   R10        2.64133  -0.01247  -0.01387   0.00000  -0.01383   2.62750
   R11        3.33010   0.00801   0.00837   0.00000   0.00837   3.33847
   R12        3.40096   0.04635   0.15009   0.00000   0.15100   3.55197
   R13        2.66686   0.13811   0.03719   0.00000   0.03521   2.70206
   R14        2.66715   0.13886   0.03777   0.00000   0.03580   2.70295
   R15        2.64075  -0.01358  -0.01503   0.00000  -0.01501   2.62574
   R16        3.40356   0.05123   0.15529   0.00000   0.15615   3.55971
   R17        2.63701  -0.06437  -0.02250   0.00000  -0.02164   2.61537
   R18        3.32944   0.00737   0.00704   0.00000   0.00704   3.33648
   R19        2.63698  -0.06446  -0.02257   0.00000  -0.02171   2.61527
   R20        2.02847   0.00805   0.01294   0.00000   0.01294   2.04141
   R21        2.64111  -0.01271  -0.01430   0.00000  -0.01427   2.62684
   R22        3.32914   0.00661   0.00645   0.00000   0.00645   3.33559
   R23        3.40099   0.04587   0.15014   0.00000   0.15103   3.55201
   R24        2.40025   1.97596   0.33546   0.00000   0.33759   2.73784
   R25        2.40020   1.97507   0.33535   0.00000   0.33746   2.73766
    A1        2.08001  -0.17507  -0.02876   0.00000  -0.02600   2.05401
    A2        2.10140   0.08715   0.01401   0.00000   0.01268   2.11408
    A3        2.10177   0.08792   0.01475   0.00000   0.01333   2.11510
    A4        2.09670   0.06198   0.00460   0.00000   0.00361   2.10030
    A5        2.12027   0.11982   0.05175   0.00000   0.05033   2.17060
    A6        2.06622  -0.18180  -0.05635   0.00000  -0.05393   2.01228
    A7        2.10076   0.03826   0.01273   0.00000   0.01214   2.11290
    A8        2.09153  -0.01877  -0.00573   0.00000  -0.00544   2.08609
    A9        2.09090  -0.01950  -0.00700   0.00000  -0.00670   2.08420
   A10        2.09088  -0.02671  -0.00704   0.00000  -0.00676   2.08411
   A11        2.09668   0.01400   0.00458   0.00000   0.00444   2.10112
   A12        2.09563   0.01271   0.00246   0.00000   0.00232   2.09795
   A13        2.10490   0.04407   0.02101   0.00000   0.02047   2.12538
   A14        2.08770  -0.02403  -0.01338   0.00000  -0.01311   2.07459
   A15        2.09058  -0.02005  -0.00763   0.00000  -0.00736   2.08322
   A16        2.09312   0.05746  -0.00255   0.00000  -0.00345   2.08967
   A17        2.11774   0.11547   0.04668   0.00000   0.04517   2.16290
   A18        2.07233  -0.17293  -0.04413   0.00000  -0.04171   2.03062
   A19        2.09999   0.08531   0.01119   0.00000   0.00983   2.10982
   A20        2.10100   0.08671   0.01321   0.00000   0.01186   2.11285
   A21        2.08219  -0.17202  -0.02440   0.00000  -0.02168   2.06051
   A22        2.09236   0.05612  -0.00407   0.00000  -0.00502   2.08733
   A23        2.11751   0.11528   0.04624   0.00000   0.04467   2.16218
   A24        2.07331  -0.17140  -0.04216   0.00000  -0.03964   2.03367
   A25        2.10535   0.04480   0.02192   0.00000   0.02136   2.12671
   A26        2.09101  -0.01966  -0.00677   0.00000  -0.00649   2.08452
   A27        2.08682  -0.02514  -0.01515   0.00000  -0.01487   2.07196
   A28        2.08897  -0.02928  -0.01085   0.00000  -0.01053   2.07844
   A29        2.09718   0.01478   0.00557   0.00000   0.00540   2.10258
   A30        2.09704   0.01450   0.00529   0.00000   0.00512   2.10216
   A31        2.10506   0.04415   0.02134   0.00000   0.02078   2.12585
   A32        2.08692  -0.02491  -0.01494   0.00000  -0.01466   2.07226
   A33        2.09120  -0.01924  -0.00640   0.00000  -0.00612   2.08508
   A34        2.09243   0.05622  -0.00393   0.00000  -0.00490   2.08753
   A35        2.11821   0.11636   0.04763   0.00000   0.04612   2.16434
   A36        2.07254  -0.17259  -0.04370   0.00000  -0.04122   2.03132
   A37        2.06374  -0.20336  -0.06131   0.00000  -0.05842   2.00531
   A38        2.06391  -0.20310  -0.06096   0.00000  -0.05805   2.00587
   A39        2.06403  -0.20331  -0.06074   0.00000  -0.05794   2.00608
   A40        2.06317  -0.20425  -0.06246   0.00000  -0.05956   2.00361
    D1        0.00000   0.00000   0.00000   0.00000   0.00000   0.00000
    D2        3.14159   0.00000   0.00000   0.00000   0.00000   3.14159
    D3       -3.14159   0.00000   0.00000   0.00000   0.00000  -3.14159
    D4       -0.00000   0.00000   0.00000   0.00000   0.00000  -0.00000
    D5       -0.00000  -0.00000  -0.00000   0.00000  -0.00000  -0.00000
    D6        3.14159  -0.00000   0.00000   0.00000   0.00000   3.14159
    D7        3.14159  -0.00000  -0.00000   0.00000  -0.00000   3.14159
    D8        0.00000  -0.00000   0.00000   0.00000   0.00000   0.00000
    D9       -0.00000  -0.00000  -0.00000   0.00000  -0.00000  -0.00000
   D10        3.14159  -0.00000  -0.00000   0.00000  -0.00000   3.14159
   D11        3.14159  -0.00000  -0.00000   0.00000  -0.00000   3.14159
   D12       -0.00000  -0.00000  -0.00000   0.00000  -0.00000  -0.00000
   D13        0.00000  -0.00000  -0.00000   0.00000  -0.00000   0.00000
   D14        3.14159  -0.00000   0.00000   0.00000   0.00000   3.14159
   D15       -3.14159  -0.00000  -0.00000   0.00000  -0.00000  -3.14159
   D16        0.00000  -0.00000  -0.00000   0.00000  -0.00000   0.00000
   D17        0.00000  -0.00000  -0.00000   0.00000  -0.00000   0.00000
   D18       -3.14159  -0.00000  -0.00000   0.00000  -0.00000  -3.14159
   D19       -0.00000  -0.00000  -0.00000   0.00000  -0.00000  -0.00000
   D20        3.14159   0.00000   0.00000   0.00000  -0.00000   3.14159
   D21        3.14159  -0.00000  -0.00000   0.00000  -0.00000   3.14159
   D22        0.00000   0.00000  -0.00000   0.00000  -0.00000   0.00000
   D23        0.00000   0.00000  -0.00000   0.00000  -0.00000   0.00000
   D24       -3.14159   0.00000   0.00000   0.00000   0.00000  -3.14159
   D25       -3.14159  -0.00000  -0.00000   0.00000  -0.00000  -3.14159
   D26        0.00000   0.00000   0.00000   0.00000   0.00000   0.00000
[...]
                 (A) (A) (A) (A) (A) (A) (A) (A) (A) (A) (A) (A)
                 (A) (A) (A) (A) (A) (A) (A) (A) (A) (A) (A) (A)
                 (A) (A) (A) (A) (A) (A) (A) (A) (A) (A) (A) (A)
                 (A) (A) (A) (A) (A) (A) (A) (A) (A) (A) (A) (A)
                 (A) (A) (A) (A) (A) (A) (A) (A) (A) (A) (A) (A)
                 (A) (A) (A) (A) (A) (A) (A) (A) (A) (A) (A) (A)
                 (A) (A) (A) (A) (A) (A) (A) (A) (A) (A) (A) (A)
                 (A) (A) (A) (A) (A) (A) (A) (A) (A) (A) (A) (A)
                 (A) (A) (A) (A) (A) (A) (A) (A) (A) (A) (A) (A)
                 (A) (A) (A) (A) (A) (A) (A) (A) (A) (A) (A) (A)
                 (A) (A) (A) (A) (A) (A) (A) (A) (A) (A) (A) (A)
                 (A) (A) (A) (A) (A) (A) (A) (A) (A) (A) (A) (A)
                 (A) (A) (A) (A) (A) (A) (A) (A) (A) (A) (A) (A)
                 (A) (A) (A) (A) (A) (A) (A) (A) (A) (A) (A) (A)
                 (A) (A) (A) (A) (A) (A) (A) (A) (A) (A) (A) (A)
                 (A) (A) (A) (A) (A) (A) (A) (A) (A) (A) (A) (A)
                 (A) (A) (A) (A) (A) (A) (A) (A) (A) (A) (A) (A)
                 (A) (A) (A) (A) (A) (A) (A) (A) (A) (A) (A) (A)
                 (A) (A) (A) (A) (A) (A) (A) (A) (A) (A) (A) (A)
                 (A) (A) (A) (A) (A) (A) (A) (A) (A) (A) (A) (A)
                 (A) (A) (A) (A) (A) (A)
 The electronic state is 1-A.
 Alpha  occ. eigenvalues -- -101.57900-101.57900-101.57886-101.57886-101.57736
 Alpha  occ. eigenvalues -- -101.57541-101.57532 -10.27843 -10.27842 -10.27719
 Alpha  occ. eigenvalues --  -10.27620 -10.27620 -10.27073 -10.27065 -10.24549
 Alpha  occ. eigenvalues --  -10.24119 -10.22677 -10.22083 -10.21750  -9.49362
 Alpha  occ. eigenvalues --   -9.49361  -9.49357  -9.49357  -9.49213  -9.49005
 Alpha  occ. eigenvalues --   -9.48999  -7.25851  -7.25851  -7.25849  -7.25849
 Alpha  occ. eigenvalues --   -7.25699  -7.25486  -7.25476  -7.24839  -7.24839
 Alpha  occ. eigenvalues --   -7.24832  -7.24832  -7.24775  -7.24775  -7.24772
 Alpha  occ. eigenvalues --   -7.24772  -7.24693  -7.24625  -7.24482  -7.24477
 Alpha  occ. eigenvalues --   -7.24439  -7.24420  -0.96450  -0.94523  -0.92141
 Alpha  occ. eigenvalues --   -0.90811  -0.89331  -0.87989  -0.87825  -0.84554
 Alpha  occ. eigenvalues --   -0.84257  -0.80508  -0.76251  -0.74621  -0.74315
 Alpha  occ. eigenvalues --   -0.68274  -0.63584  -0.62522  -0.62236  -0.55092
 Alpha  occ. eigenvalues --   -0.54981  -0.53601  -0.53257  -0.50203  -0.48343
 Alpha  occ. eigenvalues --   -0.47093  -0.47067  -0.46576  -0.45864  -0.45022
 Alpha  occ. eigenvalues --   -0.43747  -0.42502  -0.41571  -0.41300  -0.41078
 Alpha  occ. eigenvalues --   -0.39337  -0.37718  -0.36970  -0.35946  -0.35751
 Alpha  occ. eigenvalues --   -0.34992  -0.34695  -0.33850  -0.33592  -0.33338
 Alpha  occ. eigenvalues --   -0.33140  -0.32862  -0.32585  -0.28508  -0.28268
 Alpha  occ. eigenvalues --   -0.26661  -0.26464
 Alpha virt. eigenvalues --   -0.06435  -0.05994  -0.05866  -0.05139  -0.04516
 Alpha virt. eigenvalues --   -0.02720  -0.00830  -0.00450  -0.00047   0.00665
 Alpha virt. eigenvalues --    0.01246   0.02171   0.02504   0.02667   0.03137
 Alpha virt. eigenvalues --    0.03264   0.04257   0.05106   0.05337   0.05567
 Alpha virt. eigenvalues --    0.05963   0.06021   0.06245   0.06907   0.07667
 Alpha virt. eigenvalues --    0.07777   0.08310   0.08473   0.09402   0.09569
 Alpha virt. eigenvalues --    0.09630   0.10469   0.10591   0.10679   0.10780
 Alpha virt. eigenvalues --    0.11164   0.11669   0.12219   0.12336   0.12749
 Alpha virt. eigenvalues --    0.12810   0.13603   0.13754   0.14127   0.14321
 Alpha virt. eigenvalues --    0.14363   0.14963   0.15373   0.15523   0.16000
 Alpha virt. eigenvalues --    0.16180   0.16846   0.17115   0.17389   0.17716
 Alpha virt. eigenvalues --    0.18167   0.19089   0.19211   0.19453   0.20030
 Alpha virt. eigenvalues --    0.20154   0.20534   0.20742   0.20829   0.21140
 Alpha virt. eigenvalues --    0.21422   0.22084   0.22395   0.22820   0.22908
 Alpha virt. eigenvalues --    0.23155   0.23720   0.23776   0.24429   0.25021
 Alpha virt. eigenvalues --    0.25317   0.25790   0.26379   0.26612   0.26700
 Alpha virt. eigenvalues --    0.27581   0.28394   0.28511   0.28657   0.28791
 Alpha virt. eigenvalues --    0.28978   0.29110   0.29549   0.30164   0.30525
 Alpha virt. eigenvalues --    0.31739   0.32045   0.32147   0.33049   0.33356
 Alpha virt. eigenvalues --    0.35271   0.39631   0.40560   0.41192   0.42233
 Alpha virt. eigenvalues --    0.43966   0.43989   0.44320   0.44812   0.45261
 Alpha virt. eigenvalues --    0.45606   0.46393   0.46755   0.46869   0.47372
 Alpha virt. eigenvalues --    0.47674   0.48171   0.48647   0.49718   0.50430
 Alpha virt. eigenvalues --    0.51102   0.51808   0.51853   0.51974   0.52037
 Alpha virt. eigenvalues --    0.54102   0.56134   0.56552   0.56964   0.57169
 Alpha virt. eigenvalues --    0.57632   0.57767   0.58241   0.59611   0.59829
 Alpha virt. eigenvalues --    0.60316   0.61100   0.61535   0.62486   0.62822
 Alpha virt. eigenvalues --    0.62910   0.63492   0.64160   0.64682   0.66054
 Alpha virt. eigenvalues --    0.66345   0.67815   0.67820   0.68009   0.68307
 Alpha virt. eigenvalues --    0.68924   0.69927   0.71759   0.76327   0.77620
 Alpha virt. eigenvalues --    0.79286   0.79488   0.80663   0.80988   0.81820
 Alpha virt. eigenvalues --    0.82823   0.83176   0.83192   0.83431   0.83872
 Alpha virt. eigenvalues --    0.83905   0.84748   0.84841   0.85453   0.85603
 Alpha virt. eigenvalues --    0.86097   0.86151   0.86375   0.87408   0.87790
 Alpha virt. eigenvalues --    0.88070   0.89433   0.89631   0.89730   0.90078
 Alpha virt. eigenvalues --    0.90222   0.90270   0.92029   0.92628   0.93756
 Alpha virt. eigenvalues --    0.94280   0.94750   0.95193   0.95229   0.95723
 Alpha virt. eigenvalues --    0.96667   0.97504   0.97611   0.98005   0.98488
 Alpha virt. eigenvalues --    0.98940   0.99749   1.00975   1.01983   1.02069
 Alpha virt. eigenvalues --    1.02388   1.04077   1.06268   1.06628   1.07430
 Alpha virt. eigenvalues --    1.10618   1.14859   1.16063   1.17011   1.17835
 Alpha virt. eigenvalues --    1.19652   1.20277   1.22308   1.22891   1.24563
 Alpha virt. eigenvalues --    1.24936   1.26982   1.27425   1.28242   1.28870
 Alpha virt. eigenvalues --    1.29697   1.29863   1.29971   1.30315   1.33896
 Alpha virt. eigenvalues --    1.35644   1.36617   1.38117   1.38492   1.42975
 Alpha virt. eigenvalues --    1.44206   1.47834   1.48084   1.48654   1.50662
 Alpha virt. eigenvalues --    1.55619   1.56408   1.57807   1.58902   1.63184
 Alpha virt. eigenvalues --    1.63542   1.63835   1.66271   1.67920   1.72015
 Alpha virt. eigenvalues --    1.72434   1.75079   1.76566   1.77136   1.77403
 Alpha virt. eigenvalues --    1.80149   1.81336   1.83913   1.85053   1.85975
 Alpha virt. eigenvalues --    1.87480   1.88422   1.92457   1.93527   1.95364
 Alpha virt. eigenvalues --    1.95419   1.96459   1.98886   2.00424   2.02618
 Alpha virt. eigenvalues --    2.03909   2.08277   2.12046   2.12433   2.14931
 Alpha virt. eigenvalues --    2.21083   2.23033   2.23067   2.24349   2.24917
 Alpha virt. eigenvalues --    2.25153   2.26885   2.27442   2.28879   2.30893
 Alpha virt. eigenvalues --    2.32245   2.32683   2.33718   2.34009   2.36068
 Alpha virt. eigenvalues --    2.38650   2.40722   2.40932   2.42551   2.45228
 Alpha virt. eigenvalues --    2.46212   2.47032   2.47865   2.49803   2.49952
 Alpha virt. eigenvalues --    2.53057   2.53234   2.54911   2.56653   2.58867
 Alpha virt. eigenvalues --    2.60692   2.63636   2.65548   2.66330   2.67587
 Alpha virt. eigenvalues --    2.68693   2.69312   2.70374   2.71993   2.74382
 Alpha virt. eigenvalues --    2.74444   2.75160   2.76166   2.80275   2.81538
 Alpha virt. eigenvalues --    2.82195   2.83044   2.88640   2.95753   2.96278
 Alpha virt. eigenvalues --    3.05316   3.08039   3.08459   3.09566   3.12020
 Alpha virt. eigenvalues --    3.12579   3.12662   3.19445   3.22324   3.25487
 Alpha virt. eigenvalues --    3.25928   3.28398   3.36472   3.37843   3.42217
 Alpha virt. eigenvalues --    3.52080   3.55598   3.63138   3.69465   3.78891
 Alpha virt. eigenvalues --    3.84588   3.89459   3.95743   4.02786   4.04205
 Alpha virt. eigenvalues --    4.32462   4.80470   4.80675   9.76733   9.77884
 Alpha virt. eigenvalues --    9.78520   9.81126   9.81450   9.85913   9.86771
 Alpha virt. eigenvalues --   23.32602  23.48264  23.79022  23.82425  23.86577
 Alpha virt. eigenvalues --   23.89999  23.93902  23.94084  23.98101  24.06039
 Alpha virt. eigenvalues --   24.08554  24.12346  25.77496  25.80481  25.80603
 Alpha virt. eigenvalues --   25.84169  25.95840  25.96799  26.01176  26.10641
 Alpha virt. eigenvalues --   26.14330  26.16911  26.21163  26.31971  26.35632
 Alpha virt. eigenvalues --   26.38867  26.54664  26.57257  26.65652  26.71818
 Alpha virt. eigenvalues --   26.80245  26.83234  27.15017 215.76002 215.77291
 Alpha virt. eigenvalues --  215.78007 215.81138 215.81533 215.87435 215.87979
          Condensed to atoms (all electrons):
               1          2          3          4          5          6
     1  C   25.258440  -5.663811  -5.774354  -1.599593  -6.390030   3.083001
     2  C   -5.663811  30.132034  -5.685236  -0.583709   3.921085  -3.102626
     3  C   -5.774354  -5.685236  18.361009   4.012978  -0.184217   2.807046
     4  C   -1.599593  -0.583709   4.012978  18.579041  -2.953658 -10.649975
     5  C   -6.390030   3.921085  -0.184217  -2.953658  23.797660  -3.584357
     6  C    3.083001  -3.102626   2.807046 -10.649975  -3.584357  29.584145
     7  C    9.210218  -0.206195  -4.757936  -1.640858  -3.742898   0.404978
     8  C    2.340369  -4.661741  -1.156162   0.365274  -2.493337  -2.667825
     9  C   -5.944539  -2.103015   0.058170   0.140425  -0.685997  -2.147434
    10  C   -5.060123   0.994639   0.648108   0.130732  -0.192103   0.657563
    11  C   -5.944327  -2.105077   0.058086   0.140170  -0.685634  -2.146445
    12  C    2.339917  -4.659249  -1.155928   0.365266  -2.494002  -2.668204
    13  H    0.049188   0.040379   0.322427  -0.007958  -0.035855  -0.015113
    14  H    0.043185  -0.014001  -0.090890   0.340375   0.007712   0.053146
    15  H    0.017480   0.000734  -0.000094   0.000006   0.000186   0.001569
    16  Cl   0.493615   0.314831  -0.266072  -0.181050   0.178948   0.137071
    17  Cl   0.090597  -0.223516   0.184810   1.082047   0.204451  -2.831464
    18  Cl  -0.158222  -0.050259  -0.004698   0.000266  -0.003707  -0.059571
    19  Cl  -0.751545   0.117402   0.179249  -0.595179  -0.403586   1.174067
    20  Cl  -0.158194  -0.050239  -0.004679   0.000264  -0.003727  -0.059594
    21  Cl   0.493869   0.314395  -0.265971  -0.181270   0.179111   0.138126
    22  Cl   0.594288  -0.552698  -0.946150  -0.303408   0.221796  -0.431780
               7          8          9         10         11         12
     1  C    9.210218   2.340369  -5.944539  -5.060123  -5.944327   2.339917
     2  C   -0.206195  -4.661741  -2.103015   0.994639  -2.105077  -4.659249
     3  C   -4.757936  -1.156162   0.058170   0.648108   0.058086  -1.155928
     4  C   -1.640858   0.365274   0.140425   0.130732   0.140170   0.365266
     5  C   -3.742898  -2.493337  -0.685997  -0.192103  -0.685634  -2.494002
     6  C    0.404978  -2.667825  -2.147434   0.657563  -2.146445  -2.668204
     7  C   21.761667  -0.662873  -6.969184   1.346645  -6.969589  -0.660515
     8  C   -0.662873  47.992385 -14.611847 -16.134989   9.428950  -9.734696
     9  C   -6.969184 -14.611847  34.103445   2.112539  -6.795874   9.429883
    10  C    1.346645 -16.134989   2.112539  36.944794   2.116433 -16.138008
    11  C   -6.969589   9.428950  -6.795874   2.116433  34.104559 -14.615118
    12  C   -0.660515  -9.734696   9.429883 -16.138008 -14.615118  47.995085
    13  H    0.006872   0.001030  -0.000544   0.000060  -0.000544   0.001029
    14  H    0.007682   0.001782   0.000189   0.000016   0.000188   0.001782
    15  H    0.057001   0.097612  -0.024460   0.122914  -0.024476   0.097601
    16  Cl   0.149608  -1.304532   0.843592   0.115969  -1.692449  -0.519227
    17  Cl  -0.000072   0.287898  -0.125286  -0.514936  -0.125081   0.287258
    18  Cl  -0.629605   0.405385  -0.173250  -0.174169  -0.001921   0.222664
    19  Cl  -0.145038  -0.079321  -0.008794  -0.002150  -0.008786  -0.079316
    20  Cl  -0.629576   0.222969  -0.001984  -0.174468  -0.173252   0.405403
    21  Cl   0.149634  -0.519455  -1.692706   0.116329   0.843382  -1.304869
    22  Cl   0.534696   0.247495  -0.219992  -0.484297  -0.220130   0.247810
              13         14         15         16         17         18
     1  C    0.049188   0.043185   0.017480   0.493615   0.090597  -0.158222
     2  C    0.040379  -0.014001   0.000734   0.314831  -0.223516  -0.050259
     3  C    0.322427  -0.090890  -0.000094  -0.266072   0.184810  -0.004698
     4  C   -0.007958   0.340375   0.000006  -0.181050   1.082047   0.000266
     5  C   -0.035855   0.007712   0.000186   0.178948   0.204451  -0.003707
     6  C   -0.015113   0.053146   0.001569   0.137071  -2.831464  -0.059571
     7  C    0.006872   0.007682   0.057001   0.149608  -0.000072  -0.629605
     8  C    0.001030   0.001782   0.097612  -1.304532   0.287898   0.405385
     9  C   -0.000544   0.000189  -0.024460   0.843592  -0.125286  -0.173250
    10  C    0.000060   0.000016   0.122914   0.115969  -0.514936  -0.174169
    11  C   -0.000544   0.000188  -0.024476  -1.692449  -0.125081  -0.001921
    12  C    0.001029   0.001782   0.097601  -0.519227   0.287258   0.222664
    13  H    0.503750  -0.007439   0.000000  -0.000811   0.000739  -0.000003
    14  H   -0.007439   0.499921  -0.000000  -0.000443  -0.002101   0.000000
    15  H    0.000000  -0.000000   0.485954  -0.001573  -0.000205  -0.001886
    16  Cl  -0.000811  -0.000443  -0.001573  18.381473   0.125342  -0.293953
    17  Cl   0.000739  -0.002101  -0.000205   0.125342  18.291818   0.001017
    18  Cl  -0.000003   0.000000  -0.001886  -0.293953   0.001017  17.425867
    19  Cl  -0.000239  -0.000897   0.000000   0.002134  -0.287949   0.000084
    20  Cl  -0.000003   0.000000  -0.001885   0.008223   0.001041  -0.024208
    21  Cl  -0.000811  -0.000443  -0.001572  -0.155230   0.124971   0.008217
    22  Cl  -0.012134  -0.000197  -0.000130   0.134279  -0.105461  -0.001582
              19         20         21         22
     1  C   -0.751545  -0.158194   0.493869   0.594288
     2  C    0.117402  -0.050239   0.314395  -0.552698
     3  C    0.179249  -0.004679  -0.265971  -0.946150
     4  C   -0.595179   0.000264  -0.181270  -0.303408
     5  C   -0.403586  -0.003727   0.179111   0.221796
     6  C    1.174067  -0.059594   0.138126  -0.431780
     7  C   -0.145038  -0.629576   0.149634   0.534696
     8  C   -0.079321   0.222969  -0.519455   0.247495
     9  C   -0.008794  -0.001984  -1.692706  -0.219992
    10  C   -0.002150  -0.174468   0.116329  -0.484297
    11  C   -0.008786  -0.173252   0.843382  -0.220130
    12  C   -0.079316   0.405403  -1.304869   0.247810
    13  H   -0.000239  -0.000003  -0.000811  -0.012134
    14  H   -0.000897   0.000000  -0.000443  -0.000197
    15  H    0.000000  -0.001885  -0.001572  -0.000130
    16  Cl   0.002134   0.008223  -0.155230   0.134279
    17  Cl  -0.287949   0.001041   0.124971  -0.105461
    18  Cl   0.000084  -0.024208   0.008217  -0.001582
    19  Cl  17.401889   0.000084   0.002157  -0.003846
    20  Cl   0.000084  17.425882  -0.293986  -0.001599
    21  Cl   0.002157  -0.293986  18.381417   0.134443
    22  Cl  -0.003846  -0.001599   0.134443  17.752568
 Mulliken charges:
               1
     1  C   -0.569429
     2  C   -0.174125
     3  C   -0.339494
     4  C   -0.460188
     5  C    1.342157
     6  C   -1.676324
     7  C   -0.614662
     8  C   -1.364372
     9  C    0.816662
    10  C   -0.431498
    11  C    0.816936
    12  C   -1.364568
    13  H    0.155980
    14  H    0.160432
    15  H    0.175226
    16  Cl   0.530254
    17  Cl   0.534079
    18  Cl   0.513536
    19  Cl   0.489580
    20  Cl   0.513528
    21  Cl   0.530261
    22  Cl   0.416029
 Sum of Mulliken charges =  -0.00000
 Mulliken charges with hydrogens summed into heavy atoms:
               1
     1  C   -0.569429
     2  C   -0.174125
     3  C   -0.183514
     4  C   -0.299756
     5  C    1.342157
     6  C   -1.676324
     7  C   -0.614662
     8  C   -1.364372
     9  C    0.816662
    10  C   -0.256272
    11  C    0.816936
    12  C   -1.364568
    16  Cl   0.530254
    17  Cl   0.534079
    18  Cl   0.513536
    19  Cl   0.489580
    20  Cl   0.513528
    21  Cl   0.530261
    22  Cl   0.416029
 Electronic spatial extent (au):  <R**2>=           7940.3610
 Charge=              0.0000 electrons
 Dipole moment (field-independent basis, Debye):
    X=              0.7056    Y=             -0.0008    Z=              1.1789  Tot=              1.3739
 Quadrupole moment (field-independent basis, Debye-Ang):
   XX=           -145.5627   YY=           -161.1113   ZZ=           -155.9675
   XY=             -0.0051   XZ=              8.2924   YZ=             -0.0028
 Traceless Quadrupole moment (field-independent basis, Debye-Ang):
   XX=              8.6512   YY=             -6.8975   ZZ=             -1.7537
   XY=             -0.0051   XZ=              8.2924   YZ=             -0.0028
 Octapole moment (field-independent basis, Debye-Ang**2):
  XXX=              3.3911  YYY=              0.0052  ZZZ=             -4.6761  XYY=              1.1983
  XXY=             -0.0132  XXZ=             22.1469  XZZ=             10.1241  YZZ=             -0.0015
  YYZ=             -3.5138  XYZ=             -0.0074
 Hexadecapole moment (field-independent basis, Debye-Ang**3):
 XXXX=          -5736.6414 YYYY=          -2504.1533 ZZZZ=          -1797.8005 XXXY=             -0.0626
 XXXZ=            101.2580 YYYX=              0.0281 YYYZ=              0.0578 ZZZX=            -14.6655
 ZZZY=             -0.0463 XXYY=          -1443.5298 XXZZ=          -1252.7944 YYZZ=           -756.5751
 XXYZ=             -0.0471 YYXZ=             -7.7985 ZZXY=             -0.0071
 N-N= 2.434742084546D+03 E-N=-1.359103168788D+04  KE= 3.671259184712D+03
 1\1\GINC-CN062\FOpt\RB3LYP\6-311+G(d,p)\C12H3Cl7\20CY91R06\26-Mar-2022
 \0\\# opt b3lyp/6-311+g(d,p) scf=xqc\\Title Card Required\\0,1\C,0.433
 1721207,-0.1447533555,0.0349938636\C,1.7417105092,-0.0708592219,0.5225
 425332\C,2.4416230991,1.1298242793,0.5515961826\C,1.8330771019,2.28660
 21978,0.0871623516\C,0.5315006856,2.2476479175,-0.4046073198\C,-0.1668
 128929,1.0366637821,-0.4309911131\C,-0.3075711692,-1.4402796402,0.0091
 373331\C,-0.2307430612,-2.2797073044,-1.1111634861\C,-0.9205083652,-3.
 4956161471,-1.1282425257\C,-1.6851254958,-3.8770947306,-0.0334427269\C
 ,-1.7694662999,-3.0542820584,1.0822035859\C,-1.0829062013,-1.836737782
 1,1.1079071217\H,3.4530276604,1.1567510129,0.9344216427\H,2.3652899889
 ,3.2287675719,0.1034213484\H,-2.2170492143,-4.8181627378,-0.0498165661
 \Cl,-1.1829144111,-0.7982771981,2.5020358391\Cl,-1.7969539169,0.972807
 05,-1.0439642397\Cl,-2.7430543299,-3.5825558458,2.4281193691\Cl,-0.191
 7624595,3.728510101,-0.9776280568\Cl,-0.849677253,-4.5667283027,-2.501
 5908488\Cl,0.7298507047,-1.7925421328,-2.4793237579\Cl,2.5358169321,-1
 .5152723165,1.1157304568\\Version=EM64L-G16RevB.01\State=1-A\HF=-3680.
 7482106\RMSD=5.240e-09\RMSF=7.548e-06\Dipole=0.4963854,0.1388674,0.162
 7388\Quadrupole=2.434591,2.3800982,-4.8146892,7.1806753,1.47026,1.2579
 601\PG=C01 [X(C12H3Cl7)]\\@


 THE RED LIGHT IS ALWAYS LONGER THAN THE GREEN LIGHT.

                     -- PETER'S THEORY OF RELATIVITY
 Job cpu time:       1 days 13 hours 38 minutes 31.8 seconds.
 Elapsed time:       1 days 13 hours 38 minutes 42.0 seconds.
 File lengths (MBytes):  RWF=    161 Int=      0 D2E=      0 Chk=     25 Scr=      1
 Normal termination of Gaussian 16 at Sat Mar 26 14:03:44 2022.
