 Entering Gaussian System, Link 0=g16
 Input=2,2prime,3,4prime,5-Pentachlorobiphenyl.gjf
 Output=2,2prime,3,4prime,5-Pentachlorobiphenyl.log
 Initial command:
 /usr/local/g16/l1.exe "/scratch/pkc/Gau-61482.inp" -scrdir="/scratch/pkc/"
 Entering Link 1 = /usr/local/g16/l1.exe PID=     61483.
  
 Copyright (c) 1988-2017, Gaussian, Inc.  All Rights Reserved.
  
 This is part of the Gaussian(R) 16 program.  It is based on
 the Gaussian(R) 09 system (copyright 2009, Gaussian, Inc.),
 the Gaussian(R) 03 system (copyright 2003, Gaussian, Inc.),
 the Gaussian(R) 98 system (copyright 1998, Gaussian, Inc.),
 the Gaussian(R) 94 system (copyright 1995, Gaussian, Inc.),
 the Gaussian 92(TM) system (copyright 1992, Gaussian, Inc.),
 the Gaussian 90(TM) system (copyright 1990, Gaussian, Inc.),
 the Gaussian 88(TM) system (copyright 1988, Gaussian, Inc.),
 the Gaussian 86(TM) system (copyright 1986, Carnegie Mellon
 University), and the Gaussian 82(TM) system (copyright 1983,
 Carnegie Mellon University). Gaussian is a federally registered
 trademark of Gaussian, Inc.
  
 This software contains proprietary and confidential information,
 including trade secrets, belonging to Gaussian, Inc.
  
 This software is provided under written license and may be
 used, copied, transmitted, or stored only in accord with that
 written license.
  
 The following legend is applicable only to US Government
 contracts under FAR:
  
                    RESTRICTED RIGHTS LEGEND
  
 Use, reproduction and disclosure by the US Government is
 subject to restrictions as set forth in subparagraphs (a)
 and (c) of the Commercial Computer Software - Restricted
 Rights clause in FAR 52.227-19.
  
 Gaussian, Inc.
 340 Quinnipiac St., Bldg. 40, Wallingford CT 06492
  
  
 ---------------------------------------------------------------
 Warning -- This program may not be used in any manner that
 competes with the business of Gaussian, Inc. or will provide
 assistance to any competitor of Gaussian, Inc.  The licensee
 of this program is prohibited from giving any competitor of
 Gaussian, Inc. access to this program.  By using this program,
 the user acknowledges that Gaussian, Inc. is engaged in the
 business of creating and licensing software in the field of
 computational chemistry and represents and warrants to the
 licensee that it is not a competitor of Gaussian, Inc. and that
 it will not use this program in any manner prohibited above.
 ---------------------------------------------------------------
  

 Cite this work as:
 Gaussian 16, Revision B.01,
 M. J. Frisch, G. W. Trucks, H. B. Schlegel, G. E. Scuseria, 
 M. A. Robb, J. R. Cheeseman, G. Scalmani, V. Barone, 
 G. A. Petersson, H. Nakatsuji, X. Li, M. Caricato, A. V. Marenich, 
 J. Bloino, B. G. Janesko, R. Gomperts, B. Mennucci, H. P. Hratchian, 
 J. V. Ortiz, A. F. Izmaylov, J. L. Sonnenberg, D. Williams-Young, 
 F. Ding, F. Lipparini, F. Egidi, J. Goings, B. Peng, A. Petrone, 
 T. Henderson, D. Ranasinghe, V. G. Zakrzewski, J. Gao, N. Rega, 
 G. Zheng, W. Liang, M. Hada, M. Ehara, K. Toyota, R. Fukuda, 
 J. Hasegawa, M. Ishida, T. Nakajima, Y. Honda, O. Kitao, H. Nakai, 
 T. Vreven, K. Throssell, J. A. Montgomery, Jr., J. E. Peralta, 
 F. Ogliaro, M. J. Bearpark, J. J. Heyd, E. N. Brothers, K. N. Kudin, 
 V. N. Staroverov, T. A. Keith, R. Kobayashi, J. Normand, 
 K. Raghavachari, A. P. Rendell, J. C. Burant, S. S. Iyengar, 
 J. Tomasi, M. Cossi, J. M. Millam, M. Klene, C. Adamo, R. Cammi, 
 J. W. Ochterski, R. L. Martin, K. Morokuma, O. Farkas, 
 J. B. Foresman, and D. J. Fox, Gaussian, Inc., Wallingford CT, 2016.
 
 ******************************************
 Gaussian 16:  EM64L-G16RevB.01 20-Dec-2017
                16-Mar-2022 
 ******************************************
 %mem=10GB
 %nprocshared=4
 Will use up to    4 processors via shared memory.
 --------------------------------
 # opt b3lyp/6-311+g(d,p) scf=xqc
 --------------------------------
 1/18=20,19=15,26=3,38=1/1,3;
 2/9=110,12=2,17=6,18=5,40=1/2;
 3/5=4,6=6,7=111,11=2,25=1,30=1,71=1,74=-5/1,2,3;
 4//1;
 5/5=2,8=3,13=1,38=5/2,8;
 6/7=2,8=2,9=2,10=2,28=1/1;
 7//1,2,3,16;
 1/18=20,19=15,26=3/3(2);
 2/9=110/2;
 99//99;
 2/9=110/2;
 3/5=4,6=6,7=111,11=2,25=1,30=1,71=1,74=-5/1,2,3;
 4/5=5,16=3,69=1/1;
 5/5=2,8=3,13=1,38=5/2,8;
 7//1,2,3,16;
 1/18=20,19=15,26=3/3(-5);
 2/9=110/2;
 6/7=2,8=2,9=2,10=2,19=2,28=1/1;
 99/9=1/99;
 -------------------
 Title Card Required
 -------------------
 Symbolic Z-matrix:
 Charge =  0 Multiplicity = 1
 C                     1.21471   0.31298  -0.00285 
 C                     2.54709   0.34287  -0.4362 
 C                     3.25499   1.55232  -0.44227 
 C                     2.6305    2.73189  -0.015 
 C                     1.29812   2.702     0.41835 
 C                     0.59022   1.49255   0.42442 
 C                     0.43681  -1.01608   0.00382 
 C                     1.06129  -2.19565  -0.42345 
 C                     0.3534   -3.4051   -0.41738 
 C                    -0.97898  -3.43499   0.01597 
 C                    -1.60347  -2.25542   0.44325 
 C                    -0.89557  -1.04597   0.43717 
 H                     3.0239   -0.55776  -0.76243 
 H                     4.27229   1.57514  -0.77314 
 H                     0.82131   3.60262   0.74458 
 H                     2.0786   -2.17283  -0.75432 
 H                    -1.51947  -4.35843   0.02061 
 Cl                   -1.67986   0.43543   0.97378 
 Cl                   -1.0831    1.45502   0.96866 
 Cl                   -3.27678  -2.29296   0.98749 
 Cl                    3.51953   4.25082  -0.02262 
 Cl                    1.13769  -4.8865   -0.95399 
 

 GradGradGradGradGradGradGradGradGradGradGradGradGradGradGradGradGradGrad
 Berny optimization.
 Initialization pass.
                           ----------------------------
                           !    Initial Parameters    !
                           ! (Angstroms and Degrees)  !
 --------------------------                            --------------------------
 ! Name  Definition              Value          Derivative Info.                !
 --------------------------------------------------------------------------------
 ! R1    R(1,2)                  1.4014         estimate D2E/DX2                !
 ! R2    R(1,6)                  1.4014         estimate D2E/DX2                !
 ! R3    R(1,7)                  1.54           estimate D2E/DX2                !
 ! R4    R(2,3)                  1.4014         estimate D2E/DX2                !
 ! R5    R(2,13)                 1.07           estimate D2E/DX2                !
 ! R6    R(3,4)                  1.4014         estimate D2E/DX2                !
 ! R7    R(3,14)                 1.07           estimate D2E/DX2                !
 ! R8    R(4,5)                  1.4014         estimate D2E/DX2                !
 ! R9    R(4,21)                 1.76           estimate D2E/DX2                !
 ! R10   R(5,6)                  1.4014         estimate D2E/DX2                !
 ! R11   R(5,15)                 1.07           estimate D2E/DX2                !
 ! R12   R(6,19)                 1.76           estimate D2E/DX2                !
 ! R13   R(7,8)                  1.4014         estimate D2E/DX2                !
 ! R14   R(7,12)                 1.4014         estimate D2E/DX2                !
 ! R15   R(8,9)                  1.4014         estimate D2E/DX2                !
 ! R16   R(8,16)                 1.07           estimate D2E/DX2                !
 ! R17   R(9,10)                 1.4014         estimate D2E/DX2                !
 ! R18   R(9,22)                 1.76           estimate D2E/DX2                !
 ! R19   R(10,11)                1.4014         estimate D2E/DX2                !
 ! R20   R(10,17)                1.07           estimate D2E/DX2                !
 ! R21   R(11,12)                1.4014         estimate D2E/DX2                !
 ! R22   R(11,20)                1.76           estimate D2E/DX2                !
 ! R23   R(12,18)                1.76           estimate D2E/DX2                !
 ! R24   R(18,19)                1.1814         estimate D2E/DX2                !
 ! A1    A(2,1,6)              120.0            estimate D2E/DX2                !
 ! A2    A(2,1,7)              120.0            estimate D2E/DX2                !
 ! A3    A(6,1,7)              120.0            estimate D2E/DX2                !
 ! A4    A(1,2,3)              120.0            estimate D2E/DX2                !
 ! A5    A(1,2,13)             120.0            estimate D2E/DX2                !
 ! A6    A(3,2,13)             120.0            estimate D2E/DX2                !
 ! A7    A(2,3,4)              120.0            estimate D2E/DX2                !
 ! A8    A(2,3,14)             120.0            estimate D2E/DX2                !
 ! A9    A(4,3,14)             120.0            estimate D2E/DX2                !
 ! A10   A(3,4,5)              120.0            estimate D2E/DX2                !
 ! A11   A(3,4,21)             120.0            estimate D2E/DX2                !
 ! A12   A(5,4,21)             120.0            estimate D2E/DX2                !
 ! A13   A(4,5,6)              120.0            estimate D2E/DX2                !
 ! A14   A(4,5,15)             120.0            estimate D2E/DX2                !
 ! A15   A(6,5,15)             120.0            estimate D2E/DX2                !
 ! A16   A(1,6,5)              120.0            estimate D2E/DX2                !
 ! A17   A(1,6,19)             120.0            estimate D2E/DX2                !
 ! A18   A(5,6,19)             120.0            estimate D2E/DX2                !
 ! A19   A(1,7,8)              120.0            estimate D2E/DX2                !
 ! A20   A(1,7,12)             120.0            estimate D2E/DX2                !
 ! A21   A(8,7,12)             120.0            estimate D2E/DX2                !
 ! A22   A(7,8,9)              120.0            estimate D2E/DX2                !
 ! A23   A(7,8,16)             120.0            estimate D2E/DX2                !
 ! A24   A(9,8,16)             120.0            estimate D2E/DX2                !
 ! A25   A(8,9,10)             120.0            estimate D2E/DX2                !
 ! A26   A(8,9,22)             120.0            estimate D2E/DX2                !
 ! A27   A(10,9,22)            120.0            estimate D2E/DX2                !
 ! A28   A(9,10,11)            120.0            estimate D2E/DX2                !
 ! A29   A(9,10,17)            120.0            estimate D2E/DX2                !
 ! A30   A(11,10,17)           120.0            estimate D2E/DX2                !
 ! A31   A(10,11,12)           120.0            estimate D2E/DX2                !
 ! A32   A(10,11,20)           120.0            estimate D2E/DX2                !
 ! A33   A(12,11,20)           120.0            estimate D2E/DX2                !
 ! A34   A(7,12,11)            120.0            estimate D2E/DX2                !
 ! A35   A(7,12,18)            120.0            estimate D2E/DX2                !
 ! A36   A(11,12,18)           120.0            estimate D2E/DX2                !
 ! A37   A(12,18,19)           120.0            estimate D2E/DX2                !
 ! A38   A(6,19,18)            120.0            estimate D2E/DX2                !
 ! D1    D(6,1,2,3)              0.0001         estimate D2E/DX2                !
 ! D2    D(6,1,2,13)           180.0            estimate D2E/DX2                !
 ! D3    D(7,1,2,3)           -180.0            estimate D2E/DX2                !
 ! D4    D(7,1,2,13)            -0.0001         estimate D2E/DX2                !
 ! D5    D(2,1,6,5)             -0.0001         estimate D2E/DX2                !
 ! D6    D(2,1,6,19)           180.0            estimate D2E/DX2                !
 ! D7    D(7,1,6,5)            180.0            estimate D2E/DX2                !
 ! D8    D(7,1,6,19)             0.0            estimate D2E/DX2                !
 ! D9    D(2,1,7,8)             -0.0001         estimate D2E/DX2                !
 ! D10   D(2,1,7,12)           179.9998         estimate D2E/DX2                !
 ! D11   D(6,1,7,8)            179.9999         estimate D2E/DX2                !
 ! D12   D(6,1,7,12)            -0.0002         estimate D2E/DX2                !
 ! D13   D(1,2,3,4)              0.0            estimate D2E/DX2                !
 ! D14   D(1,2,3,14)           180.0            estimate D2E/DX2                !
 ! D15   D(13,2,3,4)          -179.9999         estimate D2E/DX2                !
 ! D16   D(13,2,3,14)            0.0001         estimate D2E/DX2                !
 ! D17   D(2,3,4,5)             -0.0001         estimate D2E/DX2                !
 ! D18   D(2,3,4,21)           180.0            estimate D2E/DX2                !
 ! D19   D(14,3,4,5)           179.9999         estimate D2E/DX2                !
 ! D20   D(14,3,4,21)            0.0            estimate D2E/DX2                !
 ! D21   D(3,4,5,6)              0.0001         estimate D2E/DX2                !
 ! D22   D(3,4,5,15)          -179.9999         estimate D2E/DX2                !
 ! D23   D(21,4,5,6)          -180.0            estimate D2E/DX2                !
 ! D24   D(21,4,5,15)            0.0            estimate D2E/DX2                !
 ! D25   D(4,5,6,1)              0.0            estimate D2E/DX2                !
 ! D26   D(4,5,6,19)           179.9999         estimate D2E/DX2                !
 ! D27   D(15,5,6,1)           180.0            estimate D2E/DX2                !
 ! D28   D(15,5,6,19)           -0.0001         estimate D2E/DX2                !
 ! D29   D(1,6,19,18)            0.0006         estimate D2E/DX2                !
 ! D30   D(5,6,19,18)         -179.9994         estimate D2E/DX2                !
 ! D31   D(1,7,8,9)            179.9999         estimate D2E/DX2                !
 ! D32   D(1,7,8,16)             0.0001         estimate D2E/DX2                !
 ! D33   D(12,7,8,9)             0.0001         estimate D2E/DX2                !
 ! D34   D(12,7,8,16)         -179.9998         estimate D2E/DX2                !
 ! D35   D(1,7,12,11)         -179.9999         estimate D2E/DX2                !
 ! D36   D(1,7,12,18)            0.0            estimate D2E/DX2                !
 ! D37   D(8,7,12,11)           -0.0001         estimate D2E/DX2                !
 ! D38   D(8,7,12,18)          179.9999         estimate D2E/DX2                !
 ! D39   D(7,8,9,10)             0.0            estimate D2E/DX2                !
 ! D40   D(7,8,9,22)           180.0            estimate D2E/DX2                !
 ! D41   D(16,8,9,10)          179.9998         estimate D2E/DX2                !
 ! D42   D(16,8,9,22)           -0.0002         estimate D2E/DX2                !
 ! D43   D(8,9,10,11)            0.0            estimate D2E/DX2                !
 ! D44   D(8,9,10,17)         -179.9999         estimate D2E/DX2                !
 ! D45   D(22,9,10,11)         180.0            estimate D2E/DX2                !
 ! D46   D(22,9,10,17)           0.0001         estimate D2E/DX2                !
 ! D47   D(9,10,11,12)           0.0            estimate D2E/DX2                !
 ! D48   D(9,10,11,20)        -179.9998         estimate D2E/DX2                !
 ! D49   D(17,10,11,12)        179.9999         estimate D2E/DX2                !
 ! D50   D(17,10,11,20)          0.0001         estimate D2E/DX2                !
 ! D51   D(10,11,12,7)           0.0            estimate D2E/DX2                !
 ! D52   D(10,11,12,18)       -179.9999         estimate D2E/DX2                !
 ! D53   D(20,11,12,7)         179.9999         estimate D2E/DX2                !
 ! D54   D(20,11,12,18)         -0.0001         estimate D2E/DX2                !
 ! D55   D(7,12,18,19)           0.0005         estimate D2E/DX2                !
 ! D56   D(11,12,18,19)       -179.9995         estimate D2E/DX2                !
 ! D57   D(12,18,19,6)          -0.0008         estimate D2E/DX2                !
 --------------------------------------------------------------------------------
 Trust Radius=3.00D-01 FncErr=1.00D-07 GrdErr=1.00D-06 EigMax=2.50D+02 EigMin=1.00D-04
 Number of steps in this run=    129 maximum allowed number of steps=    132.
 GradGradGradGradGradGradGradGradGradGradGradGradGradGradGradGradGradGrad

                          Input orientation:                          
 ---------------------------------------------------------------------
 Center     Atomic      Atomic             Coordinates (Angstroms)
 Number     Number       Type             X           Y           Z
 ---------------------------------------------------------------------
      1          6           0        1.214711    0.312983   -0.002851
      2          6           0        2.547092    0.342869   -0.436198
      3          6           0        3.254986    1.552320   -0.442270
      4          6           0        2.630499    2.731885   -0.014995
      5          6           0        1.298117    2.702000    0.418350
      6          6           0        0.590223    1.492549    0.424422
      7          6           0        0.436806   -1.016084    0.003823
      8          6           0        1.061294   -2.195649   -0.423452
      9          6           0        0.353401   -3.405100   -0.417378
     10          6           0       -0.978979   -3.434987    0.015972
     11          6           0       -1.603466   -2.255422    0.443247
     12          6           0       -0.895574   -1.045970    0.437173
     13          1           0        3.023903   -0.557755   -0.762430
     14          1           0        4.272289    1.575139   -0.773139
     15          1           0        0.821306    3.602624    0.744581
     16          1           0        2.078596   -2.172830   -0.754322
     17          1           0       -1.519471   -4.358430    0.020611
     18         17           0       -1.679858    0.435430    0.973785
     19         17           0       -1.083097    1.455016    0.968656
     20         17           0       -3.276784   -2.292956    0.987490
     21         17           0        3.519533    4.250819   -0.022621
     22         17           0        1.137686   -4.886501   -0.953987
 ---------------------------------------------------------------------
                    Distance matrix (angstroms):
                    1          2          3          4          5
     1  C    0.000000
     2  C    1.401400   0.000000
     3  C    2.427296   1.401400   0.000000
     4  C    2.802800   2.427296   1.401400   0.000000
     5  C    2.427296   2.802800   2.427296   1.401400   0.000000
     6  C    1.401400   2.427296   2.802800   2.427296   1.401400
     7  C    1.540000   2.548270   3.838989   4.342800   3.838989
     8  C    2.548270   2.941400   4.342800   5.187469   4.975106
     9  C    3.838989   4.342800   5.744200   6.558176   6.235992
    10  C    4.342800   5.187469   6.558176   7.145600   6.558176
    11  C    3.838989   4.975106   6.235992   6.558176   5.744200
    12  C    2.548270   3.813607   4.975106   5.187469   4.342800
    13  H    2.146700   1.070000   2.146700   3.396345   3.872800
    14  H    3.396345   2.146700   1.070000   2.146700   3.396345
    15  H    3.396345   3.872800   3.396345   2.146700   1.070000
    16  H    2.736837   2.578650   3.918930   4.990735   5.074276
    17  H    5.412800   6.232802   7.612271   8.215600   7.612271
    18  Cl   3.057342   4.456874   5.254079   4.983028   3.783409
    19  Cl   2.743718   4.048303   4.562800   4.048303   2.743718
    20  Cl   5.286324   6.549198   7.713260   7.819846   6.797295
    21  Cl   4.562800   4.048303   2.743718   1.760000   2.743718
    22  Cl   5.286324   5.440665   6.797295   7.819846   7.713260
                    6          7          8          9         10
     6  C    0.000000
     7  C    2.548270   0.000000
     8  C    3.813607   1.401400   0.000000
     9  C    4.975106   2.427296   1.401400   0.000000
    10  C    5.187469   2.802800   2.427296   1.401400   0.000000
    11  C    4.342800   2.427296   2.802800   2.427296   1.401400
    12  C    2.941400   1.401400   2.427296   2.802800   2.427296
    13  H    3.396345   2.736837   2.578650   3.918930   4.990735
    14  H    3.872800   4.693509   4.965039   6.347206   7.300676
    15  H    2.146700   4.693509   5.919617   7.118798   7.300676
    16  H    4.127917   2.146700   1.070000   2.146700   3.396345
    17  H    6.232802   3.872800   3.396345   2.146700   1.070000
    18  Cl   2.563702   2.743718   4.048303   4.562800   4.048303
    19  Cl   1.760000   3.057342   4.456874   5.254079   4.983028
    20  Cl   5.440665   4.048303   4.562800   4.048303   2.743718
    21  Cl   4.048303   6.102800   6.910901   8.294174   8.905600
    22  Cl   6.549198   4.048303   2.743718   1.760000   2.743718
                   11         12         13         14         15
    11  C    0.000000
    12  C    1.401400   0.000000
    13  H    5.074276   4.127917   0.000000
    14  H    7.118798   5.919617   2.471400   0.000000
    15  H    6.347206   4.965039   4.942800   4.280590   0.000000
    16  H    3.872800   3.396345   1.871400   4.342800   6.097816
    17  H    2.146700   3.396345   5.974992   8.329571   8.329571
    18  Cl   2.743718   1.760000   5.111382   6.307038   4.042212
    19  Cl   3.783409   2.563702   4.890332   5.632800   2.879094
    20  Cl   1.760000   2.743718   6.765486   8.663168   7.184095
    21  Cl   8.294174   6.910901   4.890332   2.879094   2.879094
    22  Cl   4.048303   4.562800   4.725732   7.184095   8.663168
                   16         17         18         19         20
    16  H    0.000000
    17  H    4.280590   0.000000
    18  Cl   4.890332   4.890332   0.000000
    19  Cl   5.111382   5.906383   1.181400   0.000000
    20  Cl   5.632800   2.879094   3.161400   4.342800   0.000000
    21  Cl   6.623817   9.975600   6.525618   5.475705   9.488480
    22  Cl   2.879094   2.879094   6.322800   6.988795   5.475705
                   21         22
    21  Cl   0.000000
    22  Cl   9.488480   0.000000
 Stoichiometry    C12H5Cl5
 Framework group  C1[X(C12H5Cl5)]
 Deg. of freedom    60
 Full point group                 C1      NOp   1
 Largest Abelian subgroup         C1      NOp   1
 Largest concise Abelian subgroup C1      NOp   1
                         Standard orientation:                         
 ---------------------------------------------------------------------
 Center     Atomic      Atomic             Coordinates (Angstroms)
 Number     Number       Type             X           Y           Z
 ---------------------------------------------------------------------
      1          6           0        0.972277    0.569515    0.000002
      2          6           0        1.646358    1.798147   -0.000001
      3          6           0        3.047425    1.828692   -0.000002
      4          6           0        3.774411    0.630605   -0.000002
      5          6           0        3.100330   -0.598027    0.000003
      6          6           0        1.699263   -0.628572    0.000004
      7          6           0       -0.567357    0.535949    0.000002
      8          6           0       -1.294343    1.734036    0.000002
      9          6           0       -2.695410    1.703491    0.000001
     10          6           0       -3.369491    0.474859    0.000000
     11          6           0       -2.642505   -0.723228   -0.000000
     12          6           0       -1.241438   -0.692683    0.000001
     13          1           0        1.091288    2.712913   -0.000003
     14          1           0        3.562101    2.766780   -0.000004
     15          1           0        3.655401   -1.512794    0.000005
     16          1           0       -0.779668    2.672124    0.000000
     17          1           0       -4.439237    0.451537   -0.000002
     18         17           0       -0.328425   -2.197345   -0.000002
     19         17           0        0.852694   -2.171596    0.000008
     20         17           0       -3.489074   -2.266251   -0.000006
     21         17           0        5.533993    0.668966   -0.000004
     22         17           0       -3.608423    3.208153    0.000001
 ---------------------------------------------------------------------
 Rotational constants (GHZ):           0.4597869           0.1770175           0.1278106
 Standard basis: 6-311+G(d,p) (5D, 7F)
 There are   461 symmetry adapted cartesian basis functions of A   symmetry.
 There are   444 symmetry adapted basis functions of A   symmetry.
   444 basis functions,   737 primitive gaussians,   461 cartesian basis functions
    81 alpha electrons       81 beta electrons
       nuclear repulsion energy      1808.2232997500 Hartrees.
 NAtoms=   22 NActive=   22 NUniq=   22 SFac= 1.00D+00 NAtFMM=   60 NAOKFM=F Big=F
 Integral buffers will be    131072 words long.
 Raffenetti 2 integral format.
 Two-electron integral symmetry is turned on.
 One-electron integrals computed using PRISM.
 NBasis=   444 RedAO= T EigKep=  1.06D-06  NBF=   444
 NBsUse=   438 1.00D-06 EigRej=  6.53D-07 NBFU=   438
 ExpMin= 4.38D-02 ExpMax= 1.06D+05 ExpMxC= 3.62D+03 IAcc=3 IRadAn=         5 AccDes= 0.00D+00
 Harris functional with IExCor=  402 and IRadAn=       5 diagonalized for initial guess.
 HarFok:  IExCor=  402 AccDes= 0.00D+00 IRadAn=         5 IDoV= 1 UseB2=F ITyADJ=14
 ICtDFT=  3500011 ScaDFX=  1.000000  1.000000  1.000000  1.000000
 FoFCou: FMM=F IPFlag=           0 FMFlag=      100000 FMFlg1=           0
         NFxFlg=           0 DoJE=T BraDBF=F KetDBF=T FulRan=T
         wScrn=  0.000000 ICntrl=       500 IOpCl=  0 I1Cent=   200000004 NGrid=           0
         NMat0=    1 NMatS0=      1 NMatT0=    0 NMatD0=    1 NMtDS0=    0 NMtDT0=    0
 Petite list used in FoFCou.
 Requested convergence on RMS density matrix=1.00D-08 within  32 cycles.
 Requested convergence on MAX density matrix=1.00D-06.
 Requested convergence on             energy=1.00D-06.
 No special actions if energy rises.
 SCF Done:  E(RB3LYP) =  -2759.90120724     A.U. after   19 cycles
            NFock= 19  Conv=0.78D-08     -V/T= 1.9999
 QCSCF skips out because SCF is already converged.

 **********************************************************************

            Population analysis using the SCF Density.

 **********************************************************************

 Orbital symmetries:
       Occupied  (A) (A) (A) (A) (A) (A) (A) (A) (A) (A) (A) (A)
                 (A) (A) (A) (A) (A) (A) (A) (A) (A) (A) (A) (A)
                 (A) (A) (A) (A) (A) (A) (A) (A) (A) (A) (A) (A)
                 (A) (A) (A) (A) (A) (A) (A) (A) (A) (A) (A) (A)
                 (A) (A) (A) (A) (A) (A) (A) (A) (A) (A) (A) (A)
                 (A) (A) (A) (A) (A) (A) (A) (A) (A) (A) (A) (A)
                 (A) (A) (A) (A) (A) (A) (A) (A) (A)
       Virtual   (A) (A) (A) (A) (A) (A) (A) (A) (A) (A) (A) (A)
                 (A) (A) (A) (A) (A) (A) (A) (A) (A) (A) (A) (A)
                 (A) (A) (A) (A) (A) (A) (A) (A) (A) (A) (A) (A)
                 (A) (A) (A) (A) (A) (A) (A) (A) (A) (A) (A) (A)
                 (A) (A) (A) (A) (A) (A) (A) (A) (A) (A) (A) (A)
                 (A) (A) (A) (A) (A) (A) (A) (A) (A) (A) (A) (A)
                 (A) (A) (A) (A) (A) (A) (A) (A) (A) (A) (A) (A)
                 (A) (A) (A) (A) (A) (A) (A) (A) (A) (A) (A) (A)
                 (A) (A) (A) (A) (A) (A) (A) (A) (A) (A) (A) (A)
                 (A) (A) (A) (A) (A) (A) (A) (A) (A) (A) (A) (A)
                 (A) (A) (A) (A) (A) (A) (A) (A) (A) (A) (A) (A)
                 (A) (A) (A) (A) (A) (A) (A) (A) (A) (A) (A) (A)
                 (A) (A) (A) (A) (A) (A) (A) (A) (A) (A) (A) (A)
                 (A) (A) (A) (A) (A) (A) (A) (A) (A) (A) (A) (A)
                 (A) (A) (A) (A) (A) (A) (A) (A) (A) (A) (A) (A)
                 (A) (A) (A) (A) (A) (A) (A) (A) (A) (A) (A) (A)
                 (A) (A) (A) (A) (A) (A) (A) (A) (A) (A) (A) (A)
                 (A) (A) (A) (A) (A) (A) (A) (A) (A) (A) (A) (A)
                 (A) (A) (A) (A) (A) (A) (A) (A) (A) (A) (A) (A)
                 (A) (A) (A) (A) (A) (A) (A) (A) (A) (A) (A) (A)
                 (A) (A) (A) (A) (A) (A) (A) (A) (A) (A) (A) (A)
                 (A) (A) (A) (A) (A) (A) (A) (A) (A) (A) (A) (A)
                 (A) (A) (A) (A) (A) (A) (A) (A) (A) (A) (A) (A)
                 (A) (A) (A) (A) (A) (A) (A) (A) (A) (A) (A) (A)
                 (A) (A) (A) (A) (A) (A) (A) (A) (A) (A) (A) (A)
                 (A) (A) (A) (A) (A) (A) (A) (A) (A) (A) (A) (A)
                 (A) (A) (A) (A) (A) (A) (A) (A) (A) (A) (A) (A)
                 (A) (A) (A) (A) (A) (A) (A) (A) (A) (A) (A) (A)
                 (A) (A) (A) (A) (A) (A) (A) (A) (A) (A) (A) (A)
                 (A) (A) (A) (A) (A) (A) (A) (A) (A)
 The electronic state is 1-A.
 Alpha  occ. eigenvalues -- -101.66377-101.66096-101.56701-101.56401-101.56073
 Alpha  occ. eigenvalues --  -10.25479 -10.25421 -10.25221 -10.21622 -10.20923
 Alpha  occ. eigenvalues --  -10.20445 -10.20053 -10.19816 -10.19750 -10.19690
 Alpha  occ. eigenvalues --  -10.17987 -10.17827  -9.65065  -9.62925  -9.48164
 Alpha  occ. eigenvalues --   -9.47833  -9.47517  -7.43457  -7.38515  -7.38450
 Alpha  occ. eigenvalues --   -7.38044  -7.37843  -7.37391  -7.24607  -7.24303
 Alpha  occ. eigenvalues --   -7.23974  -7.23653  -7.23621  -7.23311  -7.23281
 Alpha  occ. eigenvalues --   -7.23005  -7.22968  -1.39487  -0.91941  -0.90450
 Alpha  occ. eigenvalues --   -0.88470  -0.86850  -0.84560  -0.81329  -0.80537
 Alpha  occ. eigenvalues --   -0.77619  -0.74587  -0.72680  -0.72437  -0.70858
 Alpha  occ. eigenvalues --   -0.65999  -0.63349  -0.60933  -0.59337  -0.57644
 Alpha  occ. eigenvalues --   -0.52276  -0.50621  -0.50009  -0.48017  -0.47512
 Alpha  occ. eigenvalues --   -0.45663  -0.44819  -0.42650  -0.42621  -0.41277
 Alpha  occ. eigenvalues --   -0.41008  -0.39925  -0.37645  -0.37440  -0.36150
 Alpha  occ. eigenvalues --   -0.35710  -0.33697  -0.33281  -0.32539  -0.32335
 Alpha  occ. eigenvalues --   -0.30246  -0.28610  -0.27376  -0.24983  -0.21359
 Alpha  occ. eigenvalues --   -0.16423
 Alpha virt. eigenvalues --   -0.06903  -0.05596  -0.02667  -0.02140  -0.00950
 Alpha virt. eigenvalues --   -0.00144   0.00138   0.00579   0.00907   0.01590
 Alpha virt. eigenvalues --    0.01912   0.02034   0.02665   0.03443   0.04804
 Alpha virt. eigenvalues --    0.05019   0.05305   0.05791   0.06042   0.06118
 Alpha virt. eigenvalues --    0.07268   0.07902   0.08225   0.08380   0.09364
 Alpha virt. eigenvalues --    0.09554   0.09765   0.10031   0.10074   0.11028
 Alpha virt. eigenvalues --    0.11082   0.11162   0.12052   0.12175   0.12674
 Alpha virt. eigenvalues --    0.12787   0.13862   0.14027   0.14496   0.15175
 Alpha virt. eigenvalues --    0.15194   0.15443   0.15539   0.15910   0.16182
 Alpha virt. eigenvalues --    0.16981   0.17042   0.17538   0.18255   0.18367
 Alpha virt. eigenvalues --    0.18696   0.18953   0.19599   0.19906   0.20139
 Alpha virt. eigenvalues --    0.20528   0.20694   0.21511   0.21753   0.22339
 Alpha virt. eigenvalues --    0.22449   0.22693   0.23045   0.23359   0.23980
 Alpha virt. eigenvalues --    0.24664   0.25053   0.25086   0.26056   0.26291
 Alpha virt. eigenvalues --    0.26650   0.26939   0.27971   0.28283   0.28546
 Alpha virt. eigenvalues --    0.28803   0.29430   0.30510   0.31040   0.32222
 Alpha virt. eigenvalues --    0.32287   0.32941   0.33610   0.34052   0.34884
 Alpha virt. eigenvalues --    0.35735   0.36302   0.37893   0.38371   0.40892
 Alpha virt. eigenvalues --    0.42932   0.43586   0.44037   0.44279   0.45132
 Alpha virt. eigenvalues --    0.45338   0.45665   0.46240   0.46274   0.47264
 Alpha virt. eigenvalues --    0.48185   0.49168   0.49702   0.50315   0.51470
 Alpha virt. eigenvalues --    0.52301   0.52340   0.53344   0.54172   0.54491
 Alpha virt. eigenvalues --    0.54745   0.56621   0.57057   0.57631   0.58474
 Alpha virt. eigenvalues --    0.59040   0.59405   0.60886   0.61321   0.61904
 Alpha virt. eigenvalues --    0.62397   0.62834   0.63405   0.65092   0.65275
 Alpha virt. eigenvalues --    0.66252   0.66501   0.67295   0.67898   0.68362
 Alpha virt. eigenvalues --    0.70611   0.70832   0.70966   0.71617   0.73038
 Alpha virt. eigenvalues --    0.74237   0.76996   0.78537   0.80587   0.81603
 Alpha virt. eigenvalues --    0.83068   0.83810   0.83876   0.84369   0.84472
 Alpha virt. eigenvalues --    0.84666   0.85307   0.85527   0.86093   0.86191
 Alpha virt. eigenvalues --    0.86221   0.86663   0.87329   0.88226   0.88843
 Alpha virt. eigenvalues --    0.90250   0.90609   0.91198   0.92099   0.92960
 Alpha virt. eigenvalues --    0.94058   0.94683   0.95007   0.95608   0.95984
 Alpha virt. eigenvalues --    0.96756   0.96987   0.98832   0.99873   1.00134
 Alpha virt. eigenvalues --    1.00724   1.01935   1.04693   1.06106   1.06577
 Alpha virt. eigenvalues --    1.08617   1.09101   1.09802   1.10060   1.11401
 Alpha virt. eigenvalues --    1.14119   1.15639   1.17665   1.20306   1.22308
 Alpha virt. eigenvalues --    1.22645   1.23763   1.25325   1.27535   1.27574
 Alpha virt. eigenvalues --    1.29144   1.29737   1.30649   1.31278   1.33301
 Alpha virt. eigenvalues --    1.35777   1.36602   1.41897   1.43633   1.43897
 Alpha virt. eigenvalues --    1.48087   1.49921   1.50395   1.50729   1.53462
 Alpha virt. eigenvalues --    1.55211   1.56986   1.57596   1.59179   1.60647
 Alpha virt. eigenvalues --    1.61189   1.61531   1.64098   1.67181   1.69885
 Alpha virt. eigenvalues --    1.70681   1.70801   1.73366   1.76258   1.78568
 Alpha virt. eigenvalues --    1.80713   1.83464   1.83941   1.88271   1.88351
 Alpha virt. eigenvalues --    1.89857   1.90283   1.91835   1.92519   1.94216
 Alpha virt. eigenvalues --    1.95649   1.97020   1.97554   1.99500   1.99967
 Alpha virt. eigenvalues --    2.00872   2.02594   2.04996   2.08018   2.08184
 Alpha virt. eigenvalues --    2.09286   2.10697   2.14547   2.18169   2.19912
 Alpha virt. eigenvalues --    2.24298   2.24382   2.25222   2.26157   2.27009
 Alpha virt. eigenvalues --    2.27523   2.28234   2.29850   2.31454   2.32504
 Alpha virt. eigenvalues --    2.36101   2.36537   2.39664   2.41185   2.41836
 Alpha virt. eigenvalues --    2.44147   2.46197   2.48435   2.52209   2.54911
 Alpha virt. eigenvalues --    2.55505   2.56548   2.58844   2.59721   2.62009
 Alpha virt. eigenvalues --    2.63692   2.64393   2.64486   2.65636   2.70884
 Alpha virt. eigenvalues --    2.73499   2.74179   2.74384   2.74876   2.75853
 Alpha virt. eigenvalues --    2.76016   2.77055   2.80000   2.80883   2.82910
 Alpha virt. eigenvalues --    2.84787   2.86200   2.86543   2.91746   2.92917
 Alpha virt. eigenvalues --    2.95238   3.01496   3.04807   3.06910   3.08259
 Alpha virt. eigenvalues --    3.12916   3.14604   3.18517   3.19896   3.21812
 Alpha virt. eigenvalues --    3.24051   3.33196   3.35856   3.38208   3.44017
 Alpha virt. eigenvalues --    3.47181   3.55567   3.58188   3.63238   3.71516
 Alpha virt. eigenvalues --    3.79493   3.80971   3.88825   3.99711   4.08425
 Alpha virt. eigenvalues --    4.11466   4.20396   4.48033   4.80795   4.84058
 Alpha virt. eigenvalues --    9.74636   9.77929   9.78489   9.81969  10.55151
 Alpha virt. eigenvalues --   23.40158  23.56827  23.83823  23.85371  23.88599
 Alpha virt. eigenvalues --   23.94412  24.00159  24.02218  24.03387  24.05536
 Alpha virt. eigenvalues --   24.10076  24.12605  25.40956  25.82032  25.82184
 Alpha virt. eigenvalues --   25.82573  25.97792  26.10896  26.12740  26.20816
 Alpha virt. eigenvalues --   26.25372  26.59855  26.61034  26.65838  27.10543
 Alpha virt. eigenvalues --   27.41787  28.45373 215.74743 215.77088 215.78413
 Alpha virt. eigenvalues --  215.90917 216.87121
          Condensed to atoms (all electrons):
               1          2          3          4          5          6
     1  C   19.166474  -4.940403   5.188842  -7.460861  -5.853877   5.450077
     2  C   -4.940403  17.181966  -6.156325   3.963522   0.233789  -1.025047
     3  C    5.188842  -6.156325  21.023904  -5.294313  -4.014559  -2.901653
     4  C   -7.460861   3.963522  -5.294313  20.603033   3.636101  -8.033916
     5  C   -5.853877   0.233789  -4.014559   3.636101  18.622562  -7.919678
     6  C    5.450077  -1.025047  -2.901653  -8.033916  -7.919678  34.201529
     7  C    6.777279  -1.463142   0.133495  -2.062803  -3.281933  -0.504305
     8  C   -0.227825  -1.575700   0.835464  -1.539085  -0.902317  -2.571521
     9  C   -2.679087  -1.289156   1.209091  -0.630442  -0.779649  -2.201402
    10  C   -1.482815   1.006321   0.068215   0.114151   0.039767   0.276571
    11  C   -1.284245  -0.659327   0.162721  -0.264378  -0.356750  -0.408196
    12  C    3.027363  -1.629966  -0.924715  -2.098785  -5.312938   6.755312
    13  H    0.058896   0.427662  -0.226243   0.021572  -0.023718   0.033985
    14  H    0.029760  -0.075973   0.327507   0.017421   0.022266   0.015896
    15  H    0.114820  -0.013778   0.022260  -0.007315   0.245843   0.028640
    16  H    0.107233   0.070439  -0.005759   0.015574   0.003742   0.050951
    17  H    0.016419   0.000406  -0.000363   0.000184   0.000995   0.005883
    18  Cl  -2.821158   0.261750  -1.342600   1.071266   1.675747   1.009703
    19  Cl  -6.706684   1.902301  -1.687617   4.175291  10.452980 -15.043417
    20  Cl   0.209495  -0.080072   0.063327  -0.063927  -0.232903  -0.156954
    21  Cl  -0.390971   0.192191  -0.017921  -0.585737   0.326152  -0.226876
    22  Cl  -0.133128  -0.080970   0.027666  -0.010489  -0.012652  -0.097495
               7          8          9         10         11         12
     1  C    6.777279  -0.227825  -2.679087  -1.482815  -1.284245   3.027363
     2  C   -1.463142  -1.575700  -1.289156   1.006321  -0.659327  -1.629966
     3  C    0.133495   0.835464   1.209091   0.068215   0.162721  -0.924715
     4  C   -2.062803  -1.539085  -0.630442   0.114151  -0.264378  -2.098785
     5  C   -3.281933  -0.902317  -0.779649   0.039767  -0.356750  -5.312938
     6  C   -0.504305  -2.571521  -2.201402   0.276571  -0.408196   6.755312
     7  C   20.744572  -0.006332  -5.756945  -1.379140  -0.802140   3.376967
     8  C   -0.006332  15.115451   2.889703  -5.607834  -1.317736   3.402158
     9  C   -5.756945   2.889703  22.163349  -3.328982  -2.403712   0.552223
    10  C   -1.379140  -5.607834  -3.328982  24.772828  -2.117644  -7.364570
    11  C   -0.802140  -1.317736  -2.403712  -2.117644  20.579170  -4.970891
    12  C    3.376967   3.402158   0.552223  -7.364570  -4.970891  36.388582
    13  H    0.033505   0.006338  -0.054553  -0.013464  -0.016568   0.028547
    14  H    0.003510   0.012083   0.001787   0.000354  -0.000184   0.001892
    15  H    0.009870   0.000327   0.000515   0.000256   0.004122   0.019299
    16  H    0.123108   0.220109  -0.265409   0.046584  -0.060571  -0.005263
    17  H    0.068401   0.081978   0.017937   0.203711  -0.106318   0.079555
    18  Cl  -5.915870  -2.253530  -0.574595   2.580248   0.959674 -13.098043
    19  Cl  -3.479428  -0.194294  -0.926361   0.815364  -1.356621 -14.828697
    20  Cl   0.533153   0.001558  -0.285516  -2.003590  -0.278399   3.737772
    21  Cl  -0.071015  -0.031854  -0.005352  -0.000124  -0.001515  -0.033085
    22  Cl  -0.529536   0.284114  -0.630552  -0.021695   0.365087   0.031252
              13         14         15         16         17         18
     1  C    0.058896   0.029760   0.114820   0.107233   0.016419  -2.821158
     2  C    0.427662  -0.075973  -0.013778   0.070439   0.000406   0.261750
     3  C   -0.226243   0.327507   0.022260  -0.005759  -0.000363  -1.342600
     4  C    0.021572   0.017421  -0.007315   0.015574   0.000184   1.071266
     5  C   -0.023718   0.022266   0.245843   0.003742   0.000995   1.675747
     6  C    0.033985   0.015896   0.028640   0.050951   0.005883   1.009703
     7  C    0.033505   0.003510   0.009870   0.123108   0.068401  -5.915870
     8  C    0.006338   0.012083   0.000327   0.220109   0.081978  -2.253530
     9  C   -0.054553   0.001787   0.000515  -0.265409   0.017937  -0.574595
    10  C   -0.013464   0.000354   0.000256   0.046584   0.203711   2.580248
    11  C   -0.016568  -0.000184   0.004122  -0.060571  -0.106318   0.959674
    12  C    0.028547   0.001892   0.019299  -0.005263   0.079555 -13.098043
    13  H    0.573641  -0.007842   0.000057   0.005587   0.000005   0.016232
    14  H   -0.007842   0.515967  -0.000338   0.000044  -0.000000  -0.001314
    15  H    0.000057  -0.000338   0.516236  -0.000002  -0.000000   0.054788
    16  H    0.005587   0.000044  -0.000002   0.562790  -0.000108   0.024270
    17  H    0.000005  -0.000000  -0.000000  -0.000108   0.511316   0.020211
    18  Cl   0.016232  -0.001314   0.054788   0.024270   0.020211  34.322777
    19  Cl   0.014903   0.002619  -0.123058   0.012677   0.007459   2.717976
    20  Cl  -0.000448  -0.000002   0.000105  -0.002291  -0.044981  -2.455559
    21  Cl   0.000248  -0.011813  -0.014188   0.000082   0.000000  -0.019407
    22  Cl  -0.000171   0.000002   0.000001  -0.033625  -0.015547  -0.056199
              19         20         21         22
     1  C   -6.706684   0.209495  -0.390971  -0.133128
     2  C    1.902301  -0.080072   0.192191  -0.080970
     3  C   -1.687617   0.063327  -0.017921   0.027666
     4  C    4.175291  -0.063927  -0.585737  -0.010489
     5  C   10.452980  -0.232903   0.326152  -0.012652
     6  C  -15.043417  -0.156954  -0.226876  -0.097495
     7  C   -3.479428   0.533153  -0.071015  -0.529536
     8  C   -0.194294   0.001558  -0.031854   0.284114
     9  C   -0.926361  -0.285516  -0.005352  -0.630552
    10  C    0.815364  -2.003590  -0.000124  -0.021695
    11  C   -1.356621  -0.278399  -0.001515   0.365087
    12  C  -14.828697   3.737772  -0.033085   0.031252
    13  H    0.014903  -0.000448   0.000248  -0.000171
    14  H    0.002619  -0.000002  -0.011813   0.000002
    15  H   -0.123058   0.000105  -0.014188   0.000001
    16  H    0.012677  -0.002291   0.000082  -0.033625
    17  H    0.007459  -0.044981   0.000000  -0.015547
    18  Cl   2.717976  -2.455559  -0.019407  -0.056199
    19  Cl  42.536835  -1.753766   0.023734  -0.016699
    20  Cl  -1.753766  19.250086  -0.000207   0.020657
    21  Cl   0.023734  -0.000207  17.437824  -0.000028
    22  Cl  -0.016699   0.020657  -0.000028  17.473770
 Mulliken charges:
               1
     1  C   -0.165606
     2  C   -0.250488
     3  C   -0.490425
     4  C    0.433937
     5  C   -0.568970
     6  C   -0.738087
     7  C   -0.551273
     8  C   -0.621254
     9  C    0.977109
    10  C   -0.604512
    11  C    0.334421
    12  C   -1.133968
    13  H    0.121829
    14  H    0.146359
    15  H    0.141539
    16  H    0.129837
    17  H    0.152856
    18  Cl   0.823635
    19  Cl   0.454502
    20  Cl   0.542461
    21  Cl   0.429862
    22  Cl   0.436237
 Sum of Mulliken charges =  -0.00000
 Mulliken charges with hydrogens summed into heavy atoms:
               1
     1  C   -0.165606
     2  C   -0.128659
     3  C   -0.344066
     4  C    0.433937
     5  C   -0.427430
     6  C   -0.738087
     7  C   -0.551273
     8  C   -0.491417
     9  C    0.977109
    10  C   -0.451657
    11  C    0.334421
    12  C   -1.133968
    18  Cl   0.823635
    19  Cl   0.454502
    20  Cl   0.542461
    21  Cl   0.429862
    22  Cl   0.436237
 Electronic spatial extent (au):  <R**2>=           7348.0644
 Charge=             -0.0000 electrons
 Dipole moment (field-independent basis, Debye):
    X=              0.4061    Y=             -2.0105    Z=              0.0000  Tot=              2.0511
 Quadrupole moment (field-independent basis, Debye-Ang):
   XX=           -147.8664   YY=           -122.7296   ZZ=           -134.6671
   XY=             -0.2516   XZ=              0.0000   YZ=             -0.0000
 Traceless Quadrupole moment (field-independent basis, Debye-Ang):
   XX=            -12.7787   YY=             12.3581   ZZ=              0.4206
   XY=             -0.2516   XZ=              0.0000   YZ=             -0.0000
 Octapole moment (field-independent basis, Debye-Ang**2):
  XXX=            -53.8483  YYY=            -40.2679  ZZZ=             -0.0000  XYY=             28.0666
  XXY=            -14.0418  XXZ=             -0.0000  XZZ=             -3.1261  YZZ=            -14.1143
  YYZ=             -0.0000  XYZ=             -0.0000
 Hexadecapole moment (field-independent basis, Debye-Ang**3):
 XXXX=          -7190.6198 YYYY=          -2520.8619 ZZZZ=           -160.3827 XXXY=            -33.2022
 XXXZ=              0.0004 YYYX=             37.1823 YYYZ=             -0.0002 ZZZX=              0.0000
 ZZZY=             -0.0000 XXYY=          -1623.9528 XXZZ=          -1227.8221 YYZZ=           -480.5621
 XXYZ=             -0.0001 YYXZ=              0.0000 ZZXY=             -4.6733
 N-N= 1.808223299750D+03 E-N=-1.015294949355D+04  KE= 2.760309037974D+03
 Calling FoFJK, ICntrl=      2127 FMM=F ISym2X=0 I1Cent= 0 IOpClX= 0 NMat=1 NMatS=1 NMatT=0.
 ***** Axes restored to original set *****
 -------------------------------------------------------------------
 Center     Atomic                   Forces (Hartrees/Bohr)
 Number     Number              X              Y              Z
 -------------------------------------------------------------------
      1        6           0.002433035   -0.030875758   -0.006600302
      2        6          -0.006384401    0.020409370    0.005936654
      3        6          -0.008914032    0.000414126    0.003014652
      4        6          -0.008641457   -0.011984085    0.000596026
      5        6           0.005006067   -0.015534786   -0.004566710
      6        6           0.109811383   -0.006225603   -0.037347760
      7        6           0.021896846    0.006043184   -0.006079112
      8        6          -0.010499727   -0.005851511    0.002360241
      9        6          -0.006635665    0.013765541    0.004771414
     10        6           0.001541362    0.002983879    0.000052611
     11        6           0.031013234    0.007347140   -0.008837663
     12        6           0.048462480   -0.095089556   -0.033824516
     13        1           0.007570830   -0.004155918   -0.003274837
     14        1           0.008547686    0.000875120   -0.002651713
     15        1          -0.006008490    0.011133606    0.004070538
     16        1           0.006800870   -0.004153092   -0.003020674
     17        1          -0.004762379   -0.008577272   -0.000041941
     18       17          -1.716482020   -2.710055353    0.056559413
     19       17           1.531811654    2.829378314    0.026691351
     20       17          -0.004008502   -0.001851679    0.000972856
     21       17          -0.000203340   -0.001045488   -0.000129353
     22       17          -0.002355432    0.003049821    0.001348824
 -------------------------------------------------------------------
 Cartesian Forces:  Max     2.829378314 RMS     0.559723711

 GradGradGradGradGradGradGradGradGradGradGradGradGradGradGradGradGradGrad
 Berny optimization.
 FormGI is forming the generalized inverse of G from B-inverse, IUseBI=4.
 Internal  Forces:  Max     3.117497591 RMS     0.292572516
 Search for a local minimum.
 Step number   1 out of a maximum of  129
 All quantities printed in internal units (Hartrees-Bohrs-Radians)
 Mixed Optimization -- RFO/linear search
 Second derivative matrix not updated -- first step.
 ITU=  0
     Eigenvalues ---    0.01035   0.01214   0.01489   0.01712   0.01738
     Eigenvalues ---    0.01829   0.02070   0.02070   0.02070   0.02070
     Eigenvalues ---    0.02070   0.02070   0.02070   0.02070   0.02070
     Eigenvalues ---    0.02070   0.02070   0.02070   0.03966   0.16000
     Eigenvalues ---    0.16000   0.16000   0.16000   0.16000   0.22443
     Eigenvalues ---    0.23491   0.23514   0.23540   0.24620   0.25000
     Eigenvalues ---    0.25000   0.25000   0.25000   0.25000   0.25000
     Eigenvalues ---    0.25000   0.28335   0.29044   0.29447   0.29539
     Eigenvalues ---    0.29539   0.29539   0.37230   0.37230   0.37230
     Eigenvalues ---    0.37230   0.37230   0.40017   0.40856   0.41415
     Eigenvalues ---    0.41606   0.44578   0.45130   0.45389   0.45389
     Eigenvalues ---    0.45389   0.45389   0.45389   0.45389  16.61567
 RFO step:  Lambda=-6.28660000D-01 EMin= 1.03510893D-02
 Linear search not attempted -- first point.
 Iteration  1 RMS(Cart)=  0.03352589 RMS(Int)=  0.00052704
 Iteration  2 RMS(Cart)=  0.00131480 RMS(Int)=  0.00024032
 Iteration  3 RMS(Cart)=  0.00000068 RMS(Int)=  0.00024032
 Variable       Old X    -DE/DX   Delta X   Delta X   Delta X     New X
                                 (Linear)    (Quad)   (Total)
    R1        2.64826   0.01854   0.00000   0.00259   0.00253   2.65079
    R2        2.64826   0.10234   0.00000   0.01714   0.01681   2.66507
    R3        2.91018   0.11839   0.00000  -0.01387  -0.01440   2.89578
    R4        2.64826  -0.01105   0.00000  -0.00791  -0.00790   2.64036
    R5        2.02201   0.00787   0.00000   0.00786   0.00786   2.02987
    R6        2.64826  -0.03030   0.00000  -0.01116  -0.01109   2.63717
    R7        2.02201   0.00897   0.00000   0.00896   0.00896   2.03096
    R8        2.64826  -0.02716   0.00000  -0.01055  -0.01049   2.63777
    R9        3.32592  -0.00100   0.00000  -0.00109  -0.00109   3.32483
   R10        2.64826  -0.00804   0.00000  -0.00972  -0.00973   2.63853
   R11        2.02201   0.01329   0.00000   0.01328   0.01328   2.03528
   R12        3.32592   0.04989   0.00000   0.12488   0.12513   3.45105
   R13        2.64826   0.01729   0.00000   0.00141   0.00134   2.64960
   R14        2.64826   0.10225   0.00000   0.01713   0.01676   2.66503
   R15        2.64826  -0.01252   0.00000  -0.00930  -0.00929   2.63897
   R16        2.02201   0.00731   0.00000   0.00730   0.00730   2.02931
   R17        2.64826  -0.03291   0.00000  -0.01358  -0.01350   2.63476
   R18        3.32592  -0.00403   0.00000  -0.00436  -0.00436   3.32156
   R19        2.64826  -0.02707   0.00000  -0.01045  -0.01037   2.63789
   R20        2.02201   0.00981   0.00000   0.00980   0.00980   2.03181
   R21        2.64826  -0.00939   0.00000  -0.01094  -0.01094   2.63732
   R22        3.32592   0.00415   0.00000   0.00449   0.00449   3.33041
   R23        3.32592   0.06022   0.00000   0.13613   0.13636   3.46227
   R24        2.23252   3.11750   0.00000   0.18079   0.18131   2.41384
    A1        2.09440  -0.08131   0.00000  -0.01171  -0.01142   2.08298
    A2        2.09440  -0.16589   0.00000  -0.00137  -0.00070   2.09369
    A3        2.09440   0.24720   0.00000   0.01307   0.01212   2.10651
    A4        2.09440   0.04801   0.00000   0.00786   0.00769   2.10209
    A5        2.09440  -0.01911   0.00000   0.00227   0.00235   2.09675
    A6        2.09440  -0.02889   0.00000  -0.01013  -0.01004   2.08435
    A7        2.09440   0.00400   0.00000  -0.00322  -0.00325   2.09115
    A8        2.09440  -0.00130   0.00000   0.00250   0.00252   2.09691
    A9        2.09440  -0.00270   0.00000   0.00072   0.00073   2.09513
   A10        2.09440  -0.00242   0.00000   0.00495   0.00498   2.09938
   A11        2.09440   0.00058   0.00000  -0.00319  -0.00320   2.09119
   A12        2.09440   0.00184   0.00000  -0.00176  -0.00178   2.09262
   A13        2.09440   0.01730   0.00000   0.00350   0.00344   2.09783
   A14        2.09440  -0.00854   0.00000  -0.00162  -0.00159   2.09281
   A15        2.09440  -0.00875   0.00000  -0.00188  -0.00185   2.09254
   A16        2.09440   0.01444   0.00000  -0.00138  -0.00144   2.09295
   A17        2.09440   0.07066   0.00000   0.03250   0.03233   2.12672
   A18        2.09440  -0.08509   0.00000  -0.03112  -0.03088   2.06351
   A19        2.09440  -0.16971   0.00000  -0.00581  -0.00511   2.08929
   A20        2.09440   0.24647   0.00000   0.01228   0.01131   2.10570
   A21        2.09440  -0.07675   0.00000  -0.00647  -0.00620   2.08820
   A22        2.09440   0.04319   0.00000   0.00222   0.00202   2.09642
   A23        2.09440  -0.01717   0.00000   0.00450   0.00460   2.09900
   A24        2.09440  -0.02602   0.00000  -0.00672  -0.00662   2.08777
   A25        2.09440   0.01309   0.00000   0.00729   0.00726   2.10165
   A26        2.09440  -0.00544   0.00000  -0.00238  -0.00237   2.09203
   A27        2.09440  -0.00765   0.00000  -0.00491  -0.00489   2.08951
   A28        2.09440  -0.01464   0.00000  -0.00914  -0.00910   2.08530
   A29        2.09440   0.00708   0.00000   0.00426   0.00424   2.09864
   A30        2.09440   0.00756   0.00000   0.00488   0.00486   2.09925
   A31        2.09440   0.02920   0.00000   0.01711   0.01706   2.11146
   A32        2.09440  -0.01758   0.00000  -0.01195  -0.01192   2.08247
   A33        2.09440  -0.01162   0.00000  -0.00516  -0.00514   2.08926
   A34        2.09440   0.00592   0.00000  -0.01100  -0.01104   2.08335
   A35        2.09440   0.06743   0.00000   0.02890   0.02868   2.12308
   A36        2.09440  -0.07335   0.00000  -0.01791  -0.01764   2.07676
   A37        2.09440  -0.31536   0.00000  -0.04274  -0.04160   2.05280
   A38        2.09440  -0.31640   0.00000  -0.04401  -0.04284   2.05155
    D1        0.00000   0.00000   0.00000   0.00000   0.00000   0.00000
    D2        3.14159   0.00000   0.00000   0.00000   0.00000   3.14159
    D3       -3.14159   0.00000   0.00000   0.00000   0.00000  -3.14159
    D4       -0.00000   0.00000   0.00000   0.00000   0.00000  -0.00000
    D5       -0.00000  -0.00000   0.00000  -0.00000  -0.00000  -0.00000
    D6        3.14159  -0.00000   0.00000   0.00000   0.00000   3.14159
    D7        3.14159  -0.00000   0.00000  -0.00000  -0.00000   3.14159
    D8        0.00000  -0.00000   0.00000   0.00000   0.00000   0.00000
    D9       -0.00000  -0.00000   0.00000  -0.00000  -0.00000  -0.00000
   D10        3.14159  -0.00000   0.00000  -0.00000  -0.00000   3.14159
   D11        3.14159  -0.00000   0.00000  -0.00000  -0.00000   3.14159
   D12       -0.00000  -0.00000   0.00000  -0.00000  -0.00000  -0.00000
   D13        0.00000  -0.00000   0.00000  -0.00000  -0.00000   0.00000
   D14        3.14159  -0.00000   0.00000   0.00000   0.00000   3.14159
   D15       -3.14159   0.00000   0.00000  -0.00000  -0.00000  -3.14159
   D16        0.00000   0.00000   0.00000  -0.00000  -0.00000   0.00000
   D17       -0.00000  -0.00000   0.00000   0.00000   0.00000  -0.00000
   D18        3.14159   0.00000   0.00000  -0.00000  -0.00000   3.14159
   D19        3.14159  -0.00000   0.00000   0.00000   0.00000   3.14159
   D20        0.00000   0.00000   0.00000  -0.00000  -0.00000   0.00000
   D21        0.00000   0.00000   0.00000  -0.00000  -0.00000   0.00000
   D22       -3.14159   0.00000   0.00000  -0.00000  -0.00000  -3.14159
   D23       -3.14159  -0.00000   0.00000  -0.00000  -0.00000  -3.14159
   D24        0.00000   0.00000   0.00000   0.00000   0.00000   0.00000
   D25       -0.00000   0.00000   0.00000   0.00000   0.00000  -0.00000
   D26        3.14159   0.00000   0.00000   0.00000   0.00000   3.14159
   D27        3.14159  -0.00000   0.00000   0.00000   0.00000   3.14159
   D28       -0.00000   0.00000   0.00000  -0.00000  -0.00000  -0.00000
   D29        0.00001  -0.00000   0.00000  -0.00000  -0.00000   0.00001
   D30       -3.14158  -0.00000   0.00000  -0.00000  -0.00000  -3.14158
   D31        3.14159   0.00000   0.00000   0.00000   0.00000   3.14159
   D32        0.00000   0.00000   0.00000   0.00000   0.00000   0.00000
   D33        0.00000   0.00000   0.00000   0.00000   0.00000   0.00000
   D34       -3.14159   0.00000   0.00000  -0.00000  -0.00000  -3.14159
   D35       -3.14159  -0.00000   0.00000  -0.00000  -0.00000  -3.14159
   D36        0.00000  -0.00000   0.00000   0.00000   0.00000   0.00000
   D37       -0.00000  -0.00000   0.00000  -0.00000  -0.00000  -0.00000
   D38        3.14159  -0.00000   0.00000   0.00000   0.00000   3.14159
   D39       -0.00000  -0.00000   0.00000   0.00000   0.00000  -0.00000
   D40        3.14159  -0.00000   0.00000  -0.00000  -0.00000   3.14159
   D41        3.14159   0.00000   0.00000   0.00000   0.00000   3.14159
   D42       -0.00000   0.00000   0.00000   0.00000   0.00000  -0.00000
   D43       -0.00000  -0.00000   0.00000  -0.00000  -0.00000  -0.00000
   D44       -3.14159  -0.00000   0.00000  -0.00000  -0.00000  -3.14159
   D45        3.14159  -0.00000   0.00000   0.00000   0.00000   3.14159
   D46        0.00000   0.00000   0.00000  -0.00000  -0.00000   0.00000
   D47        0.00000   0.00000   0.00000  -0.00000  -0.00000   0.00000
   D48       -3.14159   0.00000   0.00000  -0.00000  -0.00000  -3.14159
   D49        3.14159  -0.00000   0.00000   0.00000   0.00000   3.14159
   D50        0.00000   0.00000   0.00000  -0.00000  -0.00000   0.00000
   D51        0.00000   0.00000   0.00000   0.00000   0.00000   0.00000
   D52       -3.14159   0.00000   0.00000  -0.00000  -0.00000  -3.14159
   D53        3.14159  -0.00000   0.00000   0.00000   0.00000   3.14159
   D54       -0.00000   0.00000   0.00000  -0.00000  -0.00000  -0.00000
   D55        0.00001  -0.00000   0.00000  -0.00000  -0.00000   0.00001
   D56       -3.14158  -0.00000   0.00000  -0.00000  -0.00000  -3.14158
   D57       -0.00001   0.00000   0.00000   0.00000   0.00000  -0.00001
         Item               Value     Threshold  Converged?
 Maximum Force            3.117498     0.000450     NO 
 RMS     Force            0.292573     0.000300     NO 
 Maximum Displacement     0.198190     0.001800     NO 
 RMS     Displacement     0.032775     0.001200     NO 
 Predicted change in Energy=-3.370386D-01
 GradGradGradGradGradGradGradGradGradGradGradGradGradGradGradGradGradGrad

                          Input orientation:                          
 ---------------------------------------------------------------------
 Center     Atomic      Atomic             Coordinates (Angstroms)
 Number     Number       Type             X           Y           Z
 ---------------------------------------------------------------------
      1          6           0        1.207598    0.311233   -0.000836
      2          6           0        2.541160    0.338559   -0.435053
      3          6           0        3.257687    1.538014   -0.445846
      4          6           0        2.643241    2.717121   -0.021966
      5          6           0        1.316763    2.702882    0.412372
      6          6           0        0.594959    1.507753    0.425717
      7          6           0        0.432092   -1.010408    0.006442
      8          6           0        1.061529   -2.187742   -0.422044
      9          6           0        0.362841   -3.396868   -0.418942
     10          6           0       -0.963263   -3.444735    0.008963
     11          6           0       -1.590128   -2.272734    0.435602
     12          6           0       -0.909145   -1.054550    0.440033
     13          1           0        3.020255   -0.565306   -0.762646
     14          1           0        4.279210    1.553473   -0.779488
     15          1           0        0.848528    3.616432    0.738206
     16          1           0        2.082481   -2.165543   -0.754233
     17          1           0       -1.498575   -4.377184    0.010205
     18         17           0       -1.784736    0.450117    1.011096
     19         17           0       -1.136648    1.550822    1.004291
     20         17           0       -3.266461   -2.338134    0.975604
     21         17           0        3.545453    4.227553   -0.035530
     22         17           0        1.158373   -4.868804   -0.957479
 ---------------------------------------------------------------------
                    Distance matrix (angstroms):
                    1          2          3          4          5
     1  C    0.000000
     2  C    1.402740   0.000000
     3  C    2.430204   1.397218   0.000000
     4  C    2.801752   2.416323   1.395532   0.000000
     5  C    2.429536   2.794154   2.420876   1.395849   0.000000
     6  C    1.410296   2.428093   2.801903   2.420424   1.396250
     7  C    1.532382   2.542204   3.831841   4.334104   3.838742
     8  C    2.538430   2.927743   4.324920   5.169096   4.967856
     9  C    3.826021   4.324206   5.721357   6.537482   6.229607
    10  C    4.338205   5.176045   6.546072   7.139768   6.569204
    11  C    3.833358   4.964316   6.228969   6.559682   5.762578
    12  C    2.557407   3.822452   4.986849   5.201768   4.367348
    13  H    2.152766   1.074161   2.140255   3.386011   3.868281
    14  H    3.403566   2.148364   1.074740   2.145766   3.393783
    15  H    3.405797   3.871174   3.394973   2.146536   1.077026
    16  H    2.732663   2.565695   3.897762   4.969011   5.064470
    17  H    5.413386   6.225428   7.603919   8.214916   7.629889
    18  Cl   3.161860   4.562584   5.360245   5.080699   3.879783
    19  Cl   2.835904   4.131291   4.627444   4.086688   2.774318
    20  Cl   5.290537   6.548520   7.720723   7.840620   6.836302
    21  Cl   4.561177   4.036396   2.735834   1.759425   2.737206
    22  Cl   5.267862   5.413101   6.761376   7.786287   7.696233
                    6          7          8          9         10
     6  C    0.000000
     7  C    2.558017   0.000000
     8  C    3.820087   1.402108   0.000000
     9  C    4.982232   2.425065   1.396482   0.000000
    10  C    5.208538   2.805881   2.421896   1.394255   0.000000
    11  C    4.366552   2.422193   2.788201   2.409982   1.395911
    12  C    2.971184   1.410272   2.431225   2.800400   2.429348
    13  H    3.404679   2.736458   2.566110   3.898427   4.975431
    14  H    3.876637   4.689508   4.947517   6.322485   7.286100
    15  H    2.146736   4.702823   5.922835   7.124694   7.326285
    16  H    4.134986   2.153312   1.073865   2.141435   3.390481
    17  H    6.260033   3.881066   3.396267   2.147104   1.075185
    18  Cl   2.669121   2.838448   4.136836   4.632105   4.104748
    19  Cl   1.826216   3.164893   4.565443   5.362248   5.096698
    20  Cl   5.477571   4.047398   4.550554   4.029580   2.731974
    21  Cl   4.039242   6.093522   6.890230   8.270902   8.899129
    22  Cl   6.549133   4.042753   2.735720   1.757693   2.731908
                   11         12         13         14         15
    11  C    0.000000
    12  C    1.395610   0.000000
    13  H    5.060311   4.138355   0.000000
    14  H    7.110937   5.933637   2.464644   0.000000
    15  H    6.381292   4.999640   4.945289   4.281212   0.000000
    16  H    3.862028   3.407405   1.854791   4.319413   6.097643
    17  H    2.148967   3.401775   5.962176   8.317398   8.362821
    18  Cl   2.789800   1.832156   5.221607   6.418335   4.127239
    19  Cl   3.892124   2.675465   4.987976   5.702052   2.877233
    20  Cl   1.762377   2.737036   6.759234   8.669608   7.241985
    21  Cl   8.297583   6.926054   4.876066   2.870989   2.871505
    22  Cl   4.029207   4.558092   4.693044   7.142614   8.658555
                   16         17         18         19         20
    16  H    0.000000
    17  H    4.277813   0.000000
    18  Cl   4.991336   4.938270   0.000000
    19  Cl   5.221741   6.021666   1.277347   0.000000
    20  Cl   5.624350   2.866207   3.157707   4.434062   0.000000
    21  Cl   6.597613   9.974257   6.616295   5.492558   9.514873
    22  Cl   2.864071   2.870100   6.389687   7.094171   5.451629
                   21         22
    21  Cl   0.000000
    22  Cl   9.449436   0.000000
 Stoichiometry    C12H5Cl5
 Framework group  C1[X(C12H5Cl5)]
 Deg. of freedom    60
 Full point group                 C1      NOp   1
 Largest Abelian subgroup         C1      NOp   1
 Largest concise Abelian subgroup C1      NOp   1
                         Standard orientation:                         
 ---------------------------------------------------------------------
 Center     Atomic      Atomic             Coordinates (Angstroms)
 Number     Number       Type             X           Y           Z
 ---------------------------------------------------------------------
      1          6           0        0.968448    0.572254    0.000002
      2          6           0        1.643545    1.801857   -0.000001
      3          6           0        3.040168    1.842634   -0.000002
      4          6           0        3.769048    0.652574   -0.000002
      5          6           0        3.108832   -0.577267    0.000003
      6          6           0        1.713406   -0.625231    0.000004
      7          6           0       -0.563603    0.540392    0.000002
      8          6           0       -1.283616    1.743508    0.000002
      9          6           0       -2.679967    1.724430    0.000001
     10          6           0       -3.369346    0.512529    0.000000
     11          6           0       -2.652732   -0.685398   -0.000000
     12          6           0       -1.257123   -0.687573    0.000000
     13          1           0        1.088756    2.721656   -0.000003
     14          1           0        3.552523    2.787387   -0.000005
     15          1           0        3.677376   -1.492003    0.000005
     16          1           0       -0.765658    2.684203    0.000000
     17          1           0       -4.444470    0.501080   -0.000002
     18         17           0       -0.371674   -2.291560   -0.000002
     19         17           0        0.905353   -2.262948    0.000008
     20         17           0       -3.528448   -2.214808   -0.000006
     21         17           0        5.527726    0.703844   -0.000004
     22         17           0       -3.575950    3.236614    0.000002
 ---------------------------------------------------------------------
 Rotational constants (GHZ):           0.4471637           0.1768185           0.1267132
 Standard basis: 6-311+G(d,p) (5D, 7F)
 There are   461 symmetry adapted cartesian basis functions of A   symmetry.
 There are   444 symmetry adapted basis functions of A   symmetry.
   444 basis functions,   737 primitive gaussians,   461 cartesian basis functions
    81 alpha electrons       81 beta electrons
       nuclear repulsion energy      1787.5060914086 Hartrees.
 NAtoms=   22 NActive=   22 NUniq=   22 SFac= 1.00D+00 NAtFMM=   60 NAOKFM=F Big=F
 Integral buffers will be    131072 words long.
 Raffenetti 2 integral format.
 Two-electron integral symmetry is turned on.
 One-electron integrals computed using PRISM.
 NBasis=   444 RedAO= T EigKep=  1.34D-06  NBF=   444
 NBsUse=   438 1.00D-06 EigRej=  6.72D-07 NBFU=   438
 Initial guess from the checkpoint file:  "/scratch/pkc/Gau-61483.chk"
 B after Tr=     0.000000    0.000000   -0.000000
         Rot=    0.999999   -0.000000   -0.000000    0.001516 Ang=  -0.17 deg.
 ExpMin= 4.38D-02 ExpMax= 1.06D+05 ExpMxC= 3.62D+03 IAcc=3 IRadAn=         5 AccDes= 0.00D+00
 Harris functional with IExCor=  402 and IRadAn=       5 diagonalized for initial guess.
 HarFok:  IExCor=  402 AccDes= 0.00D+00 IRadAn=         5 IDoV= 1 UseB2=F ITyADJ=14
 ICtDFT=  3500011 ScaDFX=  1.000000  1.000000  1.000000  1.000000
 FoFCou: FMM=F IPFlag=           0 FMFlag=      100000 FMFlg1=           0
         NFxFlg=           0 DoJE=T BraDBF=F KetDBF=T FulRan=T
         wScrn=  0.000000 ICntrl=       500 IOpCl=  0 I1Cent=   200000004 NGrid=           0
         NMat0=    1 NMatS0=      1 NMatT0=    0 NMatD0=    1 NMtDS0=    0 NMtDT0=    0
 Petite list used in FoFCou.
 Requested convergence on RMS density matrix=1.00D-08 within  32 cycles.
 Requested convergence on MAX density matrix=1.00D-06.
 Requested convergence on             energy=1.00D-06.
 No special actions if energy rises.
 SCF Done:  E(RB3LYP) =  -2760.41102695     A.U. after   16 cycles
            NFock= 16  Conv=0.91D-08     -V/T= 2.0007
 QCSCF skips out because SCF is already converged.
 Calling FoFJK, ICntrl=      2127 FMM=F ISym2X=0 I1Cent= 0 IOpClX= 0 NMat=1 NMatS=1 NMatT=0.
 ***** Axes restored to original set *****
 -------------------------------------------------------------------
 Center     Atomic                   Forces (Hartrees/Bohr)
 Number     Number              X              Y              Z
 -------------------------------------------------------------------
      1        6          -0.001288976   -0.024743097   -0.004222342
      2        6          -0.004770814    0.014711058    0.004334825
      3        6          -0.004295528   -0.000574971    0.001307301
      4        6          -0.005038501   -0.007254058    0.000297361
      5        6          -0.001824728   -0.010145237   -0.001304091
      6        6           0.090425728   -0.018619571   -0.033288572
      7        6           0.015840692    0.007946109   -0.003726431
      8        6          -0.006525179   -0.004143499    0.001371608
      9        6          -0.003473054    0.010532103    0.003122193
     10        6          -0.001889535   -0.002347613    0.000181654
     11        6           0.025271882    0.010471489   -0.006359323
     12        6           0.051233480   -0.074585817   -0.030886833
     13        1           0.005670414   -0.002091260   -0.002260968
     14        1           0.005266771    0.000579443   -0.001626331
     15        1          -0.003505152    0.007436362    0.002551437
     16        1           0.004103156   -0.003697901   -0.002046414
     17        1          -0.002813755   -0.005222343   -0.000053847
     18       17          -1.106045362   -1.688641604    0.047267964
     19       17           0.950266172    1.790341139    0.023154583
     20       17          -0.005666097   -0.001455746    0.001593315
     21       17           0.000306792    0.000083259   -0.000085428
     22       17          -0.001248406    0.001421752    0.000678339
 -------------------------------------------------------------------
 Cartesian Forces:  Max     1.790341139 RMS     0.352639218

 GradGradGradGradGradGradGradGradGradGradGradGradGradGradGradGradGradGrad
 Berny optimization.
 Using GEDIIS/GDIIS optimizer.
 FormGI is forming the generalized inverse of G from B-inverse, IUseBI=4.
 Internal  Forces:  Max     1.969805820 RMS     0.184862539
 Search for a local minimum.
 Step number   2 out of a maximum of  129
 All quantities printed in internal units (Hartrees-Bohrs-Radians)
 Mixed Optimization -- RFO/linear search
 Update second derivatives using D2CorX and points    1    2
 DE= -5.10D-01 DEPred=-3.37D-01 R= 1.51D+00
 TightC=F SS=  1.41D+00  RLast= 2.79D-01 DXNew= 5.0454D-01 8.3552D-01
 Trust test= 1.51D+00 RLast= 2.79D-01 DXMaxT set to 5.05D-01
 ITU=  1  0
 Use linear search instead of GDIIS.
 Linear search step of   0.557 exceeds DXMaxT=   0.505 but not scaled.
 Quartic linear search produced a step of  2.00000.
 Iteration  1 RMS(Cart)=  0.04176452 RMS(Int)=  0.01657639
 Iteration  2 RMS(Cart)=  0.02394264 RMS(Int)=  0.00132963
 Iteration  3 RMS(Cart)=  0.00024705 RMS(Int)=  0.00132362
 Iteration  4 RMS(Cart)=  0.00000012 RMS(Int)=  0.00132362
 Variable       Old X    -DE/DX   Delta X   Delta X   Delta X     New X
                                 (Linear)    (Quad)   (Total)
    R1        2.65079   0.01251   0.00506   0.00000   0.00472   2.65551
    R2        2.66507   0.06053   0.03362   0.00000   0.03183   2.69690
    R3        2.89578   0.06122  -0.02879   0.00000  -0.03150   2.86428
    R4        2.64036  -0.00711  -0.01580   0.00000  -0.01572   2.62464
    R5        2.02987   0.00498   0.01572   0.00000   0.01572   2.04559
    R6        2.63717  -0.01877  -0.02218   0.00000  -0.02174   2.61543
    R7        2.03096   0.00552   0.01791   0.00000   0.01791   2.04888
    R8        2.63777  -0.01581  -0.02098   0.00000  -0.02062   2.61715
    R9        3.32483   0.00023  -0.00217   0.00000  -0.00217   3.32266
   R10        2.63853  -0.00615  -0.01947   0.00000  -0.01954   2.61899
   R11        2.03528   0.00860   0.02655   0.00000   0.02655   2.06184
   R12        3.45105   0.05957   0.25026   0.00000   0.25138   3.70243
   R13        2.64960   0.01203   0.00268   0.00000   0.00225   2.65185
   R14        2.66503   0.06072   0.03353   0.00000   0.03157   2.69660
   R15        2.63897  -0.00828  -0.01859   0.00000  -0.01855   2.62042
   R16        2.02931   0.00446   0.01461   0.00000   0.01461   2.04392
   R17        2.63476  -0.01989  -0.02701   0.00000  -0.02654   2.60822
   R18        3.32156  -0.00196  -0.00872   0.00000  -0.00872   3.31284
   R19        2.63789  -0.01545  -0.02075   0.00000  -0.02032   2.61757
   R20        2.03181   0.00593   0.01960   0.00000   0.01960   2.05140
   R21        2.63732  -0.00857  -0.02188   0.00000  -0.02190   2.61542
   R22        3.33041   0.00593   0.00898   0.00000   0.00898   3.33939
   R23        3.46227   0.06950   0.27271   0.00000   0.27372   3.73600
   R24        2.41384   1.96981   0.36263   0.00000   0.36534   2.77917
    A1        2.08298  -0.04967  -0.02284   0.00000  -0.02132   2.06166
    A2        2.09369  -0.09755  -0.00140   0.00000   0.00228   2.09598
    A3        2.10651   0.14722   0.02424   0.00000   0.01904   2.12555
    A4        2.10209   0.03026   0.01539   0.00000   0.01448   2.11657
    A5        2.09675  -0.01096   0.00470   0.00000   0.00515   2.10190
    A6        2.08435  -0.01929  -0.02009   0.00000  -0.01964   2.06471
    A7        2.09115   0.00142  -0.00649   0.00000  -0.00661   2.08454
    A8        2.09691  -0.00019   0.00503   0.00000   0.00509   2.10200
    A9        2.09513  -0.00122   0.00146   0.00000   0.00152   2.09665
   A10        2.09938  -0.00199   0.00996   0.00000   0.01012   2.10949
   A11        2.09119   0.00060  -0.00641   0.00000  -0.00648   2.08471
   A12        2.09262   0.00138  -0.00356   0.00000  -0.00363   2.08898
   A13        2.09783   0.01158   0.00687   0.00000   0.00651   2.10434
   A14        2.09281  -0.00607  -0.00317   0.00000  -0.00299   2.08982
   A15        2.09254  -0.00551  -0.00370   0.00000  -0.00352   2.08902
   A16        2.09295   0.00840  -0.00289   0.00000  -0.00319   2.08976
   A17        2.12672   0.05584   0.06466   0.00000   0.06353   2.19025
   A18        2.06351  -0.06425  -0.06177   0.00000  -0.06034   2.00317
   A19        2.08929  -0.10074  -0.01022   0.00000  -0.00639   2.08290
   A20        2.10570   0.14657   0.02262   0.00000   0.01734   2.12305
   A21        2.08820  -0.04583  -0.01240   0.00000  -0.01096   2.07724
   A22        2.09642   0.02631   0.00405   0.00000   0.00298   2.09940
   A23        2.09900  -0.00925   0.00920   0.00000   0.00974   2.10873
   A24        2.08777  -0.01706  -0.01325   0.00000  -0.01271   2.07506
   A25        2.10165   0.00806   0.01451   0.00000   0.01435   2.11600
   A26        2.09203  -0.00332  -0.00473   0.00000  -0.00465   2.08737
   A27        2.08951  -0.00474  -0.00978   0.00000  -0.00970   2.07981
   A28        2.08530  -0.01148  -0.01820   0.00000  -0.01796   2.06734
   A29        2.09864   0.00557   0.00849   0.00000   0.00837   2.10700
   A30        2.09925   0.00591   0.00971   0.00000   0.00959   2.10884
   A31        2.11146   0.02147   0.03413   0.00000   0.03385   2.14531
   A32        2.08247  -0.01283  -0.02385   0.00000  -0.02371   2.05876
   A33        2.08926  -0.00864  -0.01028   0.00000  -0.01014   2.07911
   A34        2.08335   0.00147  -0.02209   0.00000  -0.02227   2.06108
   A35        2.12308   0.05284   0.05737   0.00000   0.05596   2.17904
   A36        2.07676  -0.05431  -0.03528   0.00000  -0.03369   2.04306
   A37        2.05280  -0.20139  -0.08320   0.00000  -0.07679   1.97601
   A38        2.05155  -0.20108  -0.08568   0.00000  -0.07909   1.97246
    D1        0.00000   0.00000   0.00000   0.00000   0.00000   0.00000
    D2        3.14159   0.00000   0.00000   0.00000   0.00000   3.14159
    D3       -3.14159   0.00000   0.00000   0.00000   0.00000  -3.14159
    D4       -0.00000   0.00000   0.00000   0.00000   0.00000  -0.00000
    D5       -0.00000  -0.00000  -0.00000   0.00000  -0.00000  -0.00000
    D6        3.14159  -0.00000   0.00000   0.00000   0.00000   3.14159
    D7        3.14159  -0.00000  -0.00000   0.00000  -0.00000   3.14159
    D8        0.00000  -0.00000   0.00000   0.00000   0.00000   0.00000
    D9       -0.00000  -0.00000  -0.00000   0.00000  -0.00000  -0.00000
   D10        3.14159  -0.00000  -0.00000   0.00000  -0.00000   3.14159
   D11        3.14159  -0.00000  -0.00000   0.00000  -0.00000   3.14159
   D12       -0.00000  -0.00000  -0.00000   0.00000  -0.00000  -0.00000
   D13        0.00000  -0.00000  -0.00000   0.00000  -0.00000   0.00000
   D14        3.14159  -0.00000   0.00000   0.00000   0.00000   3.14159
   D15       -3.14159   0.00000  -0.00000   0.00000  -0.00000  -3.14159
   D16        0.00000   0.00000  -0.00000   0.00000  -0.00000   0.00000
   D17       -0.00000  -0.00000   0.00000   0.00000   0.00000  -0.00000
   D18        3.14159   0.00000  -0.00000   0.00000  -0.00000   3.14159
   D19        3.14159  -0.00000   0.00000   0.00000   0.00000   3.14159
   D20        0.00000   0.00000  -0.00000   0.00000  -0.00000   0.00000
   D21        0.00000   0.00000  -0.00000   0.00000  -0.00000   0.00000
   D22       -3.14159   0.00000  -0.00000   0.00000  -0.00000  -3.14159
   D23       -3.14159  -0.00000  -0.00000   0.00000  -0.00000  -3.14159
   D24        0.00000   0.00000   0.00000   0.00000   0.00000   0.00000
   D25       -0.00000   0.00000   0.00000   0.00000   0.00000  -0.00000
   D26        3.14159   0.00000   0.00000   0.00000  -0.00000   3.14159
   D27        3.14159  -0.00000   0.00000   0.00000   0.00000   3.14159
   D28       -0.00000   0.00000  -0.00000   0.00000  -0.00000  -0.00000
   D29        0.00001  -0.00000  -0.00000   0.00000  -0.00000   0.00001
   D30       -3.14158  -0.00000  -0.00000   0.00000  -0.00000  -3.14158
   D31        3.14159   0.00000   0.00000   0.00000   0.00000   3.14159
   D32        0.00000   0.00000   0.00000   0.00000   0.00000   0.00000
   D33        0.00000   0.00000   0.00000   0.00000   0.00000   0.00000
   D34       -3.14159   0.00000  -0.00000   0.00000  -0.00000  -3.14159
   D35       -3.14159  -0.00000  -0.00000   0.00000  -0.00000  -3.14159
   D36        0.00000  -0.00000   0.00000   0.00000   0.00000   0.00000
   D37       -0.00000  -0.00000  -0.00000   0.00000  -0.00000  -0.00000
   D38        3.14159  -0.00000   0.00000   0.00000   0.00000   3.14159
   D39       -0.00000  -0.00000   0.00000   0.00000   0.00000  -0.00000
   D40        3.14159  -0.00000  -0.00000   0.00000  -0.00000   3.14159
   D41        3.14159   0.00000   0.00000   0.00000   0.00000   3.14159
   D42       -0.00000   0.00000   0.00000   0.00000   0.00000  -0.00000
   D43       -0.00000  -0.00000  -0.00000   0.00000  -0.00000  -0.00000
   D44       -3.14159  -0.00000  -0.00000   0.00000  -0.00000  -3.14159
   D45        3.14159  -0.00000   0.00000   0.00000   0.00000   3.14159
   D46        0.00000   0.00000  -0.00000   0.00000  -0.00000   0.00000
   D47        0.00000   0.00000  -0.00000   0.00000  -0.00000   0.00000
   D48       -3.14159   0.00000  -0.00000   0.00000  -0.00000  -3.14159
   D49        3.14159  -0.00000   0.00000   0.00000   0.00000   3.14159
   D50        0.00000   0.00000  -0.00000   0.00000  -0.00000   0.00000
   D51        0.00000   0.00000   0.00000   0.00000   0.00000   0.00000
   D52       -3.14159   0.00000  -0.00000   0.00000  -0.00000  -3.14159
   D53        3.14159   0.00000   0.00000   0.00000   0.00000   3.14159
   D54       -0.00000   0.00000  -0.00000   0.00000  -0.00000  -0.00000
   D55        0.00001  -0.00000  -0.00000   0.00000  -0.00000   0.00001
   D56       -3.14158  -0.00000  -0.00000   0.00000  -0.00000  -3.14158
   D57       -0.00001   0.00000   0.00000   0.00000   0.00000  -0.00001
         Item               Value     Threshold  Converged?
 Maximum Force            1.969806     0.000450     NO 
 RMS     Force            0.184863     0.000300     NO 
 Maximum Displacement     0.381573     0.001800     NO 
 RMS     Displacement     0.060540     0.001200     NO 
 Predicted change in Energy=-3.681813D-01
 GradGradGradGradGradGradGradGradGradGradGradGradGradGradGradGradGradGrad

[...]
                 (A) (A) (A) (A) (A) (A) (A) (A) (A) (A) (A) (A)
                 (A) (A) (A) (A) (A) (A) (A) (A) (A) (A) (A) (A)
                 (A) (A) (A) (A) (A) (A) (A) (A) (A)
       Virtual   (A) (A) (A) (A) (A) (A) (A) (A) (A) (A) (A) (A)
                 (A) (A) (A) (A) (A) (A) (A) (A) (A) (A) (A) (A)
                 (A) (A) (A) (A) (A) (A) (A) (A) (A) (A) (A) (A)
                 (A) (A) (A) (A) (A) (A) (A) (A) (A) (A) (A) (A)
                 (A) (A) (A) (A) (A) (A) (A) (A) (A) (A) (A) (A)
                 (A) (A) (A) (A) (A) (A) (A) (A) (A) (A) (A) (A)
                 (A) (A) (A) (A) (A) (A) (A) (A) (A) (A) (A) (A)
                 (A) (A) (A) (A) (A) (A) (A) (A) (A) (A) (A) (A)
                 (A) (A) (A) (A) (A) (A) (A) (A) (A) (A) (A) (A)
                 (A) (A) (A) (A) (A) (A) (A) (A) (A) (A) (A) (A)
                 (A) (A) (A) (A) (A) (A) (A) (A) (A) (A) (A) (A)
                 (A) (A) (A) (A) (A) (A) (A) (A) (A) (A) (A) (A)
                 (A) (A) (A) (A) (A) (A) (A) (A) (A) (A) (A) (A)
                 (A) (A) (A) (A) (A) (A) (A) (A) (A) (A) (A) (A)
                 (A) (A) (A) (A) (A) (A) (A) (A) (A) (A) (A) (A)
                 (A) (A) (A) (A) (A) (A) (A) (A) (A) (A) (A) (A)
                 (A) (A) (A) (A) (A) (A) (A) (A) (A) (A) (A) (A)
                 (A) (A) (A) (A) (A) (A) (A) (A) (A) (A) (A) (A)
                 (A) (A) (A) (A) (A) (A) (A) (A) (A) (A) (A) (A)
                 (A) (A) (A) (A) (A) (A) (A) (A) (A) (A) (A) (A)
                 (A) (A) (A) (A) (A) (A) (A) (A) (A) (A) (A) (A)
                 (A) (A) (A) (A) (A) (A) (A) (A) (A) (A) (A) (A)
                 (A) (A) (A) (A) (A) (A) (A) (A) (A) (A) (A) (A)
                 (A) (A) (A) (A) (A) (A) (A) (A) (A) (A) (A) (A)
                 (A) (A) (A) (A) (A) (A) (A) (A) (A) (A) (A) (A)
                 (A) (A) (A) (A) (A) (A) (A) (A) (A) (A) (A) (A)
                 (A) (A) (A) (A) (A) (A) (A) (A) (A) (A) (A) (A)
                 (A) (A) (A) (A) (A) (A) (A) (A) (A) (A) (A) (A)
                 (A) (A) (A) (A) (A) (A) (A) (A) (A) (A) (A) (A)
                 (A) (A) (A) (A) (A) (A) (A) (A) (A) (A) (A) (A)
 The electronic state is 1-A.
 Alpha  occ. eigenvalues -- -101.57518-101.57371-101.57336-101.57098-101.57094
 Alpha  occ. eigenvalues --  -10.27302 -10.27053 -10.26685 -10.26661 -10.26418
 Alpha  occ. eigenvalues --  -10.23404 -10.22622 -10.21975 -10.21605 -10.21474
 Alpha  occ. eigenvalues --  -10.21421 -10.21036  -9.48977  -9.48824  -9.48809
 Alpha  occ. eigenvalues --   -9.48569  -9.48548  -7.25465  -7.25296  -7.25294
 Alpha  occ. eigenvalues --   -7.25037  -7.25016  -7.24457  -7.24396  -7.24301
 Alpha  occ. eigenvalues --   -7.24290  -7.24266  -7.24222  -7.24050  -7.24030
 Alpha  occ. eigenvalues --   -7.24004  -7.23991  -0.94802  -0.92918  -0.90336
 Alpha  occ. eigenvalues --   -0.89450  -0.87966  -0.85442  -0.84099  -0.79770
 Alpha  occ. eigenvalues --   -0.77287  -0.75316  -0.74218  -0.66426  -0.64573
 Alpha  occ. eigenvalues --   -0.62736  -0.61032  -0.55180  -0.53332  -0.53032
 Alpha  occ. eigenvalues --   -0.51813  -0.49425  -0.48056  -0.46394  -0.46296
 Alpha  occ. eigenvalues --   -0.46121  -0.44556  -0.43384  -0.42717  -0.41215
 Alpha  occ. eigenvalues --   -0.40108  -0.39701  -0.39316  -0.38005  -0.36540
 Alpha  occ. eigenvalues --   -0.34829  -0.34221  -0.33821  -0.33594  -0.33260
 Alpha  occ. eigenvalues --   -0.33011  -0.32506  -0.28395  -0.28227  -0.26906
 Alpha  occ. eigenvalues --   -0.26436
 Alpha virt. eigenvalues --   -0.05907  -0.05679  -0.04789  -0.04372  -0.02994
 Alpha virt. eigenvalues --   -0.01594  -0.00680   0.00202   0.00743   0.01453
 Alpha virt. eigenvalues --    0.01677   0.02185   0.02528   0.03300   0.03872
 Alpha virt. eigenvalues --    0.04472   0.04777   0.05155   0.05746   0.06036
 Alpha virt. eigenvalues --    0.06437   0.07244   0.08180   0.08284   0.08622
 Alpha virt. eigenvalues --    0.08905   0.09030   0.09551   0.09636   0.10412
 Alpha virt. eigenvalues --    0.10566   0.10850   0.11341   0.11792   0.11860
 Alpha virt. eigenvalues --    0.12156   0.12265   0.12457   0.12981   0.13325
 Alpha virt. eigenvalues --    0.13875   0.14485   0.14785   0.15237   0.15996
 Alpha virt. eigenvalues --    0.16165   0.16702   0.16878   0.16987   0.17256
 Alpha virt. eigenvalues --    0.18076   0.18323   0.18490   0.18745   0.19245
 Alpha virt. eigenvalues --    0.19728   0.19953   0.20375   0.20616   0.21198
 Alpha virt. eigenvalues --    0.21560   0.22058   0.22442   0.22986   0.23123
 Alpha virt. eigenvalues --    0.23511   0.23728   0.23979   0.24300   0.25193
 Alpha virt. eigenvalues --    0.25376   0.25679   0.26236   0.26654   0.27210
 Alpha virt. eigenvalues --    0.27632   0.28122   0.28496   0.28653   0.29044
 Alpha virt. eigenvalues --    0.29410   0.29831   0.30523   0.30804   0.31359
 Alpha virt. eigenvalues --    0.32845   0.33387   0.33630   0.33824   0.36380
 Alpha virt. eigenvalues --    0.40601   0.40813   0.42299   0.42906   0.43851
 Alpha virt. eigenvalues --    0.44836   0.45168   0.45343   0.45755   0.46174
 Alpha virt. eigenvalues --    0.47119   0.47776   0.48148   0.48668   0.48826
 Alpha virt. eigenvalues --    0.50117   0.50683   0.51407   0.52497   0.53547
 Alpha virt. eigenvalues --    0.54353   0.54829   0.56164   0.56553   0.57554
 Alpha virt. eigenvalues --    0.57685   0.57979   0.58485   0.59327   0.60207
 Alpha virt. eigenvalues --    0.61540   0.61910   0.63151   0.63421   0.64065
 Alpha virt. eigenvalues --    0.64514   0.65062   0.65580   0.66437   0.67563
 Alpha virt. eigenvalues --    0.67619   0.68595   0.69108   0.69518   0.70019
 Alpha virt. eigenvalues --    0.70862   0.71346   0.71801   0.74636   0.77920
 Alpha virt. eigenvalues --    0.80634   0.81744   0.82349   0.82734   0.83202
 Alpha virt. eigenvalues --    0.83777   0.83844   0.84204   0.84240   0.84701
 Alpha virt. eigenvalues --    0.84814   0.85261   0.85281   0.85521   0.85796
 Alpha virt. eigenvalues --    0.86934   0.87252   0.87696   0.88233   0.89388
 Alpha virt. eigenvalues --    0.89728   0.90327   0.91917   0.92009   0.93346
 Alpha virt. eigenvalues --    0.93869   0.94160   0.94338   0.94767   0.95079
 Alpha virt. eigenvalues --    0.96228   0.97193   0.97617   0.98539   0.98831
 Alpha virt. eigenvalues --    0.99438   0.99806   1.01525   1.01807   1.03341
 Alpha virt. eigenvalues --    1.04901   1.07545   1.10291   1.11884   1.12295
 Alpha virt. eigenvalues --    1.15153   1.17454   1.19012   1.20136   1.21863
 Alpha virt. eigenvalues --    1.22990   1.23780   1.24417   1.24580   1.25821
 Alpha virt. eigenvalues --    1.27499   1.29633   1.30215   1.31494   1.31845
 Alpha virt. eigenvalues --    1.34176   1.35951   1.39432   1.40488   1.44078
 Alpha virt. eigenvalues --    1.48310   1.49064   1.51336   1.54416   1.54948
 Alpha virt. eigenvalues --    1.55314   1.55551   1.58095   1.59624   1.60315
 Alpha virt. eigenvalues --    1.61055   1.62184   1.66152   1.68480   1.68583
 Alpha virt. eigenvalues --    1.70511   1.72584   1.73898   1.77818   1.79347
 Alpha virt. eigenvalues --    1.80787   1.81993   1.83906   1.85853   1.88780
 Alpha virt. eigenvalues --    1.88963   1.92073   1.92805   1.93302   1.93827
 Alpha virt. eigenvalues --    1.95008   1.96540   1.98659   1.99841   2.00536
 Alpha virt. eigenvalues --    2.04092   2.04808   2.06762   2.07156   2.08903
 Alpha virt. eigenvalues --    2.13541   2.14052   2.18079   2.23103   2.24390
 Alpha virt. eigenvalues --    2.25818   2.26511   2.26782   2.27605   2.28686
 Alpha virt. eigenvalues --    2.30132   2.31617   2.33395   2.35333   2.36004
 Alpha virt. eigenvalues --    2.39279   2.41646   2.42711   2.45285   2.47393
 Alpha virt. eigenvalues --    2.49153   2.50527   2.52067   2.53820   2.54909
 Alpha virt. eigenvalues --    2.54984   2.56490   2.58833   2.60330   2.64294
 Alpha virt. eigenvalues --    2.67347   2.67759   2.68942   2.70031   2.70706
 Alpha virt. eigenvalues --    2.71785   2.72518   2.74381   2.75111   2.75740
 Alpha virt. eigenvalues --    2.75941   2.77744   2.82303   2.83055   2.83663
 Alpha virt. eigenvalues --    2.84269   2.88191   2.90226   2.97524   2.98233
 Alpha virt. eigenvalues --    3.06835   3.08896   3.09008   3.12092   3.12776
 Alpha virt. eigenvalues --    3.13948   3.17854   3.21223   3.24905   3.27353
 Alpha virt. eigenvalues --    3.32072   3.34446   3.42389   3.44779   3.53730
 Alpha virt. eigenvalues --    3.58572   3.64540   3.70299   3.78949   3.79674
 Alpha virt. eigenvalues --    3.84452   3.96478   4.05638   4.08707   4.12042
 Alpha virt. eigenvalues --    4.33711   4.80715   4.81480   9.76196   9.76758
 Alpha virt. eigenvalues --    9.78607   9.81532   9.83410  23.38379  23.54551
 Alpha virt. eigenvalues --   23.82410  23.86275  23.88269  23.92093  23.95119
 Alpha virt. eigenvalues --   24.01323  24.04825  24.06405  24.11034  24.14754
 Alpha virt. eigenvalues --   25.80065  25.81962  25.82048  25.87666  25.96352
 Alpha virt. eigenvalues --   26.08604  26.10497  26.17149  26.25058  26.34295
 Alpha virt. eigenvalues --   26.56359  26.57606  26.62001  26.71184  26.88425
 Alpha virt. eigenvalues --  215.75347 215.75783 215.78062 215.81826 215.83652
          Condensed to atoms (all electrons):
               1          2          3          4          5          6
     1  C   34.927865  -7.234130  -1.505675  -5.113711   2.839707  -2.535006
     2  C   -7.234130  17.344601  -1.865794  -0.112235   0.949625  -6.517208
     3  C   -1.505675  -1.865794  19.233788  -2.723235  -9.890277   1.573791
     4  C   -5.113711  -0.112235  -2.723235  18.127070  -1.577500  -0.265763
     5  C    2.839707   0.949625  -9.890277  -1.577500  26.119440  -7.780101
     6  C   -2.535006  -6.517208   1.573791  -0.265763  -7.780101  35.588397
     7  C    2.771915  -0.026764   0.107808  -1.122878  -1.937156  -4.195676
     8  C   -4.943563   0.088093   0.455607  -0.399858   0.512340  -3.479575
     9  C    1.027045  -0.264717   0.085429   0.117688  -0.302208   0.701534
    10  C   -1.614897   0.968209  -0.233183   0.096344  -0.031002   0.364248
    11  C    2.103358  -1.937022   0.177970  -0.152944   0.457083   0.146756
    12  C  -11.920091   4.239201   0.297586  -0.226009  -2.760596  -6.438379
    13  H    0.014370   0.334298  -0.051228  -0.015838  -0.032728  -0.059370
    14  H    0.008966  -0.048717   0.293317   0.041753   0.064534  -0.016303
    15  H    0.072683  -0.031752   0.079706   0.018446   0.202522  -0.003681
    16  H    0.198450  -0.018251  -0.009405   0.007107   0.018063   0.076884
    17  H    0.014883  -0.001917   0.000044  -0.000024   0.000200   0.001163
    18  Cl  -2.599247   1.128726  -0.052502   0.043824  -0.571088  -0.384205
    19  Cl  -0.929816  -0.387715   0.431889  -0.362592  -0.460319   0.443422
    20  Cl   0.097941  -0.063711   0.007992  -0.003341   0.012861  -0.022408
    21  Cl  -0.192371   0.179173   0.173438  -1.208893   0.481070  -0.107895
    22  Cl  -0.178433   0.064143   0.008954   0.002586  -0.001619  -0.101493
               7          8          9         10         11         12
     1  C    2.771915  -4.943563   1.027045  -1.614897   2.103358 -11.920091
     2  C   -0.026764   0.088093  -0.264717   0.968209  -1.937022   4.239201
     3  C    0.107808   0.455607   0.085429  -0.233183   0.177970   0.297586
     4  C   -1.122878  -0.399858   0.117688   0.096344  -0.152944  -0.226009
     5  C   -1.937156   0.512340  -0.302208  -0.031002   0.457083  -2.760596
     6  C   -4.195676  -3.479575   0.701534   0.364248   0.146756  -6.438379
     7  C   27.010087  -1.874544  -6.534563  -2.107690   5.315173  -8.923863
     8  C   -1.874544  40.911968  -8.467519 -10.655603   3.613297  -9.275400
     9  C   -6.534563  -8.467519  22.033335   0.337990  -5.133200   2.262775
    10  C   -2.107690 -10.655603   0.337990  26.215972  -7.016764  -0.333390
    11  C    5.315173   3.613297  -5.133200  -7.016764  26.775565 -17.317777
    12  C   -8.923863  -9.275400   2.262775  -0.333390 -17.317777  54.594893
    13  H    0.078904   0.045564  -0.030854  -0.006506   0.016382   0.063562
    14  H    0.011206  -0.000748  -0.000800   0.000226  -0.000239   0.004169
    15  H    0.017307  -0.000818  -0.000394   0.000129  -0.000214   0.003835
    16  H    0.047809   0.053157   0.069557   0.032598   0.002701  -0.110443
    17  H    0.076460  -0.004218   0.046515   0.129519   0.107693  -0.020778
    18  Cl  -1.814701  -0.387136   0.368649   1.289023  -1.683803   2.528040
    19  Cl  -0.262273  -0.149320   0.294087  -0.140215   0.030742   0.248005
    20  Cl   0.003579   0.396546  -0.094752  -0.464096   0.057095  -0.362313
    21  Cl  -0.064483  -0.007464   0.009390  -0.000682  -0.001496  -0.028719
    22  Cl  -0.328262   0.470097  -1.313385   0.005501  -0.102402   0.674277
              13         14         15         16         17         18
     1  C    0.014370   0.008966   0.072683   0.198450   0.014883  -2.599247
     2  C    0.334298  -0.048717  -0.031752  -0.018251  -0.001917   1.128726
     3  C   -0.051228   0.293317   0.079706  -0.009405   0.000044  -0.052502
     4  C   -0.015838   0.041753   0.018446   0.007107  -0.000024   0.043824
     5  C   -0.032728   0.064534   0.202522   0.018063   0.000200  -0.571088
     6  C   -0.059370  -0.016303  -0.003681   0.076884   0.001163  -0.384205
     7  C    0.078904   0.011206   0.017307   0.047809   0.076460  -1.814701
     8  C    0.045564  -0.000748  -0.000818   0.053157  -0.004218  -0.387136
     9  C   -0.030854  -0.000800  -0.000394   0.069557   0.046515   0.368649
    10  C   -0.006506   0.000226   0.000129   0.032598   0.129519   1.289023
    11  C    0.016382  -0.000239  -0.000214   0.002701   0.107693  -1.683803
    12  C    0.063562   0.004169   0.003835  -0.110443  -0.020778   2.528040
    13  H    0.526637  -0.007152   0.000048  -0.000482   0.000000  -0.011297
    14  H   -0.007152   0.507386  -0.000273   0.000004  -0.000000  -0.000213
    15  H    0.000048  -0.000273   0.492041   0.000001  -0.000000  -0.000758
    16  H   -0.000482   0.000004   0.000001   0.511192  -0.000223  -0.003843
    17  H    0.000000  -0.000000  -0.000000  -0.000223   0.491456  -0.002504
    18  Cl  -0.011297  -0.000213  -0.000758  -0.003843  -0.002504  18.770618
    19  Cl  -0.001396   0.000737  -0.006580  -0.006311  -0.000162   0.125382
    20  Cl   0.000506  -0.000004  -0.000008   0.000227  -0.002271  -0.323445
    21  Cl  -0.000510  -0.012659  -0.013457   0.000079   0.000000   0.004294
    22  Cl   0.000199  -0.000001  -0.000009  -0.017019  -0.008820   0.001713
              19         20         21         22
     1  C   -0.929816   0.097941  -0.192371  -0.178433
     2  C   -0.387715  -0.063711   0.179173   0.064143
     3  C    0.431889   0.007992   0.173438   0.008954
     4  C   -0.362592  -0.003341  -1.208893   0.002586
     5  C   -0.460319   0.012861   0.481070  -0.001619
     6  C    0.443422  -0.022408  -0.107895  -0.101493
     7  C   -0.262273   0.003579  -0.064483  -0.328262
     8  C   -0.149320   0.396546  -0.007464   0.470097
     9  C    0.294087  -0.094752   0.009390  -1.313385
    10  C   -0.140215  -0.464096  -0.000682   0.005501
    11  C    0.030742   0.057095  -0.001496  -0.102402
    12  C    0.248005  -0.362313  -0.028719   0.674277
    13  H   -0.001396   0.000506  -0.000510   0.000199
    14  H    0.000737  -0.000004  -0.012659  -0.000001
    15  H   -0.006580  -0.000008  -0.013457  -0.000009
    16  H   -0.006311   0.000227   0.000079  -0.017019
    17  H   -0.000162  -0.002271   0.000000  -0.008820
    18  Cl   0.125382  -0.323445   0.004294   0.001713
    19  Cl  17.798701  -0.005495  -0.023568  -0.004242
    20  Cl  -0.005495  17.324920   0.000033  -0.022747
    21  Cl  -0.023568   0.000033  17.404789   0.000063
    22  Cl  -0.004242  -0.022747   0.000063  17.432670
 Mulliken charges:
               1
     1  C    0.689756
     2  C   -0.786136
     3  C   -0.596022
     4  C    0.830004
     5  C   -0.312851
     6  C   -0.989131
     7  C   -0.247398
     8  C   -0.900905
     9  C    0.788397
    10  C   -0.835733
    11  C    0.542046
    12  C   -1.198586
    13  H    0.136890
    14  H    0.154810
    15  H    0.171228
    16  H    0.148149
    17  H    0.172982
    18  Cl   0.574474
    19  Cl   0.367040
    20  Cl   0.462890
    21  Cl   0.409868
    22  Cl   0.418227
 Sum of Mulliken charges =  -0.00000
 Mulliken charges with hydrogens summed into heavy atoms:
               1
     1  C    0.689756
     2  C   -0.649246
     3  C   -0.441212
     4  C    0.830004
     5  C   -0.141622
     6  C   -0.989131
     7  C   -0.247398
     8  C   -0.752757
     9  C    0.788397
    10  C   -0.662750
    11  C    0.542046
    12  C   -1.198586
    18  Cl   0.574474
    19  Cl   0.367040
    20  Cl   0.462890
    21  Cl   0.409868
    22  Cl   0.418227
 Electronic spatial extent (au):  <R**2>=           7378.1681
 Charge=             -0.0000 electrons
 Dipole moment (field-independent basis, Debye):
    X=              0.1473    Y=              0.9885    Z=             -1.1974  Tot=              1.5597
 Quadrupole moment (field-independent basis, Debye-Ang):
   XX=           -134.2205   YY=           -136.3921   ZZ=           -129.6207
   XY=              0.2397   XZ=             -0.8697   YZ=             -1.3986
 Traceless Quadrupole moment (field-independent basis, Debye-Ang):
   XX=             -0.8094   YY=             -2.9810   ZZ=              3.7904
   XY=              0.2397   XZ=             -0.8697   YZ=             -1.3986
 Octapole moment (field-independent basis, Debye-Ang**2):
  XXX=            -44.3641  YYY=            -13.2962  ZZZ=             -2.3900  XYY=              3.8714
  XXY=             -7.7323  XXZ=              7.7657  XZZ=             13.1853  YZZ=             -1.5298
  YYZ=              3.7073  XYZ=             -2.2996
 Hexadecapole moment (field-independent basis, Debye-Ang**3):
 XXXX=          -6867.9377 YYYY=          -1956.0386 ZZZZ=           -866.3381 XXXY=             -1.6638
 XXXZ=             32.4506 YYYX=              6.6144 YYYZ=              8.7893 ZZZX=            -26.4803
 ZZZY=             -9.3312 XXYY=          -1511.3670 XXZZ=          -1267.6858 YYZZ=           -499.6658
 XXYZ=             -5.7652 YYXZ=              0.1148 ZZXY=              9.2376
 N-N= 1.709216118197D+03 E-N=-9.955113431280D+03  KE= 2.754121619104D+03
 1\1\GINC-DAMODAR\FOpt\RB3LYP\6-311+G(d,p)\C12H5Cl5\PKC\16-Mar-2022\0\\
 # opt b3lyp/6-311+g(d,p) scf=xqc\\Title Card Required\\0,1\C,1.1609022
 236,0.3105916342,0.0660596455\C,2.456445518,0.3076914249,0.5942090554\
 C,3.2225566899,1.4662280041,0.6618815112\C,2.6807219045,2.6562145576,0
 .1881288385\C,1.3996324483,2.7021628549,-0.3485172671\C,0.6544435999,1
 .5275448893,-0.4035917682\C,0.3850761434,-0.962858813,-0.0088165498\C,
 0.6027982113,-1.8232916258,-1.0868343413\C,-0.0930787572,-3.0225443561
 ,-1.1716754957\C,-1.0096552304,-3.3917779638,-0.1973388631\C,-1.227973
 7111,-2.5394005176,0.8815686807\C,-0.5360443946,-1.3267999638,0.985102
 2391\H,2.8668849955,-0.6240691581,0.9655582759\H,4.2217639104,1.446359
 0191,1.0763271591\H,0.9862448954,3.6298836452,-0.718991029\H,1.3089217
 519,-1.5467625695,-1.8584927293\H,-1.550020423,-4.3255163004,-0.266461
 5208\Cl,-0.8043764923,-0.2666772698,2.3432434783\Cl,-0.9565560434,1.60
 72680381,-1.0925017918\Cl,-2.3814156198,-3.0317939445,2.0953641522\Cl,
 3.6273058919,4.1314085483,0.2624576954\Cl,0.188635265,-4.0919098518,-2
 .5322119637\\Version=EM64L-G16RevB.01\State=1-A\HF=-2761.5202564\RMSD=
 4.675e-09\RMSF=6.563e-06\Dipole=0.5523405,-0.2570342,-0.0734989\Quadru
 pole=2.0860817,-0.3901424,-1.6959393,-0.9801569,1.7076486,-0.7562776\P
 G=C01 [X(C12H5Cl5)]\\@


 OLD AGE AND TREACHERY WILL ALWAYS PREVAIL OVER YOUTH AND SKILL.
 Job cpu time:       0 days 22 hours  5 minutes 55.7 seconds.
 Elapsed time:       0 days  5 hours 32 minutes 27.1 seconds.
 File lengths (MBytes):  RWF=    134 Int=      0 D2E=      0 Chk=     21 Scr=      1
 Normal termination of Gaussian 16 at Wed Mar 16 06:44:49 2022.
