 Entering Gaussian System, Link 0=g16
 Input=2,2prime,3,4,4prime,5prime-Hexachlorobiphenyl.gjf
 Output=2,2prime,3,4,4prime,5prime-Hexachlorobiphenyl.log
 Initial command:
 /opt/g16/l1.exe "/scratch/gour/Gau-78220.inp" -scrdir="/scratch/gour/"
 Entering Link 1 = /opt/g16/l1.exe PID=     78221.
  
 Copyright (c) 1988-2017, Gaussian, Inc.  All Rights Reserved.
  
 This is part of the Gaussian(R) 16 program.  It is based on
 the Gaussian(R) 09 system (copyright 2009, Gaussian, Inc.),
 the Gaussian(R) 03 system (copyright 2003, Gaussian, Inc.),
 the Gaussian(R) 98 system (copyright 1998, Gaussian, Inc.),
 the Gaussian(R) 94 system (copyright 1995, Gaussian, Inc.),
 the Gaussian 92(TM) system (copyright 1992, Gaussian, Inc.),
 the Gaussian 90(TM) system (copyright 1990, Gaussian, Inc.),
 the Gaussian 88(TM) system (copyright 1988, Gaussian, Inc.),
 the Gaussian 86(TM) system (copyright 1986, Carnegie Mellon
 University), and the Gaussian 82(TM) system (copyright 1983,
 Carnegie Mellon University). Gaussian is a federally registered
 trademark of Gaussian, Inc.
  
 This software contains proprietary and confidential information,
 including trade secrets, belonging to Gaussian, Inc.
  
 This software is provided under written license and may be
 used, copied, transmitted, or stored only in accord with that
 written license.
  
 The following legend is applicable only to US Government
 contracts under FAR:
  
                    RESTRICTED RIGHTS LEGEND
  
 Use, reproduction and disclosure by the US Government is
 subject to restrictions as set forth in subparagraphs (a)
 and (c) of the Commercial Computer Software - Restricted
 Rights clause in FAR 52.227-19.
  
 Gaussian, Inc.
 340 Quinnipiac St., Bldg. 40, Wallingford CT 06492
  
  
 ---------------------------------------------------------------
 Warning -- This program may not be used in any manner that
 competes with the business of Gaussian, Inc. or will provide
 assistance to any competitor of Gaussian, Inc.  The licensee
 of this program is prohibited from giving any competitor of
 Gaussian, Inc. access to this program.  By using this program,
 the user acknowledges that Gaussian, Inc. is engaged in the
 business of creating and licensing software in the field of
 computational chemistry and represents and warrants to the
 licensee that it is not a competitor of Gaussian, Inc. and that
 it will not use this program in any manner prohibited above.
 ---------------------------------------------------------------
  

 Cite this work as:
 Gaussian 16, Revision B.01,
 M. J. Frisch, G. W. Trucks, H. B. Schlegel, G. E. Scuseria, 
 M. A. Robb, J. R. Cheeseman, G. Scalmani, V. Barone, 
 G. A. Petersson, H. Nakatsuji, X. Li, M. Caricato, A. V. Marenich, 
 J. Bloino, B. G. Janesko, R. Gomperts, B. Mennucci, H. P. Hratchian, 
 J. V. Ortiz, A. F. Izmaylov, J. L. Sonnenberg, D. Williams-Young, 
 F. Ding, F. Lipparini, F. Egidi, J. Goings, B. Peng, A. Petrone, 
 T. Henderson, D. Ranasinghe, V. G. Zakrzewski, J. Gao, N. Rega, 
 G. Zheng, W. Liang, M. Hada, M. Ehara, K. Toyota, R. Fukuda, 
 J. Hasegawa, M. Ishida, T. Nakajima, Y. Honda, O. Kitao, H. Nakai, 
 T. Vreven, K. Throssell, J. A. Montgomery, Jr., J. E. Peralta, 
 F. Ogliaro, M. J. Bearpark, J. J. Heyd, E. N. Brothers, K. N. Kudin, 
 V. N. Staroverov, T. A. Keith, R. Kobayashi, J. Normand, 
 K. Raghavachari, A. P. Rendell, J. C. Burant, S. S. Iyengar, 
 J. Tomasi, M. Cossi, J. M. Millam, M. Klene, C. Adamo, R. Cammi, 
 J. W. Ochterski, R. L. Martin, K. Morokuma, O. Farkas, 
 J. B. Foresman, and D. J. Fox, Gaussian, Inc., Wallingford CT, 2016.
 
 ******************************************
 Gaussian 16:  EM64L-G16RevB.01 20-Dec-2017
                16-Mar-2022 
 ******************************************
 %mem=10GB
 %nprocshared=4
 Will use up to    4 processors via shared memory.
 --------------------------------
 # opt b3lyp/6-311+g(d,p) scf=xqc
 --------------------------------
 1/18=20,19=15,26=3,38=1/1,3;
 2/9=110,12=2,17=6,18=5,40=1/2;
 3/5=4,6=6,7=111,11=2,25=1,30=1,71=1,74=-5/1,2,3;
 4//1;
 5/5=2,8=3,13=1,38=5/2,8;
 6/7=2,8=2,9=2,10=2,28=1/1;
 7//1,2,3,16;
 1/18=20,19=15,26=3/3(2);
 2/9=110/2;
 99//99;
 2/9=110/2;
 3/5=4,6=6,7=111,11=2,25=1,30=1,71=1,74=-5/1,2,3;
 4/5=5,16=3,69=1/1;
 5/5=2,8=3,13=1,38=5/2,8;
 7//1,2,3,16;
 1/18=20,19=15,26=3/3(-5);
 2/9=110/2;
 6/7=2,8=2,9=2,10=2,19=2,28=1/1;
 99/9=1/99;
 -------------------
 Title Card Required
 -------------------
 Symbolic Z-matrix:
 Charge =  0 Multiplicity = 1
 C                    -0.39185  -0.09685  -0.00285 
 C                     0.94053  -0.06697  -0.4362 
 C                     1.64843   1.14248  -0.44227 
 C                     1.02394   2.32205  -0.015 
 C                    -0.30844   2.29216   0.41835 
 C                    -1.01633   1.08271   0.42442 
 C                    -1.16975  -1.42592   0.00382 
 C                    -0.54526  -2.60548  -0.42345 
 C                    -1.25316  -3.81494  -0.41738 
 C                    -2.58554  -3.84482   0.01597 
 C                    -3.21002  -2.66526   0.44325 
 C                    -2.50213  -1.45581   0.43717 
 H                     1.41735  -0.96759  -0.76243 
 H                    -0.78525   3.19279   0.74458 
 H                     0.47204  -2.58267  -0.75432 
 H                    -0.77635  -4.71556  -0.74361 
 Cl                   -3.28642   0.02559   0.97378 
 Cl                   -2.68965   1.04518   0.96866 
 Cl                   -4.88334  -2.70279   0.98749 
 Cl                   -3.47457  -5.36376   0.0236 
 Cl                    1.91298   3.84098  -0.02262 
 Cl                    3.32175   1.18002  -0.9865 
 

 GradGradGradGradGradGradGradGradGradGradGradGradGradGradGradGradGradGrad
 Berny optimization.
 Initialization pass.
                           ----------------------------
                           !    Initial Parameters    !
                           ! (Angstroms and Degrees)  !
 --------------------------                            --------------------------
 ! Name  Definition              Value          Derivative Info.                !
 --------------------------------------------------------------------------------
 ! R1    R(1,2)                  1.4014         estimate D2E/DX2                !
 ! R2    R(1,6)                  1.4014         estimate D2E/DX2                !
 ! R3    R(1,7)                  1.54           estimate D2E/DX2                !
 ! R4    R(2,3)                  1.4014         estimate D2E/DX2                !
 ! R5    R(2,13)                 1.07           estimate D2E/DX2                !
 ! R6    R(3,4)                  1.4014         estimate D2E/DX2                !
 ! R7    R(3,22)                 1.76           estimate D2E/DX2                !
 ! R8    R(4,5)                  1.4014         estimate D2E/DX2                !
 ! R9    R(4,21)                 1.76           estimate D2E/DX2                !
 ! R10   R(5,6)                  1.4014         estimate D2E/DX2                !
 ! R11   R(5,14)                 1.07           estimate D2E/DX2                !
 ! R12   R(6,18)                 1.76           estimate D2E/DX2                !
 ! R13   R(7,8)                  1.4014         estimate D2E/DX2                !
 ! R14   R(7,12)                 1.4014         estimate D2E/DX2                !
 ! R15   R(8,9)                  1.4014         estimate D2E/DX2                !
 ! R16   R(8,15)                 1.07           estimate D2E/DX2                !
 ! R17   R(9,10)                 1.4014         estimate D2E/DX2                !
 ! R18   R(9,16)                 1.07           estimate D2E/DX2                !
 ! R19   R(10,11)                1.4014         estimate D2E/DX2                !
 ! R20   R(10,20)                1.76           estimate D2E/DX2                !
 ! R21   R(11,12)                1.4014         estimate D2E/DX2                !
 ! R22   R(11,19)                1.76           estimate D2E/DX2                !
 ! R23   R(12,17)                1.76           estimate D2E/DX2                !
 ! R24   R(17,18)                1.1814         estimate D2E/DX2                !
 ! A1    A(2,1,6)              120.0            estimate D2E/DX2                !
 ! A2    A(2,1,7)              120.0            estimate D2E/DX2                !
 ! A3    A(6,1,7)              120.0            estimate D2E/DX2                !
 ! A4    A(1,2,3)              120.0            estimate D2E/DX2                !
 ! A5    A(1,2,13)             120.0            estimate D2E/DX2                !
 ! A6    A(3,2,13)             120.0            estimate D2E/DX2                !
 ! A7    A(2,3,4)              120.0            estimate D2E/DX2                !
 ! A8    A(2,3,22)             120.0            estimate D2E/DX2                !
 ! A9    A(4,3,22)             120.0            estimate D2E/DX2                !
 ! A10   A(3,4,5)              120.0            estimate D2E/DX2                !
 ! A11   A(3,4,21)             120.0            estimate D2E/DX2                !
 ! A12   A(5,4,21)             120.0            estimate D2E/DX2                !
 ! A13   A(4,5,6)              120.0            estimate D2E/DX2                !
 ! A14   A(4,5,14)             120.0            estimate D2E/DX2                !
 ! A15   A(6,5,14)             120.0            estimate D2E/DX2                !
 ! A16   A(1,6,5)              120.0            estimate D2E/DX2                !
 ! A17   A(1,6,18)             120.0            estimate D2E/DX2                !
 ! A18   A(5,6,18)             120.0            estimate D2E/DX2                !
 ! A19   A(1,7,8)              120.0            estimate D2E/DX2                !
 ! A20   A(1,7,12)             120.0            estimate D2E/DX2                !
 ! A21   A(8,7,12)             120.0            estimate D2E/DX2                !
 ! A22   A(7,8,9)              120.0            estimate D2E/DX2                !
 ! A23   A(7,8,15)             120.0            estimate D2E/DX2                !
 ! A24   A(9,8,15)             120.0            estimate D2E/DX2                !
 ! A25   A(8,9,10)             120.0            estimate D2E/DX2                !
 ! A26   A(8,9,16)             120.0            estimate D2E/DX2                !
 ! A27   A(10,9,16)            120.0            estimate D2E/DX2                !
 ! A28   A(9,10,11)            120.0            estimate D2E/DX2                !
 ! A29   A(9,10,20)            120.0            estimate D2E/DX2                !
 ! A30   A(11,10,20)           120.0            estimate D2E/DX2                !
 ! A31   A(10,11,12)           120.0            estimate D2E/DX2                !
 ! A32   A(10,11,19)           120.0            estimate D2E/DX2                !
 ! A33   A(12,11,19)           120.0            estimate D2E/DX2                !
 ! A34   A(7,12,11)            120.0            estimate D2E/DX2                !
 ! A35   A(7,12,17)            120.0            estimate D2E/DX2                !
 ! A36   A(11,12,17)           120.0            estimate D2E/DX2                !
 ! A37   A(12,17,18)           120.0            estimate D2E/DX2                !
 ! A38   A(6,18,17)            120.0            estimate D2E/DX2                !
 ! D1    D(6,1,2,3)              0.0001         estimate D2E/DX2                !
 ! D2    D(6,1,2,13)           180.0            estimate D2E/DX2                !
 ! D3    D(7,1,2,3)           -180.0            estimate D2E/DX2                !
 ! D4    D(7,1,2,13)            -0.0001         estimate D2E/DX2                !
 ! D5    D(2,1,6,5)             -0.0001         estimate D2E/DX2                !
 ! D6    D(2,1,6,18)           180.0            estimate D2E/DX2                !
 ! D7    D(7,1,6,5)            180.0            estimate D2E/DX2                !
 ! D8    D(7,1,6,18)             0.0            estimate D2E/DX2                !
 ! D9    D(2,1,7,8)             -0.0001         estimate D2E/DX2                !
 ! D10   D(2,1,7,12)           179.9998         estimate D2E/DX2                !
 ! D11   D(6,1,7,8)            179.9999         estimate D2E/DX2                !
 ! D12   D(6,1,7,12)            -0.0002         estimate D2E/DX2                !
 ! D13   D(1,2,3,4)              0.0            estimate D2E/DX2                !
 ! D14   D(1,2,3,22)           180.0            estimate D2E/DX2                !
 ! D15   D(13,2,3,4)          -179.9999         estimate D2E/DX2                !
 ! D16   D(13,2,3,22)            0.0001         estimate D2E/DX2                !
 ! D17   D(2,3,4,5)             -0.0001         estimate D2E/DX2                !
 ! D18   D(2,3,4,21)           180.0            estimate D2E/DX2                !
 ! D19   D(22,3,4,5)           179.9999         estimate D2E/DX2                !
 ! D20   D(22,3,4,21)            0.0            estimate D2E/DX2                !
 ! D21   D(3,4,5,6)              0.0001         estimate D2E/DX2                !
 ! D22   D(3,4,5,14)          -179.9999         estimate D2E/DX2                !
 ! D23   D(21,4,5,6)          -180.0            estimate D2E/DX2                !
 ! D24   D(21,4,5,14)            0.0            estimate D2E/DX2                !
 ! D25   D(4,5,6,1)              0.0            estimate D2E/DX2                !
 ! D26   D(4,5,6,18)           179.9999         estimate D2E/DX2                !
 ! D27   D(14,5,6,1)           180.0            estimate D2E/DX2                !
 ! D28   D(14,5,6,18)           -0.0001         estimate D2E/DX2                !
 ! D29   D(1,6,18,17)            0.0006         estimate D2E/DX2                !
 ! D30   D(5,6,18,17)         -179.9994         estimate D2E/DX2                !
 ! D31   D(1,7,8,9)            179.9999         estimate D2E/DX2                !
 ! D32   D(1,7,8,15)             0.0001         estimate D2E/DX2                !
 ! D33   D(12,7,8,9)             0.0001         estimate D2E/DX2                !
 ! D34   D(12,7,8,15)         -179.9998         estimate D2E/DX2                !
 ! D35   D(1,7,12,11)         -179.9999         estimate D2E/DX2                !
 ! D36   D(1,7,12,17)            0.0            estimate D2E/DX2                !
 ! D37   D(8,7,12,11)           -0.0001         estimate D2E/DX2                !
 ! D38   D(8,7,12,17)          179.9999         estimate D2E/DX2                !
 ! D39   D(7,8,9,10)             0.0            estimate D2E/DX2                !
 ! D40   D(7,8,9,16)           180.0            estimate D2E/DX2                !
 ! D41   D(15,8,9,10)          179.9998         estimate D2E/DX2                !
 ! D42   D(15,8,9,16)           -0.0002         estimate D2E/DX2                !
 ! D43   D(8,9,10,11)            0.0            estimate D2E/DX2                !
 ! D44   D(8,9,10,20)         -179.9999         estimate D2E/DX2                !
 ! D45   D(16,9,10,11)         180.0            estimate D2E/DX2                !
 ! D46   D(16,9,10,20)           0.0001         estimate D2E/DX2                !
 ! D47   D(9,10,11,12)           0.0            estimate D2E/DX2                !
 ! D48   D(9,10,11,19)        -179.9998         estimate D2E/DX2                !
 ! D49   D(20,10,11,12)        179.9999         estimate D2E/DX2                !
 ! D50   D(20,10,11,19)          0.0001         estimate D2E/DX2                !
 ! D51   D(10,11,12,7)           0.0            estimate D2E/DX2                !
 ! D52   D(10,11,12,17)       -179.9999         estimate D2E/DX2                !
 ! D53   D(19,11,12,7)         179.9999         estimate D2E/DX2                !
 ! D54   D(19,11,12,17)         -0.0001         estimate D2E/DX2                !
 ! D55   D(7,12,17,18)           0.0005         estimate D2E/DX2                !
 ! D56   D(11,12,17,18)       -179.9995         estimate D2E/DX2                !
 ! D57   D(12,17,18,6)          -0.0008         estimate D2E/DX2                !
 --------------------------------------------------------------------------------
 Trust Radius=3.00D-01 FncErr=1.00D-07 GrdErr=1.00D-06 EigMax=2.50D+02 EigMin=1.00D-04
 Number of steps in this run=    129 maximum allowed number of steps=    132.
 GradGradGradGradGradGradGradGradGradGradGradGradGradGradGradGradGradGrad

                          Input orientation:                          
 ---------------------------------------------------------------------
 Center     Atomic      Atomic             Coordinates (Angstroms)
 Number     Number       Type             X           Y           Z
 ---------------------------------------------------------------------
      1          6           0       -0.391846   -0.096853   -0.002851
      2          6           0        0.940535   -0.066967   -0.436198
      3          6           0        1.648428    1.142484   -0.442270
      4          6           0        1.023941    2.322049   -0.014995
      5          6           0       -0.308441    2.292164    0.418349
      6          6           0       -1.016334    1.082713    0.424422
      7          6           0       -1.169751   -1.425920    0.003823
      8          6           0       -0.545264   -2.605485   -0.423452
      9          6           0       -1.253157   -3.814936   -0.417378
     10          6           0       -2.585537   -3.844823    0.015972
     11          6           0       -3.210024   -2.665258    0.443247
     12          6           0       -2.502131   -1.455806    0.437173
     13          1           0        1.417345   -0.967591   -0.762430
     14          1           0       -0.785251    3.192788    0.744581
     15          1           0        0.472039   -2.582666   -0.754322
     16          1           0       -0.776347   -4.715560   -0.743612
     17         17           0       -3.286416    0.025594    0.973785
     18         17           0       -2.689655    1.045180    0.968656
     19         17           0       -4.883341   -2.702793    0.987490
     20         17           0       -3.474569   -5.363757    0.023603
     21         17           0        1.912976    3.840983   -0.022621
     22         17           0        3.321749    1.180017   -0.986504
 ---------------------------------------------------------------------
                    Distance matrix (angstroms):
                    1          2          3          4          5
     1  C    0.000000
     2  C    1.401400   0.000000
     3  C    2.427296   1.401400   0.000000
     4  C    2.802800   2.427296   1.401400   0.000000
     5  C    2.427296   2.802800   2.427296   1.401400   0.000000
     6  C    1.401400   2.427296   2.802800   2.427296   1.401400
     7  C    1.540000   2.548270   3.838989   4.342800   3.838989
     8  C    2.548270   2.941400   4.342800   5.187469   4.975106
     9  C    3.838989   4.342800   5.744200   6.558176   6.235992
    10  C    4.342800   5.187469   6.558176   7.145600   6.558176
    11  C    3.838989   4.975106   6.235992   6.558176   5.744200
    12  C    2.548270   3.813607   4.975106   5.187469   4.342800
    13  H    2.146700   1.070000   2.146700   3.396345   3.872800
    14  H    3.396345   3.872800   3.396345   2.146700   1.070000
    15  H    2.736837   2.578650   3.918930   4.990735   5.074276
    16  H    4.693509   4.965039   6.347206   7.300676   7.118798
    17  Cl   3.057342   4.456874   5.254079   4.983028   3.783409
    18  Cl   2.743718   4.048303   4.562800   4.048303   2.743718
    19  Cl   5.286324   6.549198   7.713260   7.819846   6.797295
    20  Cl   6.102800   6.910901   8.294174   8.905600   8.294174
    21  Cl   4.562800   4.048303   2.743718   1.760000   2.743718
    22  Cl   4.048303   2.743718   1.760000   2.743718   4.048303
                    6          7          8          9         10
     6  C    0.000000
     7  C    2.548270   0.000000
     8  C    3.813607   1.401400   0.000000
     9  C    4.975106   2.427296   1.401400   0.000000
    10  C    5.187469   2.802800   2.427296   1.401400   0.000000
    11  C    4.342800   2.427296   2.802800   2.427296   1.401400
    12  C    2.941400   1.401400   2.427296   2.802800   2.427296
    13  H    3.396345   2.736837   2.578650   3.918930   4.990735
    14  H    2.146700   4.693509   5.919617   7.118798   7.300676
    15  H    4.127917   2.146700   1.070000   2.146700   3.396345
    16  H    5.919617   3.396345   2.146700   1.070000   2.146700
    17  Cl   2.563702   2.743718   4.048303   4.562800   4.048303
    18  Cl   1.760000   3.057342   4.456874   5.254079   4.983028
    19  Cl   5.440665   4.048303   4.562800   4.048303   2.743718
    20  Cl   6.910901   4.562800   4.048303   2.743718   1.760000
    21  Cl   4.048303   6.102800   6.910901   8.294174   8.905600
    22  Cl   4.562800   5.286324   5.440665   6.797295   7.819846
                   11         12         13         14         15
    11  C    0.000000
    12  C    1.401400   0.000000
    13  H    5.074276   4.127917   0.000000
    14  H    6.347206   4.965039   4.942800   0.000000
    15  H    3.872800   3.396345   1.871400   6.097816   0.000000
    16  H    3.396345   3.872800   4.342800   8.047159   2.471400
    17  Cl   2.743718   1.760000   5.111382   4.042212   4.890332
    18  Cl   3.783409   2.563702   4.890332   2.879094   5.111382
    19  Cl   1.760000   2.743718   6.765486   7.184095   5.632800
    20  Cl   2.743718   4.048303   6.623817   8.998151   4.890332
    21  Cl   8.294174   6.910901   4.890332   2.879094   6.623817
    22  Cl   7.713260   6.549198   2.879094   4.890332   4.725732
                   16         17         18         19         20
    16  H    0.000000
    17  Cl   5.632800   0.000000
    18  Cl   6.307038   1.181400   0.000000
    19  Cl   4.890332   3.161400   4.342800   0.000000
    20  Cl   2.879094   5.475705   6.525618   3.161400   0.000000
    21  Cl   8.998151   6.525618   5.475705   9.488480  10.665600
    22  Cl   7.184095   6.988795   6.322800   9.289584   9.488480
                   21         22
    21  Cl   0.000000
    22  Cl   3.161400   0.000000
 Stoichiometry    C12H4Cl6
 Framework group  C1[X(C12H4Cl6)]
 Deg. of freedom    60
 Full point group                 C1      NOp   1
 Largest Abelian subgroup         C1      NOp   1
 Largest concise Abelian subgroup C1      NOp   1
                         Standard orientation:                         
 ---------------------------------------------------------------------
 Center     Atomic      Atomic             Coordinates (Angstroms)
 Number     Number       Type             X           Y           Z
 ---------------------------------------------------------------------
      1          6           0        0.864056    0.308579    0.000003
      2          6           0        1.824941    1.328688    0.000002
      3          6           0        3.188824    1.006591   -0.000000
      4          6           0        3.591821   -0.335615   -0.000001
      5          6           0        2.630935   -1.355723    0.000003
      6          6           0        1.267053   -1.033626    0.000004
      7          6           0       -0.634716    0.662532    0.000004
      8          6           0       -1.037713    2.004738    0.000005
      9          6           0       -2.401596    2.326835    0.000004
     10          6           0       -3.362481    1.306726    0.000002
     11          6           0       -2.959484   -0.035479    0.000001
     12          6           0       -1.595602   -0.357576    0.000001
     13          1           0        1.517244    2.353491    0.000000
     14          1           0        2.938632   -2.380527    0.000004
     15          1           0       -0.304056    2.783613    0.000003
     16          1           0       -2.709293    3.351638    0.000005
     17         17           0       -1.089483   -2.043235   -0.000003
     18         17           0        0.060289   -2.314767    0.000007
     19         17           0       -4.166248   -1.316620   -0.000006
     20         17           0       -5.075363    1.711244   -0.000001
     21         17           0        5.304703   -0.740132   -0.000004
     22         17           0        4.395587    2.287732   -0.000003
 ---------------------------------------------------------------------
 Rotational constants (GHZ):           0.5377011           0.1259029           0.1020159
 Standard basis: 6-311+G(d,p) (5D, 7F)
 There are   486 symmetry adapted cartesian basis functions of A   symmetry.
 There are   468 symmetry adapted basis functions of A   symmetry.
   468 basis functions,   782 primitive gaussians,   486 cartesian basis functions
    89 alpha electrons       89 beta electrons
       nuclear repulsion energy      2095.7083310600 Hartrees.
 NAtoms=   22 NActive=   22 NUniq=   22 SFac= 1.00D+00 NAtFMM=   60 NAOKFM=F Big=F
 Integral buffers will be    131072 words long.
 Raffenetti 2 integral format.
 Two-electron integral symmetry is turned on.
 One-electron integrals computed using PRISM.
 NBasis=   468 RedAO= T EigKep=  1.40D-06  NBF=   468
 NBsUse=   461 1.00D-06 EigRej=  8.53D-07 NBFU=   461
 ExpMin= 4.38D-02 ExpMax= 1.06D+05 ExpMxC= 3.62D+03 IAcc=3 IRadAn=         5 AccDes= 0.00D+00
 Harris functional with IExCor=  402 and IRadAn=       5 diagonalized for initial guess.
 HarFok:  IExCor=  402 AccDes= 0.00D+00 IRadAn=         5 IDoV= 1 UseB2=F ITyADJ=14
 ICtDFT=  3500011 ScaDFX=  1.000000  1.000000  1.000000  1.000000
 FoFCou: FMM=F IPFlag=           0 FMFlag=      100000 FMFlg1=           0
         NFxFlg=           0 DoJE=T BraDBF=F KetDBF=T FulRan=T
         wScrn=  0.000000 ICntrl=       500 IOpCl=  0 I1Cent=   200000004 NGrid=           0
         NMat0=    1 NMatS0=      1 NMatT0=    0 NMatD0=    1 NMtDS0=    0 NMtDT0=    0
 Petite list used in FoFCou.
 Requested convergence on RMS density matrix=1.00D-08 within  32 cycles.
 Requested convergence on MAX density matrix=1.00D-06.
 Requested convergence on             energy=1.00D-06.
 No special actions if energy rises.
 Restarting incremental Fock formation.
 SCF Done:  E(RB3LYP) =  -3219.51675030     A.U. after   22 cycles
            NFock= 22  Conv=0.50D-08     -V/T= 2.0002
 QCSCF skips out because SCF is already converged.

 **********************************************************************

            Population analysis using the SCF Density.

 **********************************************************************

 Orbital symmetries:
       Occupied  (A) (A) (A) (A) (A) (A) (A) (A) (A) (A) (A) (A)
                 (A) (A) (A) (A) (A) (A) (A) (A) (A) (A) (A) (A)
                 (A) (A) (A) (A) (A) (A) (A) (A) (A) (A) (A) (A)
                 (A) (A) (A) (A) (A) (A) (A) (A) (A) (A) (A) (A)
                 (A) (A) (A) (A) (A) (A) (A) (A) (A) (A) (A) (A)
                 (A) (A) (A) (A) (A) (A) (A) (A) (A) (A) (A) (A)
                 (A) (A) (A) (A) (A) (A) (A) (A) (A) (A) (A) (A)
                 (A) (A) (A) (A) (A)
       Virtual   (A) (A) (A) (A) (A) (A) (A) (A) (A) (A) (A) (A)
                 (A) (A) (A) (A) (A) (A) (A) (A) (A) (A) (A) (A)
                 (A) (A) (A) (A) (A) (A) (A) (A) (A) (A) (A) (A)
                 (A) (A) (A) (A) (A) (A) (A) (A) (A) (A) (A) (A)
                 (A) (A) (A) (A) (A) (A) (A) (A) (A) (A) (A) (A)
                 (A) (A) (A) (A) (A) (A) (A) (A) (A) (A) (A) (A)
                 (A) (A) (A) (A) (A) (A) (A) (A) (A) (A) (A) (A)
                 (A) (A) (A) (A) (A) (A) (A) (A) (A) (A) (A) (A)
                 (A) (A) (A) (A) (A) (A) (A) (A) (A) (A) (A) (A)
                 (A) (A) (A) (A) (A) (A) (A) (A) (A) (A) (A) (A)
                 (A) (A) (A) (A) (A) (A) (A) (A) (A) (A) (A) (A)
                 (A) (A) (A) (A) (A) (A) (A) (A) (A) (A) (A) (A)
                 (A) (A) (A) (A) (A) (A) (A) (A) (A) (A) (A) (A)
                 (A) (A) (A) (A) (A) (A) (A) (A) (A) (A) (A) (A)
                 (A) (A) (A) (A) (A) (A) (A) (A) (A) (A) (A) (A)
                 (A) (A) (A) (A) (A) (A) (A) (A) (A) (A) (A) (A)
                 (A) (A) (A) (A) (A) (A) (A) (A) (A) (A) (A) (A)
                 (A) (A) (A) (A) (A) (A) (A) (A) (A) (A) (A) (A)
                 (A) (A) (A) (A) (A) (A) (A) (A) (A) (A) (A) (A)
                 (A) (A) (A) (A) (A) (A) (A) (A) (A) (A) (A) (A)
                 (A) (A) (A) (A) (A) (A) (A) (A) (A) (A) (A) (A)
                 (A) (A) (A) (A) (A) (A) (A) (A) (A) (A) (A) (A)
                 (A) (A) (A) (A) (A) (A) (A) (A) (A) (A) (A) (A)
                 (A) (A) (A) (A) (A) (A) (A) (A) (A) (A) (A) (A)
                 (A) (A) (A) (A) (A) (A) (A) (A) (A) (A) (A) (A)
                 (A) (A) (A) (A) (A) (A) (A) (A) (A) (A) (A) (A)
                 (A) (A) (A) (A) (A) (A) (A) (A) (A) (A) (A) (A)
                 (A) (A) (A) (A) (A) (A) (A) (A) (A) (A) (A) (A)
                 (A) (A) (A) (A) (A) (A) (A) (A) (A) (A) (A) (A)
                 (A) (A) (A) (A) (A) (A) (A) (A) (A) (A) (A) (A)
                 (A) (A) (A) (A) (A) (A) (A) (A) (A) (A) (A) (A)
 The electronic state is 1-A.
 Alpha  occ. eigenvalues -- -101.67023-101.66624-101.56670-101.56625-101.56565
 Alpha  occ. eigenvalues -- -101.56244 -10.26320 -10.26138 -10.25919 -10.25855
 Alpha  occ. eigenvalues --  -10.21871 -10.21718 -10.21065 -10.20795 -10.20431
 Alpha  occ. eigenvalues --  -10.20058 -10.18674 -10.18602  -9.65675  -9.63522
 Alpha  occ. eigenvalues --   -9.48137  -9.48060  -9.48004  -9.47688  -7.44060
 Alpha  occ. eigenvalues --   -7.39143  -7.39046  -7.38663  -7.38428  -7.37967
 Alpha  occ. eigenvalues --   -7.24588  -7.24544  -7.24482  -7.24159  -7.23630
 Alpha  occ. eigenvalues --   -7.23579  -7.23541  -7.23491  -7.23487  -7.23431
 Alpha  occ. eigenvalues --   -7.23178  -7.23119  -1.40113  -0.92928  -0.92507
 Alpha  occ. eigenvalues --   -0.88025  -0.87018  -0.86589  -0.85464  -0.81583
 Alpha  occ. eigenvalues --   -0.80783  -0.77807  -0.73981  -0.73272  -0.73204
 Alpha  occ. eigenvalues --   -0.71125  -0.66324  -0.64434  -0.61344  -0.59348
 Alpha  occ. eigenvalues --   -0.58092  -0.52608  -0.51483  -0.49990  -0.48874
 Alpha  occ. eigenvalues --   -0.48541  -0.46132  -0.45218  -0.43529  -0.43125
 Alpha  occ. eigenvalues --   -0.42713  -0.42266  -0.40836  -0.38378  -0.37391
 Alpha  occ. eigenvalues --   -0.36553  -0.35905  -0.35590  -0.34605  -0.34230
 Alpha  occ. eigenvalues --   -0.33718  -0.31651  -0.31574  -0.30362  -0.28374
 Alpha  occ. eigenvalues --   -0.27853  -0.25182  -0.21844  -0.17134
 Alpha virt. eigenvalues --   -0.07352  -0.06236  -0.03079  -0.02711  -0.02110
 Alpha virt. eigenvalues --   -0.01517  -0.00477  -0.00091   0.00822   0.01570
 Alpha virt. eigenvalues --    0.01686   0.01916   0.02625   0.03219   0.03964
 Alpha virt. eigenvalues --    0.04687   0.04840   0.05139   0.06068   0.06073
 Alpha virt. eigenvalues --    0.06388   0.06494   0.07488   0.07699   0.08175
 Alpha virt. eigenvalues --    0.09148   0.09264   0.09419   0.09729   0.10132
 Alpha virt. eigenvalues --    0.10461   0.10901   0.11248   0.11313   0.12393
 Alpha virt. eigenvalues --    0.12639   0.13026   0.13357   0.13470   0.13738
 Alpha virt. eigenvalues --    0.13798   0.14703   0.15018   0.15253   0.15482
 Alpha virt. eigenvalues --    0.15890   0.16392   0.16600   0.16880   0.17393
 Alpha virt. eigenvalues --    0.17726   0.18438   0.18579   0.19217   0.19253
 Alpha virt. eigenvalues --    0.19307   0.19665   0.20043   0.20163   0.20929
 Alpha virt. eigenvalues --    0.21522   0.21914   0.21936   0.22262   0.22532
 Alpha virt. eigenvalues --    0.23674   0.23879   0.23982   0.24639   0.25240
 Alpha virt. eigenvalues --    0.25525   0.25610   0.26238   0.26564   0.27025
 Alpha virt. eigenvalues --    0.27839   0.27974   0.28362   0.28649   0.30026
 Alpha virt. eigenvalues --    0.30268   0.30667   0.31795   0.31989   0.32479
 Alpha virt. eigenvalues --    0.32847   0.33472   0.34388   0.35371   0.36425
 Alpha virt. eigenvalues --    0.37865   0.38633   0.40753   0.42210   0.42988
 Alpha virt. eigenvalues --    0.43767   0.43950   0.44256   0.44454   0.45286
 Alpha virt. eigenvalues --    0.45969   0.46249   0.46641   0.47242   0.47896
 Alpha virt. eigenvalues --    0.48134   0.48898   0.49667   0.49817   0.50534
 Alpha virt. eigenvalues --    0.50562   0.51783   0.53270   0.54155   0.54318
 Alpha virt. eigenvalues --    0.54321   0.55298   0.56733   0.56892   0.58063
 Alpha virt. eigenvalues --    0.58491   0.58844   0.60389   0.61045   0.61191
 Alpha virt. eigenvalues --    0.61431   0.62364   0.63413   0.64728   0.64828
 Alpha virt. eigenvalues --    0.65275   0.66288   0.66795   0.67080   0.67696
 Alpha virt. eigenvalues --    0.69229   0.70371   0.70940   0.71001   0.71695
 Alpha virt. eigenvalues --    0.73358   0.76776   0.78630   0.78967   0.79479
 Alpha virt. eigenvalues --    0.80428   0.80652   0.83774   0.84050   0.84793
 Alpha virt. eigenvalues --    0.85070   0.85138   0.85446   0.85577   0.86169
 Alpha virt. eigenvalues --    0.86253   0.86568   0.87216   0.87530   0.87748
 Alpha virt. eigenvalues --    0.87822   0.89550   0.90765   0.90923   0.91249
 Alpha virt. eigenvalues --    0.91720   0.92361   0.93329   0.93816   0.94736
 Alpha virt. eigenvalues --    0.95156   0.95281   0.95371   0.96200   0.96444
 Alpha virt. eigenvalues --    0.97655   0.98470   0.99227   0.99403   0.99409
 Alpha virt. eigenvalues --    1.02431   1.04998   1.05410   1.05454   1.07648
 Alpha virt. eigenvalues --    1.08751   1.08758   1.11485   1.12074   1.13454
 Alpha virt. eigenvalues --    1.17284   1.19116   1.21368   1.22861   1.23468
 Alpha virt. eigenvalues --    1.25011   1.26465   1.27301   1.27604   1.27691
 Alpha virt. eigenvalues --    1.28384   1.28954   1.30770   1.30919   1.33666
 Alpha virt. eigenvalues --    1.34165   1.37335   1.37818   1.42355   1.43454
 Alpha virt. eigenvalues --    1.43652   1.48226   1.49887   1.50418   1.50697
 Alpha virt. eigenvalues --    1.54065   1.54923   1.56960   1.57809   1.58495
 Alpha virt. eigenvalues --    1.62265   1.63170   1.66260   1.68285   1.69418
 Alpha virt. eigenvalues --    1.69465   1.72676   1.76646   1.76966   1.78371
 Alpha virt. eigenvalues --    1.80566   1.82314   1.84801   1.85779   1.87926
 Alpha virt. eigenvalues --    1.88893   1.89129   1.90547   1.91960   1.93752
 Alpha virt. eigenvalues --    1.93769   1.95710   1.98311   1.99333   1.99676
 Alpha virt. eigenvalues --    2.01740   2.06021   2.06910   2.06995   2.09757
 Alpha virt. eigenvalues --    2.10768   2.18212   2.18899   2.19485   2.23875
 Alpha virt. eigenvalues --    2.24080   2.24431   2.25331   2.25979   2.26070
 Alpha virt. eigenvalues --    2.27293   2.29324   2.29736   2.32050   2.32756
 Alpha virt. eigenvalues --    2.33312   2.35330   2.36733   2.39128   2.41215
 Alpha virt. eigenvalues --    2.42124   2.43708   2.45877   2.47110   2.49176
 Alpha virt. eigenvalues --    2.52175   2.52986   2.56571   2.58211   2.58885
 Alpha virt. eigenvalues --    2.61135   2.61700   2.63213   2.63880   2.66328
 Alpha virt. eigenvalues --    2.69118   2.71710   2.73050   2.74264   2.75293
 Alpha virt. eigenvalues --    2.75492   2.77324   2.78655   2.79555   2.82139
 Alpha virt. eigenvalues --    2.84207   2.84744   2.85865   2.90635   2.92387
 Alpha virt. eigenvalues --    2.94786   3.00712   3.02057   3.06475   3.08280
 Alpha virt. eigenvalues --    3.11820   3.14091   3.16503   3.17543   3.19888
 Alpha virt. eigenvalues --    3.21486   3.24184   3.35121   3.36017   3.39514
 Alpha virt. eigenvalues --    3.44022   3.51343   3.54679   3.58472   3.69963
 Alpha virt. eigenvalues --    3.71362   3.82341   3.85054   3.92909   4.04919
 Alpha virt. eigenvalues --    4.09598   4.19100   4.46276   4.80457   4.83866
 Alpha virt. eigenvalues --    9.73171   9.76434   9.79530   9.80482   9.82095
 Alpha virt. eigenvalues --   10.54504  23.35924  23.51307  23.82988  23.84808
 Alpha virt. eigenvalues --   23.88887  23.89671  23.97195  23.99486  24.01922
 Alpha virt. eigenvalues --   24.04098  24.09669  24.11302  25.40390  25.78187
 Alpha virt. eigenvalues --   25.78769  25.86746  25.87096  25.97180  26.11277
 Alpha virt. eigenvalues --   26.14814  26.16375  26.20454  26.21603  26.51269
 Alpha virt. eigenvalues --   26.53292  26.76945  26.77702  27.11326  27.41902
 Alpha virt. eigenvalues --   28.45200 215.73107 215.75682 215.79948 215.80349
 Alpha virt. eigenvalues --  215.90544 216.86420
          Condensed to atoms (all electrons):
               1          2          3          4          5          6
     1  C   18.938521   0.394667  -5.267294   1.925784  -1.774535  -2.189868
     2  C    0.394667  13.081060  -1.165732  -1.858674   2.829192  -3.002323
     3  C   -5.267294  -1.165732  33.077240 -15.940750  -5.766454  10.453434
     4  C    1.925784  -1.858674 -15.940750  28.633293   3.500278 -12.355060
     5  C   -1.774535   2.829192  -5.766454   3.500278  15.953966 -12.060753
     6  C   -2.189868  -3.002323  10.453434 -12.355060 -12.060753  44.884420
     7  C    5.386245  -2.535797  -0.563806  -0.601405  -1.659317  -0.113760
     8  C   -2.865890   0.708340  -4.229152   0.610703   1.508352  -5.121948
     9  C    0.820416  -1.009379   1.192507  -0.495811  -0.793049   0.278706
    10  C   -3.711882  -0.034778  -1.340181   0.463379   0.734689  -1.914818
    11  C   -1.473807  -0.790414  -0.090033  -0.207325   0.669164  -1.677397
    12  C    2.728247  -1.739871  -0.459004  -1.376118  -5.596493  10.509712
    13  H    0.110167   0.233403  -0.324107   0.168055  -0.027372  -0.065862
    14  H    0.118609  -0.039071   0.016788   0.078347   0.220705  -0.005800
    15  H    0.079756   0.031590  -0.032313   0.009309   0.004488   0.017150
    16  H   -0.003166   0.005779  -0.000804   0.000002   0.000455   0.003150
    17  Cl  -3.333242   0.217671  -1.659738   2.304289   3.721494  -8.638465
    18  Cl  -2.676623   1.247291  -3.059267   2.438241   5.375037 -12.961587
    19  Cl   0.626922  -0.123181   0.115868  -0.083422  -0.251749   0.348746
    20  Cl  -0.188627  -0.023806  -0.016551   0.004587   0.010128  -0.059382
    21  Cl   0.052751   0.014710  -0.059105  -0.038775   0.140264  -0.872927
    22  Cl  -1.074147   0.208482   0.584626  -1.027517   0.138289   0.721638
               7          8          9         10         11         12
     1  C    5.386245  -2.865890   0.820416  -3.711882  -1.473807   2.728247
     2  C   -2.535797   0.708340  -1.009379  -0.034778  -0.790414  -1.739871
     3  C   -0.563806  -4.229152   1.192507  -1.340181  -0.090033  -0.459004
     4  C   -0.601405   0.610703  -0.495811   0.463379  -0.207325  -1.376118
     5  C   -1.659317   1.508352  -0.793049   0.734689   0.669164  -5.596493
     6  C   -0.113760  -5.121948   0.278706  -1.914818  -1.677397  10.509712
     7  C   18.388203  -6.518547   3.849635  -6.834929   1.023422   1.764769
     8  C   -6.518547  21.016918  -3.998356   5.347478  -0.962837  -2.835433
     9  C    3.849635  -3.998356  19.552788 -10.047803   0.166590   0.635337
    10  C   -6.834929   5.347478 -10.047803  27.012493  -3.389459  -3.974636
    11  C    1.023422  -0.962837   0.166590  -3.389459  20.965999 -10.691149
    12  C    1.764769  -2.835433   0.635337  -3.974636 -10.691149  45.405198
    13  H    0.028751   0.105841  -0.005120   0.035363  -0.019089   0.062586
    14  H    0.019023   0.000317   0.001066  -0.000872  -0.001707   0.016778
    15  H    0.020155   0.360405  -0.209628   0.016566  -0.055684   0.038302
    16  H    0.011275  -0.039781   0.318354   0.052470  -0.007428   0.012329
    17  Cl  -3.841409   2.312573  -3.835645   3.329248   5.355728 -20.611178
    18  Cl  -1.357501   1.711520  -1.155224   2.318057   1.323168 -12.818235
    19  Cl   0.541246  -0.682376   2.223281  -2.926491  -4.034005   6.063228
    20  Cl  -0.588381   0.142714  -0.946860   0.612007   0.619882  -0.452104
    21  Cl  -0.036859  -0.023577  -0.007684   0.000560   0.000259  -0.054967
    22  Cl  -0.148930  -0.185275   0.024346  -0.026475  -0.002644  -0.091142
              13         14         15         16         17         18
     1  C    0.110167   0.118609   0.079756  -0.003166  -3.333242  -2.676623
     2  C    0.233403  -0.039071   0.031590   0.005779   0.217671   1.247291
     3  C   -0.324107   0.016788  -0.032313  -0.000804  -1.659738  -3.059267
     4  C    0.168055   0.078347   0.009309   0.000002   2.304289   2.438241
     5  C   -0.027372   0.220705   0.004488   0.000455   3.721494   5.375037
     6  C   -0.065862  -0.005800   0.017150   0.003150  -8.638465 -12.961587
     7  C    0.028751   0.019023   0.020155   0.011275  -3.841409  -1.357501
     8  C    0.105841   0.000317   0.360405  -0.039781   2.312573   1.711520
     9  C   -0.005120   0.001066  -0.209628   0.318354  -3.835645  -1.155224
    10  C    0.035363  -0.000872   0.016566   0.052470   3.329248   2.318057
    11  C   -0.019089  -0.001707  -0.055684  -0.007428   5.355728   1.323168
    12  C    0.062586   0.016778   0.038302   0.012329 -20.611178 -12.818235
    13  H    0.560383   0.000048   0.004898   0.000044   0.017241   0.017380
    14  H    0.000048   0.510429  -0.000002   0.000000   0.011345  -0.085266
    15  H    0.004898  -0.000002   0.573145  -0.007156   0.023760   0.007113
    16  H    0.000044   0.000000  -0.007156   0.510210   0.002375  -0.000264
    17  Cl   0.017241   0.011345   0.023760   0.002375  39.541309   4.813790
    18  Cl   0.017380  -0.085266   0.007113  -0.000264   4.813790  32.993334
    19  Cl  -0.000722   0.000172  -0.002023  -0.002003  -3.627324  -1.854186
    20  Cl   0.000325  -0.000004  -0.000024  -0.006062   0.303932   0.083098
    21  Cl   0.000177  -0.009874   0.000200  -0.000001   0.007974   0.029791
    22  Cl  -0.036561   0.000362  -0.000583   0.000007  -0.019096  -0.036993
              19         20         21         22
     1  C    0.626922  -0.188627   0.052751  -1.074147
     2  C   -0.123181  -0.023806   0.014710   0.208482
     3  C    0.115868  -0.016551  -0.059105   0.584626
     4  C   -0.083422   0.004587  -0.038775  -1.027517
     5  C   -0.251749   0.010128   0.140264   0.138289
     6  C    0.348746  -0.059382  -0.872927   0.721638
     7  C    0.541246  -0.588381  -0.036859  -0.148930
     8  C   -0.682376   0.142714  -0.023577  -0.185275
     9  C    2.223281  -0.946860  -0.007684   0.024346
    10  C   -2.926491   0.612007   0.000560  -0.026475
    11  C   -4.034005   0.619882   0.000259  -0.002644
    12  C    6.063228  -0.452104  -0.054967  -0.091142
    13  H   -0.000722   0.000325   0.000177  -0.036561
    14  H    0.000172  -0.000004  -0.009874   0.000362
    15  H   -0.002023  -0.000024   0.000200  -0.000583
    16  H   -0.002003  -0.006062  -0.000001   0.000007
    17  Cl  -3.627324   0.303932   0.007974  -0.019096
    18  Cl  -1.854186   0.083098   0.029791  -0.036993
    19  Cl  20.632224  -0.676956  -0.000401   0.000524
    20  Cl  -0.676956  17.691979   0.000009  -0.000116
    21  Cl  -0.000401   0.000009  17.529258  -0.196157
    22  Cl   0.000524  -0.000116  -0.196157  17.625384
 Mulliken charges:
               1
     1  C   -0.623002
     2  C   -0.649159
     3  C    0.533827
     4  C   -0.151410
     5  C   -0.876780
     6  C   -0.177008
     7  C   -0.232082
     8  C   -0.361990
     9  C   -0.558466
    10  C    0.280015
    11  C   -0.721234
    12  C   -0.536156
    13  H    0.134171
    14  H    0.148605
    15  H    0.120574
    16  H    0.150214
    17  Cl   0.603367
    18  Cl   0.647324
    19  Cl   0.712630
    20  Cl   0.490211
    21  Cl   0.524372
    22  Cl   0.541976
 Sum of Mulliken charges =  -0.00000
 Mulliken charges with hydrogens summed into heavy atoms:
               1
     1  C   -0.623002
     2  C   -0.514988
     3  C    0.533827
     4  C   -0.151410
     5  C   -0.728175
     6  C   -0.177008
     7  C   -0.232082
     8  C   -0.241416
     9  C   -0.408252
    10  C    0.280015
    11  C   -0.721234
    12  C   -0.536156
    17  Cl   0.603367
    18  Cl   0.647324
    19  Cl   0.712630
    20  Cl   0.490211
    21  Cl   0.524372
    22  Cl   0.541976
 Electronic spatial extent (au):  <R**2>=           9071.0224
 Charge=             -0.0000 electrons
 Dipole moment (field-independent basis, Debye):
    X=             -0.2314    Y=             -2.0999    Z=              0.0000  Tot=              2.1126
 Quadrupole moment (field-independent basis, Debye-Ang):
   XX=           -171.0368   YY=           -129.9856   ZZ=           -146.2560
   XY=             -0.6892   XZ=             -0.0000   YZ=             -0.0000
 Traceless Quadrupole moment (field-independent basis, Debye-Ang):
   XX=            -21.9440   YY=             19.1072   ZZ=              2.8368
   XY=             -0.6892   XZ=             -0.0000   YZ=             -0.0000
 Octapole moment (field-independent basis, Debye-Ang**2):
  XXX=             -5.4070  YYY=            -32.1999  ZZZ=             -0.0001  XYY=            -11.1945
  XXY=            -19.7029  XXZ=             -0.0000  XZZ=             -2.8936  YZZ=            -13.0112
  YYZ=              0.0000  XYZ=             -0.0000
 Hexadecapole moment (field-independent basis, Debye-Ang**3):
 XXXX=          -9833.0578 YYYY=          -2173.9407 ZZZZ=           -173.1823 XXXY=             40.5915
 XXXZ=              0.0003 YYYX=             39.2187 YYYZ=             -0.0001 ZZZX=              0.0000
 ZZZY=             -0.0001 XXYY=          -1953.7738 XXZZ=          -1637.6852 YYZZ=           -430.3360
 XXYZ=             -0.0000 YYXZ=              0.0000 ZZXY=             18.9972
 N-N= 2.095708331060D+03 E-N=-1.182029893500D+04  KE= 3.218862061945D+03
 Calling FoFJK, ICntrl=      2127 FMM=F ISym2X=0 I1Cent= 0 IOpClX= 0 NMat=1 NMatS=1 NMatT=0.
 ***** Axes restored to original set *****
 -------------------------------------------------------------------
 Center     Atomic                   Forces (Hartrees/Bohr)
 Number     Number              X              Y              Z
 -------------------------------------------------------------------
      1        6           0.002874580   -0.027803976   -0.006168865
      2        6          -0.004830101    0.015903509    0.004578339
      3        6          -0.000197285   -0.001500491   -0.000216712
      4        6          -0.002712493    0.000508773    0.000989011
      5        6           0.004260245   -0.020974860   -0.005342714
      6        6           0.108076826   -0.004142631   -0.036385075
      7        6           0.025618328    0.010473433   -0.006473134
      8        6          -0.019649688   -0.004683952    0.005594032
      9        6          -0.005050745    0.012663832    0.004042342
     10        6           0.001220129    0.001847123   -0.000055049
     11        6           0.017952048    0.007035904   -0.004592977
     12        6           0.053132311   -0.102389372   -0.036734021
     13        1           0.007603019   -0.003333459   -0.003130973
     14        1          -0.004786377    0.011230611    0.003686126
     15        1           0.007333766   -0.004638475   -0.003287402
     16        1           0.002407371   -0.008059448   -0.002306733
     17       17          -1.718291880   -2.709730312    0.057216731
     18       17           1.533967653    2.829914325    0.026081695
     19       17          -0.003386123    0.003172264    0.001711351
     20       17           0.004660457    0.000052264   -0.001525670
     21       17          -0.004874734   -0.001264759    0.001368477
     22       17          -0.005327304   -0.004280301    0.000951219
 -------------------------------------------------------------------
 Cartesian Forces:  Max     2.829914325 RMS     0.559927716

 GradGradGradGradGradGradGradGradGradGradGradGradGradGradGradGradGradGrad
 Berny optimization.
 FormGI is forming the generalized inverse of G from B-inverse, IUseBI=4.
 Internal  Forces:  Max     3.118647747 RMS     0.292674556
 Search for a local minimum.
 Step number   1 out of a maximum of  129
 All quantities printed in internal units (Hartrees-Bohrs-Radians)
 Mixed Optimization -- RFO/linear search
 Second derivative matrix not updated -- first step.
 ITU=  0
     Eigenvalues ---    0.01035   0.01214   0.01489   0.01712   0.01738
     Eigenvalues ---    0.01829   0.02070   0.02070   0.02070   0.02070
     Eigenvalues ---    0.02070   0.02070   0.02070   0.02070   0.02070
     Eigenvalues ---    0.02070   0.02070   0.02070   0.03966   0.16000
     Eigenvalues ---    0.16000   0.16000   0.16000   0.22532   0.23084
     Eigenvalues ---    0.23991   0.24505   0.25000   0.25000   0.25000
     Eigenvalues ---    0.25000   0.25000   0.25000   0.25000   0.25000
     Eigenvalues ---    0.25000   0.28335   0.29044   0.29447   0.29539
     Eigenvalues ---    0.29539   0.29539   0.29539   0.37230   0.37230
     Eigenvalues ---    0.37230   0.37230   0.40068   0.40943   0.41464
     Eigenvalues ---    0.41584   0.44582   0.45130   0.45389   0.45389
     Eigenvalues ---    0.45389   0.45389   0.45389   0.45389  16.61567
 RFO step:  Lambda=-6.28724158D-01 EMin= 1.03510888D-02
 Linear search not attempted -- first point.
 Iteration  1 RMS(Cart)=  0.03376002 RMS(Int)=  0.00052150
 Iteration  2 RMS(Cart)=  0.00131284 RMS(Int)=  0.00023686
 Iteration  3 RMS(Cart)=  0.00000067 RMS(Int)=  0.00023686
 Variable       Old X    -DE/DX   Delta X   Delta X   Delta X     New X
                                 (Linear)    (Quad)   (Total)
    R1        2.64826   0.01578   0.00000  -0.00002  -0.00008   2.64818
    R2        2.64826   0.10160   0.00000   0.01629   0.01597   2.66424
    R3        2.91018   0.11835   0.00000  -0.01400  -0.01451   2.89566
    R4        2.64826  -0.01165   0.00000  -0.00842  -0.00841   2.63985
    R5        2.02201   0.00715   0.00000   0.00714   0.00714   2.02915
    R6        2.64826  -0.02280   0.00000  -0.00412  -0.00405   2.64422
    R7        3.32592  -0.00545   0.00000  -0.00590  -0.00590   3.32002
    R8        2.64826  -0.02689   0.00000  -0.01024  -0.01018   2.63808
    R9        3.32592  -0.00356   0.00000  -0.00385  -0.00385   3.32207
   R10        2.64826  -0.00929   0.00000  -0.01093  -0.01094   2.63732
   R11        2.02201   0.01271   0.00000   0.01270   0.01270   2.03470
   R12        3.32592   0.04815   0.00000   0.12301   0.12327   3.44919
   R13        2.64826   0.01755   0.00000   0.00158   0.00151   2.64977
   R14        2.64826   0.10117   0.00000   0.01605   0.01569   2.66395
   R15        2.64826  -0.01279   0.00000  -0.00958  -0.00957   2.63869
   R16        2.02201   0.00789   0.00000   0.00788   0.00788   2.02989
   R17        2.64826  -0.03164   0.00000  -0.01236  -0.01228   2.63598
   R18        2.02201   0.00856   0.00000   0.00855   0.00855   2.03056
   R19        2.64826  -0.01998   0.00000  -0.00382  -0.00375   2.64451
   R20        3.32592  -0.00241   0.00000  -0.00260  -0.00260   3.32331
   R21        2.64826  -0.01064   0.00000  -0.01206  -0.01207   2.63620
   R22        3.32592   0.00368   0.00000   0.00398   0.00398   3.32990
   R23        3.32592   0.06215   0.00000   0.13826   0.13848   3.46440
   R24        2.23252   3.11865   0.00000   0.18086   0.18137   2.41390
    A1        2.09440  -0.08044   0.00000  -0.01087  -0.01058   2.08381
    A2        2.09440  -0.16815   0.00000  -0.00367  -0.00302   2.09138
    A3        2.09440   0.24859   0.00000   0.01454   0.01360   2.10799
    A4        2.09440   0.04714   0.00000   0.00674   0.00658   2.10097
    A5        2.09440  -0.01825   0.00000   0.00337   0.00345   2.09784
    A6        2.09440  -0.02888   0.00000  -0.01011  -0.01003   2.08437
    A7        2.09440   0.00694   0.00000   0.00037   0.00035   2.09474
    A8        2.09440  -0.01051   0.00000  -0.00819  -0.00818   2.08621
    A9        2.09440   0.00357   0.00000   0.00782   0.00783   2.10223
   A10        2.09440  -0.00887   0.00000  -0.00223  -0.00221   2.09219
   A11        2.09440   0.01078   0.00000   0.00834   0.00832   2.10272
   A12        2.09440  -0.00191   0.00000  -0.00611  -0.00612   2.08828
   A13        2.09440   0.02079   0.00000   0.00756   0.00750   2.10190
   A14        2.09440  -0.01145   0.00000  -0.00512  -0.00509   2.08931
   A15        2.09440  -0.00934   0.00000  -0.00244  -0.00241   2.09198
   A16        2.09440   0.01445   0.00000  -0.00157  -0.00164   2.09276
   A17        2.09440   0.06984   0.00000   0.03157   0.03141   2.12581
   A18        2.09440  -0.08429   0.00000  -0.03000  -0.02977   2.06462
   A19        2.09440  -0.16784   0.00000  -0.00342  -0.00274   2.09165
   A20        2.09440   0.24668   0.00000   0.01242   0.01146   2.10585
   A21        2.09440  -0.07884   0.00000  -0.00900  -0.00872   2.08568
   A22        2.09440   0.04776   0.00000   0.00735   0.00717   2.10157
   A23        2.09440  -0.01894   0.00000   0.00259   0.00267   2.09707
   A24        2.09440  -0.02882   0.00000  -0.00993  -0.00985   2.08455
   A25        2.09440   0.00673   0.00000  -0.00003  -0.00006   2.09433
   A26        2.09440  -0.00167   0.00000   0.00216   0.00218   2.09657
   A27        2.09440  -0.00506   0.00000  -0.00213  -0.00212   2.09228
   A28        2.09440  -0.00842   0.00000  -0.00169  -0.00166   2.09273
   A29        2.09440  -0.00290   0.00000  -0.00724  -0.00725   2.08714
   A30        2.09440   0.01131   0.00000   0.00893   0.00892   2.10331
   A31        2.09440   0.02217   0.00000   0.00913   0.00907   2.10347
   A32        2.09440  -0.00559   0.00000   0.00168   0.00171   2.09611
   A33        2.09440  -0.01658   0.00000  -0.01082  -0.01079   2.08361
   A34        2.09440   0.01060   0.00000  -0.00576  -0.00581   2.08859
   A35        2.09440   0.06612   0.00000   0.02740   0.02718   2.12157
   A36        2.09440  -0.07672   0.00000  -0.02164  -0.02137   2.07302
   A37        2.09440  -0.31501   0.00000  -0.04221  -0.04109   2.05330
   A38        2.09440  -0.31623   0.00000  -0.04372  -0.04255   2.05184
    D1        0.00000   0.00000   0.00000   0.00000   0.00000   0.00000
    D2        3.14159   0.00000   0.00000   0.00000   0.00000   3.14159
    D3       -3.14159   0.00000   0.00000   0.00000   0.00000  -3.14159
    D4       -0.00000   0.00000   0.00000   0.00000   0.00000  -0.00000
    D5       -0.00000  -0.00000   0.00000  -0.00000  -0.00000  -0.00000
    D6        3.14159  -0.00000   0.00000   0.00000   0.00000   3.14159
    D7        3.14159  -0.00000   0.00000  -0.00000  -0.00000   3.14159
    D8        0.00000  -0.00000   0.00000   0.00000   0.00000   0.00000
    D9       -0.00000  -0.00000   0.00000  -0.00000  -0.00000  -0.00000
   D10        3.14159  -0.00000   0.00000  -0.00000  -0.00000   3.14159
   D11        3.14159  -0.00000   0.00000  -0.00000  -0.00000   3.14159
   D12       -0.00000  -0.00000   0.00000  -0.00000  -0.00000  -0.00000
   D13        0.00000  -0.00000   0.00000   0.00000   0.00000   0.00000
   D14        3.14159  -0.00000   0.00000   0.00000   0.00000   3.14159
   D15       -3.14159   0.00000   0.00000  -0.00000  -0.00000  -3.14159
   D16        0.00000   0.00000   0.00000  -0.00000  -0.00000   0.00000
   D17       -0.00000  -0.00000   0.00000   0.00000   0.00000  -0.00000
   D18        3.14159   0.00000   0.00000  -0.00000  -0.00000   3.14159
   D19        3.14159  -0.00000   0.00000   0.00000   0.00000   3.14159
   D20        0.00000   0.00000   0.00000  -0.00000  -0.00000   0.00000
   D21        0.00000   0.00000   0.00000  -0.00000  -0.00000   0.00000
   D22       -3.14159   0.00000   0.00000  -0.00000  -0.00000  -3.14159
   D23       -3.14159  -0.00000   0.00000  -0.00000  -0.00000  -3.14159
   D24        0.00000   0.00000   0.00000   0.00000   0.00000   0.00000
   D25       -0.00000   0.00000   0.00000   0.00000   0.00000  -0.00000
   D26        3.14159   0.00000   0.00000   0.00000   0.00000   3.14159
   D27        3.14159  -0.00000   0.00000   0.00000   0.00000   3.14159
   D28       -0.00000   0.00000   0.00000  -0.00000  -0.00000  -0.00000
   D29        0.00001  -0.00000   0.00000  -0.00000  -0.00000   0.00001
   D30       -3.14158  -0.00000   0.00000  -0.00000  -0.00000  -3.14158
   D31        3.14159   0.00000   0.00000   0.00000   0.00000   3.14159
   D32        0.00000   0.00000   0.00000   0.00000   0.00000   0.00000
   D33        0.00000   0.00000   0.00000   0.00000   0.00000   0.00000
   D34       -3.14159   0.00000   0.00000  -0.00000  -0.00000  -3.14159
   D35       -3.14159  -0.00000   0.00000  -0.00000  -0.00000  -3.14159
   D36        0.00000  -0.00000   0.00000   0.00000   0.00000   0.00000
   D37       -0.00000  -0.00000   0.00000  -0.00000  -0.00000  -0.00000
   D38        3.14159  -0.00000   0.00000   0.00000   0.00000   3.14159
   D39       -0.00000  -0.00000   0.00000   0.00000   0.00000  -0.00000
   D40        3.14159  -0.00000   0.00000  -0.00000  -0.00000   3.14159
   D41        3.14159   0.00000   0.00000   0.00000   0.00000   3.14159
   D42       -0.00000   0.00000   0.00000   0.00000   0.00000  -0.00000
   D43       -0.00000  -0.00000   0.00000  -0.00000  -0.00000  -0.00000
   D44       -3.14159  -0.00000   0.00000  -0.00000  -0.00000  -3.14159
   D45        3.14159  -0.00000   0.00000   0.00000   0.00000   3.14159
   D46        0.00000   0.00000   0.00000  -0.00000  -0.00000   0.00000
   D47        0.00000   0.00000   0.00000  -0.00000  -0.00000   0.00000
   D48       -3.14159   0.00000   0.00000  -0.00000  -0.00000  -3.14159
   D49        3.14159  -0.00000   0.00000   0.00000   0.00000   3.14159
   D50        0.00000   0.00000   0.00000   0.00000   0.00000   0.00000
   D51        0.00000   0.00000   0.00000   0.00000   0.00000   0.00000
   D52       -3.14159   0.00000   0.00000  -0.00000  -0.00000  -3.14159
   D53        3.14159   0.00000   0.00000   0.00000   0.00000   3.14159
   D54       -0.00000   0.00000   0.00000  -0.00000  -0.00000  -0.00000
   D55        0.00001  -0.00000   0.00000  -0.00000  -0.00000   0.00001
   D56       -3.14158  -0.00000   0.00000  -0.00000  -0.00000  -3.14158
   D57       -0.00001   0.00000   0.00000   0.00000   0.00000  -0.00001
         Item               Value     Threshold  Converged?
 Maximum Force            3.118648     0.000450     NO 
 RMS     Force            0.292675     0.000300     NO 
 Maximum Displacement     0.195975     0.001800     NO 
 RMS     Displacement     0.033006     0.001200     NO 
 Predicted change in Energy=-3.369892D-01
 GradGradGradGradGradGradGradGradGradGradGradGradGradGradGradGradGradGrad

                          Input orientation:                          
 ---------------------------------------------------------------------
 Center     Atomic      Atomic             Coordinates (Angstroms)
 Number     Number       Type             X           Y           Z
 ---------------------------------------------------------------------
      1          6           0       -0.399583   -0.097275   -0.000381
      2          6           0        0.932595   -0.071885   -0.434505
      3          6           0        1.649286    1.127158   -0.445431
      4          6           0        1.037766    2.312137   -0.021412
      5          6           0       -0.289070    2.293333    0.412187
      6          6           0       -1.011374    1.099256    0.425894
      7          6           0       -1.173908   -1.419537    0.006391
      8          6           0       -0.546122   -2.597984   -0.421760
      9          6           0       -1.240536   -3.809404   -0.420496
     10          6           0       -2.567137   -3.852345    0.008497
     11          6           0       -3.200067   -2.680166    0.437167
     12          6           0       -2.514640   -1.465155    0.439539
     13          1           0        1.411259   -0.975587   -0.761926
     14          1           0       -0.757005    3.206720    0.737892
     15          1           0        0.475139   -2.575262   -0.753953
     16          1           0       -0.754953   -4.709699   -0.749559
     17         17           0       -3.390121    0.040861    1.010819
     18         17           0       -2.742099    1.141642    1.004050
     19         17           0       -4.875733   -2.728552    0.980146
     20         17           0       -3.431436   -5.383923    0.005605
     21         17           0        1.928408    3.827759   -0.030189
     22         17           0        3.318280    1.133462   -0.994104
 ---------------------------------------------------------------------
                    Distance matrix (angstroms):
                    1          2          3          4          5
     1  C    0.000000
     2  C    1.401358   0.000000
     3  C    2.427997   1.396950   0.000000
     4  C    2.805652   2.421832   1.399259   0.000000
     5  C    2.428463   2.793494   2.419235   1.396014   0.000000
     6  C    1.409853   2.427112   2.799839   2.422837   1.395611
     7  C    1.532319   2.539273   3.828867   4.337934   3.838361
     8  C    2.540193   2.927105   4.324010   5.174773   4.968554
     9  C    3.829308   4.323395   5.720257   6.543943   6.232338
    10  C    4.335772   5.170711   6.540621   7.141223   6.566728
    11  C    3.834773   4.964054   6.228236   6.564497   5.762831
    12  C    2.556970   3.819501   4.984129   5.205767   4.368083
    13  H    2.151867   1.073779   2.139711   3.390721   3.867234
    14  H    3.404289   3.870208   3.393386   2.144300   1.076719
    15  H    2.733757   2.564802   3.896373   4.973916   5.064298
    16  H    4.686364   4.945341   6.319949   7.283558   7.114011
    17  Cl   3.159893   4.559336   5.356896   5.082360   3.879241
    18  Cl   2.833934   4.128615   4.624443   4.087666   2.773814
    19  Cl   5.284030   6.541849   7.711981   7.834612   6.824910
    20  Cl   6.094326   6.888847   8.271115   8.899654   8.305422
    21  Cl   4.563587   4.045039   2.746558   1.757962   2.732649
    22  Cl   4.040384   2.730844   1.756879   2.745205   4.041773
                    6          7          8          9         10
     6  C    0.000000
     7  C    2.558656   0.000000
     8  C    3.821591   1.402200   0.000000
     9  C    4.986364   2.428607   1.396334   0.000000
    10  C    5.207011   2.803506   2.417239   1.394901   0.000000
    11  C    4.367440   2.424887   2.790687   2.418786   1.399415
    12  C    2.972575   1.409703   2.429033   2.803302   2.426361
    13  H    3.403680   2.733220   2.565000   3.896038   4.969600
    14  H    2.145565   4.702250   5.923162   7.127528   7.323864
    15  H    4.135679   2.152482   1.074171   2.139589   3.386401
    16  H    5.932233   3.401786   2.147185   1.074525   2.143295
    17  Cl   2.668478   2.837823   4.135712   4.636154   4.103536
    18  Cl   1.825231   3.164520   4.565091   5.366272   5.095257
    19  Cl   5.467411   4.045396   4.552793   4.042857   2.745292
    20  Cl   6.932889   4.562104   4.033501   2.731431   1.758622
    21  Cl   4.036714   6.095885   6.896869   8.277729   8.899181
    22  Cl   4.556695   5.262941   5.402303   6.748611   7.778278
                   11         12         13         14         15
    11  C    0.000000
    12  C    1.395015   0.000000
    13  H    5.060409   4.134717   0.000000
    14  H    6.380784   5.000471   4.943937   0.000000
    15  H    3.864830   3.405223   1.853468   6.097138   0.000000
    16  H    3.392035   3.877823   4.316969   8.054949   2.463527
    17  Cl   2.787326   1.833280   5.218146   4.126796   4.989866
    18  Cl   3.890669   2.676902   4.985149   2.876801   5.220783
    19  Cl   1.762108   2.731883   6.755292   7.228421   5.626938
    20  Cl   2.747741   4.047907   6.593499   9.027068   4.871020
    21  Cl   8.298962   6.926490   4.886206   2.861308   6.605642
    22  Cl   7.686426   6.544548   2.852845   4.889393   4.679290
                   16         17         18         19         20
    16  H    0.000000
    17  Cl   5.710592   0.000000
    18  Cl   6.423557   1.277379   0.000000
    19  Cl   4.888522   3.142871   4.419431   0.000000
    20  Cl   2.861540   5.517286   6.637400   3.175959   0.000000
    21  Cl   8.978090   6.611433   5.486211   9.502754  10.657593
    22  Cl   7.126960   7.086335   6.381292   9.271175   9.435804
                   21         22
    21  Cl   0.000000
    22  Cl   3.181212   0.000000
 Stoichiometry    C12H4Cl6
 Framework group  C1[X(C12H4Cl6)]
 Deg. of freedom    60
 Full point group                 C1      NOp   1
 Largest Abelian subgroup         C1      NOp   1
 Largest concise Abelian subgroup C1      NOp   1
                         Standard orientation:                         
 ---------------------------------------------------------------------
 Center     Atomic      Atomic             Coordinates (Angstroms)
 Number     Number       Type             X           Y           Z
 ---------------------------------------------------------------------
      1          6           0        0.863454    0.308142    0.000003
      2          6           0        1.821115    1.331221    0.000001
      3          6           0        3.183720    1.023360   -0.000000
      4          6           0        3.599557   -0.312680   -0.000001
      5          6           0        2.650372   -1.336351    0.000003
      6          6           0        1.287359   -1.036473    0.000004
      7          6           0       -0.627882    0.660162    0.000004
      8          6           0       -1.027579    2.004189    0.000005
      9          6           0       -2.383321    2.338426    0.000004
     10          6           0       -3.349596    1.332414    0.000002
     11          6           0       -2.958008   -0.011097    0.000001
     12          6           0       -1.606038   -0.354961    0.000001
     13          1           0        1.512659    2.359743   -0.000000
     14          1           0        2.973318   -2.363497    0.000004
     15          1           0       -0.291097    2.786134    0.000004
     16          1           0       -2.684462    3.369890    0.000005
     17         17           0       -1.146856   -2.129803   -0.000003
     18         17           0        0.097076   -2.420199    0.000007
     19         17           0       -4.174353   -1.286060   -0.000006
     20         17           0       -5.054020    1.765645   -0.000001
     21         17           0        5.311153   -0.713766   -0.000004
     22         17           0        4.365274    2.323573   -0.000003
 ---------------------------------------------------------------------
 Rotational constants (GHZ):           0.5159846           0.1261399           0.1013608
 Standard basis: 6-311+G(d,p) (5D, 7F)
 There are   486 symmetry adapted cartesian basis functions of A   symmetry.
 There are   468 symmetry adapted basis functions of A   symmetry.
   468 basis functions,   782 primitive gaussians,   486 cartesian basis functions
    89 alpha electrons       89 beta electrons
       nuclear repulsion energy      2074.4303299343 Hartrees.
 NAtoms=   22 NActive=   22 NUniq=   22 SFac= 1.00D+00 NAtFMM=   60 NAOKFM=F Big=F
 Integral buffers will be    131072 words long.
 Raffenetti 2 integral format.
 Two-electron integral symmetry is turned on.
 One-electron integrals computed using PRISM.
 NBasis=   468 RedAO= T EigKep=  1.02D-06  NBF=   468
 NBsUse=   462 1.00D-06 EigRej=  6.10D-07 NBFU=   462
 Initial guess from the checkpoint file:  "/scratch/gour/Gau-78221.chk"
 B after Tr=     0.000000   -0.000000   -0.000000
         Rot=    1.000000   -0.000000   -0.000000    0.000119 Ang=  -0.01 deg.
 ExpMin= 4.38D-02 ExpMax= 1.06D+05 ExpMxC= 3.62D+03 IAcc=3 IRadAn=         5 AccDes= 0.00D+00
 Harris functional with IExCor=  402 and IRadAn=       5 diagonalized for initial guess.
 HarFok:  IExCor=  402 AccDes= 0.00D+00 IRadAn=         5 IDoV= 1 UseB2=F ITyADJ=14
 ICtDFT=  3500011 ScaDFX=  1.000000  1.000000  1.000000  1.000000
 FoFCou: FMM=F IPFlag=           0 FMFlag=      100000 FMFlg1=           0
         NFxFlg=           0 DoJE=T BraDBF=F KetDBF=T FulRan=T
         wScrn=  0.000000 ICntrl=       500 IOpCl=  0 I1Cent=   200000004 NGrid=           0
         NMat0=    1 NMatS0=      1 NMatT0=    0 NMatD0=    1 NMtDS0=    0 NMtDT0=    0
 Petite list used in FoFCou.
 Requested convergence on RMS density matrix=1.00D-08 within  32 cycles.
 Requested convergence on MAX density matrix=1.00D-06.
 Requested convergence on             energy=1.00D-06.
 No special actions if energy rises.
 SCF Done:  E(RB3LYP) =  -3220.02658845     A.U. after   17 cycles
            NFock= 17  Conv=0.40D-08     -V/T= 2.0009
 QCSCF skips out because SCF is already converged.
 Calling FoFJK, ICntrl=      2127 FMM=F ISym2X=0 I1Cent= 0 IOpClX= 0 NMat=1 NMatS=1 NMatT=0.
 ***** Axes restored to original set *****
 -------------------------------------------------------------------
 Center     Atomic                   Forces (Hartrees/Bohr)
 Number     Number              X              Y              Z
 -------------------------------------------------------------------
      1        6          -0.001751355   -0.022740177   -0.003693836
      2        6          -0.003463003    0.011512061    0.003303157
      3        6           0.000523242   -0.000878237   -0.000337228
      4        6           0.000568860    0.001657538    0.000123700
      5        6          -0.002461962   -0.014883340   -0.001984026
      6        6           0.088556177   -0.016442453   -0.032263753
      7        6           0.018900893    0.011412965   -0.004083529
      8        6          -0.013483666   -0.002954878    0.003887355
      9        6          -0.001623237    0.008154272    0.002066187
     10        6          -0.001703455   -0.000220571    0.000519814
     11        6           0.015110160    0.008497513   -0.003382179
     12        6           0.055060728   -0.080349559   -0.033230237
     13        1           0.005787386   -0.001401817   -0.002170016
     14        1          -0.002571645    0.007645739    0.002283213
     15        1           0.004619824   -0.004049046   -0.002282585
     16        1           0.001332662   -0.005143652   -0.001405047
     17       17          -1.106741249   -1.688062962    0.047605893
     18       17           0.952040540    1.790286906    0.022559823
     19       17          -0.004714498    0.001867473    0.001903935
     20       17           0.003043946   -0.000252276   -0.001050287
     21       17          -0.003228510   -0.000897278    0.000895137
     22       17          -0.003801835   -0.002758224    0.000734508
 -------------------------------------------------------------------
 Cartesian Forces:  Max     1.790286906 RMS     0.352711216

 GradGradGradGradGradGradGradGradGradGradGradGradGradGradGradGradGradGrad
 Berny optimization.
 Using GEDIIS/GDIIS optimizer.
 FormGI is forming the generalized inverse of G from B-inverse, IUseBI=4.
 Internal  Forces:  Max     1.970324793 RMS     0.184904301
 Search for a local minimum.
 Step number   2 out of a maximum of  129
 All quantities printed in internal units (Hartrees-Bohrs-Radians)
 Mixed Optimization -- RFO/linear search
 Update second derivatives using D2CorX and points    1    2
 DE= -5.10D-01 DEPred=-3.37D-01 R= 1.51D+00
 TightC=F SS=  1.41D+00  RLast= 2.78D-01 DXNew= 5.0454D-01 8.3368D-01
 Trust test= 1.51D+00 RLast= 2.78D-01 DXMaxT set to 5.05D-01
 ITU=  1  0
 Use linear search instead of GDIIS.
 Linear search step of   0.556 exceeds DXMaxT=   0.505 but not scaled.
 Quartic linear search produced a step of  2.00000.
 Iteration  1 RMS(Cart)=  0.04199628 RMS(Int)=  0.01664811
 Iteration  2 RMS(Cart)=  0.02445543 RMS(Int)=  0.00131216
 Iteration  3 RMS(Cart)=  0.00025401 RMS(Int)=  0.00130557
 Iteration  4 RMS(Cart)=  0.00000014 RMS(Int)=  0.00130557
 Variable       Old X    -DE/DX   Delta X   Delta X   Delta X     New X
                                 (Linear)    (Quad)   (Total)
    R1        2.64818   0.01111  -0.00016   0.00000  -0.00049   2.64769
    R2        2.66424   0.06006   0.03195   0.00000   0.03021   2.69444
    R3        2.89566   0.06137  -0.02903   0.00000  -0.03171   2.86396
    R4        2.63985  -0.00734  -0.01682   0.00000  -0.01674   2.62311
    R5        2.02915   0.00442   0.01428   0.00000   0.01428   2.04343
    R6        2.64422  -0.01497  -0.00809   0.00000  -0.00768   2.63654
    R7        3.32002  -0.00385  -0.01180   0.00000  -0.01180   3.30822
    R8        2.63808  -0.01525  -0.02036   0.00000  -0.02002   2.61807
    R9        3.32207  -0.00241  -0.00770   0.00000  -0.00770   3.31436
   R10        2.63732  -0.00709  -0.02188   0.00000  -0.02194   2.61538
   R11        2.03470   0.00829   0.02539   0.00000   0.02539   2.06010
   R12        3.44919   0.05768   0.24654   0.00000   0.24767   3.69686
   R13        2.64977   0.01184   0.00302   0.00000   0.00265   2.65243
   R14        2.66395   0.06005   0.03138   0.00000   0.02943   2.69338
   R15        2.63869  -0.00820  -0.01914   0.00000  -0.01907   2.61962
   R16        2.02989   0.00501   0.01576   0.00000   0.01576   2.04565
   R17        2.63598  -0.01911  -0.02456   0.00000  -0.02411   2.61187
   R18        2.03056   0.00534   0.01710   0.00000   0.01710   2.04766
   R19        2.64451  -0.01219  -0.00750   0.00000  -0.00713   2.63738
   R20        3.32331  -0.00127  -0.00521   0.00000  -0.00521   3.31811
   R21        2.63620  -0.00878  -0.02413   0.00000  -0.02420   2.61199
   R22        3.32990   0.00502   0.00797   0.00000   0.00797   3.33787
   R23        3.46440   0.07085   0.27696   0.00000   0.27794   3.74233
   R24        2.41390   1.97032   0.36275   0.00000   0.36543   2.77932
    A1        2.08381  -0.04944  -0.02117   0.00000  -0.01966   2.06415
    A2        2.09138  -0.09904  -0.00603   0.00000  -0.00243   2.08895
    A3        2.10799   0.14848   0.02720   0.00000   0.02209   2.13009
    A4        2.10097   0.02980   0.01316   0.00000   0.01227   2.11325
    A5        2.09784  -0.01029   0.00689   0.00000   0.00734   2.10518
    A6        2.08437  -0.01951  -0.02005   0.00000  -0.01961   2.06476
    A7        2.09474   0.00372   0.00070   0.00000   0.00058   2.09532
    A8        2.08621  -0.00649  -0.01636   0.00000  -0.01630   2.06991
    A9        2.10223   0.00277   0.01567   0.00000   0.01573   2.11795
   A10        2.09219  -0.00670  -0.00441   0.00000  -0.00426   2.08793
   A11        2.10272   0.00749   0.01665   0.00000   0.01657   2.11929
   A12        2.08828  -0.00079  -0.01224   0.00000  -0.01231   2.07596
   A13        2.10190   0.01447   0.01500   0.00000   0.01466   2.11655
   A14        2.08931  -0.00848  -0.01018   0.00000  -0.01000   2.07930
   A15        2.09198  -0.00599  -0.00483   0.00000  -0.00465   2.08733
   A16        2.09276   0.00816  -0.00328   0.00000  -0.00358   2.08918
   A17        2.12581   0.05502   0.06283   0.00000   0.06176   2.18756
   A18        2.06462  -0.06318  -0.05955   0.00000  -0.05818   2.00645
   A19        2.09165  -0.09918  -0.00548   0.00000  -0.00172   2.08994
   A20        2.10585   0.14693   0.02291   0.00000   0.01766   2.12351
   A21        2.08568  -0.04775  -0.01743   0.00000  -0.01595   2.06973
   A22        2.10157   0.02954   0.01435   0.00000   0.01338   2.11495
   A23        2.09707  -0.01049   0.00535   0.00000   0.00583   2.10290
   A24        2.08455  -0.01906  -0.01969   0.00000  -0.01921   2.06534
   A25        2.09433   0.00356  -0.00012   0.00000  -0.00025   2.09409
   A26        2.09657  -0.00047   0.00435   0.00000   0.00442   2.10099
   A27        2.09228  -0.00309  -0.00423   0.00000  -0.00417   2.08811
   A28        2.09273  -0.00661  -0.00333   0.00000  -0.00316   2.08957
   A29        2.08714  -0.00163  -0.01451   0.00000  -0.01460   2.07254
   A30        2.10331   0.00823   0.01784   0.00000   0.01775   2.12107
   A31        2.10347   0.01599   0.01814   0.00000   0.01777   2.12124
   A32        2.09611  -0.00460   0.00343   0.00000   0.00361   2.09972
   A33        2.08361  -0.01139  -0.02157   0.00000  -0.02139   2.06222
   A34        2.08859   0.00527  -0.01161   0.00000  -0.01181   2.07678
   A35        2.12157   0.05129   0.05436   0.00000   0.05294   2.17451
   A36        2.07302  -0.05656  -0.04274   0.00000  -0.04113   2.03189
   A37        2.05330  -0.20089  -0.08218   0.00000  -0.07588   1.97742
   A38        2.05184  -0.20083  -0.08511   0.00000  -0.07857   1.97327
    D1        0.00000   0.00000   0.00000   0.00000   0.00000   0.00000
    D2        3.14159   0.00000   0.00000   0.00000   0.00000   3.14159
    D3       -3.14159   0.00000   0.00000   0.00000   0.00000  -3.14159
    D4       -0.00000   0.00000   0.00000   0.00000   0.00000  -0.00000
    D5       -0.00000  -0.00000  -0.00000   0.00000  -0.00000  -0.00000
    D6        3.14159  -0.00000   0.00000   0.00000   0.00000   3.14159
    D7        3.14159  -0.00000  -0.00000   0.00000  -0.00000   3.14159
    D8        0.00000  -0.00000   0.00000   0.00000   0.00000   0.00000
    D9       -0.00000  -0.00000  -0.00000   0.00000  -0.00000  -0.00000
   D10        3.14159  -0.00000  -0.00000   0.00000  -0.00000   3.14159
   D11        3.14159  -0.00000  -0.00000   0.00000  -0.00000   3.14159
   D12       -0.00000  -0.00000  -0.00000   0.00000  -0.00000  -0.00000
   D13        0.00000  -0.00000   0.00000   0.00000   0.00000   0.00000
   D14        3.14159  -0.00000   0.00000   0.00000   0.00000   3.14159
   D15       -3.14159   0.00000  -0.00000   0.00000  -0.00000  -3.14159
   D16        0.00000   0.00000  -0.00000   0.00000  -0.00000   0.00000
   D17       -0.00000  -0.00000   0.00000   0.00000   0.00000  -0.00000
   D18        3.14159   0.00000  -0.00000   0.00000  -0.00000   3.14159
   D19        3.14159  -0.00000   0.00000   0.00000   0.00000   3.14159
   D20        0.00000   0.00000  -0.00000   0.00000  -0.00000   0.00000
   D21        0.00000   0.00000  -0.00000   0.00000  -0.00000   0.00000
   D22       -3.14159   0.00000  -0.00000   0.00000  -0.00000  -3.14159
   D23       -3.14159  -0.00000  -0.00000   0.00000  -0.00000  -3.14159
   D24        0.00000   0.00000   0.00000   0.00000   0.00000   0.00000
   D25       -0.00000   0.00000   0.00000   0.00000   0.00000  -0.00000
   D26        3.14159   0.00000   0.00000   0.00000  -0.00000   3.14159
   D27        3.14159  -0.00000   0.00000   0.00000   0.00000   3.14159
   D28       -0.00000   0.00000  -0.00000   0.00000  -0.00000  -0.00000
   D29        0.00001  -0.00000  -0.00000   0.00000  -0.00000   0.00001
   D30       -3.14158  -0.00000  -0.00000   0.00000  -0.00000  -3.14158
   D31        3.14159   0.00000   0.00000   0.00000   0.00000   3.14159
   D32        0.00000   0.00000   0.00000   0.00000   0.00000   0.00000
   D33        0.00000   0.00000   0.00000   0.00000   0.00000   0.00000
   D34       -3.14159   0.00000  -0.00000   0.00000  -0.00000  -3.14159
   D35       -3.14159  -0.00000  -0.00000   0.00000  -0.00000  -3.14159
   D36        0.00000  -0.00000   0.00000   0.00000   0.00000   0.00000
   D37       -0.00000  -0.00000  -0.00000   0.00000  -0.00000  -0.00000
   D38        3.14159  -0.00000   0.00000   0.00000   0.00000   3.14159
   D39       -0.00000  -0.00000   0.00000   0.00000   0.00000  -0.00000
   D40        3.14159  -0.00000  -0.00000   0.00000  -0.00000   3.14159
   D41        3.14159   0.00000   0.00000   0.00000   0.00000   3.14159
   D42       -0.00000   0.00000   0.00000   0.00000   0.00000  -0.00000
   D43       -0.00000  -0.00000  -0.00000   0.00000  -0.00000  -0.00000
   D44       -3.14159  -0.00000  -0.00000   0.00000  -0.00000  -3.14159
   D45        3.14159  -0.00000   0.00000   0.00000   0.00000   3.14159
   D46        0.00000   0.00000  -0.00000   0.00000  -0.00000   0.00000
   D47        0.00000   0.00000  -0.00000   0.00000  -0.00000   0.00000
   D48       -3.14159   0.00000  -0.00000   0.00000  -0.00000  -3.14159
   D49        3.14159  -0.00000   0.00000   0.00000   0.00000   3.14159
   D50        0.00000   0.00000   0.00000   0.00000   0.00000   0.00000
   D51        0.00000   0.00000   0.00000   0.00000   0.00000   0.00000
   D52       -3.14159   0.00000  -0.00000   0.00000  -0.00000  -3.14159
   D53        3.14159   0.00000   0.00000   0.00000   0.00000   3.14159
   D54       -0.00000   0.00000  -0.00000   0.00000  -0.00000  -0.00000
   D55        0.00001  -0.00000  -0.00000   0.00000  -0.00000   0.00001
[...]
                 (A) (A) (A) (A) (A) (A) (A) (A) (A) (A) (A) (A)
                 (A) (A) (A) (A) (A) (A) (A) (A) (A) (A) (A) (A)
                 (A) (A) (A) (A) (A) (A) (A) (A) (A) (A) (A) (A)
                 (A) (A) (A) (A) (A) (A) (A) (A) (A) (A) (A) (A)
                 (A) (A) (A) (A) (A) (A) (A) (A) (A) (A) (A) (A)
                 (A) (A) (A) (A) (A) (A) (A) (A) (A) (A) (A) (A)
                 (A) (A) (A) (A) (A) (A) (A) (A) (A) (A) (A) (A)
                 (A) (A) (A) (A) (A) (A) (A) (A) (A) (A) (A) (A)
                 (A) (A) (A) (A) (A) (A) (A) (A) (A) (A) (A) (A)
                 (A) (A) (A) (A) (A) (A) (A) (A) (A) (A) (A) (A)
                 (A) (A) (A) (A) (A) (A) (A) (A) (A) (A) (A) (A)
                 (A) (A) (A) (A) (A) (A) (A) (A) (A) (A) (A) (A)
                 (A) (A) (A) (A) (A) (A) (A) (A) (A) (A) (A) (A)
                 (A) (A) (A) (A) (A) (A) (A) (A) (A) (A) (A) (A)
                 (A) (A) (A) (A) (A) (A) (A) (A) (A) (A) (A) (A)
                 (A) (A) (A) (A) (A) (A) (A) (A) (A) (A) (A) (A)
                 (A) (A) (A) (A) (A) (A) (A) (A) (A) (A) (A) (A)
                 (A) (A) (A) (A) (A) (A) (A) (A) (A) (A) (A) (A)
                 (A) (A) (A) (A) (A) (A) (A) (A) (A) (A) (A) (A)
                 (A) (A) (A) (A) (A) (A) (A) (A) (A) (A) (A) (A)
                 (A) (A) (A) (A) (A) (A) (A) (A) (A) (A) (A) (A)
                 (A) (A) (A) (A) (A) (A) (A) (A) (A) (A) (A) (A)
                 (A) (A) (A) (A) (A) (A) (A) (A) (A) (A) (A) (A)
                 (A) (A) (A) (A) (A) (A) (A) (A) (A) (A) (A) (A)
                 (A) (A) (A) (A) (A) (A) (A) (A) (A) (A) (A) (A)
                 (A) (A) (A)
 The electronic state is 1-A.
 Alpha  occ. eigenvalues -- -101.57760-101.57680-101.57644-101.57609-101.57597
 Alpha  occ. eigenvalues -- -101.57496 -10.27685 -10.27590 -10.27460 -10.27320
 Alpha  occ. eigenvalues --  -10.27134 -10.27042 -10.23342 -10.23223 -10.22227
 Alpha  occ. eigenvalues --  -10.22213 -10.21688 -10.21629  -9.49215  -9.49145
 Alpha  occ. eigenvalues --   -9.49098  -9.49073  -9.49067  -9.48965  -7.25703
 Alpha  occ. eigenvalues --   -7.25646  -7.25585  -7.25558  -7.25554  -7.25437
 Alpha  occ. eigenvalues --   -7.24694  -7.24635  -7.24627  -7.24576  -7.24556
 Alpha  occ. eigenvalues --   -7.24548  -7.24543  -7.24521  -7.24486  -7.24483
 Alpha  occ. eigenvalues --   -7.24444  -7.24398  -0.95493  -0.94538  -0.91064
 Alpha  occ. eigenvalues --   -0.89933  -0.88326  -0.87758  -0.85696  -0.84468
 Alpha  occ. eigenvalues --   -0.79833  -0.76327  -0.76252  -0.73776  -0.66390
 Alpha  occ. eigenvalues --   -0.64542  -0.64204  -0.60994  -0.55413  -0.53679
 Alpha  occ. eigenvalues --   -0.53314  -0.52403  -0.49781  -0.48600  -0.46781
 Alpha  occ. eigenvalues --   -0.46698  -0.46593  -0.45149  -0.44889  -0.43523
 Alpha  occ. eigenvalues --   -0.41560  -0.41429  -0.40516  -0.39397  -0.38580
 Alpha  occ. eigenvalues --   -0.36882  -0.36492  -0.35290  -0.34974  -0.34529
 Alpha  occ. eigenvalues --   -0.34181  -0.33708  -0.33428  -0.32897  -0.31929
 Alpha  occ. eigenvalues --   -0.28609  -0.27495  -0.27407  -0.26596
 Alpha virt. eigenvalues --   -0.06354  -0.05901  -0.05264  -0.04833  -0.03950
 Alpha virt. eigenvalues --   -0.02873  -0.00897  -0.00105   0.00720   0.01437
 Alpha virt. eigenvalues --    0.01745   0.01978   0.02325   0.02415   0.03660
 Alpha virt. eigenvalues --    0.03865   0.04656   0.04996   0.05264   0.05833
 Alpha virt. eigenvalues --    0.05974   0.06945   0.07024   0.07377   0.08008
 Alpha virt. eigenvalues --    0.08306   0.08535   0.08967   0.09037   0.09453
 Alpha virt. eigenvalues --    0.09690   0.10709   0.10817   0.10970   0.11343
 Alpha virt. eigenvalues --    0.11503   0.11837   0.12145   0.12574   0.13009
 Alpha virt. eigenvalues --    0.13427   0.13847   0.14055   0.14497   0.14672
 Alpha virt. eigenvalues --    0.15130   0.15360   0.15874   0.16171   0.16874
 Alpha virt. eigenvalues --    0.17034   0.17636   0.17772   0.18142   0.18465
 Alpha virt. eigenvalues --    0.18752   0.19086   0.19753   0.20179   0.20264
 Alpha virt. eigenvalues --    0.20489   0.20675   0.21083   0.21513   0.21928
 Alpha virt. eigenvalues --    0.22385   0.22949   0.23041   0.23796   0.23890
 Alpha virt. eigenvalues --    0.24081   0.24307   0.24941   0.25323   0.25561
 Alpha virt. eigenvalues --    0.26220   0.26697   0.26979   0.27321   0.27629
 Alpha virt. eigenvalues --    0.28253   0.28349   0.28744   0.29035   0.29294
 Alpha virt. eigenvalues --    0.29931   0.30212   0.31560   0.31830   0.32346
 Alpha virt. eigenvalues --    0.32767   0.34826   0.35722   0.40380   0.41433
 Alpha virt. eigenvalues --    0.41829   0.43236   0.43548   0.43928   0.44531
 Alpha virt. eigenvalues --    0.44932   0.45346   0.45497   0.46107   0.46940
 Alpha virt. eigenvalues --    0.46988   0.47241   0.47535   0.48177   0.48883
 Alpha virt. eigenvalues --    0.49501   0.50081   0.50730   0.51726   0.52777
 Alpha virt. eigenvalues --    0.53511   0.54415   0.55510   0.56412   0.57222
 Alpha virt. eigenvalues --    0.57455   0.57721   0.58920   0.59205   0.60923
 Alpha virt. eigenvalues --    0.61218   0.61364   0.62213   0.63056   0.63361
 Alpha virt. eigenvalues --    0.63643   0.64653   0.65442   0.65702   0.66453
 Alpha virt. eigenvalues --    0.67018   0.67707   0.68500   0.69259   0.69483
 Alpha virt. eigenvalues --    0.70216   0.70455   0.72474   0.74814   0.78097
 Alpha virt. eigenvalues --    0.78359   0.79275   0.79966   0.81259   0.82296
 Alpha virt. eigenvalues --    0.83020   0.83377   0.83638   0.83984   0.84176
 Alpha virt. eigenvalues --    0.84293   0.84488   0.84594   0.85052   0.85350
 Alpha virt. eigenvalues --    0.85852   0.86231   0.87355   0.87508   0.87821
 Alpha virt. eigenvalues --    0.89450   0.89625   0.90064   0.90306   0.90471
 Alpha virt. eigenvalues --    0.91223   0.92072   0.92730   0.93054   0.93768
 Alpha virt. eigenvalues --    0.94270   0.94294   0.94816   0.95520   0.96054
 Alpha virt. eigenvalues --    0.96360   0.97510   0.98360   0.98430   0.99678
 Alpha virt. eigenvalues --    1.00130   1.01724   1.02408   1.03820   1.04820
 Alpha virt. eigenvalues --    1.09610   1.10435   1.11396   1.14544   1.15181
 Alpha virt. eigenvalues --    1.17678   1.21125   1.21680   1.21929   1.22439
 Alpha virt. eigenvalues --    1.23512   1.25337   1.26201   1.26660   1.27209
 Alpha virt. eigenvalues --    1.27548   1.28127   1.29889   1.30771   1.32593
 Alpha virt. eigenvalues --    1.33601   1.34899   1.36854   1.40108   1.41082
 Alpha virt. eigenvalues --    1.44436   1.47721   1.48464   1.51469   1.54786
 Alpha virt. eigenvalues --    1.55477   1.56043   1.56957   1.58134   1.61179
 Alpha virt. eigenvalues --    1.62162   1.65378   1.67324   1.68383   1.69690
 Alpha virt. eigenvalues --    1.71354   1.74290   1.75096   1.78304   1.78542
 Alpha virt. eigenvalues --    1.80955   1.82567   1.83943   1.85079   1.85480
 Alpha virt. eigenvalues --    1.85958   1.89432   1.91841   1.92969   1.94027
 Alpha virt. eigenvalues --    1.94957   1.97811   1.98956   2.00362   2.01803
 Alpha virt. eigenvalues --    2.05242   2.07316   2.08850   2.11713   2.12213
 Alpha virt. eigenvalues --    2.14610   2.20030   2.22436   2.23285   2.23318
 Alpha virt. eigenvalues --    2.24778   2.25591   2.26552   2.26700   2.28369
 Alpha virt. eigenvalues --    2.29572   2.31832   2.33622   2.34485   2.34683
 Alpha virt. eigenvalues --    2.37150   2.41157   2.42153   2.43356   2.44113
 Alpha virt. eigenvalues --    2.45246   2.48265   2.48375   2.51698   2.52115
 Alpha virt. eigenvalues --    2.53759   2.54469   2.56388   2.59382   2.60247
 Alpha virt. eigenvalues --    2.62482   2.64610   2.65942   2.67536   2.69092
 Alpha virt. eigenvalues --    2.70520   2.71610   2.72747   2.74375   2.75337
 Alpha virt. eigenvalues --    2.75748   2.77286   2.79201   2.82688   2.83064
 Alpha virt. eigenvalues --    2.84118   2.87276   2.89865   2.97372   2.97948
 Alpha virt. eigenvalues --    3.05270   3.08561   3.08955   3.11366   3.11910
 Alpha virt. eigenvalues --    3.12504   3.14874   3.18044   3.20702   3.23665
 Alpha virt. eigenvalues --    3.27268   3.34536   3.35543   3.42341   3.49858
 Alpha virt. eigenvalues --    3.53964   3.60572   3.68325   3.72617   3.79584
 Alpha virt. eigenvalues --    3.83883   3.91857   4.00599   4.06775   4.11135
 Alpha virt. eigenvalues --    4.31472   4.80224   4.81018   9.75320   9.75692
 Alpha virt. eigenvalues --    9.79368   9.79598   9.81370   9.83494  23.34492
 Alpha virt. eigenvalues --   23.49842  23.82293  23.83891  23.87039  23.88659
 Alpha virt. eigenvalues --   23.93958  23.95529  24.01738  24.05479  24.10245
 Alpha virt. eigenvalues --   24.14457  25.77699  25.77771  25.83331  25.86074
 Alpha virt. eigenvalues --   25.89023  25.96352  26.07112  26.09643  26.13191
 Alpha virt. eigenvalues --   26.16520  26.27451  26.35086  26.50009  26.51205
 Alpha virt. eigenvalues --   26.64583  26.73286  26.78511  26.93636 215.74539
 Alpha virt. eigenvalues --  215.74649 215.78872 215.79232 215.81677 215.83799
          Condensed to atoms (all electrons):
               1          2          3          4          5          6
     1  C   36.871786   2.253322 -12.697537  -4.312896  -4.227175  -8.106939
     2  C    2.253322  25.088602  -0.285346  -9.107419   1.097265 -11.668942
     3  C  -12.697537  -0.285346  33.706972  -6.117241 -11.560946   0.414073
     4  C   -4.312896  -9.107419  -6.117241  31.208430   4.454067  -8.760531
     5  C   -4.227175   1.097265 -11.560946   4.454067  27.420932  -4.199989
     6  C   -8.106939 -11.668942   0.414073  -8.760531  -4.199989  54.166579
     7  C    3.074651  -1.445979   1.383895   0.410211  -3.822671  -7.867576
     8  C   -1.729250   0.364585   0.524865  -0.174611  -0.471221  -1.889829
     9  C    0.941135  -0.288331   0.189641  -0.038929   0.022914   1.096865
    10  C   -0.771318   0.142462  -0.010096  -0.016991   0.010975  -0.414565
    11  C   -3.566677   0.256161   0.279313   0.001682  -0.373193  -2.274553
    12  C   -0.631828   0.000557  -0.196006   0.185985  -1.076796  -4.388463
    13  H   -0.012832   0.253701  -0.002824   0.065915  -0.057030  -0.110671
    14  H    0.128464  -0.043878   0.034549  -0.012042   0.205318   0.015228
    15  H    0.080263  -0.011004  -0.035522   0.002044   0.032519   0.122472
    16  H   -0.003064  -0.002139  -0.001027   0.000075   0.000467   0.002794
    17  Cl   0.050691   0.068288   0.181296   0.005599  -0.122862   0.278440
    18  Cl  -0.919471  -0.370177   0.775975  -0.651851  -1.174336   0.332965
    19  Cl  -0.146515   0.017365   0.015411   0.000631  -0.014672  -0.117550
    20  Cl  -0.045311   0.018755   0.011781  -0.001207  -0.007534  -0.064378
    21  Cl   0.087898   0.384474   0.055137  -1.024622   0.305007  -0.431276
    22  Cl  -0.600720   0.196940  -0.927115  -0.209597   0.176101   0.743132
               7          8          9         10         11         12
     1  C    3.074651  -1.729250   0.941135  -0.771318  -3.566677  -0.631828
     2  C   -1.445979   0.364585  -0.288331   0.142462   0.256161   0.000557
     3  C    1.383895   0.524865   0.189641  -0.010096   0.279313  -0.196006
     4  C    0.410211  -0.174611  -0.038929  -0.016991   0.001682   0.185985
     5  C   -3.822671  -0.471221   0.022914   0.010975  -0.373193  -1.076796
     6  C   -7.867576  -1.889829   1.096865  -0.414565  -2.274553  -4.388463
     7  C   19.772292  -4.542482  -1.464553   0.727814  -2.042111   2.326391
     8  C   -4.542482  20.570647  -1.278079   0.207502   0.529656  -6.865149
     9  C   -1.464553  -1.278079  15.407223  -3.482210  -5.800188   1.000819
    10  C    0.727814   0.207502  -3.482210  16.046700  -0.542317  -5.057953
    11  C   -2.042111   0.529656  -5.800188  -0.542317  18.514332   0.431087
    12  C    2.326391  -6.865149   1.000819  -5.057953   0.431087  23.658239
    13  H    0.133917   0.002900  -0.017664   0.006376   0.017868   0.088110
    14  H    0.022827  -0.001736  -0.000570   0.000109   0.000030   0.005838
    15  H   -0.005879   0.338434  -0.059777  -0.020422  -0.043738  -0.039559
    16  H    0.020233  -0.031098   0.340623   0.020400  -0.003751   0.006047
    17  Cl  -0.210570   0.231489   0.439750  -0.184810  -0.019322  -2.223435
    18  Cl   0.192104   0.328466   0.111142   0.004945   0.064311  -0.183292
    19  Cl  -0.576285   0.257883   0.112869  -0.432948  -0.486244   0.784672
    20  Cl  -0.197883   0.056794  -0.265096  -0.488277   0.704470  -0.372877
    21  Cl  -0.042988   0.000029   0.002871  -0.000544  -0.001536  -0.040693
    22  Cl  -0.163868   0.020349   0.013678   0.002091  -0.005014  -0.062998
              13         14         15         16         17         18
     1  C   -0.012832   0.128464   0.080263  -0.003064   0.050691  -0.919471
     2  C    0.253701  -0.043878  -0.011004  -0.002139   0.068288  -0.370177
     3  C   -0.002824   0.034549  -0.035522  -0.001027   0.181296   0.775975
     4  C    0.065915  -0.012042   0.002044   0.000075   0.005599  -0.651851
     5  C   -0.057030   0.205318   0.032519   0.000467  -0.122862  -1.174336
     6  C   -0.110671   0.015228   0.122472   0.002794   0.278440   0.332965
     7  C    0.133917   0.022827  -0.005879   0.020233  -0.210570   0.192104
     8  C    0.002900  -0.001736   0.338434  -0.031098   0.231489   0.328466
     9  C   -0.017664  -0.000570  -0.059777   0.340623   0.439750   0.111142
    10  C    0.006376   0.000109  -0.020422   0.020400  -0.184810   0.004945
    11  C    0.017868   0.000030  -0.043738  -0.003751  -0.019322   0.064311
    12  C    0.088110   0.005838  -0.039559   0.006047  -2.223435  -0.183292
    13  H    0.510832   0.000044  -0.000736   0.000010  -0.014938  -0.000086
    14  H    0.000044   0.489467  -0.000002   0.000000  -0.001468  -0.007814
    15  H   -0.000736  -0.000002   0.525028  -0.006877  -0.001411  -0.010586
    16  H    0.000010   0.000000  -0.006877   0.503821   0.001547  -0.000854
    17  Cl  -0.014938  -0.001468  -0.001411   0.001547  18.161323   0.111339
    18  Cl  -0.000086  -0.007814  -0.010586  -0.000854   0.111339  18.056088
    19  Cl   0.000697  -0.000004   0.000034  -0.000695  -0.251057  -0.000382
    20  Cl   0.000046  -0.000001  -0.001403  -0.005807  -0.023913   0.008593
    21  Cl  -0.000982  -0.008351   0.000145  -0.000001   0.009864  -0.042649
    22  Cl  -0.014126   0.000118   0.000229  -0.000008  -0.004730  -0.001613
              19         20         21         22
     1  C   -0.146515  -0.045311   0.087898  -0.600720
     2  C    0.017365   0.018755   0.384474   0.196940
     3  C    0.015411   0.011781   0.055137  -0.927115
     4  C    0.000631  -0.001207  -1.024622  -0.209597
     5  C   -0.014672  -0.007534   0.305007   0.176101
     6  C   -0.117550  -0.064378  -0.431276   0.743132
     7  C   -0.576285  -0.197883  -0.042988  -0.163868
     8  C    0.257883   0.056794   0.000029   0.020349
     9  C    0.112869  -0.265096   0.002871   0.013678
    10  C   -0.432948  -0.488277  -0.000544   0.002091
    11  C   -0.486244   0.704470  -0.001536  -0.005014
    12  C    0.784672  -0.372877  -0.040693  -0.062998
    13  H    0.000697   0.000046  -0.000982  -0.014126
    14  H   -0.000004  -0.000001  -0.008351   0.000118
    15  H    0.000034  -0.001403   0.000145   0.000229
    16  H   -0.000695  -0.005807  -0.000001  -0.000008
    17  Cl  -0.251057  -0.023913   0.009864  -0.004730
    18  Cl  -0.000382   0.008593  -0.042649  -0.001613
    19  Cl  17.393256  -0.143616  -0.000024   0.000003
    20  Cl  -0.143616  17.315556   0.000011   0.000104
    21  Cl  -0.000024   0.000011  17.419630  -0.171715
    22  Cl   0.000003   0.000104  -0.171715  17.485945
 Mulliken charges:
               1
     1  C    0.283322
     2  C   -0.919262
     3  C    0.260752
     4  C    0.093299
     5  C   -0.617141
     6  C   -0.877286
     7  C    0.318511
     8  C   -0.450145
     9  C   -0.984133
    10  C    0.253079
    11  C    0.359734
    12  C   -1.348695
    13  H    0.151474
    14  H    0.173874
    15  H    0.135748
    16  H    0.159301
    17  Cl   0.518890
    18  Cl   0.377183
    19  Cl   0.587171
    20  Cl   0.501191
    21  Cl   0.500315
    22  Cl   0.522815
 Sum of Mulliken charges =  -0.00000
 Mulliken charges with hydrogens summed into heavy atoms:
               1
     1  C    0.283322
     2  C   -0.767788
     3  C    0.260752
     4  C    0.093299
     5  C   -0.443267
     6  C   -0.877286
     7  C    0.318511
     8  C   -0.314397
     9  C   -0.824832
    10  C    0.253079
    11  C    0.359734
    12  C   -1.348695
    17  Cl   0.518890
    18  Cl   0.377183
    19  Cl   0.587171
    20  Cl   0.501191
    21  Cl   0.500315
    22  Cl   0.522815
 Electronic spatial extent (au):  <R**2>=           8996.4468
 Charge=             -0.0000 electrons
 Dipole moment (field-independent basis, Debye):
    X=              0.2248    Y=              0.4815    Z=              1.8996  Tot=              1.9725
 Quadrupole moment (field-independent basis, Debye-Ang):
   XX=           -153.7908   YY=           -143.9760   ZZ=           -141.2101
   XY=             -3.8175   XZ=             -2.3073   YZ=              1.8986
 Traceless Quadrupole moment (field-independent basis, Debye-Ang):
   XX=             -7.4652   YY=              2.3497   ZZ=              5.1155
   XY=             -3.8175   XZ=             -2.3073   YZ=              1.8986
 Octapole moment (field-independent basis, Debye-Ang**2):
  XXX=             -3.6658  YYY=             -5.0557  ZZZ=             -3.0412  XYY=              6.1446
  XXY=            -17.5866  XXZ=             -0.7502  XZZ=            -12.4014  YZZ=              3.8266
  YYZ=             -4.7814  XYZ=             -4.8609
 Hexadecapole moment (field-independent basis, Debye-Ang**3):
 XXXX=          -9141.9262 YYYY=          -1489.3262 ZZZZ=          -1152.9225 XXXY=            -32.9502
 XXXZ=             14.1807 YYYX=             26.8930 YYYZ=            -16.8633 ZZZX=             -6.6433
 ZZZY=             28.6600 XXYY=          -1747.6795 XXZZ=          -1695.8933 YYZZ=           -461.1498
 XXYZ=              2.7253 YYXZ=             -0.4286 ZZXY=             -4.4393
 N-N= 1.998573481881D+03 E-N=-1.162614874160D+04  KE= 3.212690711035D+03
 1\1\GINC-LOCALHOST\FOpt\RB3LYP\6-311+G(d,p)\C12H4Cl6\GOUR\17-Mar-2022\
 0\\# opt b3lyp/6-311+g(d,p) scf=xqc\\Title Card Required\\0,1\C,-0.455
 0827331,-0.0883678059,0.0279826929\C,0.8706493083,-0.1095662979,0.4647
 854419\C,1.6417344161,1.0481826551,0.5162315148\C,1.0822469461,2.26593
 04089,0.1198530468\C,-0.2365414694,2.3079577257,-0.3238335688\C,-0.991
 3831409,1.1422857457,-0.3679247944\C,-1.230316283,-1.3620658562,-0.034
 08489\C,-1.0958894559,-2.1968507248,-1.1450470906\C,-1.7899934784,-3.3
 949185148,-1.2326489001\C,-2.6365990735,-3.7815646986,-0.1994494066\C,
 -2.7927224931,-2.9707527228,0.9321314281\C,-2.0818398874,-1.761771125,
 1.0038028274\H,1.3110949353,-1.0467329449,0.7802377158\H,-0.6686212498
 ,3.2490576288,-0.6347026243\H,-0.4422338177,-1.8952898844,-1.954439037
 8\H,-1.683036276,-4.0348109087,-2.0984353968\Cl,-2.2489791604,-0.73756
 08084,2.4064505362\Cl,-2.6430477664,1.246606341,-0.9428399689\Cl,-3.84
 42185719,-3.4568374304,2.2260682608\Cl,-3.4930178855,-5.2951370421,-0.
 3470983109\Cl,1.9966381023,3.7498670953,0.1607361263\Cl,3.2901090444,0
 .9378956546,1.076694628\\Version=EM64L-G16RevB.01\State=1-A\HF=-3221.1
 325413\RMSD=4.346e-09\RMSF=6.351e-06\Dipole=0.2988064,-0.1561923,-0.69
 8978\Quadrupole=-3.8243225,0.7163456,3.1079768,-4.49617,-0.3558356,2.1
 00003\PG=C01 [X(C12H4Cl6)]\\@


 IF OTHER PEOPLE ARE GOING TO TALK, CONVERSATION IS SIMPLY IMPOSSIBLE.

                                               -- WHISTLER'S PRINCIPLE
 Job cpu time:       0 days 23 hours  7 minutes 43.8 seconds.
 Elapsed time:       0 days  5 hours 47 minutes 55.5 seconds.
 File lengths (MBytes):  RWF=    147 Int=      0 D2E=      0 Chk=     23 Scr=      1
 Normal termination of Gaussian 16 at Thu Mar 17 05:26:04 2022.
