 Entering Gaussian System, Link 0=g16
 Input=2,2prime,3,3prime,5,6prime-Hexachlorobiphenyl.gjf
 Output=2,2prime,3,3prime,5,6prime-Hexachlorobiphenyl.log
 Initial command:
 /home/apps/g16/l1.exe "./Gau-36994.inp" -scrdir="./"
 Entering Link 1 = /home/apps/g16/l1.exe PID=     36996.
  
 Copyright (c) 1988-2017, Gaussian, Inc.  All Rights Reserved.
  
 This is part of the Gaussian(R) 16 program.  It is based on
 the Gaussian(R) 09 system (copyright 2009, Gaussian, Inc.),
 the Gaussian(R) 03 system (copyright 2003, Gaussian, Inc.),
 the Gaussian(R) 98 system (copyright 1998, Gaussian, Inc.),
 the Gaussian(R) 94 system (copyright 1995, Gaussian, Inc.),
 the Gaussian 92(TM) system (copyright 1992, Gaussian, Inc.),
 the Gaussian 90(TM) system (copyright 1990, Gaussian, Inc.),
 the Gaussian 88(TM) system (copyright 1988, Gaussian, Inc.),
 the Gaussian 86(TM) system (copyright 1986, Carnegie Mellon
 University), and the Gaussian 82(TM) system (copyright 1983,
 Carnegie Mellon University). Gaussian is a federally registered
 trademark of Gaussian, Inc.
  
 This software contains proprietary and confidential information,
 including trade secrets, belonging to Gaussian, Inc.
  
 This software is provided under written license and may be
 used, copied, transmitted, or stored only in accord with that
 written license.
  
 The following legend is applicable only to US Government
 contracts under FAR:
  
                    RESTRICTED RIGHTS LEGEND
  
 Use, reproduction and disclosure by the US Government is
 subject to restrictions as set forth in subparagraphs (a)
 and (c) of the Commercial Computer Software - Restricted
 Rights clause in FAR 52.227-19.
  
 Gaussian, Inc.
 340 Quinnipiac St., Bldg. 40, Wallingford CT 06492
  
  
 ---------------------------------------------------------------
 Warning -- This program may not be used in any manner that
 competes with the business of Gaussian, Inc. or will provide
 assistance to any competitor of Gaussian, Inc.  The licensee
 of this program is prohibited from giving any competitor of
 Gaussian, Inc. access to this program.  By using this program,
 the user acknowledges that Gaussian, Inc. is engaged in the
 business of creating and licensing software in the field of
 computational chemistry and represents and warrants to the
 licensee that it is not a competitor of Gaussian, Inc. and that
 it will not use this program in any manner prohibited above.
 ---------------------------------------------------------------
  

 Cite this work as:
 Gaussian 16, Revision B.01,
 M. J. Frisch, G. W. Trucks, H. B. Schlegel, G. E. Scuseria, 
 M. A. Robb, J. R. Cheeseman, G. Scalmani, V. Barone, 
 G. A. Petersson, H. Nakatsuji, X. Li, M. Caricato, A. V. Marenich, 
 J. Bloino, B. G. Janesko, R. Gomperts, B. Mennucci, H. P. Hratchian, 
 J. V. Ortiz, A. F. Izmaylov, J. L. Sonnenberg, D. Williams-Young, 
 F. Ding, F. Lipparini, F. Egidi, J. Goings, B. Peng, A. Petrone, 
 T. Henderson, D. Ranasinghe, V. G. Zakrzewski, J. Gao, N. Rega, 
 G. Zheng, W. Liang, M. Hada, M. Ehara, K. Toyota, R. Fukuda, 
 J. Hasegawa, M. Ishida, T. Nakajima, Y. Honda, O. Kitao, H. Nakai, 
 T. Vreven, K. Throssell, J. A. Montgomery, Jr., J. E. Peralta, 
 F. Ogliaro, M. J. Bearpark, J. J. Heyd, E. N. Brothers, K. N. Kudin, 
 V. N. Staroverov, T. A. Keith, R. Kobayashi, J. Normand, 
 K. Raghavachari, A. P. Rendell, J. C. Burant, S. S. Iyengar, 
 J. Tomasi, M. Cossi, J. M. Millam, M. Klene, C. Adamo, R. Cammi, 
 J. W. Ochterski, R. L. Martin, K. Morokuma, O. Farkas, 
 J. B. Foresman, and D. J. Fox, Gaussian, Inc., Wallingford CT, 2016.
 
 ******************************************
 Gaussian 16:  EM64L-G16RevB.01 20-Dec-2017
                 3-Apr-2022 
 ******************************************
 %mem=32GB
 %nprocshared=16
 Will use up to   16 processors via shared memory.
 --------------------------------
 # opt b3lyp/6-311+g(d,p) scf=xqc
 --------------------------------
 1/18=20,19=15,26=3,38=1/1,3;
 2/9=110,12=2,17=6,18=5,40=1/2;
 3/5=4,6=6,7=111,11=2,25=1,30=1,71=1,74=-5/1,2,3;
 4//1;
 5/5=2,8=3,13=1,38=5/2,8;
 6/7=2,8=2,9=2,10=2,28=1/1;
 7//1,2,3,16;
 1/18=20,19=15,26=3/3(2);
 2/9=110/2;
 99//99;
 2/9=110/2;
 3/5=4,6=6,7=111,11=2,25=1,30=1,71=1,74=-5/1,2,3;
 4/5=5,16=3,69=1/1;
 5/5=2,8=3,13=1,38=5/2,8;
 7//1,2,3,16;
 1/18=20,19=15,26=3/3(-5);
 2/9=110/2;
 6/7=2,8=2,9=2,10=2,19=2,28=1/1;
 99/9=1/99;
 -------------------
 Title Card Required
 -------------------
 Symbolic Z-matrix:
 Charge =  0 Multiplicity = 1
 C                     0.0591    1.12982  -0.00391 
 C                     1.39148   1.1597   -0.43725 
 C                     2.09937   2.36916  -0.44333 
 C                     1.47489   3.54872  -0.01605 
 C                     0.1425    3.51883   0.41729 
 C                    -0.56539   2.30938   0.42337 
 C                    -0.96496  -0.6198    0.00488 
 C                    -0.34047  -1.79937  -0.4224 
 C                    -1.04836  -3.00882  -0.41632 
 C                    -2.38074  -3.03871   0.01703 
 C                    -3.00523  -1.85914   0.4443 
 C                    -2.29734  -0.64969   0.43823 
 H                     3.11668   2.39197  -0.7742 
 H                     2.01538   4.47216  -0.02069 
 H                     0.67683  -1.77655  -0.75327 
 H                    -2.92123  -3.96215   0.02167 
 Cl                   -3.08162   0.83171   0.97484 
 Cl                   -2.23871   2.27185   0.9676 
 Cl                   -4.67855  -1.89668   0.98855 
 Cl                   -0.64178   5.00024   0.9539 
 Cl                   -0.26408  -4.49022  -0.95293 
 Cl                    2.17577  -0.3217   -0.97386 
 

 GradGradGradGradGradGradGradGradGradGradGradGradGradGradGradGradGradGrad
 Berny optimization.
 Initialization pass.
                           ----------------------------
                           !    Initial Parameters    !
                           ! (Angstroms and Degrees)  !
 --------------------------                            --------------------------
 ! Name  Definition              Value          Derivative Info.                !
 --------------------------------------------------------------------------------
 ! R1    R(1,2)                  1.4014         estimate D2E/DX2                !
 ! R2    R(1,6)                  1.4014         estimate D2E/DX2                !
 ! R3    R(2,3)                  1.4014         estimate D2E/DX2                !
 ! R4    R(2,22)                 1.76           estimate D2E/DX2                !
 ! R5    R(3,4)                  1.4014         estimate D2E/DX2                !
 ! R6    R(3,13)                 1.07           estimate D2E/DX2                !
 ! R7    R(4,5)                  1.4014         estimate D2E/DX2                !
 ! R8    R(4,14)                 1.07           estimate D2E/DX2                !
 ! R9    R(5,6)                  1.4014         estimate D2E/DX2                !
 ! R10   R(5,20)                 1.76           estimate D2E/DX2                !
 ! R11   R(6,18)                 1.76           estimate D2E/DX2                !
 ! R12   R(7,8)                  1.4014         estimate D2E/DX2                !
 ! R13   R(7,12)                 1.4014         estimate D2E/DX2                !
 ! R14   R(8,9)                  1.4014         estimate D2E/DX2                !
 ! R15   R(8,15)                 1.07           estimate D2E/DX2                !
 ! R16   R(9,10)                 1.4014         estimate D2E/DX2                !
 ! R17   R(9,21)                 1.76           estimate D2E/DX2                !
 ! R18   R(10,11)                1.4014         estimate D2E/DX2                !
 ! R19   R(10,16)                1.07           estimate D2E/DX2                !
 ! R20   R(11,12)                1.4014         estimate D2E/DX2                !
 ! R21   R(11,19)                1.76           estimate D2E/DX2                !
 ! R22   R(12,17)                1.76           estimate D2E/DX2                !
 ! R23   R(17,18)                1.6687         estimate D2E/DX2                !
 ! A1    A(2,1,6)              120.0            estimate D2E/DX2                !
 ! A2    A(1,2,3)              120.0            estimate D2E/DX2                !
 ! A3    A(1,2,22)             120.0            estimate D2E/DX2                !
 ! A4    A(3,2,22)             120.0            estimate D2E/DX2                !
 ! A5    A(2,3,4)              120.0            estimate D2E/DX2                !
 ! A6    A(2,3,13)             120.0            estimate D2E/DX2                !
 ! A7    A(4,3,13)             120.0            estimate D2E/DX2                !
 ! A8    A(3,4,5)              120.0            estimate D2E/DX2                !
 ! A9    A(3,4,14)             120.0            estimate D2E/DX2                !
 ! A10   A(5,4,14)             120.0            estimate D2E/DX2                !
 ! A11   A(4,5,6)              120.0            estimate D2E/DX2                !
 ! A12   A(4,5,20)             120.0            estimate D2E/DX2                !
 ! A13   A(6,5,20)             120.0            estimate D2E/DX2                !
 ! A14   A(1,6,5)              120.0            estimate D2E/DX2                !
 ! A15   A(1,6,18)             120.0            estimate D2E/DX2                !
 ! A16   A(5,6,18)             120.0            estimate D2E/DX2                !
 ! A17   A(8,7,12)             120.0            estimate D2E/DX2                !
 ! A18   A(7,8,9)              120.0            estimate D2E/DX2                !
 ! A19   A(7,8,15)             120.0            estimate D2E/DX2                !
 ! A20   A(9,8,15)             120.0            estimate D2E/DX2                !
 ! A21   A(8,9,10)             120.0            estimate D2E/DX2                !
 ! A22   A(8,9,21)             120.0            estimate D2E/DX2                !
 ! A23   A(10,9,21)            120.0            estimate D2E/DX2                !
 ! A24   A(9,10,11)            120.0            estimate D2E/DX2                !
 ! A25   A(9,10,16)            120.0            estimate D2E/DX2                !
 ! A26   A(11,10,16)           120.0            estimate D2E/DX2                !
 ! A27   A(10,11,12)           120.0            estimate D2E/DX2                !
 ! A28   A(10,11,19)           120.0            estimate D2E/DX2                !
 ! A29   A(12,11,19)           120.0            estimate D2E/DX2                !
 ! A30   A(7,12,11)            120.0            estimate D2E/DX2                !
 ! A31   A(7,12,17)            120.0            estimate D2E/DX2                !
 ! A32   A(11,12,17)           120.0            estimate D2E/DX2                !
 ! A33   A(12,17,18)           120.0            estimate D2E/DX2                !
 ! A34   A(6,18,17)            120.0            estimate D2E/DX2                !
 ! D1    D(6,1,2,3)              0.0001         estimate D2E/DX2                !
 ! D2    D(6,1,2,22)           180.0            estimate D2E/DX2                !
 ! D3    D(2,1,6,5)             -0.0001         estimate D2E/DX2                !
 ! D4    D(2,1,6,18)           180.0            estimate D2E/DX2                !
 ! D5    D(1,2,3,4)              0.0            estimate D2E/DX2                !
 ! D6    D(1,2,3,13)           180.0            estimate D2E/DX2                !
 ! D7    D(22,2,3,4)          -179.9999         estimate D2E/DX2                !
 ! D8    D(22,2,3,13)            0.0001         estimate D2E/DX2                !
 ! D9    D(2,3,4,5)             -0.0001         estimate D2E/DX2                !
 ! D10   D(2,3,4,14)           180.0            estimate D2E/DX2                !
 ! D11   D(13,3,4,5)           179.9999         estimate D2E/DX2                !
 ! D12   D(13,3,4,14)            0.0            estimate D2E/DX2                !
 ! D13   D(3,4,5,6)              0.0001         estimate D2E/DX2                !
 ! D14   D(3,4,5,20)          -179.9999         estimate D2E/DX2                !
 ! D15   D(14,4,5,6)          -180.0            estimate D2E/DX2                !
 ! D16   D(14,4,5,20)            0.0            estimate D2E/DX2                !
 ! D17   D(4,5,6,1)              0.0            estimate D2E/DX2                !
 ! D18   D(4,5,6,18)           179.9999         estimate D2E/DX2                !
 ! D19   D(20,5,6,1)           180.0            estimate D2E/DX2                !
 ! D20   D(20,5,6,18)           -0.0001         estimate D2E/DX2                !
 ! D21   D(1,6,18,17)            0.0004         estimate D2E/DX2                !
 ! D22   D(5,6,18,17)         -179.9996         estimate D2E/DX2                !
 ! D23   D(12,7,8,9)             0.0001         estimate D2E/DX2                !
 ! D24   D(12,7,8,15)         -179.9998         estimate D2E/DX2                !
 ! D25   D(8,7,12,11)           -0.0001         estimate D2E/DX2                !
 ! D26   D(8,7,12,17)          179.9999         estimate D2E/DX2                !
 ! D27   D(7,8,9,10)             0.0            estimate D2E/DX2                !
 ! D28   D(7,8,9,21)           180.0            estimate D2E/DX2                !
 ! D29   D(15,8,9,10)          179.9998         estimate D2E/DX2                !
 ! D30   D(15,8,9,21)           -0.0002         estimate D2E/DX2                !
 ! D31   D(8,9,10,11)            0.0            estimate D2E/DX2                !
 ! D32   D(8,9,10,16)         -179.9999         estimate D2E/DX2                !
 ! D33   D(21,9,10,11)         180.0            estimate D2E/DX2                !
 ! D34   D(21,9,10,16)           0.0001         estimate D2E/DX2                !
 ! D35   D(9,10,11,12)           0.0            estimate D2E/DX2                !
 ! D36   D(9,10,11,19)        -179.9998         estimate D2E/DX2                !
 ! D37   D(16,10,11,12)        179.9999         estimate D2E/DX2                !
 ! D38   D(16,10,11,19)          0.0001         estimate D2E/DX2                !
 ! D39   D(10,11,12,7)           0.0            estimate D2E/DX2                !
 ! D40   D(10,11,12,17)       -179.9999         estimate D2E/DX2                !
 ! D41   D(19,11,12,7)         179.9999         estimate D2E/DX2                !
 ! D42   D(19,11,12,17)         -0.0001         estimate D2E/DX2                !
 ! D43   D(7,12,17,18)           0.0004         estimate D2E/DX2                !
 ! D44   D(11,12,17,18)       -179.9997         estimate D2E/DX2                !
 ! D45   D(12,17,18,6)          -0.0006         estimate D2E/DX2                !
 --------------------------------------------------------------------------------
 Trust Radius=3.00D-01 FncErr=1.00D-07 GrdErr=1.00D-06 EigMax=2.50D+02 EigMin=1.00D-04
 Number of steps in this run=    112 maximum allowed number of steps=    132.
 GradGradGradGradGradGradGradGradGradGradGradGradGradGradGradGradGradGrad

                          Input orientation:                          
 ---------------------------------------------------------------------
 Center     Atomic      Atomic             Coordinates (Angstroms)
 Number     Number       Type             X           Y           Z
 ---------------------------------------------------------------------
      1          6           0        0.059098    1.129818   -0.003907
      2          6           0        1.391479    1.159704   -0.437254
      3          6           0        2.099373    2.369155   -0.443326
      4          6           0        1.474886    3.548720   -0.016051
      5          6           0        0.142504    3.518835    0.417294
      6          6           0       -0.565390    2.309384    0.423366
      7          6           0       -0.964958   -0.619804    0.004879
      8          6           0       -0.340470   -1.799369   -0.422396
      9          6           0       -1.048363   -3.008820   -0.416322
     10          6           0       -2.380744   -3.038707    0.017028
     11          6           0       -3.005231   -1.859142    0.444303
     12          6           0       -2.297338   -0.649690    0.438229
     13          1           0        3.116676    2.391973   -0.774195
     14          1           0        2.015378    4.472163   -0.020687
     15          1           0        0.676832   -1.776550   -0.753266
     16          1           0       -2.921235   -3.962150    0.021667
     17         17           0       -3.081622    0.831710    0.974840
     18         17           0       -2.238710    2.271851    0.967600
     19         17           0       -4.678548   -1.896677    0.988546
     20         17           0       -0.641783    5.000236    0.953899
     21         17           0       -0.264078   -4.490221   -0.952931
     22         17           0        2.175766   -0.321697   -0.973859
 ---------------------------------------------------------------------
                    Distance matrix (angstroms):
                    1          2          3          4          5
     1  C    0.000000
     2  C    1.401400   0.000000
     3  C    2.427296   1.401400   0.000000
     4  C    2.802800   2.427296   1.401400   0.000000
     5  C    2.427296   2.802800   2.427296   1.401400   0.000000
     6  C    1.401400   2.427296   2.802800   2.427296   1.401400
     7  C    2.027300   2.985787   4.304055   4.830100   4.304055
     8  C    2.985787   3.428700   4.830100   5.662393   5.405704
     9  C    4.304055   4.830100   6.231500   7.037637   6.687552
    10  C    4.830100   5.662393   7.037637   7.632900   7.037637
    11  C    4.304055   5.405704   6.687552   7.037637   6.231500
    12  C    2.985787   4.200922   5.405704   5.662393   4.830100
    13  H    3.396345   2.146700   1.070000   2.146700   3.396345
    14  H    3.872800   3.396345   2.146700   1.070000   2.146700
    15  H    3.064329   3.038449   4.393923   5.434968   5.449479
    16  H    5.900100   6.711446   8.093710   8.702900   8.093710
    17  Cl   3.303171   4.702152   5.587276   5.396830   4.233969
    18  Cl   2.743718   4.048303   4.562800   4.048303   2.743718
    19  Cl   5.708759   6.944033   8.135588   8.278062   7.273007
    20  Cl   4.048303   4.562800   4.048303   2.743718   1.760000
    21  Cl   5.708759   5.910029   7.273007   8.278062   8.135588
    22  Cl   2.743718   1.760000   2.743718   4.048303   4.562800
                    6          7          8          9         10
     6  C    0.000000
     7  C    2.985787   0.000000
     8  C    4.200922   1.401400   0.000000
     9  C    5.405704   2.427296   1.401400   0.000000
    10  C    5.662393   2.802800   2.427296   1.401400   0.000000
    11  C    4.830100   2.427296   2.802800   2.427296   1.401400
    12  C    3.428700   1.401400   2.427296   2.802800   2.427296
    13  H    3.872800   5.132007   5.444536   6.829656   7.767879
    14  H    3.396345   5.900100   6.711446   8.093710   8.702900
    15  H    4.429722   2.146700   1.070000   2.146700   3.396345
    16  H    6.711446   3.872800   3.396345   2.146700   1.070000
    17  Cl   2.969692   2.743718   4.048303   4.562800   4.048303
    18  Cl   1.760000   3.303171   4.702152   5.587276   5.396830
    19  Cl   5.910029   4.048303   4.562800   4.048303   2.743718
    20  Cl   2.743718   5.708759   6.944033   8.135588   8.278062
    21  Cl   6.944033   4.048303   2.743718   1.760000   2.743718
    22  Cl   4.048303   3.303171   2.969692   4.233969   5.396830
                   11         12         13         14         15
    11  C    0.000000
    12  C    1.401400   0.000000
    13  H    7.552116   6.327182   0.000000
    14  H    8.093710   6.711446   2.471400   0.000000
    15  H    3.872800   3.396345   4.830100   6.432324   0.000000
    16  H    2.146700   3.396345   8.801400   9.772900   4.280590
    17  Cl   2.743718   1.760000   6.626647   6.342191   4.890332
    18  Cl   4.233969   2.969692   5.632800   4.890332   5.277434
    19  Cl   1.760000   2.743718   9.070021   9.294585   5.632800
    20  Cl   7.273007   5.910029   4.890332   2.879094   7.111820
    21  Cl   4.048303   4.562800   7.669813   9.294585   2.879094
    22  Cl   5.587276   4.702152   2.879094   4.890332   2.100491
                   16         17         18         19         20
    16  H    0.000000
    17  Cl   4.890332   0.000000
    18  Cl   6.342191   1.668700   0.000000
    19  Cl   2.879094   3.161400   4.830100   0.000000
    20  Cl   9.294585   4.830100   3.161400   7.991500   0.000000
    21  Cl   2.879094   6.322800   7.301590   5.475705   9.687488
    22  Cl   6.342191   5.724326   5.475705   7.301590   6.322800
                   21         22
    21  Cl   0.000000
    22  Cl   4.830100   0.000000
 Stoichiometry    C12H4Cl6
 Framework group  C1[X(C12H4Cl6)]
 Deg. of freedom    60
 Full point group                 C1      NOp   1
 Largest Abelian subgroup         C1      NOp   1
 Largest concise Abelian subgroup C1      NOp   1
                         Standard orientation:                         
 ---------------------------------------------------------------------
 Center     Atomic      Atomic             Coordinates (Angstroms)
 Number     Number       Type             X           Y           Z
 ---------------------------------------------------------------------
      1          6           0       -1.130623    0.815488   -0.000001
      2          6           0       -1.497319    2.168062    0.000001
      3          6           0       -2.852030    2.526781    0.000004
      4          6           0       -3.840045    1.532926    0.000004
      5          6           0       -3.473349    0.180352    0.000000
      6          6           0       -2.118638   -0.178367   -0.000002
      7          6           0        0.829136    0.296557   -0.000002
      8          6           0        1.817152    1.290412   -0.000003
      9          6           0        3.171863    0.931693   -0.000003
     10          6           0        3.538559   -0.420881   -0.000002
     11          6           0        2.550544   -1.414736   -0.000000
     12          6           0        1.195832   -1.056017   -0.000000
     13          1           0       -3.132011    3.559501    0.000006
     14          1           0       -4.874398    1.806816    0.000006
     15          1           0        1.537171    2.323132   -0.000001
     16          1           0        4.572911   -0.694771    0.000000
     17         17           0       -0.045003   -2.304186    0.000003
     18         17           0       -1.658109   -1.877046   -0.000005
     19         17           0        3.011072   -3.113416    0.000006
     20         17           0       -4.714185   -1.067817   -0.000003
     21         17           0        4.412698    2.179863   -0.000004
     22         17           0       -0.256483    3.416232    0.000004
 ---------------------------------------------------------------------
 Rotational constants (GHZ):           0.3315884           0.1766485           0.1152506
 Standard basis: 6-311+G(d,p) (5D, 7F)
 There are   486 symmetry adapted cartesian basis functions of A   symmetry.
 There are   468 symmetry adapted basis functions of A   symmetry.
   468 basis functions,   782 primitive gaussians,   486 cartesian basis functions
    89 alpha electrons       89 beta electrons
       nuclear repulsion energy      2059.4815674981 Hartrees.
 NAtoms=   22 NActive=   22 NUniq=   22 SFac= 1.00D+00 NAtFMM=   60 NAOKFM=F Big=F
 Integral buffers will be    131072 words long.
 Raffenetti 2 integral format.
 Two-electron integral symmetry is turned on.
 One-electron integrals computed using PRISM.
 NBasis=   468 RedAO= T EigKep=  1.46D-06  NBF=   468
 NBsUse=   462 1.00D-06 EigRej=  7.02D-07 NBFU=   462
 ExpMin= 4.38D-02 ExpMax= 1.06D+05 ExpMxC= 3.62D+03 IAcc=3 IRadAn=         5 AccDes= 0.00D+00
 Harris functional with IExCor=  402 and IRadAn=       5 diagonalized for initial guess.
 HarFok:  IExCor=  402 AccDes= 0.00D+00 IRadAn=         5 IDoV= 1 UseB2=F ITyADJ=14
 ICtDFT=  3500011 ScaDFX=  1.000000  1.000000  1.000000  1.000000
 FoFCou: FMM=F IPFlag=           0 FMFlag=      100000 FMFlg1=           0
         NFxFlg=           0 DoJE=T BraDBF=F KetDBF=T FulRan=T
         wScrn=  0.000000 ICntrl=       500 IOpCl=  0 I1Cent=   200000004 NGrid=           0
         NMat0=    1 NMatS0=      1 NMatT0=    0 NMatD0=    1 NMtDS0=    0 NMtDT0=    0
 Petite list used in FoFCou.
 Requested convergence on RMS density matrix=1.00D-08 within  32 cycles.
 Requested convergence on MAX density matrix=1.00D-06.
 Requested convergence on             energy=1.00D-06.
 No special actions if energy rises.
 EnCoef did     4 forward-backward iterations
 EnCoef did     3 forward-backward iterations
 EnCoef did   100 forward-backward iterations
 EnCoef did     3 forward-backward iterations
 Restarting incremental Fock formation.
 SCF Done:  E(RB3LYP) =  -3220.56182620     A.U. after   28 cycles
            NFock= 28  Conv=0.47D-08     -V/T= 2.0020
 QCSCF skips out because SCF is already converged.

 **********************************************************************

            Population analysis using the SCF Density.

 **********************************************************************

 Orbital symmetries:
       Occupied  (A) (A) (A) (A) (A) (A) (A) (A) (A) (A) (A) (A)
                 (A) (A) (A) (A) (A) (A) (A) (A) (A) (A) (A) (A)
                 (A) (A) (A) (A) (A) (A) (A) (A) (A) (A) (A) (A)
                 (A) (A) (A) (A) (A) (A) (A) (A) (A) (A) (A) (A)
                 (A) (A) (A) (A) (A) (A) (A) (A) (A) (A) (A) (A)
                 (A) (A) (A) (A) (A) (A) (A) (A) (A) (A) (A) (A)
                 (A) (A) (A) (A) (A) (A) (A) (A) (A) (A) (A) (A)
                 (A) (A) (A) (A) (A)
       Virtual   (A) (A) (A) (A) (A) (A) (A) (A) (A) (A) (A) (A)
                 (A) (A) (A) (A) (A) (A) (A) (A) (A) (A) (A) (A)
                 (A) (A) (A) (A) (A) (A) (A) (A) (A) (A) (A) (A)
                 (A) (A) (A) (A) (A) (A) (A) (A) (A) (A) (A) (A)
                 (A) (A) (A) (A) (A) (A) (A) (A) (A) (A) (A) (A)
                 (A) (A) (A) (A) (A) (A) (A) (A) (A) (A) (A) (A)
                 (A) (A) (A) (A) (A) (A) (A) (A) (A) (A) (A) (A)
                 (A) (A) (A) (A) (A) (A) (A) (A) (A) (A) (A) (A)
                 (A) (A) (A) (A) (A) (A) (A) (A) (A) (A) (A) (A)
                 (A) (A) (A) (A) (A) (A) (A) (A) (A) (A) (A) (A)
                 (A) (A) (A) (A) (A) (A) (A) (A) (A) (A) (A) (A)
                 (A) (A) (A) (A) (A) (A) (A) (A) (A) (A) (A) (A)
                 (A) (A) (A) (A) (A) (A) (A) (A) (A) (A) (A) (A)
                 (A) (A) (A) (A) (A) (A) (A) (A) (A) (A) (A) (A)
                 (A) (A) (A) (A) (A) (A) (A) (A) (A) (A) (A) (A)
                 (A) (A) (A) (A) (A) (A) (A) (A) (A) (A) (A) (A)
                 (A) (A) (A) (A) (A) (A) (A) (A) (A) (A) (A) (A)
                 (A) (A) (A) (A) (A) (A) (A) (A) (A) (A) (A) (A)
                 (A) (A) (A) (A) (A) (A) (A) (A) (A) (A) (A) (A)
                 (A) (A) (A) (A) (A) (A) (A) (A) (A) (A) (A) (A)
                 (A) (A) (A) (A) (A) (A) (A) (A) (A) (A) (A) (A)
                 (A) (A) (A) (A) (A) (A) (A) (A) (A) (A) (A) (A)
                 (A) (A) (A) (A) (A) (A) (A) (A) (A) (A) (A) (A)
                 (A) (A) (A) (A) (A) (A) (A) (A) (A) (A) (A) (A)
                 (A) (A) (A) (A) (A) (A) (A) (A) (A) (A) (A) (A)
                 (A) (A) (A) (A) (A) (A) (A) (A) (A) (A) (A) (A)
                 (A) (A) (A) (A) (A) (A) (A) (A) (A) (A) (A) (A)
                 (A) (A) (A) (A) (A) (A) (A) (A) (A) (A) (A) (A)
                 (A) (A) (A) (A) (A) (A) (A) (A) (A) (A) (A) (A)
                 (A) (A) (A) (A) (A) (A) (A) (A) (A) (A) (A) (A)
                 (A) (A) (A) (A) (A) (A) (A) (A) (A) (A) (A) (A)
                 (A)
 The electronic state is 1-A.
 Alpha  occ. eigenvalues -- -101.62953-101.62291-101.57089-101.56981-101.56797
 Alpha  occ. eigenvalues -- -101.56611 -10.27943 -10.27427 -10.26908 -10.26567
 Alpha  occ. eigenvalues --  -10.26469 -10.25648 -10.23595 -10.23429 -10.21684
 Alpha  occ. eigenvalues --  -10.21335 -10.21269 -10.20512  -9.55625  -9.55058
 Alpha  occ. eigenvalues --   -9.48572  -9.48408  -9.48354  -9.48114  -7.32245
 Alpha  occ. eigenvalues --   -7.31784  -7.31016  -7.30627  -7.30360  -7.29970
 Alpha  occ. eigenvalues --   -7.25044  -7.24881  -7.24797  -7.24563  -7.24050
 Alpha  occ. eigenvalues --   -7.24001  -7.23891  -7.23849  -7.23830  -7.23794
 Alpha  occ. eigenvalues --   -7.23596  -7.23558  -1.12122  -0.93363  -0.92572
 Alpha  occ. eigenvalues --   -0.89545  -0.89241  -0.86474  -0.84474  -0.83532
 Alpha  occ. eigenvalues --   -0.79144  -0.76496  -0.74807  -0.73686  -0.67371
 Alpha  occ. eigenvalues --   -0.64323  -0.62155  -0.61184  -0.58850  -0.54837
 Alpha  occ. eigenvalues --   -0.52739  -0.52472  -0.51173  -0.50851  -0.49590
 Alpha  occ. eigenvalues --   -0.47733  -0.46520  -0.45119  -0.44477  -0.43637
 Alpha  occ. eigenvalues --   -0.42983  -0.42592  -0.41409  -0.40284  -0.38593
 Alpha  occ. eigenvalues --   -0.38178  -0.35771  -0.35405  -0.33925  -0.33768
 Alpha  occ. eigenvalues --   -0.33186  -0.32934  -0.32832  -0.31885  -0.29311
 Alpha  occ. eigenvalues --   -0.27324  -0.26258  -0.25702  -0.12370
 Alpha virt. eigenvalues --   -0.09013  -0.06594  -0.05467  -0.05457  -0.04532
 Alpha virt. eigenvalues --   -0.02881  -0.01391  -0.00525   0.00076   0.00671
 Alpha virt. eigenvalues --    0.01116   0.01519   0.02328   0.02827   0.03476
 Alpha virt. eigenvalues --    0.03813   0.04478   0.04587   0.05372   0.05457
 Alpha virt. eigenvalues --    0.05902   0.06690   0.06792   0.07194   0.07568
 Alpha virt. eigenvalues --    0.07894   0.08051   0.09050   0.09369   0.09801
 Alpha virt. eigenvalues --    0.10133   0.10146   0.10650   0.10851   0.11004
 Alpha virt. eigenvalues --    0.11047   0.12368   0.12680   0.12911   0.12944
 Alpha virt. eigenvalues --    0.13600   0.14278   0.14285   0.14376   0.14661
 Alpha virt. eigenvalues --    0.15096   0.15594   0.15656   0.15897   0.16271
 Alpha virt. eigenvalues --    0.16734   0.17766   0.17832   0.18301   0.18653
 Alpha virt. eigenvalues --    0.19473   0.19629   0.19679   0.20154   0.20693
 Alpha virt. eigenvalues --    0.21344   0.21583   0.22299   0.22685   0.22881
 Alpha virt. eigenvalues --    0.23284   0.23402   0.24308   0.24312   0.24590
 Alpha virt. eigenvalues --    0.24893   0.25706   0.25978   0.26309   0.26455
 Alpha virt. eigenvalues --    0.26848   0.27494   0.27908   0.28438   0.29385
 Alpha virt. eigenvalues --    0.30053   0.30341   0.30693   0.31668   0.32655
 Alpha virt. eigenvalues --    0.33463   0.33659   0.34705   0.35114   0.35871
 Alpha virt. eigenvalues --    0.38009   0.38339   0.40099   0.40873   0.41688
 Alpha virt. eigenvalues --    0.42582   0.42723   0.43317   0.43693   0.43951
 Alpha virt. eigenvalues --    0.44095   0.45410   0.45661   0.46528   0.46742
 Alpha virt. eigenvalues --    0.47508   0.48097   0.49402   0.49515   0.49564
 Alpha virt. eigenvalues --    0.50369   0.51336   0.52510   0.52660   0.52980
 Alpha virt. eigenvalues --    0.53140   0.54378   0.55863   0.56799   0.57297
 Alpha virt. eigenvalues --    0.57965   0.58280   0.58931   0.58983   0.59310
 Alpha virt. eigenvalues --    0.59693   0.60955   0.61449   0.61709   0.61845
 Alpha virt. eigenvalues --    0.63077   0.63969   0.64840   0.65456   0.66076
 Alpha virt. eigenvalues --    0.67273   0.68323   0.69634   0.70061   0.70366
 Alpha virt. eigenvalues --    0.72544   0.75624   0.76224   0.77524   0.78062
 Alpha virt. eigenvalues --    0.81244   0.81545   0.81653   0.82777   0.82812
 Alpha virt. eigenvalues --    0.83715   0.83813   0.84439   0.84555   0.85320
 Alpha virt. eigenvalues --    0.85474   0.85475   0.86140   0.86203   0.86255
 Alpha virt. eigenvalues --    0.87121   0.87945   0.88192   0.88768   0.89134
 Alpha virt. eigenvalues --    0.89671   0.90515   0.91479   0.91961   0.93009
 Alpha virt. eigenvalues --    0.93769   0.94901   0.95108   0.95603   0.95766
 Alpha virt. eigenvalues --    0.95952   0.96439   0.96880   0.96913   0.98339
 Alpha virt. eigenvalues --    0.99996   1.00457   1.02406   1.02678   1.03243
 Alpha virt. eigenvalues --    1.04764   1.05458   1.07354   1.07621   1.08925
 Alpha virt. eigenvalues --    1.09101   1.13402   1.15718   1.19244   1.20429
 Alpha virt. eigenvalues --    1.20696   1.21032   1.22646   1.22857   1.24679
 Alpha virt. eigenvalues --    1.25708   1.26022   1.26847   1.27498   1.28289
 Alpha virt. eigenvalues --    1.29531   1.29691   1.30197   1.31696   1.32754
 Alpha virt. eigenvalues --    1.33243   1.37615   1.45036   1.47591   1.49293
 Alpha virt. eigenvalues --    1.50014   1.50449   1.51453   1.55844   1.56121
 Alpha virt. eigenvalues --    1.57900   1.59690   1.59974   1.61323   1.64400
 Alpha virt. eigenvalues --    1.65501   1.66909   1.69375   1.71659   1.74159
 Alpha virt. eigenvalues --    1.76083   1.78202   1.78901   1.82563   1.84521
 Alpha virt. eigenvalues --    1.85542   1.85843   1.86227   1.86589   1.87238
 Alpha virt. eigenvalues --    1.87566   1.89411   1.93094   1.93806   1.95424
 Alpha virt. eigenvalues --    1.96142   1.96305   2.01051   2.03359   2.06786
 Alpha virt. eigenvalues --    2.09100   2.10595   2.12944   2.13322   2.17186
 Alpha virt. eigenvalues --    2.18946   2.20824   2.22323   2.23636   2.26273
 Alpha virt. eigenvalues --    2.26485   2.26715   2.27320   2.28046   2.29679
 Alpha virt. eigenvalues --    2.31033   2.31888   2.33058   2.34626   2.37990
 Alpha virt. eigenvalues --    2.40397   2.42537   2.42927   2.43855   2.44562
 Alpha virt. eigenvalues --    2.52805   2.53234   2.54236   2.55699   2.56975
 Alpha virt. eigenvalues --    2.58189   2.59563   2.60068   2.60232   2.61768
 Alpha virt. eigenvalues --    2.62931   2.65111   2.66485   2.70428   2.71464
 Alpha virt. eigenvalues --    2.73346   2.74243   2.74456   2.75081   2.75294
 Alpha virt. eigenvalues --    2.76899   2.77740   2.78333   2.80615   2.84505
 Alpha virt. eigenvalues --    2.85841   2.86704   2.88732   2.97782   3.04909
 Alpha virt. eigenvalues --    3.06646   3.07839   3.09476   3.10369   3.16436
 Alpha virt. eigenvalues --    3.17264   3.21109   3.24078   3.27893   3.31434
 Alpha virt. eigenvalues --    3.34083   3.38179   3.41156   3.44063   3.60340
 Alpha virt. eigenvalues --    3.63030   3.68565   3.73609   3.79947   3.85639
 Alpha virt. eigenvalues --    3.97834   4.05393   4.06543   4.13369   4.80278
 Alpha virt. eigenvalues --    4.80545   9.68320   9.76582   9.78771   9.79393
 Alpha virt. eigenvalues --    9.84358   9.98833  23.34561  23.38584  23.81007
 Alpha virt. eigenvalues --   23.81586  23.85853  23.88185  23.95287  23.96737
 Alpha virt. eigenvalues --   23.98677  24.01916  24.08100  24.09350  25.74214
 Alpha virt. eigenvalues --   25.79548  25.81293  25.83727  25.84413  25.98557
 Alpha virt. eigenvalues --   26.08537  26.10834  26.20473  26.23654  26.35751
 Alpha virt. eigenvalues --   26.49541  26.59891  26.66516  26.71567  26.92350
 Alpha virt. eigenvalues --   26.93670  27.02432 215.69226 215.75985 215.78504
 Alpha virt. eigenvalues --  215.79960 215.84945 216.05287
          Condensed to atoms (all electrons):
               1          2          3          4          5          6
     1  C   26.081455  -2.386945  -7.324560   0.446431  -5.750797   4.041536
     2  C   -2.386945  26.208396  -7.311951  -0.357196   3.922668  -7.283845
     3  C   -7.324560  -7.311951  17.624548   0.853934  -1.232610   4.205930
     4  C    0.446431  -0.357196   0.853934  14.915153  -2.375042  -6.913731
     5  C   -5.750797   3.922668  -1.232610  -2.375042  20.549380  -8.103470
     6  C    4.041536  -7.283845   4.205930  -6.913731  -8.103470  37.370404
     7  C    6.599926  -3.373590  -3.715538  -0.007572  -3.725019  -2.755961
     8  C   -0.415990   0.852754  -0.476440   0.364971   0.327632  -0.984831
     9  C   -3.174203  -1.247204   0.932315   0.012262  -0.648497   0.112876
    10  C    0.292861   1.028731   0.532117   0.024792   0.215976  -0.144523
    11  C   -0.631649   0.119776  -0.378533   0.164939   0.321521   0.079184
    12  C   -2.862268  -2.310219   0.258427  -0.279085  -0.579587  -4.736909
    13  H    0.001406  -0.049466   0.442689  -0.033058  -0.097961   0.075754
    14  H   -0.047746  -0.033069  -0.031080   0.331102   0.008644   0.091756
    15  H    0.043672  -0.035884   0.040397   0.002514  -0.002208  -0.000242
    16  H    0.002460  -0.001101  -0.000186  -0.000002   0.000050   0.001782
    17  Cl   6.442528   0.781255  -1.726320   0.684405  -3.131598  18.294651
    18  Cl -14.385442  -1.733783   3.617244  -0.021570   6.379698 -27.394138
    19  Cl   0.016593  -0.046283  -0.012613   0.008611   0.005910  -0.011864
    20  Cl  -0.318900   0.044629   0.027859  -1.139395  -0.649072   1.588439
    21  Cl  -0.143112  -0.051343  -0.012935   0.000633  -0.011340  -0.028323
    22  Cl   0.045344  -0.508289  -0.101021  -0.147965   0.205863   0.067799
               7          8          9         10         11         12
     1  C    6.599926  -0.415990  -3.174203   0.292861  -0.631649  -2.862268
     2  C   -3.373590   0.852754  -1.247204   1.028731   0.119776  -2.310219
     3  C   -3.715538  -0.476440   0.932315   0.532117  -0.378533   0.258427
     4  C   -0.007572   0.364971   0.012262   0.024792   0.164939  -0.279085
     5  C   -3.725019   0.327632  -0.648497   0.215976   0.321521  -0.579587
     6  C   -2.755961  -0.984831   0.112876  -0.144523   0.079184  -4.736909
     7  C   24.982828   0.801780  -6.397474   5.933747  -3.839555  -1.735353
     8  C    0.801780  15.351221  -1.112327  -6.746485   1.365699  -2.560094
     9  C   -6.397474  -1.112327  22.510644  -8.151206  -3.621341   5.404400
    10  C    5.933747  -6.746485  -8.151206  29.623527  -4.597995  -8.489826
    11  C   -3.839555   1.365699  -3.621341  -4.597995  16.346085  -1.132340
    12  C   -1.735353  -2.560094   5.404400  -8.489826  -1.132340  26.220405
    13  H   -0.004207   0.002493  -0.000587   0.000223  -0.000012  -0.001353
    14  H   -0.004708   0.000161   0.000051   0.000046  -0.000111   0.001390
    15  H    0.013965   0.207082  -0.061369   0.048514   0.003889   0.066355
    16  H   -0.016827   0.048119   0.099780   0.111309   0.017692   0.056693
    17  Cl -10.386690  -1.724554   2.848871  -3.930193   5.107588 -13.929836
    18  Cl   5.319286   1.240928  -1.187069   2.655584  -3.575796  12.764095
    19  Cl  -0.493301   0.368887  -0.219306  -1.240645  -0.076585   0.713372
    20  Cl  -0.029806  -0.040967   0.008396   0.000339  -0.013697  -0.054047
    21  Cl  -0.596824   0.364948  -0.620007  -0.379226   0.165174   0.468950
    22  Cl   0.273878  -0.115598  -0.597218  -0.023058   0.058411  -0.178469
              13         14         15         16         17         18
     1  C    0.001406  -0.047746   0.043672   0.002460   6.442528 -14.385442
     2  C   -0.049466  -0.033069  -0.035884  -0.001101   0.781255  -1.733783
     3  C    0.442689  -0.031080   0.040397  -0.000186  -1.726320   3.617244
     4  C   -0.033058   0.331102   0.002514  -0.000002   0.684405  -0.021570
     5  C   -0.097961   0.008644  -0.002208   0.000050  -3.131598   6.379698
     6  C    0.075754   0.091756  -0.000242   0.001782  18.294651 -27.394138
     7  C   -0.004207  -0.004708   0.013965  -0.016827 -10.386690   5.319286
     8  C    0.002493   0.000161   0.207082   0.048119  -1.724554   1.240928
     9  C   -0.000587   0.000051  -0.061369   0.099780   2.848871  -1.187069
    10  C    0.000223   0.000046   0.048514   0.111309  -3.930193   2.655584
    11  C   -0.000012  -0.000111   0.003889   0.017692   5.107588  -3.575796
    12  C   -0.001353   0.001390   0.066355   0.056693 -13.929836  12.764095
    13  H    0.518095  -0.004653   0.000002  -0.000000  -0.004609   0.018973
    14  H   -0.004653   0.514394  -0.000002  -0.000000  -0.006340   0.032227
    15  H    0.000002  -0.000002   0.562291  -0.000373   0.021980  -0.015222
    16  H   -0.000000  -0.000000  -0.000373   0.497176   0.023108  -0.005980
    17  Cl  -0.004609  -0.006340   0.021980   0.023108  77.334474 -60.960825
    18  Cl   0.018973   0.032227  -0.015222  -0.005980 -60.960825  93.931547
    19  Cl  -0.000002  -0.000001   0.001027   0.000105   0.257574  -0.723884
    20  Cl  -0.001766  -0.004846   0.000104   0.000000  -0.305976  -0.415993
    21  Cl  -0.000015  -0.000000  -0.022384  -0.000516   0.034707  -0.016301
    22  Cl  -0.011946   0.002642  -0.034351   0.000097  -0.044165   0.047884
              19         20         21         22
     1  C    0.016593  -0.318900  -0.143112   0.045344
     2  C   -0.046283   0.044629  -0.051343  -0.508289
     3  C   -0.012613   0.027859  -0.012935  -0.101021
     4  C    0.008611  -1.139395   0.000633  -0.147965
     5  C    0.005910  -0.649072  -0.011340   0.205863
     6  C   -0.011864   1.588439  -0.028323   0.067799
     7  C   -0.493301  -0.029806  -0.596824   0.273878
     8  C    0.368887  -0.040967   0.364948  -0.115598
     9  C   -0.219306   0.008396  -0.620007  -0.597218
    10  C   -1.240645   0.000339  -0.379226  -0.023058
    11  C   -0.076585  -0.013697   0.165174   0.058411
    12  C    0.713372  -0.054047   0.468950  -0.178469
    13  H   -0.000002  -0.001766  -0.000015  -0.011946
    14  H   -0.000001  -0.004846  -0.000000   0.002642
    15  H    0.001027   0.000104  -0.022384  -0.034351
    16  H    0.000105   0.000000  -0.000516   0.000097
    17  Cl   0.257574  -0.305976   0.034707  -0.044165
    18  Cl  -0.723884  -0.415993  -0.016301   0.047884
    19  Cl  17.912892  -0.003394  -0.017505   0.001090
    20  Cl  -0.003394  17.845004  -0.000025  -0.004200
    21  Cl  -0.017505  -0.000025  17.480930  -0.024005
    22  Cl   0.001090  -0.004200  -0.024005  17.542262
 Mulliken charges:
               1
     1  C   -0.572598
     2  C   -0.228040
     3  C   -0.211671
     4  C   -0.535131
     5  C    0.369860
     6  C   -1.572273
     7  C   -0.842989
     8  C   -1.119387
     9  C    1.108215
    10  C   -0.764610
    11  C    0.117655
    12  C   -1.104702
    13  H    0.150000
    14  H    0.150144
    15  H    0.160242
    16  H    0.166615
    17  Cl   1.319965
    18  Cl   1.428536
    19  Cl   0.559322
    20  Cl   0.467314
    21  Cl   0.408518
    22  Cl   0.545015
 Sum of Mulliken charges =  -0.00000
 Mulliken charges with hydrogens summed into heavy atoms:
               1
     1  C   -0.572598
     2  C   -0.228040
     3  C   -0.061670
     4  C   -0.384987
     5  C    0.369860
     6  C   -1.572273
     7  C   -0.842989
     8  C   -0.959146
     9  C    1.108215
    10  C   -0.597995
    11  C    0.117655
    12  C   -1.104702
    17  Cl   1.319965
    18  Cl   1.428536
    19  Cl   0.559322
    20  Cl   0.467314
    21  Cl   0.408518
    22  Cl   0.545015
 Electronic spatial extent (au):  <R**2>=           8140.1432
 Charge=             -0.0000 electrons
 Dipole moment (field-independent basis, Debye):
    X=             -1.1667    Y=             -0.3536    Z=              0.0000  Tot=              1.2191
 Quadrupole moment (field-independent basis, Debye-Ang):
   XX=           -147.5013   YY=           -143.1805   ZZ=           -147.4998
   XY=             -5.0711   XZ=             -0.0000   YZ=              0.0000
 Traceless Quadrupole moment (field-independent basis, Debye-Ang):
   XX=             -1.4408   YY=              2.8800   ZZ=             -1.4393
   XY=             -5.0711   XZ=             -0.0000   YZ=              0.0000
 Octapole moment (field-independent basis, Debye-Ang**2):
  XXX=              6.7612  YYY=            -17.4224  ZZZ=              0.0000  XYY=            -29.8009
  XXY=             23.5904  XXZ=              0.0002  XZZ=              1.5242  YZZ=            -11.2429
  YYZ=              0.0000  XYZ=              0.0000
 Hexadecapole moment (field-independent basis, Debye-Ang**3):
 XXXX=          -7008.1785 YYYY=          -3590.8618 ZZZZ=           -173.1702 XXXY=           -128.4572
 XXXZ=             -0.0002 YYYX=             52.9989 YYYZ=              0.0001 ZZZX=              0.0001
 ZZZY=             -0.0000 XXYY=          -1727.5835 XXZZ=          -1241.2037 YYZZ=           -652.9311
 XXYZ=              0.0001 YYXZ=             -0.0001 ZZXY=             24.1836
 N-N= 2.059481567498D+03 E-N=-1.174740122456D+04  KE= 3.214105466299D+03
 Calling FoFJK, ICntrl=      2127 FMM=F ISym2X=0 I1Cent= 0 IOpClX= 0 NMat=1 NMatS=1 NMatT=0.
 ***** Axes restored to original set *****
 -------------------------------------------------------------------
 Center     Atomic                   Forces (Hartrees/Bohr)
 Number     Number              X              Y              Z
 -------------------------------------------------------------------
      1        6          -0.020875959   -0.000973926    0.006695058
      2        6          -0.023178639    0.011141812    0.009728913
      3        6          -0.014141208    0.001585570    0.004956771
      4        6          -0.005472917   -0.012582867   -0.000560301
      5        6           0.001159247   -0.022104207   -0.004533017
      6        6           0.105013131    0.021833346   -0.030496839
      7        6          -0.001121370    0.017165127    0.003592920
      8        6          -0.016094991   -0.001528413    0.005015693
      9        6          -0.010773650    0.013636778    0.006110562
     10        6           0.004482766    0.004638210   -0.000605770
     11        6           0.010804243    0.008652775   -0.001934462
     12        6           0.026132149   -0.050322235   -0.018060526
     13        1           0.009441435    0.000320681   -0.003050230
     14        1           0.005875859    0.008492955   -0.000340826
     15        1          -0.003522126   -0.005332671    0.000158706
     16        1          -0.005093841   -0.007526977    0.000264577
     17       17          -0.316121218   -0.451748981    0.019309573
     18       17           0.232742154    0.448529509    0.007555659
     19       17          -0.003230767   -0.009700062   -0.000757431
     20       17           0.003855651    0.010044604    0.000616217
     21       17          -0.002253588    0.002730583    0.001255272
     22       17           0.022373639    0.013048389   -0.004920519
 -------------------------------------------------------------------
 Cartesian Forces:  Max     0.451748981 RMS     0.093772639

 GradGradGradGradGradGradGradGradGradGradGradGradGradGradGradGradGradGrad
 Berny optimization.
 FormGI is forming the generalized inverse of G from B-inverse, IUseBI=4.
 Internal  Forces:  Max     0.573766010 RMS     0.061090457
 Search for a local minimum.
 Step number   1 out of a maximum of  112
 All quantities printed in internal units (Hartrees-Bohrs-Radians)
 Mixed Optimization -- RFO/linear search
 Second derivative matrix not updated -- first step.
 ITU=  0
     Eigenvalues ---    0.00238   0.00238   0.01655   0.01655   0.02070
     Eigenvalues ---    0.02070   0.02070   0.02070   0.02070   0.02070
     Eigenvalues ---    0.02070   0.02070   0.02070   0.02070   0.02070
     Eigenvalues ---    0.02070   0.02070   0.02070   0.04357   0.16000
     Eigenvalues ---    0.16000   0.16000   0.16000   0.22472   0.23315
     Eigenvalues ---    0.23491   0.24476   0.25000   0.25000   0.25000
     Eigenvalues ---    0.25000   0.25000   0.25000   0.25000   0.25000
     Eigenvalues ---    0.25000   0.25000   0.29539   0.29539   0.29539
     Eigenvalues ---    0.29539   0.29539   0.29539   0.37230   0.37230
     Eigenvalues ---    0.37230   0.37230   0.41658   0.41669   0.42024
     Eigenvalues ---    0.42042   0.45389   0.45389   0.45389   0.45389
     Eigenvalues ---    0.45389   0.45389   0.45389   0.45389   1.35611
 RFO step:  Lambda=-2.92069819D-01 EMin= 2.37799118D-03
 Linear search not attempted -- first point.
 Maximum step size (   0.300) exceeded in Quadratic search.
    -- Step size scaled by   0.559
 Iteration  1 RMS(Cart)=  0.36982383 RMS(Int)=  0.01080199
 Iteration  2 RMS(Cart)=  0.07674064 RMS(Int)=  0.00052074
 Iteration  3 RMS(Cart)=  0.00125738 RMS(Int)=  0.00001654
 Iteration  4 RMS(Cart)=  0.00000023 RMS(Int)=  0.00001654
 Variable       Old X    -DE/DX   Delta X   Delta X   Delta X     New X
                                 (Linear)    (Quad)   (Total)
    R1        2.64826   0.01418   0.00000   0.01104   0.01107   2.65933
    R2        2.64826  -0.00765   0.00000  -0.00530  -0.00527   2.64299
    R3        2.64826  -0.00915   0.00000  -0.00688  -0.00689   2.64137
    R4        3.32592   0.00049   0.00000   0.00046   0.00046   3.32638
    R5        2.64826  -0.02934   0.00000  -0.02244  -0.02247   2.62579
    R6        2.02201   0.00993   0.00000   0.00836   0.00836   2.03036
    R7        2.64826  -0.02036   0.00000  -0.01568  -0.01570   2.63256
    R8        2.02201   0.01030   0.00000   0.00867   0.00867   2.03068
    R9        2.64826  -0.00277   0.00000  -0.00206  -0.00204   2.64622
   R10        3.32592   0.00692   0.00000   0.00659   0.00659   3.33251
   R11        3.32592   0.08734   0.00000   0.08317   0.08317   3.40908
   R12        2.64826  -0.00540   0.00000  -0.00404  -0.00403   2.64423
   R13        2.64826  -0.01573   0.00000  -0.01169  -0.01167   2.63659
   R14        2.64826  -0.00733   0.00000  -0.00560  -0.00560   2.64266
   R15        2.02201  -0.00351   0.00000  -0.00296  -0.00296   2.01905
   R16        2.64826  -0.02079   0.00000  -0.01570  -0.01571   2.63255
   R17        3.32592  -0.00369   0.00000  -0.00351  -0.00351   3.32241
   R18        2.64826  -0.01871   0.00000  -0.01404  -0.01405   2.63421
   R19        2.02201   0.00907   0.00000   0.00764   0.00764   2.02964
   R20        2.64826  -0.00031   0.00000  -0.00014  -0.00013   2.64813
   R21        3.32592   0.00304   0.00000   0.00290   0.00290   3.32882
   R22        3.32592   0.02444   0.00000   0.02327   0.02327   3.34919
   R23        3.15339   0.57377   0.00000   0.19474   0.19474   3.34812
    A1        2.09440  -0.03194   0.00000  -0.03123  -0.03115   2.06325
    A2        2.09440   0.01652   0.00000   0.01757   0.01757   2.11197
    A3        2.09440   0.03557   0.00000   0.03645   0.03645   2.13084
    A4        2.09440  -0.05209   0.00000  -0.05402  -0.05402   2.04037
    A5        2.09440   0.00405   0.00000   0.00372   0.00367   2.09806
    A6        2.09440  -0.00191   0.00000  -0.00172  -0.00169   2.09270
    A7        2.09440  -0.00213   0.00000  -0.00200  -0.00197   2.09242
    A8        2.09440  -0.00921   0.00000  -0.01134  -0.01140   2.08299
    A9        2.09440   0.00376   0.00000   0.00462   0.00466   2.09905
   A10        2.09440   0.00545   0.00000   0.00671   0.00675   2.10114
   A11        2.09440   0.01219   0.00000   0.01201   0.01200   2.10639
   A12        2.09440  -0.01983   0.00000  -0.02018  -0.02017   2.07422
   A13        2.09440   0.00764   0.00000   0.00817   0.00817   2.10257
   A14        2.09440   0.00839   0.00000   0.00927   0.00931   2.10371
   A15        2.09440   0.02830   0.00000   0.02890   0.02888   2.12328
   A16        2.09440  -0.03670   0.00000  -0.03817  -0.03820   2.05620
   A17        2.09440  -0.02465   0.00000  -0.02517  -0.02514   2.06926
   A18        2.09440   0.01004   0.00000   0.01085   0.01085   2.10524
   A19        2.09440   0.00038   0.00000   0.00126   0.00126   2.09565
   A20        2.09440  -0.01042   0.00000  -0.01211  -0.01211   2.08229
   A21        2.09440   0.00872   0.00000   0.00871   0.00869   2.10308
   A22        2.09440  -0.00315   0.00000  -0.00311  -0.00310   2.09130
   A23        2.09440  -0.00557   0.00000  -0.00560  -0.00559   2.08880
   A24        2.09440  -0.01161   0.00000  -0.01286  -0.01288   2.08151
   A25        2.09440   0.00645   0.00000   0.00722   0.00724   2.10163
   A26        2.09440   0.00516   0.00000   0.00563   0.00565   2.10004
   A27        2.09440   0.00238   0.00000   0.00258   0.00257   2.09697
   A28        2.09440  -0.01747   0.00000  -0.01809  -0.01809   2.07631
   A29        2.09440   0.01509   0.00000   0.01551   0.01552   2.10991
   A30        2.09440   0.01512   0.00000   0.01590   0.01591   2.11031
   A31        2.09440  -0.00175   0.00000  -0.00196  -0.00197   2.09243
   A32        2.09440  -0.01337   0.00000  -0.01394  -0.01395   2.08045
   A33        2.09440   0.05734   0.00000   0.05918   0.05918   2.15357
   A34        2.09440   0.16281   0.00000   0.16801   0.16801   2.26241
    D1        0.00000   0.00000   0.00000   0.00000   0.00000   0.00000
    D2        3.14159  -0.00000   0.00000   0.00000   0.00000   3.14159
    D3       -0.00000  -0.00000   0.00000  -0.00000  -0.00000  -0.00000
    D4        3.14159   0.00000   0.00000   0.00000   0.00000   3.14159
    D5        0.00000   0.00000   0.00000   0.00000   0.00000   0.00000
    D6        3.14159   0.00000   0.00000   0.00000  -0.00000   3.14159
    D7       -3.14159  -0.00000   0.00000  -0.00000  -0.00000  -3.14159
    D8        0.00000  -0.00000   0.00000  -0.00000  -0.00000   0.00000
    D9       -0.00000   0.00000   0.00000   0.00000   0.00000  -0.00000
   D10        3.14159   0.00000   0.00000   0.00000   0.00000   3.14159
   D11        3.14159   0.00000   0.00000   0.00000   0.00000   3.14159
   D12        0.00000   0.00000   0.00000   0.00000   0.00000   0.00000
   D13        0.00000  -0.00000   0.00000  -0.00000  -0.00000   0.00000
   D14       -3.14159  -0.00000   0.00000  -0.00000  -0.00000  -3.14159
   D15       -3.14159  -0.00000   0.00000  -0.00000  -0.00000  -3.14159
   D16        0.00000  -0.00000   0.00000  -0.00000  -0.00000   0.00000
   D17       -0.00000   0.00000   0.00000   0.00000   0.00000  -0.00000
   D18        3.14159  -0.00000   0.00000  -0.00000  -0.00000   3.14159
   D19        3.14159   0.00000   0.00000   0.00000   0.00000   3.14159
   D20       -0.00000  -0.00000   0.00000  -0.00000  -0.00000  -0.00000
   D21        0.00001  -0.00000   0.00000  -0.00000  -0.00000   0.00001
   D22       -3.14159  -0.00000   0.00000  -0.00000  -0.00000  -3.14159
   D23        0.00000   0.00000   0.00000   0.00000   0.00000   0.00000
   D24       -3.14159  -0.00000   0.00000  -0.00000  -0.00000  -3.14159
   D25       -0.00000  -0.00000   0.00000  -0.00000  -0.00000  -0.00000
   D26        3.14159   0.00000   0.00000   0.00000   0.00000   3.14159
   D27       -0.00000   0.00000   0.00000   0.00000   0.00000  -0.00000
   D28        3.14159  -0.00000   0.00000  -0.00000  -0.00000   3.14159
   D29        3.14159   0.00000   0.00000   0.00000   0.00000   3.14159
   D30       -0.00000   0.00000   0.00000   0.00000   0.00000  -0.00000
   D31       -0.00000  -0.00000   0.00000  -0.00000   0.00000  -0.00000
   D32       -3.14159  -0.00000   0.00000  -0.00000  -0.00000  -3.14159
   D33        3.14159   0.00000   0.00000   0.00000   0.00000   3.14159
   D34        0.00000  -0.00000   0.00000  -0.00000  -0.00000   0.00000
   D35        0.00000  -0.00000   0.00000  -0.00000  -0.00000  -0.00000
   D36       -3.14159  -0.00000   0.00000  -0.00000  -0.00000  -3.14159
   D37        3.14159   0.00000   0.00000   0.00000   0.00000   3.14159
   D38        0.00000  -0.00000   0.00000  -0.00000  -0.00000   0.00000
   D39        0.00000   0.00000   0.00000   0.00000   0.00000   0.00000
   D40       -3.14159  -0.00000   0.00000  -0.00000  -0.00000  -3.14159
   D41        3.14159   0.00000   0.00000   0.00000   0.00000   3.14159
   D42       -0.00000  -0.00000   0.00000  -0.00000  -0.00000  -0.00000
   D43        0.00001  -0.00000   0.00000  -0.00000  -0.00000   0.00001
   D44       -3.14159  -0.00000   0.00000  -0.00000  -0.00000  -3.14159
   D45       -0.00001  -0.00000   0.00000  -0.00000  -0.00000  -0.00001
         Item               Value     Threshold  Converged?
 Maximum Force            0.573766     0.000450     NO 
 RMS     Force            0.061090     0.000300     NO 
 Maximum Displacement     1.370117     0.001800     NO 
 RMS     Displacement     0.443051     0.001200     NO 
 Predicted change in Energy=-1.308270D-01
 GradGradGradGradGradGradGradGradGradGradGradGradGradGradGradGradGradGrad

                          Input orientation:                          
 ---------------------------------------------------------------------
 Center     Atomic      Atomic             Coordinates (Angstroms)
 Number     Number       Type             X           Y           Z
 ---------------------------------------------------------------------
      1          6           0        0.495042    1.329582   -0.110009
      2          6           0        1.820571    1.603225   -0.495317
      3          6           0        2.338574    2.899407   -0.422543
      4          6           0        1.545519    3.944601    0.035027
      5          6           0        0.231562    3.686951    0.419525
      6          6           0       -0.292619    2.390374    0.348712
      7          6           0       -1.034771   -1.040447   -0.051125
      8          6           0       -0.573000   -2.302685   -0.440321
      9          6           0       -1.411744   -3.419692   -0.373773
     10          6           0       -2.722235   -3.293656    0.081653
     11          6           0       -3.190523   -2.039887    0.471405
     12          6           0       -2.348363   -0.921881    0.403920
     13          1           0        3.353179    3.088316   -0.721330
     14          1           0        1.942826    4.941454    0.091349
     15          1           0        0.428718   -2.421109   -0.792585
     16          1           0       -3.365263   -4.152448    0.132217
     17         17           0       -2.969728    0.660250    0.905776
     18         17           0       -2.003273    2.144666    0.866148
     19         17           0       -4.848896   -1.889503    1.046021
     20         17           0       -0.763133    5.023224    0.998189
     21         17           0       -0.809721   -4.995840   -0.868132
     22         17           0        2.900801    0.345820   -1.087350
 ---------------------------------------------------------------------
                    Distance matrix (angstroms):
                    1          2          3          4          5
     1  C    0.000000
     2  C    1.407256   0.000000
     3  C    2.441441   1.397753   0.000000
     4  C    2.821854   2.416394   1.389509   0.000000
     5  C    2.430435   2.775573   2.401833   1.393092   0.000000
     6  C    1.398612   2.407813   2.788749   2.427502   1.400318
     7  C    2.821495   3.916539   5.199986   5.613912   4.916645
     8  C    3.800420   4.581304   5.961489   6.613824   6.104293
     9  C    5.124550   5.974305   7.348352   7.946403   7.337176
    10  C    5.635774   6.704433   8.013741   8.402872   7.587355
    11  C    5.027400   6.270397   7.467709   7.644253   6.671583
    12  C    3.663081   4.956288   6.103495   6.243479   5.281816
    13  H    3.411129   2.146035   1.074423   2.138443   3.377041
    14  H    3.896439   3.391592   2.142581   1.074589   2.147068
    15  H    3.812872   4.268592   5.665013   6.515707   6.230287
    16  H    6.709194   7.772673   9.086813   9.470344   8.629941
    17  Cl   3.672119   5.079294   5.912387   5.650895   4.432337
    18  Cl   2.803360   4.094940   4.591513   4.065028   2.751836
    19  Cl   6.344808   7.684833   8.760711   8.714781   7.569702
    20  Cl   4.056365   4.538996   4.018664   2.724148   1.763489
    21  Cl   6.502932   7.113725   8.511477   9.289474   8.839298
    22  Cl   2.776807   1.760246   2.697939   4.005963   4.534166
                    6          7          8          9         10
     6  C    0.000000
     7  C    3.532873   0.000000
     8  C    4.767179   1.399268   0.000000
     9  C    5.960813   2.430436   1.398436   0.000000
    10  C    6.187290   2.818177   2.423570   1.393084   0.000000
    11  C    5.295292   2.432937   2.784193   2.404629   1.393965
    12  C    3.898739   1.395223   2.402348   2.778690   2.422593
    13  H    3.863153   6.062174   6.675084   8.073379   8.847882
    14  H    3.401684   6.683526   7.686977   9.020989   9.464668
    15  H    4.997325   2.144246   1.068436   2.135386   3.384396
    16  H    7.231635   3.892218   3.397963   2.146903   1.074041
    17  Cl   3.235825   2.748106   4.041691   4.550877   4.046456
    18  Cl   1.804010   3.453162   4.850925   5.731439   5.541452
    19  Cl   6.289932   4.058593   4.545681   4.021356   2.724764
    20  Cl   2.752290   6.159784   7.468226   8.578216   8.593522
    21  Cl   7.503617   4.045156   2.737178   1.758143   2.730793
    22  Cl   4.054677   4.299328   4.415940   5.769430   6.799330
                   11         12         13         14         15
    11  C    0.000000
    12  C    1.401330   0.000000
    13  H    8.398875   7.060839   0.000000
    14  H    8.673801   7.272599   2.466508   0.000000
    15  H    3.852519   3.375128   6.237893   7.568434   0.000000
    16  H    2.146742   3.397716   9.914367  10.529793   4.271661
    17  Cl   2.743751   1.772313   6.965783   6.566977   4.891691
    18  Cl   4.367593   3.120329   5.665875   4.898371   5.432520
    19  Cl   1.761534   2.757037   9.755831   9.679920   5.613937
    20  Cl   7.487139   6.181454   4.862575   2.855041   7.748901
    21  Cl   4.024952   4.536814   9.094221  10.356009   2.858090
    22  Cl   6.724993   5.602202   2.803551   4.840134   3.722093
                   16         17         18         19         20
    16  H    0.000000
    17  Cl   4.890492   0.000000
    18  Cl   6.484391   1.771749   0.000000
    19  Cl   2.856069   3.170517   4.940085   0.000000
    20  Cl   9.576740   4.890106   3.137113   8.030039   0.000000
    21  Cl   2.871028   6.309020   7.444402   5.443184  10.191514
    22  Cl   7.809309   6.207618   5.576911   8.343006   6.296982
                   21         22
    21  Cl   0.000000
    22  Cl   6.507639   0.000000
 Stoichiometry    C12H4Cl6
 Framework group  C1[X(C12H4Cl6)]
 Deg. of freedom    60
 Full point group                 C1      NOp   1
 Largest Abelian subgroup         C1      NOp   1
 Largest concise Abelian subgroup C1      NOp   1
                         Standard orientation:                         
 ---------------------------------------------------------------------
 Center     Atomic      Atomic             Coordinates (Angstroms)
 Number     Number       Type             X           Y           Z
 ---------------------------------------------------------------------
      1          6           0       -1.595515    0.946924    0.000003
      2          6           0       -2.373566    2.119530    0.000005
      3          6           0       -3.769925    2.057138    0.000004
      4          6           0       -4.414790    0.826331    0.000001
      5          6           0       -3.656026   -0.341993   -0.000003
      6          6           0       -2.256850   -0.285452   -0.000002
      7          6           0        1.189212    0.492910   -0.000006
      8          6           0        2.165070    1.495732   -0.000009
      9          6           0        3.524309    1.166957   -0.000007
     10          6           0        3.929286   -0.165963   -0.000001
     11          6           0        2.963797   -1.171432    0.000002
     12          6           0        1.602282   -0.839765   -0.000000
     13          1           0       -4.346600    2.963686    0.000006
     14          1           0       -5.488260    0.777302    0.000001
     15          1           0        1.875796    2.524262   -0.000010
     16          1           0        4.973589   -0.416956    0.000002
     17         17           0        0.396025   -2.138239    0.000005
     18         17           0       -1.351422   -1.845789   -0.000005
     19         17           0        3.484645   -2.854204    0.000013
     20         17           0       -4.488119   -1.896829   -0.000010
     21         17           0        4.732758    2.443953   -0.000010
     22         17           0       -1.647900    3.723237    0.000012
 ---------------------------------------------------------------------
 Rotational constants (GHZ):           0.3165811           0.1476642           0.1006961
 Standard basis: 6-311+G(d,p) (5D, 7F)
 There are   486 symmetry adapted cartesian basis functions of A   symmetry.
 There are   468 symmetry adapted basis functions of A   symmetry.
   468 basis functions,   782 primitive gaussians,   486 cartesian basis functions
    89 alpha electrons       89 beta electrons
       nuclear repulsion energy      1973.3886082845 Hartrees.
 NAtoms=   22 NActive=   22 NUniq=   22 SFac= 1.00D+00 NAtFMM=   60 NAOKFM=F Big=F
 Integral buffers will be    131072 words long.
 Raffenetti 2 integral format.
 Two-electron integral symmetry is turned on.
 One-electron integrals computed using PRISM.
 NBasis=   468 RedAO= T EigKep=  1.76D-06  NBF=   468
 NBsUse=   463 1.00D-06 EigRej=  7.92D-07 NBFU=   463
 Initial guess from the checkpoint file:  "./Gau-36996.chk"
 B after Tr=     0.000000    0.000000    0.000000
         Rot=    0.997545    0.000000    0.000000   -0.070027 Ang=   8.03 deg.
 ExpMin= 4.38D-02 ExpMax= 1.06D+05 ExpMxC= 3.62D+03 IAcc=3 IRadAn=         5 AccDes= 0.00D+00
 Harris functional with IExCor=  402 and IRadAn=       5 diagonalized for initial guess.
 HarFok:  IExCor=  402 AccDes= 0.00D+00 IRadAn=         5 IDoV= 1 UseB2=F ITyADJ=14
 ICtDFT=  3500011 ScaDFX=  1.000000  1.000000  1.000000  1.000000
 FoFCou: FMM=F IPFlag=           0 FMFlag=      100000 FMFlg1=           0
         NFxFlg=           0 DoJE=T BraDBF=F KetDBF=T FulRan=T
         wScrn=  0.000000 ICntrl=       500 IOpCl=  0 I1Cent=   200000004 NGrid=           0
         NMat0=    1 NMatS0=      1 NMatT0=    0 NMatD0=    1 NMtDS0=    0 NMtDT0=    0
 Petite list used in FoFCou.
 Requested convergence on RMS density matrix=1.00D-08 within  32 cycles.
 Requested convergence on MAX density matrix=1.00D-06.
 Requested convergence on             energy=1.00D-06.
 No special actions if energy rises.
 Restarting incremental Fock formation.
 SCF Done:  E(RB3LYP) =  -3220.65418698     A.U. after   21 cycles
            NFock= 21  Conv=0.82D-08     -V/T= 2.0023
 QCSCF skips out because SCF is already converged.
 Calling FoFJK, ICntrl=      2127 FMM=F ISym2X=0 I1Cent= 0 IOpClX= 0 NMat=1 NMatS=1 NMatT=0.
 ***** Axes restored to original set *****
 -------------------------------------------------------------------
 Center     Atomic                   Forces (Hartrees/Bohr)
 Number     Number              X              Y              Z
 -------------------------------------------------------------------
      1        6          -0.013293362    0.041584533    0.012189290
      2        6          -0.023025734   -0.004291729    0.006779927
      3        6          -0.006629671    0.000020706    0.002188186
      4        6          -0.001860157   -0.008964414   -0.001070975
      5        6          -0.009852100   -0.006166323    0.002087903
      6        6           0.094897496   -0.011334238   -0.033392817
      7        6          -0.022631772   -0.002383948    0.007008614
      8        6          -0.005886249    0.010629771    0.003935796
      9        6          -0.001140233    0.008173394    0.001910619
     10        6           0.003219313    0.002938180   -0.000508756
     11        6          -0.000886578    0.010558450    0.002275151
     12        6           0.047704013   -0.039060062   -0.023052770
     13        1           0.006189937    0.000755261   -0.001897415
     14        1           0.000832370    0.005428743    0.000745304
     15        1           0.010569469   -0.000941816   -0.003659179
     16        1          -0.004192609   -0.003025865    0.000812981
     17       17          -0.218656238   -0.247050316    0.025642173
     18       17           0.150233652    0.243736106   -0.003722235
     19       17          -0.003238503   -0.004418111    0.000237125
     20       17           0.000543633    0.006385759    0.001020218
     21       17          -0.001522211    0.001786905    0.000837118
     22       17          -0.001374463   -0.004360988   -0.000366259
 -------------------------------------------------------------------
 Cartesian Forces:  Max     0.247050316 RMS     0.056442783

 GradGradGradGradGradGradGradGradGradGradGradGradGradGradGradGradGradGrad
 Berny optimization.
 Using GEDIIS/GDIIS optimizer.
 FormGI is forming the generalized inverse of G from B-inverse, IUseBI=4.
 Internal  Forces:  Max     0.327795239 RMS     0.034903482
 Search for a local minimum.
 Step number   2 out of a maximum of  112
 All quantities printed in internal units (Hartrees-Bohrs-Radians)
 Mixed Optimization -- RFO/linear search
 Update second derivatives using D2CorX and points    1    2
 DE= -9.24D-02 DEPred=-1.31D-01 R= 7.06D-01
 TightC=F SS=  1.41D+00  RLast= 3.00D-01 DXNew= 5.0454D-01 9.0000D-01
 Trust test= 7.06D-01 RLast= 3.00D-01 DXMaxT set to 5.05D-01
 ITU=  1  0
 Use linear search instead of GDIIS.
     Eigenvalues ---    0.00238   0.00238   0.01655   0.01662   0.02070
     Eigenvalues ---    0.02070   0.02070   0.02070   0.02070   0.02070
     Eigenvalues ---    0.02070   0.02070   0.02070   0.02070   0.02070
     Eigenvalues ---    0.02070   0.02070   0.02070   0.04357   0.15998
     Eigenvalues ---    0.16000   0.16000   0.16007   0.22480   0.22619
     Eigenvalues ---    0.23369   0.23526   0.24488   0.25000   0.25000
     Eigenvalues ---    0.25000   0.25000   0.25000   0.25000   0.25000
     Eigenvalues ---    0.25000   0.28056   0.29523   0.29539   0.29539
     Eigenvalues ---    0.29539   0.29539   0.37072   0.37142   0.37230
     Eigenvalues ---    0.37230   0.39487   0.41559   0.41578   0.42085
     Eigenvalues ---    0.43404   0.45254   0.45389   0.45389   0.45389
     Eigenvalues ---    0.45389   0.45389   0.45389   0.50873   1.35015
 RFO step:  Lambda=-2.15802842D-01 EMin= 2.37799118D-03
 Quartic linear search produced a step of  1.23015.
 Maximum step size (   0.505) exceeded in Quadratic search.
    -- Step size scaled by   0.795
 Iteration  1 RMS(Cart)=  0.15355286 RMS(Int)=  0.02822666
 Iteration  2 RMS(Cart)=  0.04158501 RMS(Int)=  0.00706258
 Iteration  3 RMS(Cart)=  0.01622906 RMS(Int)=  0.00012852
 Iteration  4 RMS(Cart)=  0.00000159 RMS(Int)=  0.00012851
 Iteration  5 RMS(Cart)=  0.00000000 RMS(Int)=  0.00012851
 Variable       Old X    -DE/DX   Delta X   Delta X   Delta X     New X
                                 (Linear)    (Quad)   (Total)
    R1        2.65933  -0.02774   0.01361  -0.07587  -0.06233   2.59700
    R2        2.64299  -0.05347  -0.00648  -0.13725  -0.14355   2.49944
    R3        2.64137  -0.00015  -0.00848   0.00276  -0.00596   2.63541
    R4        3.32638   0.00239   0.00057   0.00788   0.00845   3.33483
    R5        2.62579   0.00024  -0.02764   0.01054  -0.01727   2.60852
    R6        2.03036   0.00651   0.01028   0.01660   0.02688   2.05725
    R7        2.63256  -0.00056  -0.01931   0.00537  -0.01387   2.61870
    R8        2.03068   0.00538   0.01067   0.01326   0.02393   2.05461
    R9        2.64622  -0.00607  -0.00251  -0.01579  -0.01806   2.62816
   R10        3.33251   0.00487   0.00811   0.01480   0.02291   3.35543
   R11        3.40908   0.04998   0.10231   0.14872   0.25103   3.66011
   R12        2.64423  -0.01382  -0.00496  -0.03452  -0.03955   2.60469
   R13        2.63659  -0.02477  -0.01436  -0.06077  -0.07500   2.56159
   R14        2.64266  -0.00163  -0.00689  -0.00162  -0.00871   2.63395
   R15        2.01905   0.01122  -0.00364   0.03328   0.02965   2.04870
   R16        2.63255   0.00059  -0.01933   0.00784  -0.01162   2.62093
   R17        3.32241  -0.00236  -0.00432  -0.00711  -0.01142   3.31099
   R18        2.63421  -0.00440  -0.01728  -0.00615  -0.02335   2.61086
   R19        2.02964   0.00497   0.00939   0.01234   0.02173   2.05138
   R20        2.64813  -0.00623  -0.00016  -0.01657  -0.01653   2.63160
   R21        3.32882   0.00275   0.00357   0.00854   0.01210   3.34092
   R22        3.34919   0.02465   0.02862   0.07716   0.10578   3.45497
   R23        3.34812   0.32780   0.23955   0.25910   0.49865   3.84677
    A1        2.06325   0.01014  -0.03832   0.03270  -0.00548   2.05776
    A2        2.11197  -0.00295   0.02162  -0.01441   0.00689   2.11886
    A3        2.13084  -0.00503   0.04484  -0.02444   0.02056   2.15140
    A4        2.04037   0.00798  -0.06645   0.03885  -0.02745   2.01293
    A5        2.09806  -0.00501   0.00451  -0.01311  -0.00902   2.08904
    A6        2.09270   0.00210  -0.00208   0.00470   0.00283   2.09553
    A7        2.09242   0.00291  -0.00243   0.00841   0.00619   2.09862
    A8        2.08299  -0.00267  -0.01403  -0.00037  -0.01450   2.06849
    A9        2.09905   0.00268   0.00573   0.00633   0.01211   2.11116
   A10        2.10114  -0.00000   0.00830  -0.00596   0.00239   2.10353
   A11        2.10639  -0.01198   0.01476  -0.04377  -0.02870   2.07769
   A12        2.07422  -0.00116  -0.02481  -0.00180  -0.02677   2.04745
   A13        2.10257   0.01314   0.01005   0.04558   0.05547   2.15804
   A14        2.10371   0.01247   0.01146   0.03896   0.05081   2.15452
   A15        2.12328  -0.02835   0.03553  -0.10614  -0.07081   2.05247
   A16        2.05620   0.01587  -0.04699   0.06718   0.02000   2.07620
   A17        2.06926   0.00403  -0.03093   0.01537  -0.01549   2.05377
   A18        2.10524  -0.00801   0.01335  -0.03206  -0.01899   2.08625
   A19        2.09565   0.00370   0.00155   0.01419   0.01587   2.11153
   A20        2.08229   0.00432  -0.01489   0.01788   0.00312   2.08541
   A21        2.10308   0.00437   0.01069   0.01829   0.02866   2.13174
   A22        2.09130  -0.00085  -0.00381  -0.00447  -0.00812   2.08318
   A23        2.08880  -0.00352  -0.00688  -0.01382  -0.02054   2.06827
   A24        2.08151  -0.00238  -0.01585  -0.00352  -0.01942   2.06209
   A25        2.10163   0.00286   0.00890   0.00929   0.01821   2.11985
   A26        2.10004  -0.00048   0.00695  -0.00577   0.00121   2.10125
   A27        2.09697  -0.01002   0.00316  -0.03663  -0.03320   2.06377
   A28        2.07631  -0.00288  -0.02225  -0.00764  -0.03002   2.04629
   A29        2.10991   0.01291   0.01909   0.04427   0.06322   2.17313
   A30        2.11031   0.01201   0.01958   0.03856   0.05844   2.16875
   A31        2.09243  -0.01977  -0.00242  -0.07063  -0.07320   2.01923
   A32        2.08045   0.00775  -0.01716   0.03207   0.01476   2.09521
   A33        2.15357  -0.07808   0.07280  -0.29576  -0.22296   1.93061
   A34        2.26241  -0.00139   0.20668  -0.03424   0.17244   2.43485
    D1        0.00000  -0.00000   0.00000  -0.00000  -0.00000   0.00000
    D2        3.14159   0.00000   0.00000   0.00000   0.00000   3.14159
    D3       -0.00000   0.00000  -0.00000   0.00000  -0.00000  -0.00000
    D4        3.14159  -0.00000   0.00000  -0.00000   0.00000  -3.14159
    D5        0.00000  -0.00000   0.00000  -0.00000  -0.00000   0.00000
    D6        3.14159   0.00000  -0.00000   0.00000   0.00000   3.14159
    D7       -3.14159  -0.00000  -0.00000  -0.00000  -0.00000  -3.14159
    D8        0.00000  -0.00000  -0.00000  -0.00000  -0.00000   0.00000
    D9       -0.00000   0.00000   0.00000   0.00000   0.00000  -0.00000
   D10        3.14159   0.00000   0.00000   0.00000   0.00000   3.14159
   D11        3.14159   0.00000   0.00000   0.00000   0.00000   3.14159
   D12        0.00000  -0.00000   0.00000  -0.00000  -0.00000   0.00000
   D13        0.00000  -0.00000  -0.00000  -0.00000  -0.00000   0.00000
   D14       -3.14159  -0.00000  -0.00000  -0.00000  -0.00000  -3.14159
   D15       -3.14159  -0.00000  -0.00000  -0.00000  -0.00000   3.14159
   D16        0.00000  -0.00000  -0.00000  -0.00000  -0.00000   0.00000
   D17       -0.00000   0.00000   0.00000   0.00000   0.00000   0.00000
   D18        3.14159   0.00000  -0.00000   0.00000   0.00000   3.14159
   D19        3.14159   0.00000   0.00000   0.00000   0.00000   3.14159
   D20       -0.00000   0.00000  -0.00000   0.00000  -0.00000  -0.00000
   D21        0.00001   0.00000  -0.00000   0.00000   0.00000   0.00001
   D22       -3.14159   0.00000  -0.00000   0.00000   0.00000  -3.14158
   D23        0.00000   0.00000   0.00000   0.00000   0.00000   0.00000
   D24       -3.14159  -0.00000  -0.00000  -0.00000  -0.00000  -3.14159
   D25       -0.00000  -0.00000  -0.00000  -0.00000  -0.00000  -0.00000
   D26        3.14159   0.00000   0.00000   0.00000   0.00000   3.14159
   D27       -0.00000  -0.00000   0.00000  -0.00000  -0.00000  -0.00000
   D28        3.14159  -0.00000  -0.00000  -0.00000  -0.00000   3.14159
   D29        3.14159   0.00000   0.00000   0.00000   0.00000   3.14159
   D30       -0.00000   0.00000   0.00000   0.00000   0.00000  -0.00000
   D31       -0.00000   0.00000   0.00000   0.00000   0.00000   0.00000
   D32       -3.14159  -0.00000  -0.00000  -0.00000  -0.00000  -3.14159
   D33        3.14159   0.00000   0.00000   0.00000   0.00000  -3.14159
   D34        0.00000  -0.00000  -0.00000  -0.00000  -0.00000   0.00000
   D35       -0.00000   0.00000  -0.00000  -0.00000  -0.00000  -0.00000
   D36       -3.14159  -0.00000  -0.00000  -0.00000  -0.00000  -3.14159
   D37        3.14159   0.00000   0.00000   0.00000   0.00000   3.14159
   D38        0.00000  -0.00000  -0.00000  -0.00000  -0.00000   0.00000
   D39        0.00000  -0.00000   0.00000  -0.00000   0.00000   0.00000
   D40       -3.14159  -0.00000  -0.00000  -0.00000  -0.00000  -3.14159
   D41        3.14159   0.00000   0.00000   0.00000   0.00000   3.14159
   D42       -0.00000   0.00000  -0.00000   0.00000  -0.00000  -0.00000
   D43        0.00001   0.00000  -0.00000   0.00000  -0.00000   0.00001
   D44       -3.14159   0.00000  -0.00000   0.00000   0.00000  -3.14159
   D45       -0.00001   0.00000  -0.00001  -0.00000  -0.00001  -0.00002
         Item               Value     Threshold  Converged?
 Maximum Force            0.327795     0.000450     NO 
 RMS     Force            0.034903     0.000300     NO 
 Maximum Displacement     0.778002     0.001800     NO 
 RMS     Displacement     0.189335     0.001200     NO 
 Predicted change in Energy=-1.080507D-01
 GradGradGradGradGradGradGradGradGradGradGradGradGradGradGradGradGradGrad

                          Input orientation:                          
 ---------------------------------------------------------------------
 Center     Atomic      Atomic             Coordinates (Angstroms)
 Number     Number       Type             X           Y           Z
 ---------------------------------------------------------------------
      1          6           0        0.529727    1.369163   -0.113994
      2          6           0        1.830495    1.583210   -0.502337
      3          6           0        2.403974    2.853473   -0.452714
      4          6           0        1.656422    3.924197   -0.005348
      5          6           0        0.345720    3.699218    0.384214
      6          6           0       -0.168329    2.409004    0.311264
      7          6           0       -1.280114   -0.921811    0.051986
      8          6           0       -0.665458   -2.081694   -0.368360
      9          6           0       -1.378222   -3.279453   -0.358483
     10          6           0       -2.697682   -3.349400    0.063093
     11          6           0       -3.310188   -2.184584    0.483658
     12          6           0       -2.569712   -1.005400    0.461163
     13          1           0        3.436552    2.998302   -0.765700
     14          1           0        2.082776    4.923255    0.041814
     15          1           0        0.364503   -2.076444   -0.706706
     16          1           0       -3.242399   -4.288376    0.066208
     17         17           0       -3.331471    0.564460    1.006973
     18         17           0       -2.000571    2.097362    0.856375
     19         17           0       -4.992076   -2.301204    1.015879
     20         17           0       -0.586446    5.098870    0.954172
     21         17           0       -0.592370   -4.751097   -0.893785
     22         17           0        2.888394    0.299670   -1.091914
[...]
                 (A) (A) (A) (A) (A) (A) (A) (A) (A) (A) (A) (A)
                 (A) (A) (A) (A) (A) (A) (A) (A) (A) (A) (A) (A)
                 (A) (A) (A) (A) (A) (A) (A) (A) (A) (A) (A) (A)
                 (A) (A) (A) (A) (A) (A) (A) (A) (A) (A) (A) (A)
                 (A) (A) (A) (A) (A) (A) (A) (A) (A) (A) (A) (A)
                 (A) (A) (A) (A) (A) (A) (A) (A) (A) (A) (A) (A)
                 (A) (A) (A) (A) (A) (A) (A) (A) (A) (A) (A) (A)
                 (A) (A) (A) (A) (A) (A) (A) (A) (A) (A) (A) (A)
                 (A) (A) (A) (A) (A) (A) (A) (A) (A) (A) (A) (A)
                 (A) (A) (A) (A) (A) (A) (A) (A) (A) (A) (A) (A)
                 (A) (A) (A) (A) (A) (A) (A) (A) (A) (A) (A) (A)
                 (A) (A) (A) (A) (A) (A) (A) (A) (A) (A) (A) (A)
                 (A) (A) (A) (A) (A) (A) (A) (A) (A) (A) (A) (A)
                 (A) (A) (A) (A) (A) (A) (A) (A) (A) (A) (A) (A)
                 (A) (A) (A) (A) (A) (A) (A) (A) (A) (A) (A) (A)
                 (A) (A) (A) (A) (A) (A) (A) (A) (A) (A) (A) (A)
                 (A) (A) (A) (A) (A) (A) (A) (A) (A) (A) (A) (A)
                 (A) (A) (A) (A) (A) (A) (A) (A) (A) (A) (A) (A)
                 (A) (A) (A) (A) (A) (A) (A) (A) (A) (A) (A) (A)
                 (A) (A) (A) (A) (A) (A) (A) (A) (A) (A) (A) (A)
                 (A) (A) (A) (A) (A) (A) (A) (A) (A) (A) (A) (A)
                 (A) (A) (A) (A) (A) (A) (A) (A) (A) (A) (A) (A)
                 (A) (A) (A) (A) (A) (A) (A) (A) (A) (A) (A) (A)
                 (A) (A) (A) (A) (A) (A) (A) (A) (A) (A) (A) (A)
                 (A) (A) (A) (A) (A) (A) (A) (A) (A) (A) (A) (A)
                 (A) (A) (A) (A) (A) (A) (A) (A) (A) (A) (A) (A)
                 (A) (A) (A) (A) (A) (A) (A) (A) (A) (A) (A) (A)
                 (A) (A)
 The electronic state is 1-A.
 Alpha  occ. eigenvalues -- -101.57692-101.57577-101.57491-101.57490-101.57419
 Alpha  occ. eigenvalues -- -101.57310 -10.27721 -10.27280 -10.27108 -10.27091
 Alpha  occ. eigenvalues --  -10.27064 -10.26632 -10.23982 -10.23605 -10.22093
 Alpha  occ. eigenvalues --  -10.21974 -10.21783 -10.21646  -9.49166  -9.49035
 Alpha  occ. eigenvalues --   -9.48960  -9.48950  -9.48891  -9.48764  -7.25653
 Alpha  occ. eigenvalues --   -7.25522  -7.25438  -7.25432  -7.25376  -7.25237
 Alpha  occ. eigenvalues --   -7.24649  -7.24575  -7.24513  -7.24456  -7.24440
 Alpha  occ. eigenvalues --   -7.24428  -7.24391  -7.24370  -7.24369  -7.24308
 Alpha  occ. eigenvalues --   -7.24240  -7.24205  -0.95515  -0.94057  -0.90716
 Alpha  occ. eigenvalues --   -0.90322  -0.88642  -0.87692  -0.84767  -0.84378
 Alpha  occ. eigenvalues --   -0.80366  -0.76525  -0.74776  -0.74387  -0.67895
 Alpha  occ. eigenvalues --   -0.63508  -0.62791  -0.61672  -0.54922  -0.53518
 Alpha  occ. eigenvalues --   -0.53462  -0.53315  -0.49985  -0.48117  -0.46793
 Alpha  occ. eigenvalues --   -0.46533  -0.46400  -0.44804  -0.44681  -0.43093
 Alpha  occ. eigenvalues --   -0.41503  -0.41344  -0.40614  -0.39747  -0.38995
 Alpha  occ. eigenvalues --   -0.36894  -0.36515  -0.35159  -0.34722  -0.33994
 Alpha  occ. eigenvalues --   -0.33616  -0.33542  -0.33289  -0.32635  -0.32486
 Alpha  occ. eigenvalues --   -0.28606  -0.28259  -0.26658  -0.26409
 Alpha virt. eigenvalues --   -0.05946  -0.05832  -0.05613  -0.04750  -0.03660
 Alpha virt. eigenvalues --   -0.02304  -0.00648  -0.00039   0.00344   0.00871
 Alpha virt. eigenvalues --    0.01982   0.02229   0.02335   0.02531   0.03356
 Alpha virt. eigenvalues --    0.04230   0.04957   0.05066   0.05296   0.06021
 Alpha virt. eigenvalues --    0.06168   0.06325   0.06800   0.07613   0.08185
 Alpha virt. eigenvalues --    0.08442   0.08772   0.09289   0.09354   0.09813
 Alpha virt. eigenvalues --    0.10332   0.10510   0.10803   0.11213   0.11347
 Alpha virt. eigenvalues --    0.11911   0.12158   0.12496   0.12824   0.13164
 Alpha virt. eigenvalues --    0.13581   0.14003   0.14310   0.14520   0.14861
 Alpha virt. eigenvalues --    0.15177   0.15418   0.16089   0.16580   0.16976
 Alpha virt. eigenvalues --    0.17287   0.17924   0.18035   0.18506   0.18878
 Alpha virt. eigenvalues --    0.19004   0.19660   0.19700   0.19964   0.20773
 Alpha virt. eigenvalues --    0.20940   0.21241   0.21603   0.21823   0.22364
 Alpha virt. eigenvalues --    0.22733   0.23151   0.23223   0.23366   0.23983
 Alpha virt. eigenvalues --    0.24053   0.24710   0.25233   0.25530   0.26257
 Alpha virt. eigenvalues --    0.26498   0.26915   0.27122   0.27511   0.28199
 Alpha virt. eigenvalues --    0.28442   0.29071   0.29377   0.29550   0.29929
 Alpha virt. eigenvalues --    0.30614   0.30764   0.31871   0.32309   0.32546
 Alpha virt. eigenvalues --    0.34180   0.34566   0.40510   0.41016   0.41505
 Alpha virt. eigenvalues --    0.42670   0.43734   0.44154   0.44527   0.45363
 Alpha virt. eigenvalues --    0.45694   0.45857   0.46562   0.47054   0.47324
 Alpha virt. eigenvalues --    0.48101   0.48199   0.48403   0.49582   0.50646
 Alpha virt. eigenvalues --    0.50827   0.51029   0.51960   0.52150   0.53990
 Alpha virt. eigenvalues --    0.54666   0.56494   0.56822   0.57387   0.57459
 Alpha virt. eigenvalues --    0.58308   0.58731   0.59227   0.59739   0.59976
 Alpha virt. eigenvalues --    0.60601   0.62409   0.63081   0.63371   0.63673
 Alpha virt. eigenvalues --    0.64534   0.64841   0.65170   0.66821   0.67074
 Alpha virt. eigenvalues --    0.67678   0.68174   0.68836   0.69002   0.69528
 Alpha virt. eigenvalues --    0.69978   0.71906   0.75011   0.78024   0.78286
 Alpha virt. eigenvalues --    0.80543   0.80926   0.81588   0.82680   0.83014
 Alpha virt. eigenvalues --    0.83405   0.83843   0.83978   0.84347   0.84454
 Alpha virt. eigenvalues --    0.84761   0.85383   0.85470   0.85532   0.85917
 Alpha virt. eigenvalues --    0.86208   0.87015   0.87782   0.88506   0.88575
 Alpha virt. eigenvalues --    0.89149   0.90102   0.90423   0.91382   0.92326
 Alpha virt. eigenvalues --    0.92661   0.93620   0.93983   0.94713   0.94906
 Alpha virt. eigenvalues --    0.95376   0.95558   0.96400   0.96759   0.97282
 Alpha virt. eigenvalues --    0.98327   0.98797   0.99596   1.00787   1.01255
 Alpha virt. eigenvalues --    1.02350   1.04289   1.04797   1.05090   1.05900
 Alpha virt. eigenvalues --    1.09988   1.10896   1.14784   1.16492   1.19354
 Alpha virt. eigenvalues --    1.19741   1.21155   1.22177   1.22384   1.24252
 Alpha virt. eigenvalues --    1.24449   1.25573   1.27461   1.28379   1.28493
 Alpha virt. eigenvalues --    1.29669   1.30273   1.30867   1.33902   1.34691
 Alpha virt. eigenvalues --    1.36145   1.37228   1.40742   1.42067   1.46858
 Alpha virt. eigenvalues --    1.47881   1.48095   1.49407   1.55420   1.55939
 Alpha virt. eigenvalues --    1.56830   1.58360   1.59125   1.60332   1.63037
 Alpha virt. eigenvalues --    1.64352   1.64753   1.67333   1.68676   1.71703
 Alpha virt. eigenvalues --    1.73040   1.76311   1.77021   1.79703   1.81239
 Alpha virt. eigenvalues --    1.82074   1.84664   1.85076   1.85680   1.88368
 Alpha virt. eigenvalues --    1.90244   1.92972   1.93085   1.94201   1.94409
 Alpha virt. eigenvalues --    1.97056   1.97755   1.98888   2.01404   2.05908
 Alpha virt. eigenvalues --    2.06708   2.08187   2.09219   2.12735   2.15290
 Alpha virt. eigenvalues --    2.19364   2.23517   2.24648   2.24853   2.25142
 Alpha virt. eigenvalues --    2.26291   2.26980   2.27913   2.30197   2.31371
 Alpha virt. eigenvalues --    2.32470   2.32957   2.34581   2.35384   2.37975
 Alpha virt. eigenvalues --    2.40337   2.42348   2.42967   2.44802   2.46681
 Alpha virt. eigenvalues --    2.48394   2.50378   2.51760   2.52774   2.54753
 Alpha virt. eigenvalues --    2.55251   2.56234   2.58598   2.62103   2.63070
 Alpha virt. eigenvalues --    2.64239   2.67853   2.68465   2.69551   2.69988
 Alpha virt. eigenvalues --    2.70305   2.72099   2.74021   2.74639   2.75151
 Alpha virt. eigenvalues --    2.76724   2.78230   2.81757   2.82895   2.83357
 Alpha virt. eigenvalues --    2.86634   2.89532   2.96244   2.97153   3.07247
 Alpha virt. eigenvalues --    3.07805   3.08738   3.09573   3.12500   3.12748
 Alpha virt. eigenvalues --    3.17430   3.20226   3.23487   3.25794   3.28484
 Alpha virt. eigenvalues --    3.34458   3.37177   3.41594   3.43322   3.56900
 Alpha virt. eigenvalues --    3.62680   3.65169   3.73165   3.80111   3.84445
 Alpha virt. eigenvalues --    3.93935   4.00819   4.04150   4.08877   4.33131
 Alpha virt. eigenvalues --    4.80485   4.81211   9.76789   9.77570   9.78516
 Alpha virt. eigenvalues --    9.80591   9.83971   9.85141  23.35901  23.50491
 Alpha virt. eigenvalues --   23.81994  23.82701  23.87664  23.90113  23.94053
 Alpha virt. eigenvalues --   23.97843  24.00874  24.06347  24.11305  24.13194
 Alpha virt. eigenvalues --   25.78855  25.80587  25.82240  25.85860  25.94224
 Alpha virt. eigenvalues --   25.98428  26.08914  26.13952  26.17088  26.23416
 Alpha virt. eigenvalues --   26.29568  26.33402  26.55301  26.58490  26.65226
 Alpha virt. eigenvalues --   26.68345  26.80376  27.00803 215.75941 215.76917
 Alpha virt. eigenvalues --  215.77948 215.80433 215.84753 215.86039
          Condensed to atoms (all electrons):
               1          2          3          4          5          6
     1  C   29.566095  -5.647156  -6.546718  -1.747128  -5.178420   3.608265
     2  C   -5.647156  27.619928  -5.116118   0.214733   3.160624  -4.884439
     3  C   -6.546718  -5.116118  17.605452   3.467070  -0.518516   2.761426
     4  C   -1.747128   0.214733   3.467070  18.362216  -3.093745 -10.342517
     5  C   -5.178420   3.160624  -0.518516  -3.093745  22.003586  -3.920933
     6  C    3.608265  -4.884439   2.761426 -10.342517  -3.920933  29.011406
     7  C    7.311340  -2.503193  -3.929974  -1.053478  -4.472056  -0.868921
     8  C  -13.380008  -1.244443   0.556869   0.283584  -1.276493  -1.819128
     9  C    6.837820  -0.590320  -0.775783  -0.244161   0.712999  -0.045150
    10  C   -3.023702   1.680488   0.626490   0.087483  -0.003769   1.100958
    11  C   -3.245329  -0.878767   0.067176   0.111689  -0.189708  -1.372714
    12  C   -2.151377  -4.855400  -1.324926   0.343073  -2.573376  -3.520324
    13  H    0.049275   0.053246   0.317323  -0.021023  -0.035466  -0.015357
    14  H    0.030544  -0.001739  -0.081382   0.330724   0.011500   0.050937
    15  H    0.169745   0.063379   0.019212   0.003603   0.015282   0.085575
    16  H    0.013093  -0.000182  -0.000086  -0.000008   0.000177   0.000945
    17  Cl  -0.800405  -0.137608  -0.244724  -0.237729   0.015789  -0.309807
    18  Cl   0.171023  -0.157811   0.222714   0.982186   0.363675  -2.740982
    19  Cl  -0.005399  -0.048268  -0.009115   0.001348  -0.000643  -0.040911
    20  Cl  -0.616601   0.064300   0.135070  -0.552286  -0.519829   1.182058
    21  Cl  -0.215515  -0.024852   0.001993   0.001691  -0.001306  -0.046632
    22  Cl   0.980290  -0.710500  -0.876669  -0.320360   0.219556  -0.410831
               7          8          9         10         11         12
     1  C    7.311340 -13.380008   6.837820  -3.023702  -3.245329  -2.151377
     2  C   -2.503193  -1.244443  -0.590320   1.680488  -0.878767  -4.855400
     3  C   -3.929974   0.556869  -0.775783   0.626490   0.067176  -1.324926
     4  C   -1.053478   0.283584  -0.244161   0.087483   0.111689   0.343073
     5  C   -4.472056  -1.276493   0.712999  -0.003769  -0.189708  -2.573376
     6  C   -0.868921  -1.819128  -0.045150   1.100958  -1.372714  -3.520324
     7  C   26.109113  -5.324248  -7.076774  -0.740970  -1.519576   2.245132
     8  C   -5.324248  42.612831 -12.737305  -3.062233  -4.676962   5.776477
     9  C   -7.076774 -12.737305  27.481722  -2.983964  -2.080026  -2.895951
    10  C   -0.740970  -3.062233  -2.983964  32.366946  -5.236192 -13.387746
    11  C   -1.519576  -4.676962  -2.080026  -5.236192  21.673691   2.352488
    12  C    2.245132   5.776477  -2.895951 -13.387746   2.352488  27.280356
    13  H    0.009651  -0.002067  -0.000300   0.000012  -0.000408   0.002186
    14  H    0.008793  -0.001012  -0.000185  -0.000016   0.000080   0.001608
    15  H    0.014976   0.041747   0.069705   0.049682  -0.012932  -0.142816
    16  H    0.055357  -0.031703   0.009569   0.188563   0.058745   0.052956
    17  Cl  -0.636816   0.598485   0.032412   1.003630   0.717855  -1.595592
    18  Cl  -0.277747  -0.352795   0.470904  -0.355849   0.038099   0.192792
    19  Cl  -0.381645   0.127111  -0.072484  -0.443828  -0.595060   0.950502
    20  Cl  -0.171554  -0.019363   0.026337  -0.000463  -0.008690  -0.088423
    21  Cl  -0.258268   1.209403  -1.404931  -0.471590   0.150666   0.276989
    22  Cl   0.212312  -0.657671   0.691731  -0.402992  -0.105967   0.228969
              13         14         15         16         17         18
     1  C    0.049275   0.030544   0.169745   0.013093  -0.800405   0.171023
     2  C    0.053246  -0.001739   0.063379  -0.000182  -0.137608  -0.157811
     3  C    0.317323  -0.081382   0.019212  -0.000086  -0.244724   0.222714
     4  C   -0.021023   0.330724   0.003603  -0.000008  -0.237729   0.982186
     5  C   -0.035466   0.011500   0.015282   0.000177   0.015789   0.363675
     6  C   -0.015357   0.050937   0.085575   0.000945  -0.309807  -2.740982
     7  C    0.009651   0.008793   0.014976   0.055357  -0.636816  -0.277747
     8  C   -0.002067  -0.001012   0.041747  -0.031703   0.598485  -0.352795
     9  C   -0.000300  -0.000185   0.069705   0.009569   0.032412   0.470904
    10  C    0.000012  -0.000016   0.049682   0.188563   1.003630  -0.355849
    11  C   -0.000408   0.000080  -0.012932   0.058745   0.717855   0.038099
    12  C    0.002186   0.001608  -0.142816   0.052956  -1.595592   0.192792
    13  H    0.503035  -0.007532   0.000004   0.000000  -0.000789   0.000792
    14  H   -0.007532   0.500476  -0.000004  -0.000000  -0.000182  -0.001601
    15  H    0.000004  -0.000004   0.513653  -0.000227  -0.004864  -0.008083
    16  H    0.000000  -0.000000  -0.000227   0.489894  -0.001214  -0.000087
    17  Cl  -0.000789  -0.000182  -0.004864  -0.001214  18.084230   0.126910
    18  Cl   0.000792  -0.001601  -0.008083  -0.000087   0.126910  18.097579
    19  Cl  -0.000003  -0.000000   0.000119  -0.004210  -0.275340   0.000245
    20  Cl  -0.000414  -0.001689   0.000544   0.000000  -0.003153  -0.249339
    21  Cl  -0.000010  -0.000000  -0.018720  -0.005328  -0.007915  -0.004386
    22  Cl  -0.009117   0.000559  -0.006068   0.000022   0.115109  -0.071423
              19         20         21         22
     1  C   -0.005399  -0.616601  -0.215515   0.980290
     2  C   -0.048268   0.064300  -0.024852  -0.710500
     3  C   -0.009115   0.135070   0.001993  -0.876669
     4  C    0.001348  -0.552286   0.001691  -0.320360
     5  C   -0.000643  -0.519829  -0.001306   0.219556
     6  C   -0.040911   1.182058  -0.046632  -0.410831
     7  C   -0.381645  -0.171554  -0.258268   0.212312
     8  C    0.127111  -0.019363   1.209403  -0.657671
     9  C   -0.072484   0.026337  -1.404931   0.691731
    10  C   -0.443828  -0.000463  -0.471590  -0.402992
    11  C   -0.595060  -0.008690   0.150666  -0.105967
    12  C    0.950502  -0.088423   0.276989   0.228969
    13  H   -0.000003  -0.000414  -0.000010  -0.009117
    14  H   -0.000000  -0.001689  -0.000000   0.000559
    15  H    0.000119   0.000544  -0.018720  -0.006068
    16  H   -0.004210   0.000000  -0.005328   0.000022
    17  Cl  -0.275340  -0.003153  -0.007915   0.115109
    18  Cl   0.000245  -0.249339  -0.004386  -0.071423
    19  Cl  17.333734   0.000031  -0.011112  -0.000568
    20  Cl   0.000031  17.358665   0.000124  -0.006036
    21  Cl  -0.011112   0.000124  17.397095  -0.004057
    22  Cl  -0.000568  -0.006036  -0.004057  17.712459
 Mulliken charges:
               1
     1  C   -0.179730
     2  C   -0.055901
     3  C   -0.356786
     4  C   -0.576965
     5  C    1.281071
     6  C   -1.462924
     7  C   -0.751453
     8  C   -0.621074
     9  C    0.574136
    10  C   -0.990939
    11  C    0.751840
    12  C   -1.167596
    13  H    0.156961
    14  H    0.160120
    15  H    0.146488
    16  H    0.173725
    17  Cl   0.561719
    18  Cl   0.553184
    19  Cl   0.475495
    20  Cl   0.470712
    21  Cl   0.436662
    22  Cl   0.421254
 Sum of Mulliken charges =  -0.00000
 Mulliken charges with hydrogens summed into heavy atoms:
               1
     1  C   -0.179730
     2  C   -0.055901
     3  C   -0.199825
     4  C   -0.416845
     5  C    1.281071
     6  C   -1.462924
     7  C   -0.751453
     8  C   -0.474586
     9  C    0.574136
    10  C   -0.817213
    11  C    0.751840
    12  C   -1.167596
    17  Cl   0.561719
    18  Cl   0.553184
    19  Cl   0.475495
    20  Cl   0.470712
    21  Cl   0.436662
    22  Cl   0.421254
 Electronic spatial extent (au):  <R**2>=           7438.3409
 Charge=             -0.0000 electrons
 Dipole moment (field-independent basis, Debye):
    X=             -1.2585    Y=              0.6099    Z=             -1.3996  Tot=              1.9785
 Quadrupole moment (field-independent basis, Debye-Ang):
   XX=           -136.5778   YY=           -147.9870   ZZ=           -144.5783
   XY=              0.8417   XZ=              7.8979   YZ=              0.0478
 Traceless Quadrupole moment (field-independent basis, Debye-Ang):
   XX=              6.4699   YY=             -4.9393   ZZ=             -1.5306
   XY=              0.8417   XZ=              7.8979   YZ=              0.0478
 Octapole moment (field-independent basis, Debye-Ang**2):
  XXX=             -9.9844  YYY=             -9.1512  ZZZ=              7.0969  XYY=             -3.3575
  XXY=             -8.1000  XXZ=            -21.4391  XZZ=            -10.9907  YZZ=             -3.7470
  YYZ=              3.3349  XYZ=             -0.2324
 Hexadecapole moment (field-independent basis, Debye-Ang**3):
 XXXX=          -5727.1433 YYYY=          -1968.5254 ZZZZ=          -1788.4833 XXXY=              2.3848
 XXXZ=             97.0695 YYYX=            -11.2612 YYYZ=            -13.4371 ZZZX=            -14.0940
 ZZZY=             15.5045 XXYY=          -1362.7990 XXZZ=          -1246.2507 YYZZ=           -656.2460
 XXYZ=              8.0976 YYXZ=            -11.0871 ZZXY=             -2.3337
 N-N= 2.060337015901D+03 E-N=-1.174984482389D+04  KE= 3.212691085090D+03
 1\1\GINC-CN157\FOpt\RB3LYP\6-311+G(d,p)\C12H4Cl6\20CY91R06\03-Apr-2022
 \0\\# opt b3lyp/6-311+g(d,p) scf=xqc\\Title Card Required\\0,1\C,-0.14
 41747712,0.9235197359,-0.0570573587\C,0.6055906086,1.246836603,-1.1934
 920211\C,1.2920163253,2.4517622305,-1.2981949401\C,1.2385276007,3.3618
 028677,-0.2528909335\C,0.5035239686,3.0724424785,0.8930742604\C,-0.184
 6750469,1.8587124712,0.9917395458\C,-0.8581848081,-0.3836607923,0.0529
 179229\C,-0.1840261995,-1.4780009139,0.5952138633\C,-0.827998302,-2.70
 3482517,0.7010666597\C,-2.1393425286,-2.8652670596,0.2754026964\C,-2.8
 141422371,-1.7750466935,-0.2665322492\C,-2.1821992338,-0.5316169548,-0
 .3819986971\H,1.8617205708,2.6734003266,-2.1907104921\H,1.7674441189,4
 .3035817474,-0.319746451\H,0.8382590765,-1.3675307399,0.9315764661\H,-
 2.6373102377,-3.8211154994,0.3596334845\Cl,-3.0238997296,0.835137749,-
 1.0603606402\Cl,-1.1126595854,1.4894256221,2.4210321403\Cl,-4.46098326
 5,-2.0066282193,-0.7943597602\Cl,0.468615841,4.2477420871,2.1826597521
 \Cl,0.0263167854,-4.0732789195,1.3836013225\Cl,0.6911031593,0.12198577
 01,-2.5351177305\\Version=EM64L-G16RevB.01\State=1-A\HF=-3221.1342021\
 RMSD=4.647e-09\RMSF=1.712e-05\Dipole=0.6772582,0.2755587,-0.2670401\Qu
 adrupole=0.7324329,2.3648415,-3.0972744,5.2317242,-2.4908679,-3.520678
 3\PG=C01 [X(C12H4Cl6)]\\@


 CONFIDENCE IS WHAT YOU FEEL BEFORE YOU FULLY
 COMPREHEND THE SITUATION.
 Job cpu time:       1 days 17 hours 30 minutes 39.7 seconds.
 Elapsed time:       0 days 10 hours 23 minutes 23.0 seconds.
 File lengths (MBytes):  RWF=    147 Int=      0 D2E=      0 Chk=     23 Scr=      1
 Normal termination of Gaussian 16 at Sun Apr  3 21:05:13 2022.
