 Entering Gaussian System, Link 0=g16
 Input=2,2prime,4,4prime-Tetrachlorobiphenyl.gjf
 Output=2,2prime,4,4prime-Tetrachlorobiphenyl.log
 Initial command:
 /usr/local/g16/l1.exe "/scratch/pkc/Gau-35559.inp" -scrdir="/scratch/pkc/"
 Entering Link 1 = /usr/local/g16/l1.exe PID=     35560.
  
 Copyright (c) 1988-2017, Gaussian, Inc.  All Rights Reserved.
  
 This is part of the Gaussian(R) 16 program.  It is based on
 the Gaussian(R) 09 system (copyright 2009, Gaussian, Inc.),
 the Gaussian(R) 03 system (copyright 2003, Gaussian, Inc.),
 the Gaussian(R) 98 system (copyright 1998, Gaussian, Inc.),
 the Gaussian(R) 94 system (copyright 1995, Gaussian, Inc.),
 the Gaussian 92(TM) system (copyright 1992, Gaussian, Inc.),
 the Gaussian 90(TM) system (copyright 1990, Gaussian, Inc.),
 the Gaussian 88(TM) system (copyright 1988, Gaussian, Inc.),
 the Gaussian 86(TM) system (copyright 1986, Carnegie Mellon
 University), and the Gaussian 82(TM) system (copyright 1983,
 Carnegie Mellon University). Gaussian is a federally registered
 trademark of Gaussian, Inc.
  
 This software contains proprietary and confidential information,
 including trade secrets, belonging to Gaussian, Inc.
  
 This software is provided under written license and may be
 used, copied, transmitted, or stored only in accord with that
 written license.
  
 The following legend is applicable only to US Government
 contracts under FAR:
  
                    RESTRICTED RIGHTS LEGEND
  
 Use, reproduction and disclosure by the US Government is
 subject to restrictions as set forth in subparagraphs (a)
 and (c) of the Commercial Computer Software - Restricted
 Rights clause in FAR 52.227-19.
  
 Gaussian, Inc.
 340 Quinnipiac St., Bldg. 40, Wallingford CT 06492
  
  
 ---------------------------------------------------------------
 Warning -- This program may not be used in any manner that
 competes with the business of Gaussian, Inc. or will provide
 assistance to any competitor of Gaussian, Inc.  The licensee
 of this program is prohibited from giving any competitor of
 Gaussian, Inc. access to this program.  By using this program,
 the user acknowledges that Gaussian, Inc. is engaged in the
 business of creating and licensing software in the field of
 computational chemistry and represents and warrants to the
 licensee that it is not a competitor of Gaussian, Inc. and that
 it will not use this program in any manner prohibited above.
 ---------------------------------------------------------------
  

 Cite this work as:
 Gaussian 16, Revision B.01,
 M. J. Frisch, G. W. Trucks, H. B. Schlegel, G. E. Scuseria, 
 M. A. Robb, J. R. Cheeseman, G. Scalmani, V. Barone, 
 G. A. Petersson, H. Nakatsuji, X. Li, M. Caricato, A. V. Marenich, 
 J. Bloino, B. G. Janesko, R. Gomperts, B. Mennucci, H. P. Hratchian, 
 J. V. Ortiz, A. F. Izmaylov, J. L. Sonnenberg, D. Williams-Young, 
 F. Ding, F. Lipparini, F. Egidi, J. Goings, B. Peng, A. Petrone, 
 T. Henderson, D. Ranasinghe, V. G. Zakrzewski, J. Gao, N. Rega, 
 G. Zheng, W. Liang, M. Hada, M. Ehara, K. Toyota, R. Fukuda, 
 J. Hasegawa, M. Ishida, T. Nakajima, Y. Honda, O. Kitao, H. Nakai, 
 T. Vreven, K. Throssell, J. A. Montgomery, Jr., J. E. Peralta, 
 F. Ogliaro, M. J. Bearpark, J. J. Heyd, E. N. Brothers, K. N. Kudin, 
 V. N. Staroverov, T. A. Keith, R. Kobayashi, J. Normand, 
 K. Raghavachari, A. P. Rendell, J. C. Burant, S. S. Iyengar, 
 J. Tomasi, M. Cossi, J. M. Millam, M. Klene, C. Adamo, R. Cammi, 
 J. W. Ochterski, R. L. Martin, K. Morokuma, O. Farkas, 
 J. B. Foresman, and D. J. Fox, Gaussian, Inc., Wallingford CT, 2016.
 
 ******************************************
 Gaussian 16:  EM64L-G16RevB.01 20-Dec-2017
                15-Mar-2022 
 ******************************************
 %mem=10GB
 %nprocshared=4
 Will use up to    4 processors via shared memory.
 --------------------------------
 # opt b3lyp/6-311+g(d,p) scf=xqc
 --------------------------------
 1/18=20,19=15,26=3,38=1/1,3;
 2/9=110,12=2,17=6,18=5,40=1/2;
 3/5=4,6=6,7=111,11=2,25=1,30=1,71=1,74=-5/1,2,3;
 4//1;
 5/5=2,8=3,13=1,38=5/2,8;
 6/7=2,8=2,9=2,10=2,28=1/1;
 7//1,2,3,16;
 1/18=20,19=15,26=3/3(2);
 2/9=110/2;
 99//99;
 2/9=110/2;
 3/5=4,6=6,7=111,11=2,25=1,30=1,71=1,74=-5/1,2,3;
 4/5=5,16=3,69=1/1;
 5/5=2,8=3,13=1,38=5/2,8;
 7//1,2,3,16;
 1/18=20,19=15,26=3/3(-5);
 2/9=110/2;
 6/7=2,8=2,9=2,10=2,19=2,28=1/1;
 99/9=1/99;
 -------------------
 Title Card Required
 -------------------
 Symbolic Z-matrix:
 Charge =  0 Multiplicity = 1
 C                     0.03438  -0.88374  -0.00285 
 C                     1.36676  -0.85385  -0.4362 
 C                     2.07466   0.3556   -0.44227 
 C                     1.45017   1.53516  -0.015 
 C                     0.11779   1.50528   0.41835 
 C                    -0.5901    0.29583   0.42442 
 C                    -0.74352  -2.21281   0.00382 
 C                    -0.11903  -3.39237  -0.42345 
 C                    -0.82693  -4.60182  -0.41738 
 C                    -2.15931  -4.63171   0.01597 
 C                    -2.78379  -3.45214   0.44325 
 C                    -2.0759   -2.24269   0.43717 
 H                     1.84357  -1.75448  -0.76243 
 H                     3.09196   0.37842  -0.77314 
 H                    -0.35902   2.4059    0.74458 
 H                     0.89827  -3.36955  -0.75432 
 H                    -0.35012  -5.50245  -0.74361 
 H                    -3.8011   -3.47496   0.77412 
 Cl                   -2.86019  -0.76129   0.97378 
 Cl                   -2.26343   0.25829   0.96866 
 Cl                   -3.04834  -6.15064   0.0236 
 Cl                    2.33921   3.0541   -0.02262 
 

 GradGradGradGradGradGradGradGradGradGradGradGradGradGradGradGradGradGrad
 Berny optimization.
 Initialization pass.
                           ----------------------------
                           !    Initial Parameters    !
                           ! (Angstroms and Degrees)  !
 --------------------------                            --------------------------
 ! Name  Definition              Value          Derivative Info.                !
 --------------------------------------------------------------------------------
 ! R1    R(1,2)                  1.4014         estimate D2E/DX2                !
 ! R2    R(1,6)                  1.4014         estimate D2E/DX2                !
 ! R3    R(1,7)                  1.54           estimate D2E/DX2                !
 ! R4    R(2,3)                  1.4014         estimate D2E/DX2                !
 ! R5    R(2,13)                 1.07           estimate D2E/DX2                !
 ! R6    R(3,4)                  1.4014         estimate D2E/DX2                !
 ! R7    R(3,14)                 1.07           estimate D2E/DX2                !
 ! R8    R(4,5)                  1.4014         estimate D2E/DX2                !
 ! R9    R(4,22)                 1.76           estimate D2E/DX2                !
 ! R10   R(5,6)                  1.4014         estimate D2E/DX2                !
 ! R11   R(5,15)                 1.07           estimate D2E/DX2                !
 ! R12   R(6,20)                 1.76           estimate D2E/DX2                !
 ! R13   R(7,8)                  1.4014         estimate D2E/DX2                !
 ! R14   R(7,12)                 1.4014         estimate D2E/DX2                !
 ! R15   R(8,9)                  1.4014         estimate D2E/DX2                !
 ! R16   R(8,16)                 1.07           estimate D2E/DX2                !
 ! R17   R(9,10)                 1.4014         estimate D2E/DX2                !
 ! R18   R(9,17)                 1.07           estimate D2E/DX2                !
 ! R19   R(10,11)                1.4014         estimate D2E/DX2                !
 ! R20   R(10,21)                1.76           estimate D2E/DX2                !
 ! R21   R(11,12)                1.4014         estimate D2E/DX2                !
 ! R22   R(11,18)                1.07           estimate D2E/DX2                !
 ! R23   R(12,19)                1.76           estimate D2E/DX2                !
 ! R24   R(19,20)                1.1814         estimate D2E/DX2                !
 ! A1    A(2,1,6)              120.0            estimate D2E/DX2                !
 ! A2    A(2,1,7)              120.0            estimate D2E/DX2                !
 ! A3    A(6,1,7)              120.0            estimate D2E/DX2                !
 ! A4    A(1,2,3)              120.0            estimate D2E/DX2                !
 ! A5    A(1,2,13)             120.0            estimate D2E/DX2                !
 ! A6    A(3,2,13)             120.0            estimate D2E/DX2                !
 ! A7    A(2,3,4)              120.0            estimate D2E/DX2                !
 ! A8    A(2,3,14)             120.0            estimate D2E/DX2                !
 ! A9    A(4,3,14)             120.0            estimate D2E/DX2                !
 ! A10   A(3,4,5)              120.0            estimate D2E/DX2                !
 ! A11   A(3,4,22)             120.0            estimate D2E/DX2                !
 ! A12   A(5,4,22)             120.0            estimate D2E/DX2                !
 ! A13   A(4,5,6)              120.0            estimate D2E/DX2                !
 ! A14   A(4,5,15)             120.0            estimate D2E/DX2                !
 ! A15   A(6,5,15)             120.0            estimate D2E/DX2                !
 ! A16   A(1,6,5)              120.0            estimate D2E/DX2                !
 ! A17   A(1,6,20)             120.0            estimate D2E/DX2                !
 ! A18   A(5,6,20)             120.0            estimate D2E/DX2                !
 ! A19   A(1,7,8)              120.0            estimate D2E/DX2                !
 ! A20   A(1,7,12)             120.0            estimate D2E/DX2                !
 ! A21   A(8,7,12)             120.0            estimate D2E/DX2                !
 ! A22   A(7,8,9)              120.0            estimate D2E/DX2                !
 ! A23   A(7,8,16)             120.0            estimate D2E/DX2                !
 ! A24   A(9,8,16)             120.0            estimate D2E/DX2                !
 ! A25   A(8,9,10)             120.0            estimate D2E/DX2                !
 ! A26   A(8,9,17)             120.0            estimate D2E/DX2                !
 ! A27   A(10,9,17)            120.0            estimate D2E/DX2                !
 ! A28   A(9,10,11)            120.0            estimate D2E/DX2                !
 ! A29   A(9,10,21)            120.0            estimate D2E/DX2                !
 ! A30   A(11,10,21)           120.0            estimate D2E/DX2                !
 ! A31   A(10,11,12)           120.0            estimate D2E/DX2                !
 ! A32   A(10,11,18)           120.0            estimate D2E/DX2                !
 ! A33   A(12,11,18)           120.0            estimate D2E/DX2                !
 ! A34   A(7,12,11)            120.0            estimate D2E/DX2                !
 ! A35   A(7,12,19)            120.0            estimate D2E/DX2                !
 ! A36   A(11,12,19)           120.0            estimate D2E/DX2                !
 ! A37   A(12,19,20)           120.0            estimate D2E/DX2                !
 ! A38   A(6,20,19)            120.0            estimate D2E/DX2                !
 ! D1    D(6,1,2,3)              0.0001         estimate D2E/DX2                !
 ! D2    D(6,1,2,13)           180.0            estimate D2E/DX2                !
 ! D3    D(7,1,2,3)           -180.0            estimate D2E/DX2                !
 ! D4    D(7,1,2,13)            -0.0001         estimate D2E/DX2                !
 ! D5    D(2,1,6,5)             -0.0001         estimate D2E/DX2                !
 ! D6    D(2,1,6,20)           180.0            estimate D2E/DX2                !
 ! D7    D(7,1,6,5)            180.0            estimate D2E/DX2                !
 ! D8    D(7,1,6,20)             0.0            estimate D2E/DX2                !
 ! D9    D(2,1,7,8)             -0.0001         estimate D2E/DX2                !
 ! D10   D(2,1,7,12)           179.9998         estimate D2E/DX2                !
 ! D11   D(6,1,7,8)            179.9999         estimate D2E/DX2                !
 ! D12   D(6,1,7,12)            -0.0002         estimate D2E/DX2                !
 ! D13   D(1,2,3,4)              0.0            estimate D2E/DX2                !
 ! D14   D(1,2,3,14)           180.0            estimate D2E/DX2                !
 ! D15   D(13,2,3,4)          -179.9999         estimate D2E/DX2                !
 ! D16   D(13,2,3,14)            0.0001         estimate D2E/DX2                !
 ! D17   D(2,3,4,5)             -0.0001         estimate D2E/DX2                !
 ! D18   D(2,3,4,22)           180.0            estimate D2E/DX2                !
 ! D19   D(14,3,4,5)           179.9999         estimate D2E/DX2                !
 ! D20   D(14,3,4,22)            0.0            estimate D2E/DX2                !
 ! D21   D(3,4,5,6)              0.0001         estimate D2E/DX2                !
 ! D22   D(3,4,5,15)          -179.9999         estimate D2E/DX2                !
 ! D23   D(22,4,5,6)          -180.0            estimate D2E/DX2                !
 ! D24   D(22,4,5,15)            0.0            estimate D2E/DX2                !
 ! D25   D(4,5,6,1)              0.0            estimate D2E/DX2                !
 ! D26   D(4,5,6,20)           179.9999         estimate D2E/DX2                !
 ! D27   D(15,5,6,1)           180.0            estimate D2E/DX2                !
 ! D28   D(15,5,6,20)           -0.0001         estimate D2E/DX2                !
 ! D29   D(1,6,20,19)            0.0006         estimate D2E/DX2                !
 ! D30   D(5,6,20,19)         -179.9994         estimate D2E/DX2                !
 ! D31   D(1,7,8,9)            179.9999         estimate D2E/DX2                !
 ! D32   D(1,7,8,16)             0.0001         estimate D2E/DX2                !
 ! D33   D(12,7,8,9)             0.0001         estimate D2E/DX2                !
 ! D34   D(12,7,8,16)         -179.9998         estimate D2E/DX2                !
 ! D35   D(1,7,12,11)         -179.9999         estimate D2E/DX2                !
 ! D36   D(1,7,12,19)            0.0            estimate D2E/DX2                !
 ! D37   D(8,7,12,11)           -0.0001         estimate D2E/DX2                !
 ! D38   D(8,7,12,19)          179.9999         estimate D2E/DX2                !
 ! D39   D(7,8,9,10)             0.0            estimate D2E/DX2                !
 ! D40   D(7,8,9,17)           180.0            estimate D2E/DX2                !
 ! D41   D(16,8,9,10)          179.9998         estimate D2E/DX2                !
 ! D42   D(16,8,9,17)           -0.0002         estimate D2E/DX2                !
 ! D43   D(8,9,10,11)            0.0            estimate D2E/DX2                !
 ! D44   D(8,9,10,21)         -179.9999         estimate D2E/DX2                !
 ! D45   D(17,9,10,11)         180.0            estimate D2E/DX2                !
 ! D46   D(17,9,10,21)           0.0001         estimate D2E/DX2                !
 ! D47   D(9,10,11,12)           0.0            estimate D2E/DX2                !
 ! D48   D(9,10,11,18)        -179.9998         estimate D2E/DX2                !
 ! D49   D(21,10,11,12)        179.9999         estimate D2E/DX2                !
 ! D50   D(21,10,11,18)          0.0001         estimate D2E/DX2                !
 ! D51   D(10,11,12,7)           0.0            estimate D2E/DX2                !
 ! D52   D(10,11,12,19)       -179.9999         estimate D2E/DX2                !
 ! D53   D(18,11,12,7)         179.9999         estimate D2E/DX2                !
 ! D54   D(18,11,12,19)         -0.0001         estimate D2E/DX2                !
 ! D55   D(7,12,19,20)           0.0005         estimate D2E/DX2                !
 ! D56   D(11,12,19,20)       -179.9995         estimate D2E/DX2                !
 ! D57   D(12,19,20,6)          -0.0008         estimate D2E/DX2                !
 --------------------------------------------------------------------------------
 Trust Radius=3.00D-01 FncErr=1.00D-07 GrdErr=1.00D-06 EigMax=2.50D+02 EigMin=1.00D-04
 Number of steps in this run=    129 maximum allowed number of steps=    132.
 GradGradGradGradGradGradGradGradGradGradGradGradGradGradGradGradGradGrad

                          Input orientation:                          
 ---------------------------------------------------------------------
 Center     Atomic      Atomic             Coordinates (Angstroms)
 Number     Number       Type             X           Y           Z
 ---------------------------------------------------------------------
      1          6           0        0.034383   -0.883738   -0.002851
      2          6           0        1.366764   -0.853852   -0.436198
      3          6           0        2.074658    0.355599   -0.442270
      4          6           0        1.450171    1.535164   -0.014995
      5          6           0        0.117789    1.505279    0.418349
      6          6           0       -0.590105    0.295828    0.424422
      7          6           0       -0.743522   -2.212805    0.003823
      8          6           0       -0.119034   -3.392370   -0.423452
      9          6           0       -0.826927   -4.601822   -0.417378
     10          6           0       -2.159307   -4.631708    0.015972
     11          6           0       -2.783794   -3.452143    0.443247
     12          6           0       -2.075901   -2.242692    0.437173
     13          1           0        1.843575   -1.754476   -0.762430
     14          1           0        3.091961    0.378417   -0.773139
     15          1           0       -0.359022    2.405903    0.744581
     16          1           0        0.898268   -3.369552   -0.754322
     17          1           0       -0.350117   -5.502446   -0.743612
     18          1           0       -3.801095   -3.474962    0.774122
     19         17           0       -2.860186   -0.761292    0.973785
     20         17           0       -2.263425    0.258294    0.968656
     21         17           0       -3.048340   -6.150643    0.023603
     22         17           0        2.339205    3.054098   -0.022621
 ---------------------------------------------------------------------
                    Distance matrix (angstroms):
                    1          2          3          4          5
     1  C    0.000000
     2  C    1.401400   0.000000
     3  C    2.427296   1.401400   0.000000
     4  C    2.802800   2.427296   1.401400   0.000000
     5  C    2.427296   2.802800   2.427296   1.401400   0.000000
     6  C    1.401400   2.427296   2.802800   2.427296   1.401400
     7  C    1.540000   2.548270   3.838989   4.342800   3.838989
     8  C    2.548270   2.941400   4.342800   5.187469   4.975106
     9  C    3.838989   4.342800   5.744200   6.558176   6.235992
    10  C    4.342800   5.187469   6.558176   7.145600   6.558176
    11  C    3.838989   4.975106   6.235992   6.558176   5.744200
    12  C    2.548270   3.813607   4.975106   5.187469   4.342800
    13  H    2.146700   1.070000   2.146700   3.396345   3.872800
    14  H    3.396345   2.146700   1.070000   2.146700   3.396345
    15  H    3.396345   3.872800   3.396345   2.146700   1.070000
    16  H    2.736837   2.578650   3.918930   4.990735   5.074276
    17  H    4.693509   4.965039   6.347206   7.300676   7.118798
    18  H    4.693509   5.919617   7.118798   7.300676   6.347206
    19  Cl   3.057342   4.456874   5.254079   4.983028   3.783409
    20  Cl   2.743718   4.048303   4.562800   4.048303   2.743718
    21  Cl   6.102800   6.910901   8.294174   8.905600   8.294174
    22  Cl   4.562800   4.048303   2.743718   1.760000   2.743718
                    6          7          8          9         10
     6  C    0.000000
     7  C    2.548270   0.000000
     8  C    3.813607   1.401400   0.000000
     9  C    4.975106   2.427296   1.401400   0.000000
    10  C    5.187469   2.802800   2.427296   1.401400   0.000000
    11  C    4.342800   2.427296   2.802800   2.427296   1.401400
    12  C    2.941400   1.401400   2.427296   2.802800   2.427296
    13  H    3.396345   2.736837   2.578650   3.918930   4.990735
    14  H    3.872800   4.693509   4.965039   6.347206   7.300676
    15  H    2.146700   4.693509   5.919617   7.118798   7.300676
    16  H    4.127917   2.146700   1.070000   2.146700   3.396345
    17  H    5.919617   3.396345   2.146700   1.070000   2.146700
    18  H    4.965039   3.396345   3.872800   3.396345   2.146700
    19  Cl   2.563702   2.743718   4.048303   4.562800   4.048303
    20  Cl   1.760000   3.057342   4.456874   5.254079   4.983028
    21  Cl   6.910901   4.562800   4.048303   2.743718   1.760000
    22  Cl   4.048303   6.102800   6.910901   8.294174   8.905600
                   11         12         13         14         15
    11  C    0.000000
    12  C    1.401400   0.000000
    13  H    5.074276   4.127917   0.000000
    14  H    7.118798   5.919617   2.471400   0.000000
    15  H    6.347206   4.965039   4.942800   4.280590   0.000000
    16  H    3.872800   3.396345   1.871400   4.342800   6.097816
    17  H    3.396345   3.872800   4.342800   6.814200   8.047159
    18  H    1.070000   2.146700   6.097816   8.047159   6.814200
    19  Cl   2.743718   1.760000   5.111382   6.307038   4.042212
    20  Cl   3.783409   2.563702   4.890332   5.632800   2.879094
    21  Cl   2.743718   4.048303   6.623817   8.998151   8.998151
    22  Cl   8.294174   6.910901   4.890332   2.879094   2.879094
                   16         17         18         19         20
    16  H    0.000000
    17  H    2.471400   0.000000
    18  H    4.942800   4.280590   0.000000
    19  Cl   4.890333   5.632800   2.879094   0.000000
    20  Cl   5.111382   6.307038   4.042212   1.181400   0.000000
    21  Cl   4.890332   2.879094   2.879094   5.475705   6.525618
    22  Cl   6.623817   8.998151   8.998151   6.525618   5.475705
                   21         22
    21  Cl   0.000000
    22  Cl  10.665600   0.000000
 Stoichiometry    C12H6Cl4
 Framework group  C1[X(C12H6Cl4)]
 Deg. of freedom    60
 Full point group                 C1      NOp   1
 Largest Abelian subgroup         C1      NOp   1
 Largest concise Abelian subgroup C1      NOp   1
                         Standard orientation:                         
 ---------------------------------------------------------------------
 Center     Atomic      Atomic             Coordinates (Angstroms)
 Number     Number       Type             X           Y           Z
 ---------------------------------------------------------------------
      1          6           0       -0.770000   -0.608263    0.000002
      2          6           0       -1.470700   -1.821911    0.000001
      3          6           0       -2.872100   -1.821911   -0.000000
      4          6           0       -3.572800   -0.608263   -0.000001
      5          6           0       -2.872100    0.605385    0.000002
      6          6           0       -1.470700    0.605385    0.000003
      7          6           0        0.770000   -0.608263    0.000003
      8          6           0        1.470700   -1.821911    0.000004
      9          6           0        2.872100   -1.821911    0.000003
     10          6           0        3.572800   -0.608263    0.000001
     11          6           0        2.872100    0.605385   -0.000001
     12          6           0        1.470700    0.605385   -0.000000
     13          1           0       -0.935700   -2.748558   -0.000000
     14          1           0       -3.407100   -2.748558   -0.000002
     15          1           0       -3.407100    1.532032    0.000003
     16          1           0        0.935700   -2.748558    0.000003
     17          1           0        3.407100   -2.748558    0.000004
     18          1           0        3.407100    1.532032   -0.000005
     19         17           0        0.590700    2.129590   -0.000004
     20         17           0       -0.590700    2.129590    0.000005
     21         17           0        5.332800   -0.608263   -0.000003
     22         17           0       -5.332800   -0.608263   -0.000004
 ---------------------------------------------------------------------
 Rotational constants (GHZ):           0.8827330           0.1753409           0.1462839
 Standard basis: 6-311+G(d,p) (5D, 7F)
 There are   436 symmetry adapted cartesian basis functions of A   symmetry.
 There are   420 symmetry adapted basis functions of A   symmetry.
   420 basis functions,   692 primitive gaussians,   436 cartesian basis functions
    73 alpha electrons       73 beta electrons
       nuclear repulsion energy      1530.3331294030 Hartrees.
 NAtoms=   22 NActive=   22 NUniq=   22 SFac= 1.00D+00 NAtFMM=   60 NAOKFM=F Big=F
 Integral buffers will be    131072 words long.
 Raffenetti 2 integral format.
 Two-electron integral symmetry is turned on.
 One-electron integrals computed using PRISM.
 NBasis=   420 RedAO= T EigKep=  1.07D-06  NBF=   420
 NBsUse=   414 1.00D-06 EigRej=  8.68D-07 NBFU=   414
 ExpMin= 4.38D-02 ExpMax= 1.06D+05 ExpMxC= 3.62D+03 IAcc=3 IRadAn=         5 AccDes= 0.00D+00
 Harris functional with IExCor=  402 and IRadAn=       5 diagonalized for initial guess.
 HarFok:  IExCor=  402 AccDes= 0.00D+00 IRadAn=         5 IDoV= 1 UseB2=F ITyADJ=14
 ICtDFT=  3500011 ScaDFX=  1.000000  1.000000  1.000000  1.000000
 FoFCou: FMM=F IPFlag=           0 FMFlag=      100000 FMFlg1=           0
         NFxFlg=           0 DoJE=T BraDBF=F KetDBF=T FulRan=T
         wScrn=  0.000000 ICntrl=       500 IOpCl=  0 I1Cent=   200000004 NGrid=           0
         NMat0=    1 NMatS0=      1 NMatT0=    0 NMatD0=    1 NMtDS0=    0 NMtDT0=    0
 Petite list used in FoFCou.
 Requested convergence on RMS density matrix=1.00D-08 within  32 cycles.
 Requested convergence on MAX density matrix=1.00D-06.
 Requested convergence on             energy=1.00D-06.
 No special actions if energy rises.
 SCF Done:  E(RB3LYP) =  -2300.28083745     A.U. after   19 cycles
            NFock= 19  Conv=0.34D-08     -V/T= 1.9994
 QCSCF skips out because SCF is already converged.

 **********************************************************************

            Population analysis using the SCF Density.

 **********************************************************************

 Orbital symmetries:
       Occupied  (A) (A) (A) (A) (A) (A) (A) (A) (A) (A) (A) (A)
                 (A) (A) (A) (A) (A) (A) (A) (A) (A) (A) (A) (A)
                 (A) (A) (A) (A) (A) (A) (A) (A) (A) (A) (A) (A)
                 (A) (A) (A) (A) (A) (A) (A) (A) (A) (A) (A) (A)
                 (A) (A) (A) (A) (A) (A) (A) (A) (A) (A) (A) (A)
                 (A) (A) (A) (A) (A) (A) (A) (A) (A) (A) (A) (A)
                 (A)
       Virtual   (A) (A) (A) (A) (A) (A) (A) (A) (A) (A) (A) (A)
                 (A) (A) (A) (A) (A) (A) (A) (A) (A) (A) (A) (A)
                 (A) (A) (A) (A) (A) (A) (A) (A) (A) (A) (A) (A)
                 (A) (A) (A) (A) (A) (A) (A) (A) (A) (A) (A) (A)
                 (A) (A) (A) (A) (A) (A) (A) (A) (A) (A) (A) (A)
                 (A) (A) (A) (A) (A) (A) (A) (A) (A) (A) (A) (A)
                 (A) (A) (A) (A) (A) (A) (A) (A) (A) (A) (A) (A)
                 (A) (A) (A) (A) (A) (A) (A) (A) (A) (A) (A) (A)
                 (A) (A) (A) (A) (A) (A) (A) (A) (A) (A) (A) (A)
                 (A) (A) (A) (A) (A) (A) (A) (A) (A) (A) (A) (A)
                 (A) (A) (A) (A) (A) (A) (A) (A) (A) (A) (A) (A)
                 (A) (A) (A) (A) (A) (A) (A) (A) (A) (A) (A) (A)
                 (A) (A) (A) (A) (A) (A) (A) (A) (A) (A) (A) (A)
                 (A) (A) (A) (A) (A) (A) (A) (A) (A) (A) (A) (A)
                 (A) (A) (A) (A) (A) (A) (A) (A) (A) (A) (A) (A)
                 (A) (A) (A) (A) (A) (A) (A) (A) (A) (A) (A) (A)
                 (A) (A) (A) (A) (A) (A) (A) (A) (A) (A) (A) (A)
                 (A) (A) (A) (A) (A) (A) (A) (A) (A) (A) (A) (A)
                 (A) (A) (A) (A) (A) (A) (A) (A) (A) (A) (A) (A)
                 (A) (A) (A) (A) (A) (A) (A) (A) (A) (A) (A) (A)
                 (A) (A) (A) (A) (A) (A) (A) (A) (A) (A) (A) (A)
                 (A) (A) (A) (A) (A) (A) (A) (A) (A) (A) (A) (A)
                 (A) (A) (A) (A) (A) (A) (A) (A) (A) (A) (A) (A)
                 (A) (A) (A) (A) (A) (A) (A) (A) (A) (A) (A) (A)
                 (A) (A) (A) (A) (A) (A) (A) (A) (A) (A) (A) (A)
                 (A) (A) (A) (A) (A) (A) (A) (A) (A) (A) (A) (A)
                 (A) (A) (A) (A) (A) (A) (A) (A) (A) (A) (A) (A)
                 (A) (A) (A) (A) (A) (A) (A) (A) (A) (A) (A) (A)
                 (A) (A) (A) (A) (A)
 The electronic state is 1-A.
 Alpha  occ. eigenvalues -- -101.65998-101.65998-101.55692-101.55692 -10.24716
 Alpha  occ. eigenvalues --  -10.24716 -10.20298 -10.20277 -10.19577 -10.19577
 Alpha  occ. eigenvalues --  -10.19293 -10.19292 -10.19178 -10.19177 -10.17358
 Alpha  occ. eigenvalues --  -10.17357  -9.64784  -9.62657  -9.47139  -9.47139
 Alpha  occ. eigenvalues --   -7.43192  -7.38216  -7.38193  -7.37755  -7.37590
 Alpha  occ. eigenvalues --   -7.37153  -7.23593  -7.23593  -7.22627  -7.22627
 Alpha  occ. eigenvalues --   -7.22593  -7.22593  -1.39155  -0.90392  -0.89691
 Alpha  occ. eigenvalues --   -0.86617  -0.85223  -0.80968  -0.80586  -0.77165
 Alpha  occ. eigenvalues --   -0.73947  -0.72970  -0.72379  -0.70574  -0.64965
 Alpha  occ. eigenvalues --   -0.63484  -0.60924  -0.58008  -0.57286  -0.52762
 Alpha  occ. eigenvalues --   -0.49326  -0.49260  -0.47605  -0.46598  -0.45167
 Alpha  occ. eigenvalues --   -0.44084  -0.41573  -0.41305  -0.40350  -0.40157
 Alpha  occ. eigenvalues --   -0.39338  -0.36306  -0.35962  -0.34938  -0.34242
 Alpha  occ. eigenvalues --   -0.32180  -0.31934  -0.30168  -0.27965  -0.27824
 Alpha  occ. eigenvalues --   -0.24475  -0.20900  -0.16031
 Alpha virt. eigenvalues --   -0.06190  -0.05084  -0.02339  -0.01765   0.00122
 Alpha virt. eigenvalues --    0.00539   0.00841   0.00923   0.00957   0.01948
 Alpha virt. eigenvalues --    0.01987   0.02518   0.03009   0.04657   0.04755
 Alpha virt. eigenvalues --    0.05590   0.06084   0.06369   0.06518   0.06699
 Alpha virt. eigenvalues --    0.07213   0.07731   0.08921   0.09672   0.09868
 Alpha virt. eigenvalues --    0.10358   0.10533   0.10767   0.11420   0.11633
 Alpha virt. eigenvalues --    0.12308   0.12635   0.13549   0.13572   0.13796
 Alpha virt. eigenvalues --    0.13885   0.14185   0.14658   0.15242   0.15381
 Alpha virt. eigenvalues --    0.15661   0.16756   0.17334   0.17437   0.17641
 Alpha virt. eigenvalues --    0.18136   0.18205   0.18813   0.19675   0.19874
 Alpha virt. eigenvalues --    0.20007   0.20048   0.20289   0.20419   0.21256
 Alpha virt. eigenvalues --    0.21573   0.21827   0.22165   0.22773   0.23459
 Alpha virt. eigenvalues --    0.23783   0.24030   0.24327   0.25039   0.25076
 Alpha virt. eigenvalues --    0.25707   0.26146   0.26742   0.27512   0.27644
 Alpha virt. eigenvalues --    0.28400   0.28695   0.29185   0.29494   0.30679
 Alpha virt. eigenvalues --    0.31669   0.32389   0.33108   0.34105   0.34238
 Alpha virt. eigenvalues --    0.34366   0.36513   0.38140   0.38220   0.40185
 Alpha virt. eigenvalues --    0.42831   0.43444   0.44393   0.44493   0.44504
 Alpha virt. eigenvalues --    0.45605   0.45767   0.46302   0.47680   0.48167
 Alpha virt. eigenvalues --    0.48631   0.49274   0.50753   0.51584   0.52610
 Alpha virt. eigenvalues --    0.53411   0.53413   0.54697   0.55057   0.55299
 Alpha virt. eigenvalues --    0.55946   0.57537   0.57556   0.58306   0.58637
 Alpha virt. eigenvalues --    0.59236   0.61539   0.61578   0.62423   0.63018
 Alpha virt. eigenvalues --    0.63487   0.65461   0.66221   0.66341   0.66654
 Alpha virt. eigenvalues --    0.66978   0.67921   0.68626   0.68663   0.70769
 Alpha virt. eigenvalues --    0.71182   0.73204   0.73340   0.73591   0.75394
 Alpha virt. eigenvalues --    0.76515   0.79441   0.79559   0.80896   0.83021
 Alpha virt. eigenvalues --    0.83733   0.84507   0.85072   0.85097   0.85305
 Alpha virt. eigenvalues --    0.85517   0.85713   0.86167   0.86556   0.87771
 Alpha virt. eigenvalues --    0.88101   0.90375   0.91008   0.91714   0.92350
 Alpha virt. eigenvalues --    0.93005   0.93459   0.94652   0.95304   0.95583
 Alpha virt. eigenvalues --    0.96767   0.97188   0.97326   0.99626   0.99769
 Alpha virt. eigenvalues --    1.00638   1.02825   1.04345   1.05301   1.08093
 Alpha virt. eigenvalues --    1.08439   1.09494   1.09507   1.10164   1.10958
 Alpha virt. eigenvalues --    1.11435   1.14473   1.14770   1.16495   1.20753
 Alpha virt. eigenvalues --    1.21334   1.25053   1.25191   1.28656   1.29661
 Alpha virt. eigenvalues --    1.30321   1.32226   1.32829   1.35365   1.35755
 Alpha virt. eigenvalues --    1.40639   1.41859   1.44400   1.48241   1.50623
 Alpha virt. eigenvalues --    1.50810   1.50901   1.52862   1.53779   1.54881
 Alpha virt. eigenvalues --    1.56415   1.58155   1.59561   1.61681   1.61901
 Alpha virt. eigenvalues --    1.62142   1.65351   1.67215   1.68827   1.68841
 Alpha virt. eigenvalues --    1.70583   1.74133   1.75824   1.77760   1.78273
 Alpha virt. eigenvalues --    1.82386   1.84861   1.88414   1.89803   1.90971
 Alpha virt. eigenvalues --    1.91554   1.91921   1.92945   1.94197   1.97797
 Alpha virt. eigenvalues --    1.97881   1.98595   1.98631   1.99922   2.00235
 Alpha virt. eigenvalues --    2.00881   2.01748   2.05542   2.07424   2.08470
 Alpha virt. eigenvalues --    2.09093   2.13112   2.14440   2.18526   2.21418
 Alpha virt. eigenvalues --    2.22446   2.26408   2.26522   2.27086   2.28380
 Alpha virt. eigenvalues --    2.28466   2.29734   2.32791   2.35148   2.36046
 Alpha virt. eigenvalues --    2.36948   2.41743   2.42595   2.44417   2.45567
 Alpha virt. eigenvalues --    2.47497   2.51803   2.55234   2.56207   2.57489
 Alpha virt. eigenvalues --    2.59119   2.62826   2.64377   2.64960   2.65357
 Alpha virt. eigenvalues --    2.65693   2.66008   2.71323   2.72801   2.73620
 Alpha virt. eigenvalues --    2.74879   2.75047   2.75305   2.76809   2.77406
 Alpha virt. eigenvalues --    2.80075   2.81215   2.83524   2.83603   2.85224
 Alpha virt. eigenvalues --    2.86303   2.86622   2.93120   2.94621   2.95682
 Alpha virt. eigenvalues --    3.03818   3.04862   3.07328   3.08700   3.14993
 Alpha virt. eigenvalues --    3.17278   3.19045   3.20635   3.24059   3.33499
 Alpha virt. eigenvalues --    3.36824   3.38185   3.43601   3.46747   3.52167
 Alpha virt. eigenvalues --    3.57604   3.60428   3.62690   3.78346   3.80618
 Alpha virt. eigenvalues --    3.87025   3.91015   4.08018   4.09651   4.14259
 Alpha virt. eigenvalues --    4.22403   4.48938   4.81303   4.84437   9.76460
 Alpha virt. eigenvalues --    9.78403   9.80398  10.54936  23.44072  23.60045
 Alpha virt. eigenvalues --   23.85036  23.86328  23.93623  23.95839  23.99886
 Alpha virt. eigenvalues --   24.03441  24.05358  24.06572  24.12843  24.13326
 Alpha virt. eigenvalues --   25.41115  25.82660  25.83049  26.00341  26.11195
 Alpha virt. eigenvalues --   26.15048  26.19824  26.59283  26.63631  27.09823
 Alpha virt. eigenvalues --   27.39529  28.44158 215.76396 215.77587 215.89768
 Alpha virt. eigenvalues --  216.86840
          Condensed to atoms (all electrons):
               1          2          3          4          5          6
     1  C   13.300238  -0.466557   0.464537  -3.462977  -3.861465   6.476650
     2  C   -0.466557  12.141858  -0.062778  -0.414546  -1.558762  -0.788908
     3  C    0.464537  -0.062778  14.789445  -0.430316  -2.910129  -1.801037
     4  C   -3.462977  -0.414546  -0.430316  15.302898   1.922442  -7.145961
     5  C   -3.861465  -1.558762  -2.910129   1.922442  15.180889  -6.752443
     6  C    6.476650  -0.788908  -1.801037  -7.145961  -6.752443  33.880974
     7  C    3.393380  -0.591355  -0.406449  -0.855499  -1.741356   1.871503
     8  C   -0.591355  -0.070291  -0.280867  -0.833971  -0.242875  -0.626302
     9  C   -0.406449  -0.280867   0.397869  -0.385884  -0.331276  -0.555336
    10  C   -0.855499  -0.833971  -0.385884  -0.021467   0.180109  -1.136277
    11  C   -1.741356  -0.242875  -0.331276   0.180109   0.519891  -3.213877
    12  C    1.871504  -0.626302  -0.555336  -1.136277  -3.213877   8.227276
    13  H    0.073390   0.380836  -0.260591  -0.002453  -0.032455   0.019394
    14  H    0.033197  -0.066787   0.323292   0.002509   0.025750   0.022646
    15  H    0.142479  -0.018933   0.033369  -0.019301   0.248741   0.033456
    16  H    0.059476   0.022896  -0.018583   0.009355   0.001287   0.020271
    17  H    0.005479   0.005973  -0.000009  -0.000005   0.000207   0.003932
    18  H    0.017843   0.004194   0.000859  -0.000550  -0.003408   0.009599
    19  Cl  -2.438280  -0.228834  -0.714251   1.099585   1.508617  -6.531653
    20  Cl  -5.518480  -0.050572  -1.594812   2.509022   7.165212 -15.270959
    21  Cl  -0.073648  -0.031336  -0.003456  -0.001713  -0.000652  -0.027004
    22  Cl  -0.292972   0.027574   0.185134  -0.856875   0.332262  -0.085630
               7          8          9         10         11         12
     1  C    3.393380  -0.591355  -0.406449  -0.855499  -1.741356   1.871504
     2  C   -0.591355  -0.070291  -0.280867  -0.833971  -0.242875  -0.626302
     3  C   -0.406449  -0.280867   0.397869  -0.385884  -0.331276  -0.555336
     4  C   -0.855499  -0.833971  -0.385884  -0.021467   0.180109  -1.136277
     5  C   -1.741356  -0.242875  -0.331276   0.180109   0.519891  -3.213877
     6  C    1.871503  -0.626302  -0.555336  -1.136277  -3.213877   8.227276
     7  C   13.300238  -0.466557   0.464538  -3.462977  -3.861464   6.476649
     8  C   -0.466557  12.141858  -0.062778  -0.414546  -1.558762  -0.788908
     9  C    0.464538  -0.062778  14.789444  -0.430316  -2.910129  -1.801037
    10  C   -3.462977  -0.414546  -0.430316  15.302897   1.922442  -7.145960
    11  C   -3.861464  -1.558762  -2.910129   1.922442  15.180888  -6.752443
    12  C    6.476649  -0.788908  -1.801037  -7.145960  -6.752443  33.880972
    13  H    0.059476   0.022896  -0.018583   0.009355   0.001287   0.020271
    14  H    0.005479   0.005973  -0.000009  -0.000005   0.000207   0.003932
    15  H    0.017843   0.004194   0.000859  -0.000550  -0.003408   0.009599
    16  H    0.073390   0.380836  -0.260591  -0.002453  -0.032455   0.019394
    17  H    0.033197  -0.066787   0.323292   0.002509   0.025750   0.022646
    18  H    0.142479  -0.018933   0.033369  -0.019301   0.248741   0.033456
    19  Cl  -5.518479  -0.050572  -1.594812   2.509021   7.165211 -15.270958
    20  Cl  -2.438280  -0.228834  -0.714251   1.099585   1.508617  -6.531653
    21  Cl  -0.292972   0.027574   0.185134  -0.856875   0.332262  -0.085630
    22  Cl  -0.073648  -0.031336  -0.003456  -0.001713  -0.000652  -0.027004
              13         14         15         16         17         18
     1  C    0.073390   0.033197   0.142479   0.059476   0.005479   0.017843
     2  C    0.380836  -0.066787  -0.018933   0.022896   0.005973   0.004194
     3  C   -0.260591   0.323292   0.033369  -0.018583  -0.000009   0.000859
     4  C   -0.002453   0.002509  -0.019301   0.009355  -0.000005  -0.000550
     5  C   -0.032455   0.025750   0.248741   0.001287   0.000207  -0.003408
     6  C    0.019394   0.022646   0.033456   0.020271   0.003932   0.009599
     7  C    0.059476   0.005479   0.017843   0.073390   0.033197   0.142479
     8  C    0.022896   0.005973   0.004194   0.380836  -0.066787  -0.018933
     9  C   -0.018583  -0.000009   0.000859  -0.260591   0.323292   0.033369
    10  C    0.009355  -0.000005  -0.000550  -0.002453   0.002509  -0.019301
    11  C    0.001287   0.000207  -0.003408  -0.032455   0.025750   0.248741
    12  C    0.020271   0.003932   0.009599   0.019394   0.022646   0.033456
    13  H    0.582132  -0.007742   0.000039   0.004589   0.000072  -0.000003
    14  H   -0.007742   0.518699  -0.000351   0.000072  -0.000000   0.000000
    15  H    0.000039  -0.000351   0.518804  -0.000003   0.000000   0.000001
    16  H    0.004589   0.000072  -0.000003   0.582132  -0.007742   0.000039
    17  H    0.000072  -0.000000   0.000000  -0.007742   0.518699  -0.000351
    18  H   -0.000003   0.000000   0.000001   0.000039  -0.000351   0.518804
    19  Cl   0.010702  -0.000941   0.020026   0.021804   0.002749  -0.114378
    20  Cl   0.021804   0.002749  -0.114378   0.010702  -0.000941   0.020026
    21  Cl   0.000014  -0.000000  -0.000001  -0.000244  -0.011942  -0.014088
    22  Cl  -0.000244  -0.011942  -0.014088   0.000014  -0.000000  -0.000001
              19         20         21         22
     1  C   -2.438280  -5.518480  -0.073648  -0.292972
     2  C   -0.228834  -0.050572  -0.031336   0.027574
     3  C   -0.714251  -1.594812  -0.003456   0.185134
     4  C    1.099585   2.509022  -0.001713  -0.856875
     5  C    1.508617   7.165212  -0.000652   0.332262
     6  C   -6.531653 -15.270959  -0.027004  -0.085630
     7  C   -5.518479  -2.438280  -0.292972  -0.073648
     8  C   -0.050572  -0.228834   0.027574  -0.031336
     9  C   -1.594812  -0.714251   0.185134  -0.003456
    10  C    2.509021   1.099585  -0.856875  -0.001713
    11  C    7.165211   1.508617   0.332262  -0.000652
    12  C  -15.270958  -6.531653  -0.085630  -0.027004
    13  H    0.010702   0.021804   0.000014  -0.000244
    14  H   -0.000941   0.002749  -0.000000  -0.011942
    15  H    0.020026  -0.114378  -0.000001  -0.014088
    16  H    0.021804   0.010702  -0.000244   0.000014
    17  H    0.002749  -0.000941  -0.011942  -0.000000
    18  H   -0.114378   0.020026  -0.014088  -0.000001
    19  Cl  34.786118   1.829126  -0.010594  -0.000825
    20  Cl   1.829126  34.786120  -0.000825  -0.010594
    21  Cl  -0.010594  -0.000825  17.445633  -0.000002
    22  Cl  -0.000825  -0.010594  -0.000002  17.445633
 Mulliken charges:
               1
     1  C   -0.129136
     2  C   -0.249656
     3  C   -0.438732
     4  C    0.541875
     5  C   -0.436708
     6  C   -0.630314
     7  C   -0.129136
     8  C   -0.249656
     9  C   -0.438732
    10  C    0.541875
    11  C   -0.436708
    12  C   -0.630314
    13  H    0.115814
    14  H    0.143273
    15  H    0.141604
    16  H    0.115814
    17  H    0.143273
    18  H    0.141604
    19  Cl   0.521617
    20  Cl   0.521617
    21  Cl   0.420363
    22  Cl   0.420363
 Sum of Mulliken charges =  -0.00000
 Mulliken charges with hydrogens summed into heavy atoms:
               1
     1  C   -0.129136
     2  C   -0.133843
     3  C   -0.295459
     4  C    0.541875
     5  C   -0.295104
     6  C   -0.630314
     7  C   -0.129136
     8  C   -0.133842
     9  C   -0.295459
    10  C    0.541875
    11  C   -0.295104
    12  C   -0.630314
    19  Cl   0.521617
    20  Cl   0.521617
    21  Cl   0.420363
    22  Cl   0.420363
 Electronic spatial extent (au):  <R**2>=           6474.3670
 Charge=             -0.0000 electrons
 Dipole moment (field-independent basis, Debye):
    X=              0.0000    Y=              1.6745    Z=             -0.0000  Tot=              1.6745
 Quadrupole moment (field-independent basis, Debye-Ang):
   XX=           -142.2642   YY=           -103.6014   ZZ=           -123.1889
   XY=             -0.0000   XZ=             -0.0000   YZ=             -0.0000
 Traceless Quadrupole moment (field-independent basis, Debye-Ang):
   XX=            -19.2460   YY=             19.4168   ZZ=             -0.1707
   XY=             -0.0000   XZ=             -0.0000   YZ=             -0.0000
 Octapole moment (field-independent basis, Debye-Ang**2):
  XXX=              0.0000  YYY=             22.5898  ZZZ=             -0.0001  XYY=             -0.0000
  XXY=             16.1001  XXZ=              0.0000  XZZ=              0.0000  YZZ=             14.6152
  YYZ=             -0.0000  XYZ=             -0.0001
 Hexadecapole moment (field-independent basis, Debye-Ang**3):
 XXXX=          -7506.4804 YYYY=          -1363.9315 ZZZZ=           -148.0837 XXXY=             -0.0000
 XXXZ=             -0.0003 YYYX=             -0.0000 YYYZ=              0.0000 ZZZX=             -0.0000
 ZZZY=              0.0001 XXYY=          -1378.2126 XXZZ=          -1239.0688 YYZZ=           -287.7482
 XXYZ=             -0.0001 YYXZ=              0.0000 ZZXY=             -0.0000
 N-N= 1.530333129403D+03 E-N=-8.504854271259D+03  KE= 2.301763094955D+03
 Calling FoFJK, ICntrl=      2127 FMM=F ISym2X=0 I1Cent= 0 IOpClX= 0 NMat=1 NMatS=1 NMatT=0.
 ***** Axes restored to original set *****
 -------------------------------------------------------------------
 Center     Atomic                   Forces (Hartrees/Bohr)
 Number     Number              X              Y              Z
 -------------------------------------------------------------------
      1        6           0.001094441   -0.030734569   -0.006132775
      2        6          -0.006574805    0.021131940    0.006135088
      3        6          -0.008869662    0.000604777    0.003035839
      4        6          -0.008787946   -0.012366122    0.000572534
      5        6           0.005164773   -0.015729455   -0.004655541
      6        6           0.111949720   -0.004463298   -0.037721300
      7        6           0.027306241    0.014048891   -0.006357715
      8        6          -0.021617485   -0.004568688    0.006263988
      9        6          -0.004857363    0.007459979    0.003001290
     10        6           0.006481190    0.013721371    0.000441769
     11        6           0.016223027    0.003163903   -0.004750547
     12        6           0.058546327   -0.095704780   -0.037262304
     13        1           0.007509195   -0.004331247   -0.003287462
     14        1           0.008621477    0.000946255   -0.002662662
     15        1          -0.006035223    0.011252344    0.004101644
     16        1           0.007439079   -0.004451011   -0.003286893
     17        1           0.003385095   -0.008000234   -0.002617725
     18        1          -0.012748196   -0.000216902    0.004159212
     19       17          -1.715928906   -2.719449928    0.054612839
     20       17           1.531026686    2.828081777    0.026706452
     21       17           0.000494343    0.000072766   -0.000149250
     22       17           0.000177990   -0.000467770   -0.000146482
 -------------------------------------------------------------------
 Cartesian Forces:  Max     2.828081777 RMS     0.560282715

 GradGradGradGradGradGradGradGradGradGradGradGradGradGradGradGradGradGrad
 Berny optimization.
 FormGI is forming the generalized inverse of G from B-inverse, IUseBI=4.
 Internal  Forces:  Max     3.117857998 RMS     0.292576042
 Search for a local minimum.
 Step number   1 out of a maximum of  129
 All quantities printed in internal units (Hartrees-Bohrs-Radians)
 Mixed Optimization -- RFO/linear search
 Second derivative matrix not updated -- first step.
 ITU=  0
     Eigenvalues ---    0.01035   0.01214   0.01489   0.01712   0.01738
     Eigenvalues ---    0.01829   0.02070   0.02070   0.02070   0.02070
     Eigenvalues ---    0.02070   0.02070   0.02070   0.02070   0.02070
     Eigenvalues ---    0.02070   0.02070   0.02070   0.03966   0.16000
     Eigenvalues ---    0.16000   0.16000   0.16000   0.16000   0.16000
     Eigenvalues ---    0.22430   0.22457   0.23507   0.23523   0.24614
     Eigenvalues ---    0.24626   0.25000   0.25000   0.25000   0.25000
     Eigenvalues ---    0.25000   0.28335   0.29041   0.29447   0.29539
     Eigenvalues ---    0.29539   0.37230   0.37230   0.37230   0.37230
     Eigenvalues ---    0.37230   0.37230   0.39994   0.40888   0.41392
     Eigenvalues ---    0.41437   0.44577   0.45130   0.45389   0.45389
     Eigenvalues ---    0.45389   0.45389   0.45389   0.45389  16.61567
 RFO step:  Lambda=-6.26669651D-01 EMin= 1.03510889D-02
 Linear search not attempted -- first point.
 Iteration  1 RMS(Cart)=  0.03019030 RMS(Int)=  0.00049810
 Iteration  2 RMS(Cart)=  0.00121678 RMS(Int)=  0.00023044
 Iteration  3 RMS(Cart)=  0.00000061 RMS(Int)=  0.00023044
 Variable       Old X    -DE/DX   Delta X   Delta X   Delta X     New X
                                 (Linear)    (Quad)   (Total)
    R1        2.64826   0.01855   0.00000   0.00260   0.00254   2.65080
    R2        2.64826   0.10215   0.00000   0.01701   0.01668   2.66495
    R3        2.91018   0.11948   0.00000  -0.01274  -0.01324   2.89694
    R4        2.64826  -0.01060   0.00000  -0.00751  -0.00750   2.64077
    R5        2.02201   0.00799   0.00000   0.00800   0.00800   2.03001
    R6        2.64826  -0.03031   0.00000  -0.01119  -0.01111   2.63715
    R7        2.02201   0.00904   0.00000   0.00905   0.00905   2.03106
    R8        2.64826  -0.02709   0.00000  -0.01051  -0.01045   2.63782
    R9        3.32592  -0.00031   0.00000  -0.00034  -0.00034   3.32558
   R10        2.64826  -0.00792   0.00000  -0.00963  -0.00964   2.63862
   R11        2.02201   0.01341   0.00000   0.01342   0.01342   2.03543
   R12        3.32592   0.05125   0.00000   0.12667   0.12690   3.45282
   R13        2.64826   0.01855   0.00000   0.00260   0.00254   2.65080
   R14        2.64826   0.10215   0.00000   0.01701   0.01668   2.66495
   R15        2.64826  -0.01060   0.00000  -0.00751  -0.00750   2.64077
   R16        2.02201   0.00799   0.00000   0.00800   0.00800   2.03001
   R17        2.64826  -0.03031   0.00000  -0.01119  -0.01111   2.63715
   R18        2.02201   0.00904   0.00000   0.00905   0.00905   2.03106
   R19        2.64826  -0.02709   0.00000  -0.01051  -0.01045   2.63782
   R20        3.32592  -0.00031   0.00000  -0.00034  -0.00034   3.32558
   R21        2.64826  -0.00792   0.00000  -0.00963  -0.00964   2.63862
   R22        2.02201   0.01341   0.00000   0.01342   0.01342   2.03543
   R23        3.32592   0.05125   0.00000   0.12667   0.12690   3.45282
   R24        2.23252   3.11786   0.00000   0.18083   0.18133   2.41386
    A1        2.09440  -0.08198   0.00000  -0.01249  -0.01221   2.08219
    A2        2.09440  -0.16468   0.00000   0.00003   0.00068   2.09508
    A3        2.09440   0.24666   0.00000   0.01245   0.01153   2.10592
    A4        2.09440   0.04828   0.00000   0.00819   0.00804   2.10243
    A5        2.09440  -0.01939   0.00000   0.00194   0.00202   2.09641
    A6        2.09440  -0.02889   0.00000  -0.01013  -0.01005   2.08434
    A7        2.09440   0.00410   0.00000  -0.00311  -0.00313   2.09126
    A8        2.09440  -0.00127   0.00000   0.00254   0.00255   2.09695
    A9        2.09440  -0.00282   0.00000   0.00057   0.00058   2.09498
   A10        2.09440  -0.00267   0.00000   0.00469   0.00471   2.09911
   A11        2.09440   0.00064   0.00000  -0.00314  -0.00315   2.09125
   A12        2.09440   0.00203   0.00000  -0.00155  -0.00157   2.09283
   A13        2.09440   0.01716   0.00000   0.00334   0.00328   2.09767
   A14        2.09440  -0.00851   0.00000  -0.00158  -0.00155   2.09285
   A15        2.09440  -0.00865   0.00000  -0.00176  -0.00173   2.09266
   A16        2.09440   0.01512   0.00000  -0.00063  -0.00069   2.09371
   A17        2.09440   0.06859   0.00000   0.03027   0.03008   2.12448
   A18        2.09440  -0.08371   0.00000  -0.02964  -0.02940   2.06500
   A19        2.09440  -0.16468   0.00000   0.00003   0.00068   2.09508
   A20        2.09440   0.24666   0.00000   0.01245   0.01153   2.10592
   A21        2.09440  -0.08198   0.00000  -0.01249  -0.01221   2.08219
   A22        2.09440   0.04828   0.00000   0.00819   0.00804   2.10243
   A23        2.09440  -0.01939   0.00000   0.00194   0.00202   2.09641
   A24        2.09440  -0.02889   0.00000  -0.01013  -0.01005   2.08434
   A25        2.09440   0.00410   0.00000  -0.00311  -0.00313   2.09126
   A26        2.09440  -0.00127   0.00000   0.00254   0.00255   2.09695
   A27        2.09440  -0.00282   0.00000   0.00057   0.00058   2.09498
   A28        2.09440  -0.00267   0.00000   0.00469   0.00471   2.09911
   A29        2.09440   0.00064   0.00000  -0.00314  -0.00315   2.09125
   A30        2.09440   0.00203   0.00000  -0.00155  -0.00157   2.09283
   A31        2.09440   0.01716   0.00000   0.00334   0.00328   2.09767
   A32        2.09440  -0.00851   0.00000  -0.00158  -0.00155   2.09285
   A33        2.09440  -0.00865   0.00000  -0.00176  -0.00173   2.09266
   A34        2.09440   0.01512   0.00000  -0.00063  -0.00069   2.09371
   A35        2.09440   0.06859   0.00000   0.03027   0.03008   2.12448
   A36        2.09440  -0.08371   0.00000  -0.02964  -0.02940   2.06500
   A37        2.09440  -0.31525   0.00000  -0.04272  -0.04161   2.05279
   A38        2.09440  -0.31525   0.00000  -0.04272  -0.04161   2.05279
    D1        0.00000   0.00000   0.00000   0.00000   0.00000   0.00000
    D2        3.14159   0.00000   0.00000   0.00000   0.00000   3.14159
    D3       -3.14159   0.00000   0.00000   0.00000   0.00000  -3.14159
    D4       -0.00000   0.00000   0.00000   0.00000   0.00000  -0.00000
    D5       -0.00000  -0.00000   0.00000  -0.00000  -0.00000  -0.00000
    D6        3.14159  -0.00000   0.00000   0.00000   0.00000   3.14159
    D7        3.14159  -0.00000   0.00000  -0.00000  -0.00000   3.14159
    D8        0.00000  -0.00000   0.00000   0.00000   0.00000   0.00000
    D9       -0.00000  -0.00000   0.00000  -0.00000  -0.00000  -0.00000
   D10        3.14159  -0.00000   0.00000  -0.00000  -0.00000   3.14159
   D11        3.14159  -0.00000   0.00000  -0.00000  -0.00000   3.14159
   D12       -0.00000  -0.00000   0.00000  -0.00000  -0.00000  -0.00000
   D13        0.00000  -0.00000   0.00000  -0.00000  -0.00000   0.00000
   D14        3.14159  -0.00000   0.00000   0.00000   0.00000   3.14159
   D15       -3.14159   0.00000   0.00000  -0.00000  -0.00000  -3.14159
   D16        0.00000   0.00000   0.00000  -0.00000  -0.00000   0.00000
   D17       -0.00000  -0.00000   0.00000   0.00000   0.00000  -0.00000
   D18        3.14159   0.00000   0.00000  -0.00000  -0.00000   3.14159
   D19        3.14159  -0.00000   0.00000   0.00000   0.00000   3.14159
   D20        0.00000   0.00000   0.00000  -0.00000  -0.00000   0.00000
   D21        0.00000   0.00000   0.00000  -0.00000  -0.00000   0.00000
   D22       -3.14159   0.00000   0.00000  -0.00000  -0.00000  -3.14159
   D23       -3.14159  -0.00000   0.00000  -0.00000  -0.00000  -3.14159
   D24        0.00000   0.00000   0.00000   0.00000   0.00000   0.00000
   D25       -0.00000   0.00000   0.00000   0.00000   0.00000  -0.00000
   D26        3.14159   0.00000   0.00000  -0.00000  -0.00000   3.14159
   D27        3.14159  -0.00000   0.00000   0.00000   0.00000   3.14159
   D28       -0.00000   0.00000   0.00000  -0.00000  -0.00000  -0.00000
   D29        0.00001  -0.00000   0.00000  -0.00000  -0.00000   0.00001
   D30       -3.14158  -0.00000   0.00000  -0.00000  -0.00000  -3.14158
   D31        3.14159   0.00000   0.00000   0.00000   0.00000   3.14159
   D32        0.00000   0.00000   0.00000   0.00000   0.00000   0.00000
   D33        0.00000   0.00000   0.00000   0.00000   0.00000   0.00000
   D34       -3.14159   0.00000   0.00000  -0.00000  -0.00000  -3.14159
   D35       -3.14159  -0.00000   0.00000  -0.00000  -0.00000  -3.14159
   D36        0.00000  -0.00000   0.00000   0.00000   0.00000   0.00000
   D37       -0.00000  -0.00000   0.00000  -0.00000  -0.00000  -0.00000
   D38        3.14159  -0.00000   0.00000   0.00000   0.00000   3.14159
   D39       -0.00000  -0.00000   0.00000   0.00000   0.00000  -0.00000
   D40        3.14159  -0.00000   0.00000  -0.00000  -0.00000   3.14159
   D41        3.14159   0.00000   0.00000   0.00000   0.00000   3.14159
   D42       -0.00000   0.00000   0.00000   0.00000   0.00000  -0.00000
   D43       -0.00000  -0.00000   0.00000  -0.00000  -0.00000  -0.00000
   D44       -3.14159  -0.00000   0.00000  -0.00000  -0.00000  -3.14159
   D45        3.14159  -0.00000   0.00000   0.00000   0.00000   3.14159
   D46        0.00000   0.00000   0.00000  -0.00000  -0.00000   0.00000
   D47        0.00000   0.00000   0.00000  -0.00000  -0.00000   0.00000
   D48       -3.14159   0.00000   0.00000  -0.00000  -0.00000  -3.14159
   D49        3.14159  -0.00000   0.00000   0.00000   0.00000   3.14159
   D50        0.00000   0.00000   0.00000  -0.00000  -0.00000   0.00000
   D51        0.00000   0.00000   0.00000   0.00000   0.00000   0.00000
   D52       -3.14159   0.00000   0.00000  -0.00000  -0.00000  -3.14159
   D53        3.14159   0.00000   0.00000   0.00000   0.00000   3.14159
   D54       -0.00000   0.00000   0.00000  -0.00000  -0.00000  -0.00000
   D55        0.00001  -0.00000   0.00000  -0.00000  -0.00000   0.00001
   D56       -3.14158  -0.00000   0.00000  -0.00000  -0.00000  -3.14158
   D57       -0.00001   0.00000   0.00000   0.00000   0.00000  -0.00001
         Item               Value     Threshold  Converged?
 Maximum Force            3.117858     0.000450     NO 
 RMS     Force            0.292576     0.000300     NO 
 Maximum Displacement     0.193128     0.001800     NO 
 RMS     Displacement     0.029573     0.001200     NO 
 Predicted change in Energy=-3.353222D-01
 GradGradGradGradGradGradGradGradGradGradGradGradGradGradGradGradGradGrad

                          Input orientation:                          
 ---------------------------------------------------------------------
 Center     Atomic      Atomic             Coordinates (Angstroms)
 Number     Number       Type             X           Y           Z
 ---------------------------------------------------------------------
      1          6           0        0.030616   -0.885588   -0.001957
      2          6           0        1.364308   -0.854734   -0.435554
      3          6           0        2.078466    0.346392   -0.445254
      4          6           0        1.461557    1.524004   -0.020843
      5          6           0        0.134913    1.506512    0.412939
      6          6           0       -0.584100    0.309631    0.425036
      7          6           0       -0.743749   -2.208608    0.004686
      8          6           0       -0.119465   -3.389792   -0.422826
      9          6           0       -0.817048   -4.600656   -0.420414
     10          6           0       -2.144027   -4.636215    0.010091
     11          6           0       -2.776508   -3.467718    0.437922
     12          6           0       -2.084993   -2.254681    0.437917
     13          1           0        1.845439   -1.757441   -0.763600
     14          1           0        3.100133    0.364229   -0.778496
     15          1           0       -0.335545    2.418832    0.739275
     16          1           0        0.901760   -3.369734   -0.755507
     17          1           0       -0.333768   -5.502663   -0.749039
     18          1           0       -3.800895   -3.501802    0.769016
     19         17           0       -2.962385   -0.756895    1.008281
     20         17           0       -2.317153    0.345506    1.002735
     21         17           0       -3.022490   -6.161096    0.013123
     22         17           0        2.360932    3.036599   -0.033065
 ---------------------------------------------------------------------
                    Distance matrix (angstroms):
                    1          2          3          4          5
     1  C    0.000000
     2  C    1.402745   0.000000
     3  C    2.430633   1.397433   0.000000
     4  C    2.802514   2.416576   1.395519   0.000000
     5  C    2.430053   2.794072   2.420697   1.395872   0.000000
     6  C    1.410229   2.427479   2.801431   2.420377   1.396299
     7  C    1.532994   2.543756   3.833454   4.335484   3.839380
     8  C    2.543756   2.937390   4.334798   5.177510   4.973631
     9  C    3.833454   4.334798   5.732181   6.546996   6.236843
    10  C    4.335484   5.177510   6.546996   7.137892   6.564218
    11  C    3.839380   4.973631   6.236843   6.564218   5.763676
    12  C    2.558067   3.823674   4.987982   5.202590   4.367515
    13  H    2.152628   1.074235   2.140504   3.386286   3.868272
    14  H    3.403966   2.148620   1.074789   2.145704   3.393650
    15  H    3.406272   3.871170   3.394933   2.146642   1.077104
    16  H    2.738195   2.577120   3.910305   4.980138   5.072583
    17  H    4.691300   4.958325   6.334241   7.288863   7.120281
    18  H    4.703132   5.927671   7.130914   7.319563   6.379701
    19  Cl   3.161519   4.562292   5.360988   5.082604   3.882100
    20  Cl   2.834964   4.130667   4.627974   4.088425   2.776405
    21  Cl   6.095299   6.899477   8.281139   8.897674   8.301883
    22  Cl   4.562334   4.037045   2.736221   1.759820   2.737745
                    6          7          8          9         10
     6  C    0.000000
     7  C    2.558067   0.000000
     8  C    3.823674   1.402745   0.000000
     9  C    4.987982   2.430633   1.397433   0.000000
    10  C    5.202590   2.802514   2.416576   1.395519   0.000000
    11  C    4.367515   2.430053   2.794072   2.420697   1.395872
    12  C    2.971286   1.410229   2.427479   2.801431   2.420377
    13  H    3.404159   2.738195   2.577120   3.910305   4.980138
    14  H    3.876215   4.691300   4.958325   6.334241   7.288863
    15  H    2.146918   4.703132   5.927671   7.130914   7.319563
    16  H    4.139950   2.152628   1.074235   2.140504   3.386286
    17  H    5.934971   3.403966   2.148620   1.074789   2.145704
    18  H    4.999311   3.406272   3.871170   3.394933   2.146642
    19  Cl   2.670935   2.834964   4.130667   4.627974   4.088425
    20  Cl   1.827155   3.161519   4.562292   5.360988   5.082604
    21  Cl   6.927173   4.562334   4.037045   2.736221   1.759820
    22  Cl   4.039731   6.095299   6.899477   8.281139   8.897674
                   11         12         13         14         15
    11  C    0.000000
    12  C    1.396299   0.000000
    13  H    5.072583   4.139950   0.000000
    14  H    7.120281   5.934971   2.464946   0.000000
    15  H    6.379701   4.999311   4.945359   4.281227   0.000000
    16  H    3.868272   3.404159   1.868177   4.333111   6.105145
    17  H    3.393650   3.876215   4.333111   6.798012   8.060097
    18  H    1.077104   2.146918   6.105145   8.060097   6.860280
    19  Cl   2.776405   1.827155   5.220711   6.419004   4.130120
    20  Cl   3.882100   2.670935   4.986932   5.702642   2.880080
    21  Cl   2.737745   4.039731   6.610008   8.982930   9.020096
    22  Cl   8.301883   6.927173   4.876703   2.871176   2.872130
                   16         17         18         19         20
    16  H    0.000000
    17  H    2.464946   0.000000
    18  H    4.945359   4.281227   0.000000
    19  Cl   4.986933   5.702642   2.880080   0.000000
    20  Cl   5.220711   6.419004   4.130120   1.277358   0.000000
    21  Cl   4.876703   2.871176   2.872130   5.495393   6.619116
    22  Cl   6.610008   8.982930   9.020096   6.619116   5.495393
                   21         22
    21  Cl   0.000000
    22  Cl  10.657437   0.000000
 Stoichiometry    C12H6Cl4
 Framework group  C1[X(C12H6Cl4)]
 Deg. of freedom    60
 Full point group                 C1      NOp   1
 Largest Abelian subgroup         C1      NOp   1
 Largest concise Abelian subgroup C1      NOp   1
                         Standard orientation:                         
 ---------------------------------------------------------------------
 Center     Atomic      Atomic             Coordinates (Angstroms)
 Number     Number       Type             X           Y           Z
 ---------------------------------------------------------------------
      1          6           0       -0.766497   -0.618186    0.000002
      2          6           0       -1.468695   -1.832521    0.000001
      3          6           0       -2.866091   -1.842801   -0.000000
      4          6           0       -3.568946   -0.637203   -0.000001
      5          6           0       -2.881838    0.577845    0.000002
      6          6           0       -1.485643    0.594899    0.000003
      7          6           0        0.766497   -0.618186    0.000003
      8          6           0        1.468695   -1.832521    0.000004
      9          6           0        2.866090   -1.842801    0.000003
     10          6           0        3.568946   -0.637203    0.000001
     11          6           0        2.881838    0.577845   -0.000001
     12          6           0        1.485643    0.594899   -0.000000
     13          1           0       -0.934088   -2.764281   -0.000000
     14          1           0       -3.399006   -2.776167   -0.000002
     15          1           0       -3.430140    1.504947    0.000003
     16          1           0        0.934088   -2.764281    0.000003
     17          1           0        3.399006   -2.776167    0.000004
     18          1           0        3.430140    1.504947   -0.000005
     19         17           0        0.638679    2.213895   -0.000005
     20         17           0       -0.638679    2.213895    0.000005
     21         17           0        5.328718   -0.650171   -0.000003
     22         17           0       -5.328718   -0.650171   -0.000004
 ---------------------------------------------------------------------
 Rotational constants (GHZ):           0.8353997           0.1752237           0.1448431
 Standard basis: 6-311+G(d,p) (5D, 7F)
 There are   436 symmetry adapted cartesian basis functions of A   symmetry.
 There are   420 symmetry adapted basis functions of A   symmetry.
   420 basis functions,   692 primitive gaussians,   436 cartesian basis functions
    73 alpha electrons       73 beta electrons
       nuclear repulsion energy      1509.9281951362 Hartrees.
 NAtoms=   22 NActive=   22 NUniq=   22 SFac= 1.00D+00 NAtFMM=   60 NAOKFM=F Big=F
 Integral buffers will be    131072 words long.
 Raffenetti 2 integral format.
 Two-electron integral symmetry is turned on.
 One-electron integrals computed using PRISM.
 NBasis=   420 RedAO= T EigKep=  1.49D-06  NBF=   420
 NBsUse=   414 1.00D-06 EigRej=  9.13D-07 NBFU=   414
 Initial guess from the checkpoint file:  "/scratch/pkc/Gau-35560.chk"
 B after Tr=    -0.000000   -0.000000    0.000000
         Rot=    1.000000    0.000000    0.000000    0.000000 Ang=   0.00 deg.
 ExpMin= 4.38D-02 ExpMax= 1.06D+05 ExpMxC= 3.62D+03 IAcc=3 IRadAn=         5 AccDes= 0.00D+00
 Harris functional with IExCor=  402 and IRadAn=       5 diagonalized for initial guess.
 HarFok:  IExCor=  402 AccDes= 0.00D+00 IRadAn=         5 IDoV= 1 UseB2=F ITyADJ=14
 ICtDFT=  3500011 ScaDFX=  1.000000  1.000000  1.000000  1.000000
 FoFCou: FMM=F IPFlag=           0 FMFlag=      100000 FMFlg1=           0
         NFxFlg=           0 DoJE=T BraDBF=F KetDBF=T FulRan=T
         wScrn=  0.000000 ICntrl=       500 IOpCl=  0 I1Cent=   200000004 NGrid=           0
         NMat0=    1 NMatS0=      1 NMatT0=    0 NMatD0=    1 NMtDS0=    0 NMtDT0=    0
 Petite list used in FoFCou.
 Requested convergence on RMS density matrix=1.00D-08 within  32 cycles.
 Requested convergence on MAX density matrix=1.00D-06.
 Requested convergence on             energy=1.00D-06.
 No special actions if energy rises.
 SCF Done:  E(RB3LYP) =  -2300.78886558     A.U. after   15 cycles
            NFock= 15  Conv=0.96D-08     -V/T= 2.0004
 QCSCF skips out because SCF is already converged.
 Calling FoFJK, ICntrl=      2127 FMM=F ISym2X=0 I1Cent= 0 IOpClX= 0 NMat=1 NMatS=1 NMatT=0.
 ***** Axes restored to original set *****
 -------------------------------------------------------------------
 Center     Atomic                   Forces (Hartrees/Bohr)
 Number     Number              X              Y              Z
 -------------------------------------------------------------------
      1        6          -0.002147384   -0.024647449   -0.003921566
      2        6          -0.005014706    0.014887774    0.004448363
      3        6          -0.004254475   -0.000437288    0.001319633
      4        6          -0.005222666   -0.007657425    0.000282280
      5        6          -0.001509969   -0.010577670   -0.001488994
      6        6           0.093251783   -0.017112756   -0.033936661
      7        6           0.020421187    0.013911411   -0.004115156
      8        6          -0.015416677   -0.002884134    0.004537492
      9        6          -0.001696341    0.003933447    0.001297548
     10        6           0.004120304    0.008305079    0.000202358
     11        6           0.008476626    0.006484684   -0.001574735
     12        6           0.060435702   -0.073180130   -0.033654605
     13        1           0.005629829   -0.002443371   -0.002313729
     14        1           0.005302550    0.000624439   -0.001629666
     15        1          -0.003576424    0.007555836    0.002597354
     16        1           0.004877029   -0.003729511   -0.002307313
     17        1           0.002044991   -0.004941190   -0.001601701
     18        1          -0.008327816   -0.000561978    0.002638058
     19       17          -1.100440539   -1.698877853    0.043498966
     20       17           0.942550359    1.791639866    0.025940533
     21       17          -0.000199476   -0.000910938   -0.000105412
     22       17           0.000696113    0.000619157   -0.000113045
 -------------------------------------------------------------------
 Cartesian Forces:  Max     1.791639866 RMS     0.352929562

 GradGradGradGradGradGradGradGradGradGradGradGradGradGradGradGradGradGrad
 Berny optimization.
 Using GEDIIS/GDIIS optimizer.
 FormGI is forming the generalized inverse of G from B-inverse, IUseBI=4.
 Internal  Forces:  Max     1.969458958 RMS     0.184814028
 Search for a local minimum.
 Step number   2 out of a maximum of  129
 All quantities printed in internal units (Hartrees-Bohrs-Radians)
 Mixed Optimization -- RFO/linear search
 Update second derivatives using D2CorX and points    1    2
 DE= -5.08D-01 DEPred=-3.35D-01 R= 1.52D+00
 TightC=F SS=  1.41D+00  RLast= 2.74D-01 DXNew= 5.0454D-01 8.2319D-01
 Trust test= 1.52D+00 RLast= 2.74D-01 DXMaxT set to 5.05D-01
 ITU=  1  0
 Use linear search instead of GDIIS.
 Linear search step of   0.549 exceeds DXMaxT=   0.505 but not scaled.
 Quartic linear search produced a step of  2.00000.
 Iteration  1 RMS(Cart)=  0.03920575 RMS(Int)=  0.01609990
 Iteration  2 RMS(Cart)=  0.02271599 RMS(Int)=  0.00127644
 Iteration  3 RMS(Cart)=  0.00021923 RMS(Int)=  0.00127150
 Iteration  4 RMS(Cart)=  0.00000007 RMS(Int)=  0.00127150
 Variable       Old X    -DE/DX   Delta X   Delta X   Delta X     New X
                                 (Linear)    (Quad)   (Total)
    R1        2.65080   0.01229   0.00508   0.00000   0.00476   2.65556
    R2        2.66495   0.06044   0.03337   0.00000   0.03158   2.69653
    R3        2.89694   0.06112  -0.02648   0.00000  -0.02909   2.86785
    R4        2.64077  -0.00686  -0.01499   0.00000  -0.01491   2.62586
    R5        2.03001   0.00528   0.01600   0.00000   0.01600   2.04601
    R6        2.63715  -0.01868  -0.02223   0.00000  -0.02181   2.61534
    R7        2.03106   0.00556   0.01810   0.00000   0.01810   2.04916
    R8        2.63782  -0.01558  -0.02089   0.00000  -0.02056   2.61726
    R9        3.32558   0.00089  -0.00068   0.00000  -0.00068   3.32490
   R10        2.63862  -0.00611  -0.01928   0.00000  -0.01936   2.61926
   R11        2.03543   0.00875   0.02685   0.00000   0.02685   2.06228
   R12        3.45282   0.06230   0.25381   0.00000   0.25484   3.70766
   R13        2.65080   0.01229   0.00508   0.00000   0.00476   2.65556
   R14        2.66495   0.06044   0.03337   0.00000   0.03158   2.69653
   R15        2.64077  -0.00686  -0.01499   0.00000  -0.01491   2.62586
   R16        2.03001   0.00528   0.01600   0.00000   0.01600   2.04601
   R17        2.63715  -0.01868  -0.02223   0.00000  -0.02181   2.61534
   R18        2.03106   0.00556   0.01810   0.00000   0.01810   2.04916
   R19        2.63782  -0.01558  -0.02089   0.00000  -0.02056   2.61726
   R20        3.32558   0.00089  -0.00068   0.00000  -0.00068   3.32490
   R21        2.63862  -0.00611  -0.01928   0.00000  -0.01936   2.61926
   R22        2.03543   0.00875   0.02685   0.00000   0.02685   2.06228
   R23        3.45282   0.06230   0.25381   0.00000   0.25484   3.70766
   R24        2.41386   1.96946   0.36267   0.00000   0.36528   2.77914
    A1        2.08219  -0.04953  -0.02442   0.00000  -0.02294   2.05925
    A2        2.09508  -0.09735   0.00136   0.00000   0.00494   2.10002
    A3        2.10592   0.14688   0.02306   0.00000   0.01800   2.12392
    A4        2.10243   0.03022   0.01607   0.00000   0.01520   2.11764
    A5        2.09641  -0.01116   0.00403   0.00000   0.00447   2.10088
    A6        2.08434  -0.01906  -0.02011   0.00000  -0.01967   2.06467
    A7        2.09126   0.00141  -0.00627   0.00000  -0.00638   2.08488
    A8        2.09695  -0.00016   0.00510   0.00000   0.00516   2.10210
    A9        2.09498  -0.00126   0.00117   0.00000   0.00122   2.09620
   A10        2.09911  -0.00206   0.00942   0.00000   0.00956   2.10866
   A11        2.09125   0.00053  -0.00629   0.00000  -0.00636   2.08489
   A12        2.09283   0.00153  -0.00313   0.00000  -0.00320   2.08963
   A13        2.09767   0.01154   0.00656   0.00000   0.00618   2.10386
   A14        2.09285  -0.00607  -0.00310   0.00000  -0.00291   2.08993
   A15        2.09266  -0.00548  -0.00346   0.00000  -0.00327   2.08939
   A16        2.09371   0.00842  -0.00137   0.00000  -0.00163   2.09208
   A17        2.12448   0.05431   0.06016   0.00000   0.05897   2.18345
   A18        2.06500  -0.06272  -0.05879   0.00000  -0.05734   2.00766
   A19        2.09508  -0.09735   0.00136   0.00000   0.00494   2.10002
   A20        2.10592   0.14688   0.02306   0.00000   0.01800   2.12392
   A21        2.08219  -0.04953  -0.02442   0.00000  -0.02294   2.05925
   A22        2.10243   0.03022   0.01607   0.00000   0.01520   2.11764
   A23        2.09641  -0.01116   0.00403   0.00000   0.00447   2.10088
   A24        2.08434  -0.01906  -0.02011   0.00000  -0.01967   2.06467
   A25        2.09126   0.00141  -0.00627   0.00000  -0.00638   2.08488
   A26        2.09695  -0.00016   0.00510   0.00000   0.00516   2.10210
   A27        2.09498  -0.00126   0.00117   0.00000   0.00122   2.09620
   A28        2.09911  -0.00206   0.00942   0.00000   0.00956   2.10866
   A29        2.09125   0.00053  -0.00629   0.00000  -0.00636   2.08489
   A30        2.09283   0.00153  -0.00313   0.00000  -0.00320   2.08963
   A31        2.09767   0.01154   0.00656   0.00000   0.00618   2.10386
   A32        2.09285  -0.00607  -0.00310   0.00000  -0.00291   2.08993
   A33        2.09266  -0.00548  -0.00346   0.00000  -0.00327   2.08939
   A34        2.09371   0.00842  -0.00137   0.00000  -0.00163   2.09208
   A35        2.12448   0.05431   0.06016   0.00000   0.05897   2.18345
   A36        2.06500  -0.06272  -0.05879   0.00000  -0.05734   2.00766
   A37        2.05279  -0.20119  -0.08322   0.00000  -0.07697   1.97582
   A38        2.05279  -0.20119  -0.08322   0.00000  -0.07697   1.97582
    D1        0.00000   0.00000   0.00000   0.00000   0.00000   0.00000
    D2        3.14159   0.00000   0.00000   0.00000   0.00000   3.14159
    D3       -3.14159   0.00000   0.00000   0.00000   0.00000  -3.14159
    D4       -0.00000   0.00000   0.00000   0.00000   0.00000  -0.00000
    D5       -0.00000  -0.00000  -0.00000   0.00000  -0.00000  -0.00000
    D6        3.14159  -0.00000   0.00000   0.00000   0.00000   3.14159
    D7        3.14159  -0.00000  -0.00000   0.00000  -0.00000   3.14159
    D8        0.00000  -0.00000   0.00000   0.00000   0.00000   0.00000
    D9       -0.00000  -0.00000  -0.00000   0.00000  -0.00000  -0.00000
   D10        3.14159  -0.00000  -0.00000   0.00000  -0.00000   3.14159
   D11        3.14159  -0.00000  -0.00000   0.00000  -0.00000   3.14159
   D12       -0.00000  -0.00000  -0.00000   0.00000  -0.00000  -0.00000
   D13        0.00000  -0.00000  -0.00000   0.00000   0.00000   0.00000
   D14        3.14159  -0.00000   0.00000   0.00000   0.00000   3.14159
   D15       -3.14159   0.00000  -0.00000   0.00000  -0.00000  -3.14159
   D16        0.00000   0.00000  -0.00000   0.00000  -0.00000   0.00000
   D17       -0.00000  -0.00000   0.00000   0.00000   0.00000  -0.00000
   D18        3.14159   0.00000  -0.00000   0.00000  -0.00000   3.14159
   D19        3.14159  -0.00000   0.00000   0.00000   0.00000   3.14159
   D20        0.00000   0.00000  -0.00000   0.00000  -0.00000   0.00000
   D21        0.00000   0.00000  -0.00000   0.00000  -0.00000   0.00000
   D22       -3.14159   0.00000  -0.00000   0.00000  -0.00000  -3.14159
   D23       -3.14159  -0.00000  -0.00000   0.00000  -0.00000  -3.14159
   D24        0.00000   0.00000   0.00000   0.00000   0.00000   0.00000
   D25       -0.00000   0.00000   0.00000   0.00000   0.00000  -0.00000
   D26        3.14159   0.00000  -0.00000   0.00000  -0.00000   3.14159
   D27        3.14159  -0.00000   0.00000   0.00000   0.00000   3.14159
   D28       -0.00000   0.00000  -0.00000   0.00000  -0.00000  -0.00000
   D29        0.00001  -0.00000  -0.00000   0.00000  -0.00000   0.00001
   D30       -3.14158  -0.00000  -0.00000   0.00000  -0.00000  -3.14158
   D31        3.14159   0.00000   0.00000   0.00000   0.00000   3.14159
   D32        0.00000   0.00000   0.00000   0.00000   0.00000   0.00000
   D33        0.00000   0.00000   0.00000   0.00000   0.00000   0.00000
   D34       -3.14159   0.00000  -0.00000   0.00000  -0.00000  -3.14159
   D35       -3.14159  -0.00000  -0.00000   0.00000  -0.00000  -3.14159
   D36        0.00000  -0.00000   0.00000   0.00000   0.00000   0.00000
   D37       -0.00000  -0.00000  -0.00000   0.00000  -0.00000  -0.00000
   D38        3.14159  -0.00000   0.00000   0.00000   0.00000   3.14159
   D39       -0.00000  -0.00000   0.00000   0.00000   0.00000  -0.00000
   D40        3.14159  -0.00000  -0.00000   0.00000  -0.00000   3.14159
   D41        3.14159   0.00000   0.00000   0.00000   0.00000   3.14159
   D42       -0.00000   0.00000   0.00000   0.00000   0.00000  -0.00000
   D43       -0.00000  -0.00000  -0.00000   0.00000  -0.00000  -0.00000
   D44       -3.14159  -0.00000  -0.00000   0.00000  -0.00000  -3.14159
   D45        3.14159  -0.00000   0.00000   0.00000   0.00000   3.14159
   D46        0.00000   0.00000  -0.00000   0.00000  -0.00000   0.00000
   D47        0.00000   0.00000  -0.00000   0.00000  -0.00000   0.00000
   D48       -3.14159   0.00000  -0.00000   0.00000  -0.00000  -3.14159
   D49        3.14159  -0.00000   0.00000   0.00000   0.00000   3.14159
   D50        0.00000   0.00000  -0.00000   0.00000  -0.00000   0.00000
   D51        0.00000   0.00000   0.00000   0.00000   0.00000   0.00000
   D52       -3.14159   0.00000  -0.00000   0.00000  -0.00000  -3.14159
   D53        3.14159   0.00000   0.00000   0.00000   0.00000   3.14159
   D54       -0.00000   0.00000  -0.00000   0.00000  -0.00000  -0.00000
   D55        0.00001  -0.00000  -0.00000   0.00000  -0.00000   0.00001
   D56       -3.14158  -0.00000  -0.00000   0.00000  -0.00000  -3.14158
   D57       -0.00001   0.00000   0.00000   0.00000   0.00000  -0.00001
         Item               Value     Threshold  Converged?
 Maximum Force            1.969459     0.000450     NO 
 RMS     Force            0.184814     0.000300     NO 
 Maximum Displacement     0.371634     0.001800     NO 
 RMS     Displacement     0.055081     0.001200     NO 
 Predicted change in Energy=-3.659516D-01
 GradGradGradGradGradGradGradGradGradGradGradGradGradGradGradGradGradGrad

                          Input orientation:                          
 ---------------------------------------------------------------------
 Center     Atomic      Atomic             Coordinates (Angstroms)
 Number     Number       Type             X           Y           Z
 ---------------------------------------------------------------------
      1          6           0        0.028320   -0.893166   -0.002624
      2          6           0        1.364622   -0.855423   -0.435787
[...]

 **********************************************************************

            Population analysis using the SCF Density.

 **********************************************************************

 Orbital symmetries:
       Occupied  (A) (A) (A) (A) (A) (A) (A) (A) (A) (A) (A) (A)
                 (A) (A) (A) (A) (A) (A) (A) (A) (A) (A) (A) (A)
                 (A) (A) (A) (A) (A) (A) (A) (A) (A) (A) (A) (A)
                 (A) (A) (A) (A) (A) (A) (A) (A) (A) (A) (A) (A)
                 (A) (A) (A) (A) (A) (A) (A) (A) (A) (A) (A) (A)
                 (A) (A) (A) (A) (A) (A) (A) (A) (A) (A) (A) (A)
                 (A)
       Virtual   (A) (A) (A) (A) (A) (A) (A) (A) (A) (A) (A) (A)
                 (A) (A) (A) (A) (A) (A) (A) (A) (A) (A) (A) (A)
                 (A) (A) (A) (A) (A) (A) (A) (A) (A) (A) (A) (A)
                 (A) (A) (A) (A) (A) (A) (A) (A) (A) (A) (A) (A)
                 (A) (A) (A) (A) (A) (A) (A) (A) (A) (A) (A) (A)
                 (A) (A) (A) (A) (A) (A) (A) (A) (A) (A) (A) (A)
                 (A) (A) (A) (A) (A) (A) (A) (A) (A) (A) (A) (A)
                 (A) (A) (A) (A) (A) (A) (A) (A) (A) (A) (A) (A)
                 (A) (A) (A) (A) (A) (A) (A) (A) (A) (A) (A) (A)
                 (A) (A) (A) (A) (A) (A) (A) (A) (A) (A) (A) (A)
                 (A) (A) (A) (A) (A) (A) (A) (A) (A) (A) (A) (A)
                 (A) (A) (A) (A) (A) (A) (A) (A) (A) (A) (A) (A)
                 (A) (A) (A) (A) (A) (A) (A) (A) (A) (A) (A) (A)
                 (A) (A) (A) (A) (A) (A) (A) (A) (A) (A) (A) (A)
                 (A) (A) (A) (A) (A) (A) (A) (A) (A) (A) (A) (A)
                 (A) (A) (A) (A) (A) (A) (A) (A) (A) (A) (A) (A)
                 (A) (A) (A) (A) (A) (A) (A) (A) (A) (A) (A) (A)
                 (A) (A) (A) (A) (A) (A) (A) (A) (A) (A) (A) (A)
                 (A) (A) (A) (A) (A) (A) (A) (A) (A) (A) (A) (A)
                 (A) (A) (A) (A) (A) (A) (A) (A) (A) (A) (A) (A)
                 (A) (A) (A) (A) (A) (A) (A) (A) (A) (A) (A) (A)
                 (A) (A) (A) (A) (A) (A) (A) (A) (A) (A) (A) (A)
                 (A) (A) (A) (A) (A) (A) (A) (A) (A) (A) (A) (A)
                 (A) (A) (A) (A) (A) (A) (A) (A) (A) (A) (A) (A)
                 (A) (A) (A) (A) (A) (A) (A) (A) (A) (A) (A) (A)
                 (A) (A) (A) (A) (A) (A) (A) (A) (A) (A) (A) (A)
                 (A) (A) (A) (A) (A) (A) (A) (A) (A) (A) (A) (A)
                 (A) (A) (A) (A) (A) (A) (A) (A) (A) (A) (A) (A)
                 (A) (A) (A) (A) (A) (A) (A) (A)
 The electronic state is 1-A.
 Alpha  occ. eigenvalues -- -101.56855-101.56855-101.56758-101.56758 -10.26315
 Alpha  occ. eigenvalues --  -10.26314 -10.26109 -10.26109 -10.22181 -10.22152
 Alpha  occ. eigenvalues --  -10.21161 -10.21161 -10.21044 -10.21044 -10.20722
 Alpha  occ. eigenvalues --  -10.20722  -9.48310  -9.48309  -9.48229  -9.48229
 Alpha  occ. eigenvalues --   -7.24776  -7.24776  -7.24695  -7.24695  -7.23791
 Alpha  occ. eigenvalues --   -7.23791  -7.23754  -7.23754  -7.23712  -7.23712
 Alpha  occ. eigenvalues --   -7.23664  -7.23664  -0.93422  -0.92116  -0.89304
 Alpha  occ. eigenvalues --   -0.88615  -0.85240  -0.84088  -0.79271  -0.77029
 Alpha  occ. eigenvalues --   -0.76622  -0.73306  -0.65008  -0.64186  -0.63383
 Alpha  occ. eigenvalues --   -0.60554  -0.55715  -0.51837  -0.51659  -0.51101
 Alpha  occ. eigenvalues --   -0.48940  -0.47973  -0.45835  -0.45792  -0.45583
 Alpha  occ. eigenvalues --   -0.42978  -0.42910  -0.41924  -0.39793  -0.39658
 Alpha  occ. eigenvalues --   -0.38743  -0.37910  -0.37437  -0.34099  -0.33687
 Alpha  occ. eigenvalues --   -0.33414  -0.33372  -0.32805  -0.32784  -0.27940
 Alpha  occ. eigenvalues --   -0.27915  -0.26831  -0.26354
 Alpha virt. eigenvalues --   -0.05439  -0.04935  -0.04192  -0.03967  -0.01753
 Alpha virt. eigenvalues --   -0.01265  -0.00429   0.00827   0.01603   0.01759
 Alpha virt. eigenvalues --    0.01856   0.01901   0.03416   0.03759   0.04604
 Alpha virt. eigenvalues --    0.04867   0.05394   0.05693   0.05818   0.06595
 Alpha virt. eigenvalues --    0.07037   0.08560   0.08589   0.08774   0.09016
 Alpha virt. eigenvalues --    0.09238   0.09962   0.10116   0.10674   0.10930
 Alpha virt. eigenvalues --    0.11380   0.11416   0.11937   0.11989   0.12665
 Alpha virt. eigenvalues --    0.13156   0.13418   0.13754   0.13913   0.14312
 Alpha virt. eigenvalues --    0.15315   0.15605   0.16116   0.16349   0.16450
 Alpha virt. eigenvalues --    0.17020   0.17588   0.17775   0.18237   0.18347
 Alpha virt. eigenvalues --    0.19053   0.19313   0.19333   0.20159   0.20260
 Alpha virt. eigenvalues --    0.20412   0.20878   0.21191   0.22323   0.22531
 Alpha virt. eigenvalues --    0.22783   0.22888   0.23583   0.23650   0.23888
 Alpha virt. eigenvalues --    0.25226   0.25261   0.25566   0.25873   0.26371
 Alpha virt. eigenvalues --    0.26768   0.26938   0.27586   0.28332   0.28854
 Alpha virt. eigenvalues --    0.28987   0.29166   0.29723   0.29759   0.30611
 Alpha virt. eigenvalues --    0.31970   0.32335   0.33755   0.33995   0.35513
 Alpha virt. eigenvalues --    0.35994   0.40363   0.41916   0.42254   0.43467
 Alpha virt. eigenvalues --    0.45204   0.45489   0.45744   0.46295   0.46329
 Alpha virt. eigenvalues --    0.47138   0.48035   0.48472   0.49963   0.50436
 Alpha virt. eigenvalues --    0.50455   0.51382   0.52602   0.54430   0.54719
 Alpha virt. eigenvalues --    0.54766   0.56274   0.56558   0.56980   0.58028
 Alpha virt. eigenvalues --    0.58209   0.58833   0.58941   0.61747   0.62160
 Alpha virt. eigenvalues --    0.62628   0.62805   0.64034   0.64349   0.64631
 Alpha virt. eigenvalues --    0.65909   0.66199   0.67039   0.68374   0.68555
 Alpha virt. eigenvalues --    0.69035   0.69529   0.70551   0.70937   0.71114
 Alpha virt. eigenvalues --    0.72344   0.73338   0.75279   0.78918   0.79853
 Alpha virt. eigenvalues --    0.81184   0.82517   0.83344   0.83537   0.83820
 Alpha virt. eigenvalues --    0.84060   0.84893   0.84975   0.85006   0.85292
 Alpha virt. eigenvalues --    0.85441   0.85737   0.86948   0.87673   0.87799
 Alpha virt. eigenvalues --    0.88215   0.88324   0.89989   0.90567   0.92192
 Alpha virt. eigenvalues --    0.92493   0.93730   0.94106   0.94690   0.95047
 Alpha virt. eigenvalues --    0.96127   0.96296   0.97212   0.97646   0.97749
 Alpha virt. eigenvalues --    0.98848   0.99637   1.01334   1.01602   1.02453
 Alpha virt. eigenvalues --    1.04167   1.07271   1.08264   1.11775   1.12605
 Alpha virt. eigenvalues --    1.14047   1.17040   1.18782   1.19138   1.23024
 Alpha virt. eigenvalues --    1.23642   1.23870   1.24696   1.24719   1.27299
 Alpha virt. eigenvalues --    1.28622   1.30694   1.31939   1.32667   1.33348
 Alpha virt. eigenvalues --    1.40035   1.40749   1.43642   1.48561   1.49065
 Alpha virt. eigenvalues --    1.50428   1.51573   1.54377   1.54687   1.55991
 Alpha virt. eigenvalues --    1.56754   1.57487   1.58193   1.60451   1.60562
 Alpha virt. eigenvalues --    1.65256   1.66408   1.66437   1.70016   1.70105
 Alpha virt. eigenvalues --    1.72350   1.72918   1.75630   1.78065   1.81047
 Alpha virt. eigenvalues --    1.82868   1.83350   1.86349   1.86414   1.91235
 Alpha virt. eigenvalues --    1.92158   1.93205   1.93344   1.93943   1.94047
 Alpha virt. eigenvalues --    1.97391   1.98025   1.99801   2.00022   2.01828
 Alpha virt. eigenvalues --    2.03054   2.03573   2.05300   2.07129   2.12601
 Alpha virt. eigenvalues --    2.13908   2.14011   2.20311   2.23141   2.23385
 Alpha virt. eigenvalues --    2.26575   2.26592   2.27238   2.28305   2.31022
 Alpha virt. eigenvalues --    2.33624   2.36333   2.36422   2.39336   2.39618
 Alpha virt. eigenvalues --    2.41294   2.44061   2.47612   2.50192   2.50881
 Alpha virt. eigenvalues --    2.51170   2.53010   2.54843   2.55550   2.57728
 Alpha virt. eigenvalues --    2.58396   2.60540   2.67483   2.67660   2.69062
 Alpha virt. eigenvalues --    2.69260   2.69931   2.71851   2.72339   2.73060
 Alpha virt. eigenvalues --    2.74250   2.75025   2.76578   2.76735   2.78415
 Alpha virt. eigenvalues --    2.80806   2.83396   2.83777   2.84309   2.84764
 Alpha virt. eigenvalues --    2.87895   2.90328   2.98285   2.98914   3.09524
 Alpha virt. eigenvalues --    3.09540   3.10343   3.13401   3.13777   3.14525
 Alpha virt. eigenvalues --    3.19569   3.22891   3.27538   3.32279   3.32318
 Alpha virt. eigenvalues --    3.41984   3.44155   3.53977   3.54692   3.58787
 Alpha virt. eigenvalues --    3.66806   3.76764   3.78830   3.81375   3.89234
 Alpha virt. eigenvalues --    4.05192   4.06550   4.12321   4.12331   4.34864
 Alpha virt. eigenvalues --    4.80859   4.81776   9.76588   9.77054   9.81391
 Alpha virt. eigenvalues --    9.82707  23.41823  23.57526  23.85727  23.86089
 Alpha virt. eigenvalues --   23.91172  23.92745  23.96845  24.04965  24.05308
 Alpha virt. eigenvalues --   24.07491  24.12877  24.15565  25.81984  25.82230
 Alpha virt. eigenvalues --   25.85909  25.95642  26.10226  26.10443  26.23747
 Alpha virt. eigenvalues --   26.31831  26.57117  26.58104  26.65298  26.81635
 Alpha virt. eigenvalues --  215.75698 215.76095 215.81655 215.82692
          Condensed to atoms (all electrons):
               1          2          3          4          5          6
     1  C   21.871289  -0.040026  -2.661354  -4.375780  -0.182820  -4.708306
     2  C   -0.040026  13.079271  -0.162734  -0.089402   1.378302  -5.261814
     3  C   -2.661354  -0.162734  18.205827  -2.787663  -9.572363   0.547686
     4  C   -4.375780  -0.089402  -2.787663  17.793625  -0.578214  -1.142206
     5  C   -0.182820   1.378302  -9.572363  -0.578214  21.853204  -3.988049
     6  C   -4.708306  -5.261814   0.547686  -1.142206  -3.988049  31.250983
     7  C    4.124375  -1.553828   1.135001  -1.365054  -1.390665  -4.342156
     8  C   -1.553529   0.578176  -0.013335   0.006271  -0.185077  -1.196792
     9  C    1.134936  -0.013380  -0.025210   0.070910   0.073742   0.933138
    10  C   -1.365036   0.006197   0.070929  -0.036184  -0.060645  -0.798418
    11  C   -1.390546  -0.185112   0.073749  -0.060621  -0.128709  -0.942434
    12  C   -4.342982  -1.196900   0.933249  -0.798525  -0.942573  -4.095417
    13  H    0.018782   0.339759  -0.050371  -0.015588  -0.033773  -0.065129
    14  H    0.020759  -0.061173   0.309991   0.031828   0.063086  -0.010307
    15  H    0.085269  -0.031875   0.081961   0.011091   0.205196  -0.012765
    16  H    0.071232   0.011593  -0.016839   0.008869   0.011737   0.073456
    17  H    0.002052  -0.000203  -0.000338  -0.000016   0.000043   0.000500
    18  H    0.014880   0.000017  -0.000367   0.000008   0.000162   0.001628
    19  Cl   0.070505   0.041527   0.065089  -0.027152   0.006303   0.152034
    20  Cl  -1.128698  -0.519263   0.478644  -0.349629  -0.631255   0.776725
    21  Cl  -0.046113   0.002539   0.005129  -0.000622  -0.002316  -0.038441
    22  Cl  -0.170377   0.213756   0.091316  -1.185543   0.522817  -0.141053
               7          8          9         10         11         12
     1  C    4.124375  -1.553529   1.134936  -1.365036  -1.390546  -4.342982
     2  C   -1.553828   0.578176  -0.013380   0.006197  -0.185112  -1.196900
     3  C    1.135001  -0.013335  -0.025210   0.070929   0.073749   0.933249
     4  C   -1.365054   0.006271   0.070910  -0.036184  -0.060621  -0.798525
     5  C   -1.390665  -0.185077   0.073742  -0.060645  -0.128709  -0.942573
     6  C   -4.342156  -1.196792   0.933138  -0.798418  -0.942434  -4.095417
     7  C   21.871602  -0.040262  -2.661388  -4.375931  -0.182878  -4.708568
     8  C   -0.040262  13.079334  -0.163003  -0.089246   1.378402  -5.262066
     9  C   -2.661388  -0.163003  18.206426  -2.787994  -9.572703   0.548247
    10  C   -4.375931  -0.089246  -2.787994  17.793642  -0.577800  -1.142409
    11  C   -0.182878   1.378402  -9.572703  -0.577800  21.852906  -3.988054
    12  C   -4.708568  -5.262066   0.548247  -1.142409  -3.988054  31.251987
    13  H    0.071230   0.011587  -0.016839   0.008869   0.011735   0.073459
    14  H    0.002050  -0.000202  -0.000338  -0.000016   0.000043   0.000499
    15  H    0.014880   0.000017  -0.000367   0.000008   0.000162   0.001627
    16  H    0.018778   0.339767  -0.050376  -0.015586  -0.033770  -0.065139
    17  H    0.020758  -0.061173   0.309985   0.031833   0.063090  -0.010312
    18  H    0.085269  -0.031875   0.081961   0.011085   0.205205  -0.012767
    19  Cl  -1.128749  -0.519289   0.478673  -0.349587  -0.631263   0.776813
    20  Cl   0.070563   0.041427   0.065132  -0.027146   0.006241   0.152153
    21  Cl  -0.170382   0.213747   0.091340  -1.185537   0.522791  -0.141040
    22  Cl  -0.046114   0.002544   0.005130  -0.000623  -0.002316  -0.038446
              13         14         15         16         17         18
     1  C    0.018782   0.020759   0.085269   0.071232   0.002052   0.014880
     2  C    0.339759  -0.061173  -0.031875   0.011593  -0.000203   0.000017
     3  C   -0.050371   0.309991   0.081961  -0.016839  -0.000338  -0.000367
     4  C   -0.015588   0.031828   0.011091   0.008869  -0.000016   0.000008
     5  C   -0.033773   0.063086   0.205196   0.011737   0.000043   0.000162
     6  C   -0.065129  -0.010307  -0.012765   0.073456   0.000500   0.001628
     7  C    0.071230   0.002050   0.014880   0.018778   0.020758   0.085269
     8  C    0.011587  -0.000202   0.000017   0.339767  -0.061173  -0.031875
     9  C   -0.016839  -0.000338  -0.000367  -0.050376   0.309985   0.081961
    10  C    0.008869  -0.000016   0.000008  -0.015586   0.031833   0.011085
    11  C    0.011735   0.000043   0.000162  -0.033770   0.063090   0.205205
    12  C    0.073459   0.000499   0.001627  -0.065139  -0.010312  -0.012767
    13  H    0.528415  -0.007284   0.000049  -0.000563   0.000009   0.000001
    14  H   -0.007284   0.508553  -0.000277   0.000009   0.000000   0.000000
    15  H    0.000049  -0.000277   0.493180   0.000001   0.000000   0.000000
    16  H   -0.000563   0.000009   0.000001   0.528415  -0.007284   0.000049
    17  H    0.000009   0.000000   0.000000  -0.007284   0.508553  -0.000277
    18  H    0.000001   0.000000   0.000000   0.000049  -0.000277   0.493180
    19  Cl  -0.007691  -0.000459  -0.001069  -0.001098   0.000850  -0.004801
    20  Cl  -0.001098   0.000850  -0.004802  -0.007692  -0.000459  -0.001069
    21  Cl   0.000077  -0.000001  -0.000001  -0.000298  -0.011423  -0.012844
    22  Cl  -0.000298  -0.011422  -0.012845   0.000077  -0.000001  -0.000001
              19         20         21         22
     1  C    0.070505  -1.128698  -0.046113  -0.170377
     2  C    0.041527  -0.519263   0.002539   0.213756
     3  C    0.065089   0.478644   0.005129   0.091316
     4  C   -0.027152  -0.349629  -0.000622  -1.185543
     5  C    0.006303  -0.631255  -0.002316   0.522817
     6  C    0.152034   0.776725  -0.038441  -0.141053
     7  C   -1.128749   0.070563  -0.170382  -0.046114
     8  C   -0.519289   0.041427   0.213747   0.002544
     9  C    0.478673   0.065132   0.091340   0.005130
    10  C   -0.349587  -0.027146  -1.185537  -0.000623
    11  C   -0.631263   0.006241   0.522791  -0.002316
    12  C    0.776813   0.152153  -0.141040  -0.038446
    13  H   -0.007691  -0.001098   0.000077  -0.000298
    14  H   -0.000459   0.000850  -0.000001  -0.011422
    15  H   -0.001069  -0.004802  -0.000001  -0.012845
    16  H   -0.001098  -0.007692  -0.000298   0.000077
    17  H    0.000850  -0.000459  -0.011423  -0.000001
    18  H   -0.004801  -0.001069  -0.012844  -0.000001
    19  Cl  17.708150   0.039119  -0.028400   0.005493
    20  Cl   0.039119  17.708163   0.005493  -0.028400
    21  Cl  -0.028400   0.005493  17.396978   0.000018
    22  Cl   0.005493  -0.028400   0.000018  17.396983
 Mulliken charges:
               1
     1  C    0.551487
     2  C   -0.535428
     3  C   -0.707996
     4  C    0.889597
     5  C   -0.418134
     6  C   -0.992863
     7  C    0.551467
     8  C   -0.535422
     9  C   -0.708020
    10  C    0.889595
    11  C   -0.418116
    12  C   -0.992838
    13  H    0.134661
    14  H    0.153812
    15  H    0.170557
    16  H    0.134662
    17  H    0.153812
    18  H    0.170558
    19  Cl   0.355001
    20  Cl   0.355002
    21  Cl   0.399304
    22  Cl   0.399304
 Sum of Mulliken charges =  -0.00000
 Mulliken charges with hydrogens summed into heavy atoms:
               1
     1  C    0.551487
     2  C   -0.400767
     3  C   -0.554185
     4  C    0.889597
     5  C   -0.247577
     6  C   -0.992863
     7  C    0.551467
     8  C   -0.400761
     9  C   -0.554208
    10  C    0.889595
    11  C   -0.247558
    12  C   -0.992838
    19  Cl   0.355001
    20  Cl   0.355002
    21  Cl   0.399304
    22  Cl   0.399304
 Electronic spatial extent (au):  <R**2>=           6537.6514
 Charge=              0.0000 electrons
 Dipole moment (field-independent basis, Debye):
    X=             -0.0000    Y=             -1.8900    Z=             -0.0001  Tot=              1.8900
 Quadrupole moment (field-independent basis, Debye-Ang):
   XX=           -127.7004   YY=           -116.6151   ZZ=           -119.4877
   XY=              0.0001   XZ=              0.7187   YZ=              0.0002
 Traceless Quadrupole moment (field-independent basis, Debye-Ang):
   XX=             -6.4327   YY=              4.6526   ZZ=              1.7801
   XY=              0.0001   XZ=              0.7187   YZ=              0.0002
 Octapole moment (field-independent basis, Debye-Ang**2):
  XXX=             -0.0011  YYY=              4.3003  ZZZ=             -0.0004  XYY=              0.0024
  XXY=             13.9102  XXZ=              0.0010  XZZ=             -0.0025  YZZ=             -2.3192
  YYZ=              0.0008  XYZ=            -15.7159
 Hexadecapole moment (field-independent basis, Debye-Ang**3):
 XXXX=          -7129.6326 YYYY=           -932.0073 ZZZZ=           -868.0859 XXXY=              0.0063
 XXXZ=            -27.0825 YYYX=             -0.0054 YYYZ=             -0.0069 ZZZX=              6.5187
 ZZZY=              0.0066 XXYY=          -1288.0915 XXZZ=          -1281.3883 YYZZ=           -270.7845
 XXYZ=              0.0007 YYXZ=             26.8359 ZZXY=              0.0038
 N-N= 1.433731398599D+03 E-N=-8.311914873182D+03  KE= 2.295553676750D+03
 1\1\GINC-DAMODAR\FOpt\RB3LYP\6-311+G(d,p)\C12H6Cl4\PKC\15-Mar-2022\0\\
 # opt b3lyp/6-311+g(d,p) scf=xqc\\Title Card Required\\0,1\C,-0.018281
 9053,-0.8817645946,0.0524173125\C,1.3064591321,-0.8852138504,0.5039194
 923\C,2.0672144489,0.2776066535,0.5601707645\C,1.4898669738,1.47535528
 5,0.153206557\C,0.1793518792,1.5245222703,-0.3061147676\C,-0.558618236
 9,0.3447360395,-0.3512898776\C,-0.7870872185,-2.1582946505,-0.00912792
 74\C,-0.6332772637,-3.0142118042,-1.105737272\C,-1.3150648391,-4.22293
 2044,-1.1964621231\C,-2.1720195886,-4.5870270364,-0.163693462\C,-2.351
 7656319,-3.7700234726,0.9458294123\C,-1.6563749806,-2.5654901989,1.009
 5866353\H,1.7445494208,-1.8231490741,0.8248100233\H,3.0889105259,0.255
 1837922,0.9155690411\H,-0.2619789615,2.4585597805,-0.6248307506\H,0.03
 22140883,-2.717707049,-1.9081233968\H,-1.1855139993,-4.8696396421,-2.0
 541673837\H,-3.0165409709,-4.0611640281,1.7471344451\Cl,-1.8921865702,
 -1.556500592,2.4257130798\Cl,-2.2075679212,0.431191815,-0.9450610304\C
 l,-3.0446334617,-6.1072219664,-0.253891462\Cl,2.4283434606,2.957266317
 3,0.2146093901\\Version=EM64L-G16RevB.01\State=1-A\HF=-2301.9042855\RM
 SD=5.273e-09\RMSF=3.314e-06\Dipole=0.6014989,-0.3495925,-0.2624386\Qua
 drupole=1.3144052,-2.9159559,1.6015507,-3.3934657,-0.3950442,0.7147133
 \PG=C01 [X(C12H6Cl4)]\\@


 GOORD'S AXIOM:  A MEETING IS AN EVENT AT WHICH
 THE MINUTES ARE KEPT AND THE HOURS ARE LOST.
 Job cpu time:       1 days  1 hours  9 minutes 30.8 seconds.
 Elapsed time:       0 days  6 hours 18 minutes 29.7 seconds.
 File lengths (MBytes):  RWF=    121 Int=      0 D2E=      0 Chk=     19 Scr=      1
 Normal termination of Gaussian 16 at Tue Mar 15 18:01:53 2022.
