 Entering Gaussian System, Link 0=g16
 Input=2,2prime,3,3prime,4,4prime,5,6prime-Octachlorobiphenyl.gjf
 Output=2,2prime,3,3prime,4,4prime,5,6prime-Octachlorobiphenyl.log
 Initial command:
 /home/apps/g16/l1.exe "./Gau-10898.inp" -scrdir="./"
 Entering Link 1 = /home/apps/g16/l1.exe PID=     10899.
  
 Copyright (c) 1988-2017, Gaussian, Inc.  All Rights Reserved.
  
 This is part of the Gaussian(R) 16 program.  It is based on
 the Gaussian(R) 09 system (copyright 2009, Gaussian, Inc.),
 the Gaussian(R) 03 system (copyright 2003, Gaussian, Inc.),
 the Gaussian(R) 98 system (copyright 1998, Gaussian, Inc.),
 the Gaussian(R) 94 system (copyright 1995, Gaussian, Inc.),
 the Gaussian 92(TM) system (copyright 1992, Gaussian, Inc.),
 the Gaussian 90(TM) system (copyright 1990, Gaussian, Inc.),
 the Gaussian 88(TM) system (copyright 1988, Gaussian, Inc.),
 the Gaussian 86(TM) system (copyright 1986, Carnegie Mellon
 University), and the Gaussian 82(TM) system (copyright 1983,
 Carnegie Mellon University). Gaussian is a federally registered
 trademark of Gaussian, Inc.
  
 This software contains proprietary and confidential information,
 including trade secrets, belonging to Gaussian, Inc.
  
 This software is provided under written license and may be
 used, copied, transmitted, or stored only in accord with that
 written license.
  
 The following legend is applicable only to US Government
 contracts under FAR:
  
                    RESTRICTED RIGHTS LEGEND
  
 Use, reproduction and disclosure by the US Government is
 subject to restrictions as set forth in subparagraphs (a)
 and (c) of the Commercial Computer Software - Restricted
 Rights clause in FAR 52.227-19.
  
 Gaussian, Inc.
 340 Quinnipiac St., Bldg. 40, Wallingford CT 06492
  
  
 ---------------------------------------------------------------
 Warning -- This program may not be used in any manner that
 competes with the business of Gaussian, Inc. or will provide
 assistance to any competitor of Gaussian, Inc.  The licensee
 of this program is prohibited from giving any competitor of
 Gaussian, Inc. access to this program.  By using this program,
 the user acknowledges that Gaussian, Inc. is engaged in the
 business of creating and licensing software in the field of
 computational chemistry and represents and warrants to the
 licensee that it is not a competitor of Gaussian, Inc. and that
 it will not use this program in any manner prohibited above.
 ---------------------------------------------------------------
  

 Cite this work as:
 Gaussian 16, Revision B.01,
 M. J. Frisch, G. W. Trucks, H. B. Schlegel, G. E. Scuseria, 
 M. A. Robb, J. R. Cheeseman, G. Scalmani, V. Barone, 
 G. A. Petersson, H. Nakatsuji, X. Li, M. Caricato, A. V. Marenich, 
 J. Bloino, B. G. Janesko, R. Gomperts, B. Mennucci, H. P. Hratchian, 
 J. V. Ortiz, A. F. Izmaylov, J. L. Sonnenberg, D. Williams-Young, 
 F. Ding, F. Lipparini, F. Egidi, J. Goings, B. Peng, A. Petrone, 
 T. Henderson, D. Ranasinghe, V. G. Zakrzewski, J. Gao, N. Rega, 
 G. Zheng, W. Liang, M. Hada, M. Ehara, K. Toyota, R. Fukuda, 
 J. Hasegawa, M. Ishida, T. Nakajima, Y. Honda, O. Kitao, H. Nakai, 
 T. Vreven, K. Throssell, J. A. Montgomery, Jr., J. E. Peralta, 
 F. Ogliaro, M. J. Bearpark, J. J. Heyd, E. N. Brothers, K. N. Kudin, 
 V. N. Staroverov, T. A. Keith, R. Kobayashi, J. Normand, 
 K. Raghavachari, A. P. Rendell, J. C. Burant, S. S. Iyengar, 
 J. Tomasi, M. Cossi, J. M. Millam, M. Klene, C. Adamo, R. Cammi, 
 J. W. Ochterski, R. L. Martin, K. Morokuma, O. Farkas, 
 J. B. Foresman, and D. J. Fox, Gaussian, Inc., Wallingford CT, 2016.
 
 ******************************************
 Gaussian 16:  EM64L-G16RevB.01 20-Dec-2017
                 2-Apr-2022 
 ******************************************
 %mem=32GB
 %nprocshared=16
 Will use up to   16 processors via shared memory.
 --------------------------------
 # opt b3lyp/6-311+g(d,p) scf=xqc
 --------------------------------
 1/18=20,19=15,26=3,38=1/1,3;
 2/9=110,12=2,17=6,18=5,40=1/2;
 3/5=4,6=6,7=111,11=2,25=1,30=1,71=1,74=-5/1,2,3;
 4//1;
 5/5=2,8=3,13=1,38=5/2,8;
 6/7=2,8=2,9=2,10=2,28=1/1;
 7//1,2,3,16;
 1/18=20,19=15,26=3/3(2);
 2/9=110/2;
 99//99;
 2/9=110/2;
 3/5=4,6=6,7=111,11=2,25=1,30=1,71=1,74=-5/1,2,3;
 4/5=5,16=3,69=1/1;
 5/5=2,8=3,13=1,38=5/2,8;
 7//1,2,3,16;
 1/18=20,19=15,26=3/3(-5);
 2/9=110/2;
 6/7=2,8=2,9=2,10=2,19=2,28=1/1;
 99/9=1/99;
 -------------------
 Title Card Required
 -------------------
 Symbolic Z-matrix:
 Charge =  0 Multiplicity = 1
 C                     0.15852   0.08245  -0.00392 
 C                     1.4909    0.11234  -0.43726 
 C                     2.19879   1.32179  -0.44333 
 C                     1.57431   2.50135  -0.01606 
 C                     0.24193   2.47147   0.41728 
 C                    -0.46597   1.26202   0.42336 
 C                    -0.86766  -1.6708    0.00489 
 C                    -0.24317  -2.85036  -0.42239 
 C                    -0.95106  -4.05981  -0.41631 
 C                    -2.28344  -4.0897    0.01704 
 C                    -2.90793  -2.91013   0.44431 
 C                    -2.20004  -1.70068   0.43824 
 H                     3.2161    1.34461  -0.7742 
 H                     0.77413  -2.82754  -0.75326 
 Cl                   -2.98432  -0.21928   0.97485 
 Cl                   -2.13929   1.22448   0.96759 
 Cl                   -4.58125  -2.94767   0.98855 
 Cl                   -0.54236   3.95287   0.95389 
 Cl                   -3.17248  -5.60863   0.02467 
 Cl                    2.46334   4.02029  -0.02369 
 Cl                   -0.16678  -5.54121  -0.95292 
 Cl                    2.27519  -1.36906  -0.97387 
 

 GradGradGradGradGradGradGradGradGradGradGradGradGradGradGradGradGradGrad
 Berny optimization.
 Initialization pass.
                           ----------------------------
                           !    Initial Parameters    !
                           ! (Angstroms and Degrees)  !
 --------------------------                            --------------------------
 ! Name  Definition              Value          Derivative Info.                !
 --------------------------------------------------------------------------------
 ! R1    R(1,2)                  1.4014         estimate D2E/DX2                !
 ! R2    R(1,6)                  1.4014         estimate D2E/DX2                !
 ! R3    R(2,3)                  1.4014         estimate D2E/DX2                !
 ! R4    R(2,22)                 1.76           estimate D2E/DX2                !
 ! R5    R(3,4)                  1.4014         estimate D2E/DX2                !
 ! R6    R(3,13)                 1.07           estimate D2E/DX2                !
 ! R7    R(4,5)                  1.4014         estimate D2E/DX2                !
 ! R8    R(4,20)                 1.76           estimate D2E/DX2                !
 ! R9    R(5,6)                  1.4014         estimate D2E/DX2                !
 ! R10   R(5,18)                 1.76           estimate D2E/DX2                !
 ! R11   R(6,16)                 1.76           estimate D2E/DX2                !
 ! R12   R(7,8)                  1.4014         estimate D2E/DX2                !
 ! R13   R(7,12)                 1.4014         estimate D2E/DX2                !
 ! R14   R(8,9)                  1.4014         estimate D2E/DX2                !
 ! R15   R(8,14)                 1.07           estimate D2E/DX2                !
 ! R16   R(9,10)                 1.4014         estimate D2E/DX2                !
 ! R17   R(9,21)                 1.76           estimate D2E/DX2                !
 ! R18   R(10,11)                1.4014         estimate D2E/DX2                !
 ! R19   R(10,19)                1.76           estimate D2E/DX2                !
 ! R20   R(11,12)                1.4014         estimate D2E/DX2                !
 ! R21   R(11,17)                1.76           estimate D2E/DX2                !
 ! R22   R(12,15)                1.76           estimate D2E/DX2                !
 ! R23   R(15,16)                1.6729         estimate D2E/DX2                !
 ! A1    A(2,1,6)              120.0            estimate D2E/DX2                !
 ! A2    A(1,2,3)              120.0            estimate D2E/DX2                !
 ! A3    A(1,2,22)             120.0            estimate D2E/DX2                !
 ! A4    A(3,2,22)             120.0            estimate D2E/DX2                !
 ! A5    A(2,3,4)              120.0            estimate D2E/DX2                !
 ! A6    A(2,3,13)             120.0            estimate D2E/DX2                !
 ! A7    A(4,3,13)             120.0            estimate D2E/DX2                !
 ! A8    A(3,4,5)              120.0            estimate D2E/DX2                !
 ! A9    A(3,4,20)             120.0            estimate D2E/DX2                !
 ! A10   A(5,4,20)             120.0            estimate D2E/DX2                !
 ! A11   A(4,5,6)              120.0            estimate D2E/DX2                !
 ! A12   A(4,5,18)             120.0            estimate D2E/DX2                !
 ! A13   A(6,5,18)             120.0            estimate D2E/DX2                !
 ! A14   A(1,6,5)              120.0            estimate D2E/DX2                !
 ! A15   A(1,6,16)             120.0            estimate D2E/DX2                !
 ! A16   A(5,6,16)             120.0            estimate D2E/DX2                !
 ! A17   A(8,7,12)             120.0            estimate D2E/DX2                !
 ! A18   A(7,8,9)              120.0            estimate D2E/DX2                !
 ! A19   A(7,8,14)             120.0            estimate D2E/DX2                !
 ! A20   A(9,8,14)             120.0            estimate D2E/DX2                !
 ! A21   A(8,9,10)             120.0            estimate D2E/DX2                !
 ! A22   A(8,9,21)             120.0            estimate D2E/DX2                !
 ! A23   A(10,9,21)            120.0            estimate D2E/DX2                !
 ! A24   A(9,10,11)            120.0            estimate D2E/DX2                !
 ! A25   A(9,10,19)            120.0            estimate D2E/DX2                !
 ! A26   A(11,10,19)           120.0            estimate D2E/DX2                !
 ! A27   A(10,11,12)           120.0            estimate D2E/DX2                !
 ! A28   A(10,11,17)           120.0            estimate D2E/DX2                !
 ! A29   A(12,11,17)           120.0            estimate D2E/DX2                !
 ! A30   A(7,12,11)            120.0            estimate D2E/DX2                !
 ! A31   A(7,12,15)            120.0            estimate D2E/DX2                !
 ! A32   A(11,12,15)           120.0            estimate D2E/DX2                !
 ! A33   A(12,15,16)           120.0            estimate D2E/DX2                !
 ! A34   A(6,16,15)            120.0            estimate D2E/DX2                !
 ! D1    D(6,1,2,3)              0.0001         estimate D2E/DX2                !
 ! D2    D(6,1,2,22)           180.0            estimate D2E/DX2                !
 ! D3    D(2,1,6,5)             -0.0001         estimate D2E/DX2                !
 ! D4    D(2,1,6,16)           180.0            estimate D2E/DX2                !
 ! D5    D(1,2,3,4)              0.0            estimate D2E/DX2                !
 ! D6    D(1,2,3,13)           180.0            estimate D2E/DX2                !
 ! D7    D(22,2,3,4)          -179.9999         estimate D2E/DX2                !
 ! D8    D(22,2,3,13)            0.0001         estimate D2E/DX2                !
 ! D9    D(2,3,4,5)             -0.0001         estimate D2E/DX2                !
 ! D10   D(2,3,4,20)           180.0            estimate D2E/DX2                !
 ! D11   D(13,3,4,5)           179.9999         estimate D2E/DX2                !
 ! D12   D(13,3,4,20)            0.0            estimate D2E/DX2                !
 ! D13   D(3,4,5,6)              0.0001         estimate D2E/DX2                !
 ! D14   D(3,4,5,18)          -179.9999         estimate D2E/DX2                !
 ! D15   D(20,4,5,6)          -180.0            estimate D2E/DX2                !
 ! D16   D(20,4,5,18)            0.0            estimate D2E/DX2                !
 ! D17   D(4,5,6,1)              0.0            estimate D2E/DX2                !
 ! D18   D(4,5,6,16)           179.9999         estimate D2E/DX2                !
 ! D19   D(18,5,6,1)           180.0            estimate D2E/DX2                !
 ! D20   D(18,5,6,16)           -0.0001         estimate D2E/DX2                !
 ! D21   D(1,6,16,15)            0.0004         estimate D2E/DX2                !
 ! D22   D(5,6,16,15)         -179.9996         estimate D2E/DX2                !
 ! D23   D(12,7,8,9)             0.0001         estimate D2E/DX2                !
 ! D24   D(12,7,8,14)         -179.9998         estimate D2E/DX2                !
 ! D25   D(8,7,12,11)           -0.0001         estimate D2E/DX2                !
 ! D26   D(8,7,12,15)          179.9999         estimate D2E/DX2                !
 ! D27   D(7,8,9,10)             0.0            estimate D2E/DX2                !
 ! D28   D(7,8,9,21)           180.0            estimate D2E/DX2                !
 ! D29   D(14,8,9,10)          179.9998         estimate D2E/DX2                !
 ! D30   D(14,8,9,21)           -0.0002         estimate D2E/DX2                !
 ! D31   D(8,9,10,11)            0.0            estimate D2E/DX2                !
 ! D32   D(8,9,10,19)         -179.9999         estimate D2E/DX2                !
 ! D33   D(21,9,10,11)         180.0            estimate D2E/DX2                !
 ! D34   D(21,9,10,19)           0.0001         estimate D2E/DX2                !
 ! D35   D(9,10,11,12)           0.0            estimate D2E/DX2                !
 ! D36   D(9,10,11,17)        -179.9998         estimate D2E/DX2                !
 ! D37   D(19,10,11,12)        179.9999         estimate D2E/DX2                !
 ! D38   D(19,10,11,17)          0.0001         estimate D2E/DX2                !
 ! D39   D(10,11,12,7)           0.0            estimate D2E/DX2                !
 ! D40   D(10,11,12,15)       -179.9999         estimate D2E/DX2                !
 ! D41   D(17,11,12,7)         179.9999         estimate D2E/DX2                !
 ! D42   D(17,11,12,15)         -0.0001         estimate D2E/DX2                !
 ! D43   D(7,12,15,16)           0.0004         estimate D2E/DX2                !
 ! D44   D(11,12,15,16)       -179.9997         estimate D2E/DX2                !
 ! D45   D(12,15,16,6)          -0.0006         estimate D2E/DX2                !
 --------------------------------------------------------------------------------
 Trust Radius=3.00D-01 FncErr=1.00D-07 GrdErr=1.00D-06 EigMax=2.50D+02 EigMin=1.00D-04
 Number of steps in this run=    112 maximum allowed number of steps=    132.
 GradGradGradGradGradGradGradGradGradGradGradGradGradGradGradGradGradGrad

                          Input orientation:                          
 ---------------------------------------------------------------------
 Center     Atomic      Atomic             Coordinates (Angstroms)
 Number     Number       Type             X           Y           Z
 ---------------------------------------------------------------------
      1          6           0        0.158520    0.082450   -0.003916
      2          6           0        1.490901    0.112336   -0.437263
      3          6           0        2.198794    1.321787   -0.443335
      4          6           0        1.574307    2.501352   -0.016060
      5          6           0        0.241925    2.471467    0.417284
      6          6           0       -0.465968    1.262016    0.423357
      7          6           0       -0.867658   -1.670797    0.004888
      8          6           0       -0.243171   -2.850362   -0.422387
      9          6           0       -0.951064   -4.059813   -0.416313
     10          6           0       -2.283444   -4.089699    0.017037
     11          6           0       -2.907931   -2.910134    0.444312
     12          6           0       -2.200038   -1.700683    0.438238
     13          1           0        3.216097    1.344606   -0.774204
     14          1           0        0.774132   -2.827543   -0.753257
     15         17           0       -2.984323   -0.219283    0.974850
     16         17           0       -2.139289    1.224483    0.967591
     17         17           0       -4.581248   -2.947669    0.988555
     18         17           0       -0.542361    3.952868    0.953890
     19         17           0       -3.172476   -5.608634    0.024668
     20         17           0        2.463342    4.020286   -0.023686
     21         17           0       -0.166778   -5.541213   -0.952922
     22         17           0        2.275187   -1.369065   -0.973868
 ---------------------------------------------------------------------
                    Distance matrix (angstroms):
                    1          2          3          4          5
     1  C    0.000000
     2  C    1.401400   0.000000
     3  C    2.427296   1.401400   0.000000
     4  C    2.802800   2.427296   1.401400   0.000000
     5  C    2.427296   2.802800   2.427296   1.401400   0.000000
     6  C    1.401400   2.427296   2.802800   2.427296   1.401400
     7  C    2.031500   2.989625   4.308084   4.834300   4.308084
     8  C    2.989625   3.432900   4.834300   5.666495   5.409457
     9  C    4.308084   4.834300   6.235700   7.041774   6.691466
    10  C    4.834300   5.666495   7.041774   7.637100   7.041774
    11  C    4.308084   5.409457   6.691466   7.041774   6.235700
    12  C    2.989625   4.204351   5.409457   5.666495   4.834300
    13  H    3.396345   2.146700   1.070000   2.146700   3.396345
    14  H    3.067336   3.042450   4.398029   5.438829   5.452790
    15  Cl   3.305523   4.704429   5.590246   5.400450   4.237887
    16  Cl   2.743718   4.048303   4.562800   4.048303   2.743718
    17  Cl   5.712445   6.947487   8.139259   8.282026   7.277114
    18  Cl   4.048303   4.562800   4.048303   2.743718   1.760000
    19  Cl   6.594300   7.395266   8.780678   9.397100   8.780678
    20  Cl   4.562800   4.048303   2.743718   1.760000   2.743718
    21  Cl   5.712445   5.914087   7.277114   8.282026   8.139259
    22  Cl   2.743718   1.760000   2.743718   4.048303   4.562800
                    6          7          8          9         10
     6  C    0.000000
     7  C    2.989625   0.000000
     8  C    4.204351   1.401400   0.000000
     9  C    5.409457   2.427296   1.401400   0.000000
    10  C    5.666495   2.802800   2.427296   1.401400   0.000000
    11  C    4.834300   2.427296   2.802800   2.427296   1.401400
    12  C    3.432900   1.401400   2.427296   2.802800   2.427296
    13  H    3.872800   5.135824   5.448675   6.833817   7.771916
    14  H    4.432466   2.146700   1.070000   2.146700   3.396345
    15  Cl   2.973298   2.743718   4.048303   4.562800   4.048303
    16  Cl   1.760000   3.305523   4.704429   5.590246   5.400450
    17  Cl   5.914087   4.048303   4.562800   4.048303   2.743718
    18  Cl   2.743718   5.712445   6.947487   8.139259   8.282025
    19  Cl   7.395266   4.562800   4.048303   2.743718   1.760000
    20  Cl   4.048303   6.594300   7.395266   8.780678   9.397100
    21  Cl   6.947487   4.048303   2.743718   1.760000   2.743718
    22  Cl   4.048303   3.305523   2.973298   4.237887   5.400450
                   11         12         13         14         15
    11  C    0.000000
    12  C    1.401400   0.000000
    13  H    7.555879   6.330744   0.000000
    14  H    3.872800   3.396345   4.834300   0.000000
    15  Cl   2.743718   1.760000   6.629490   4.890332   0.000000
    16  Cl   4.237887   2.973298   5.632800   5.279038   1.672900
    17  Cl   1.760000   2.743718   9.073563   5.632800   3.161400
    18  Cl   7.277114   5.914087   4.890332   7.114877   4.834300
    19  Cl   2.743718   4.048303   9.476266   4.890332   5.475705
    20  Cl   8.780678   7.395266   2.879094   7.090731   6.974816
    21  Cl   4.048303   4.562800   7.674001   2.879094   6.322800
    22  Cl   5.590246   4.704429   2.879094   2.104518   5.725552
                   16         17         18         19         20
    16  Cl   0.000000
    17  Cl   4.834300   0.000000
    18  Cl   3.161400   7.995700   0.000000
    19  Cl   6.974816   3.161400   9.960084   0.000000
    20  Cl   5.475705   9.960084   3.161400  11.157100   0.000000
    21  Cl   7.304369   5.475705   9.690953   3.161400   9.960084
    22  Cl   5.475705   7.304369   6.322800   6.974816   5.475705
                   21         22
    21  Cl   0.000000
    22  Cl   4.834300   0.000000
 Stoichiometry    C12H2Cl8
 Framework group  C1[X(C12H2Cl8)]
 Deg. of freedom    60
 Full point group                 C1      NOp   1
 Largest Abelian subgroup         C1      NOp   1
 Largest concise Abelian subgroup C1      NOp   1
                         Standard orientation:                         
 ---------------------------------------------------------------------
 Center     Atomic      Atomic             Coordinates (Angstroms)
 Number     Number       Type             X           Y           Z
 ---------------------------------------------------------------------
      1          6           0        1.210795    0.547877    0.000002
      2          6           0        1.785437    1.826043   -0.000000
      3          6           0        3.179682    1.967471   -0.000002
      4          6           0        3.999285    0.830733   -0.000002
      5          6           0        3.424643   -0.447433    0.000001
      6          6           0        2.030398   -0.588861    0.000003
      7          6           0       -0.810334    0.342860    0.000003
      8          6           0       -1.629937    1.479598    0.000003
      9          6           0       -3.024182    1.338170    0.000003
     10          6           0       -3.598825    0.060004    0.000001
     11          6           0       -2.779222   -1.076734    0.000000
     12          6           0       -1.384976   -0.935306    0.000001
     13          1           0        3.618434    2.943379   -0.000004
     14          1           0       -1.191185    2.455506    0.000002
     15         17           0       -0.355648   -2.362920   -0.000003
     16         17           0        1.308712   -2.194093    0.000006
     17         17           0       -3.500907   -2.681966   -0.000006
     18         17           0        4.453972   -1.875047    0.000004
     19         17           0       -5.349839   -0.117614   -0.000002
     20         17           0        5.750300    1.008351   -0.000005
     21         17           0       -4.053511    2.765784    0.000004
     22         17           0        0.756108    3.253657   -0.000003
 ---------------------------------------------------------------------
 Rotational constants (GHZ):           0.3148860           0.1024513           0.0773008
 Standard basis: 6-311+G(d,p) (5D, 7F)
 There are   536 symmetry adapted cartesian basis functions of A   symmetry.
 There are   516 symmetry adapted basis functions of A   symmetry.
   516 basis functions,   872 primitive gaussians,   536 cartesian basis functions
   105 alpha electrons      105 beta electrons
       nuclear repulsion energy      2673.9223436742 Hartrees.
 NAtoms=   22 NActive=   22 NUniq=   22 SFac= 1.00D+00 NAtFMM=   60 NAOKFM=F Big=F
 Integral buffers will be    131072 words long.
 Raffenetti 2 integral format.
 Two-electron integral symmetry is turned on.
 One-electron integrals computed using PRISM.
 NBasis=   516 RedAO= T EigKep=  1.12D-06  NBF=   516
 NBsUse=   509 1.00D-06 EigRej=  8.34D-07 NBFU=   509
 ExpMin= 4.38D-02 ExpMax= 1.06D+05 ExpMxC= 3.62D+03 IAcc=3 IRadAn=         5 AccDes= 0.00D+00
 Harris functional with IExCor=  402 and IRadAn=       5 diagonalized for initial guess.
 HarFok:  IExCor=  402 AccDes= 0.00D+00 IRadAn=         5 IDoV= 1 UseB2=F ITyADJ=14
 ICtDFT=  3500011 ScaDFX=  1.000000  1.000000  1.000000  1.000000
 FoFCou: FMM=F IPFlag=           0 FMFlag=      100000 FMFlg1=           0
         NFxFlg=           0 DoJE=T BraDBF=F KetDBF=T FulRan=T
         wScrn=  0.000000 ICntrl=       500 IOpCl=  0 I1Cent=   200000004 NGrid=           0
         NMat0=    1 NMatS0=      1 NMatT0=    0 NMatD0=    1 NMtDS0=    0 NMtDT0=    0
 Petite list used in FoFCou.
 Requested convergence on RMS density matrix=1.00D-08 within  32 cycles.
 Requested convergence on MAX density matrix=1.00D-06.
 Requested convergence on             energy=1.00D-06.
 No special actions if energy rises.
 EnCoef did     3 forward-backward iterations
 EnCoef did     4 forward-backward iterations
 EnCoef did     6 forward-backward iterations
 Restarting incremental Fock formation.
 SCF Done:  E(RB3LYP) =  -4139.79734058     A.U. after   28 cycles
            NFock= 28  Conv=0.15D-08     -V/T= 2.0021
 QCSCF skips out because SCF is already converged.

 **********************************************************************

            Population analysis using the SCF Density.

 **********************************************************************

 Orbital symmetries:
       Occupied  (A) (A) (A) (A) (A) (A) (A) (A) (A) (A) (A) (A)
                 (A) (A) (A) (A) (A) (A) (A) (A) (A) (A) (A) (A)
                 (A) (A) (A) (A) (A) (A) (A) (A) (A) (A) (A) (A)
                 (A) (A) (A) (A) (A) (A) (A) (A) (A) (A) (A) (A)
                 (A) (A) (A) (A) (A) (A) (A) (A) (A) (A) (A) (A)
                 (A) (A) (A) (A) (A) (A) (A) (A) (A) (A) (A) (A)
                 (A) (A) (A) (A) (A) (A) (A) (A) (A) (A) (A) (A)
                 (A) (A) (A) (A) (A) (A) (A) (A) (A) (A) (A) (A)
                 (A) (A) (A) (A) (A) (A) (A) (A) (A)
       Virtual   (A) (A) (A) (A) (A) (A) (A) (A) (A) (A) (A) (A)
                 (A) (A) (A) (A) (A) (A) (A) (A) (A) (A) (A) (A)
                 (A) (A) (A) (A) (A) (A) (A) (A) (A) (A) (A) (A)
                 (A) (A) (A) (A) (A) (A) (A) (A) (A) (A) (A) (A)
                 (A) (A) (A) (A) (A) (A) (A) (A) (A) (A) (A) (A)
                 (A) (A) (A) (A) (A) (A) (A) (A) (A) (A) (A) (A)
                 (A) (A) (A) (A) (A) (A) (A) (A) (A) (A) (A) (A)
                 (A) (A) (A) (A) (A) (A) (A) (A) (A) (A) (A) (A)
                 (A) (A) (A) (A) (A) (A) (A) (A) (A) (A) (A) (A)
                 (A) (A) (A) (A) (A) (A) (A) (A) (A) (A) (A) (A)
                 (A) (A) (A) (A) (A) (A) (A) (A) (A) (A) (A) (A)
                 (A) (A) (A) (A) (A) (A) (A) (A) (A) (A) (A) (A)
                 (A) (A) (A) (A) (A) (A) (A) (A) (A) (A) (A) (A)
                 (A) (A) (A) (A) (A) (A) (A) (A) (A) (A) (A) (A)
                 (A) (A) (A) (A) (A) (A) (A) (A) (A) (A) (A) (A)
                 (A) (A) (A) (A) (A) (A) (A) (A) (A) (A) (A) (A)
                 (A) (A) (A) (A) (A) (A) (A) (A) (A) (A) (A) (A)
                 (A) (A) (A) (A) (A) (A) (A) (A) (A) (A) (A) (A)
                 (A) (A) (A) (A) (A) (A) (A) (A) (A) (A) (A) (A)
                 (A) (A) (A) (A) (A) (A) (A) (A) (A) (A) (A) (A)
                 (A) (A) (A) (A) (A) (A) (A) (A) (A) (A) (A) (A)
                 (A) (A) (A) (A) (A) (A) (A) (A) (A) (A) (A) (A)
                 (A) (A) (A) (A) (A) (A) (A) (A) (A) (A) (A) (A)
                 (A) (A) (A) (A) (A) (A) (A) (A) (A) (A) (A) (A)
                 (A) (A) (A) (A) (A) (A) (A) (A) (A) (A) (A) (A)
                 (A) (A) (A) (A) (A) (A) (A) (A) (A) (A) (A) (A)
                 (A) (A) (A) (A) (A) (A) (A) (A) (A) (A) (A) (A)
                 (A) (A) (A) (A) (A) (A) (A) (A) (A) (A) (A) (A)
                 (A) (A) (A) (A) (A) (A) (A) (A) (A) (A) (A) (A)
                 (A) (A) (A) (A) (A) (A) (A) (A) (A) (A) (A) (A)
                 (A) (A) (A) (A) (A) (A) (A) (A) (A) (A) (A) (A)
                 (A) (A) (A) (A) (A) (A) (A) (A) (A) (A) (A) (A)
                 (A) (A) (A) (A) (A) (A) (A) (A) (A) (A) (A) (A)
                 (A) (A) (A) (A) (A) (A) (A) (A)
 The electronic state is 1-A.
 Alpha  occ. eigenvalues -- -101.64414-101.63716-101.57794-101.57767-101.57586
 Alpha  occ. eigenvalues -- -101.57477-101.57221-101.57217 -10.29245 -10.28853
 Alpha  occ. eigenvalues --  -10.28148 -10.28124 -10.27840 -10.27804 -10.27619
 Alpha  occ. eigenvalues --  -10.27035 -10.24846 -10.24736 -10.22629 -10.21860
 Alpha  occ. eigenvalues --   -9.57047  -9.56442  -9.49314  -9.49276  -9.49011
 Alpha  occ. eigenvalues --   -9.48912  -9.48719  -9.48665  -7.33672  -7.33179
 Alpha  occ. eigenvalues --   -7.32442  -7.32051  -7.31744  -7.31357  -7.25765
 Alpha  occ. eigenvalues --   -7.25765  -7.25502  -7.25417  -7.25183  -7.25148
 Alpha  occ. eigenvalues --   -7.24786  -7.24757  -7.24753  -7.24682  -7.24496
 Alpha  occ. eigenvalues --   -7.24428  -7.24395  -7.24312  -7.24205  -7.24149
 Alpha  occ. eigenvalues --   -7.24143  -7.24088  -1.13275  -0.95527  -0.94646
 Alpha  occ. eigenvalues --   -0.90899  -0.90557  -0.88939  -0.87662  -0.86147
 Alpha  occ. eigenvalues --   -0.85450  -0.83746  -0.78867  -0.76643  -0.74821
 Alpha  occ. eigenvalues --   -0.74636  -0.68773  -0.64695  -0.62926  -0.61802
 Alpha  occ. eigenvalues --   -0.59364  -0.56536  -0.53645  -0.53298  -0.52437
 Alpha  occ. eigenvalues --   -0.52196  -0.50942  -0.48781  -0.47283  -0.46266
 Alpha  occ. eigenvalues --   -0.45707  -0.45507  -0.44939  -0.44142  -0.42788
 Alpha  occ. eigenvalues --   -0.41763  -0.39831  -0.39423  -0.37666  -0.36896
 Alpha  occ. eigenvalues --   -0.36702  -0.35670  -0.35097  -0.35019  -0.34691
 Alpha  occ. eigenvalues --   -0.34162  -0.33255  -0.32823  -0.32310  -0.31801
 Alpha  occ. eigenvalues --   -0.28978  -0.28002  -0.26873  -0.26463  -0.13878
 Alpha virt. eigenvalues --   -0.10676  -0.07632  -0.06726  -0.06499  -0.05720
 Alpha virt. eigenvalues --   -0.03797  -0.03208  -0.01998  -0.01551  -0.00225
 Alpha virt. eigenvalues --    0.00342   0.00830   0.01131   0.02082   0.02619
 Alpha virt. eigenvalues --    0.03032   0.03238   0.03663   0.04602   0.05126
 Alpha virt. eigenvalues --    0.05144   0.05386   0.05778   0.06461   0.06703
 Alpha virt. eigenvalues --    0.06782   0.07238   0.07389   0.08026   0.08244
 Alpha virt. eigenvalues --    0.08790   0.08919   0.08970   0.09545   0.09579
 Alpha virt. eigenvalues --    0.10042   0.10534   0.10784   0.11190   0.11799
 Alpha virt. eigenvalues --    0.11972   0.12154   0.12750   0.12762   0.12964
 Alpha virt. eigenvalues --    0.13820   0.13995   0.14067   0.14482   0.14699
 Alpha virt. eigenvalues --    0.14810   0.14972   0.15360   0.16668   0.16925
 Alpha virt. eigenvalues --    0.16979   0.17342   0.17599   0.17864   0.18862
 Alpha virt. eigenvalues --    0.19120   0.19602   0.19924   0.20344   0.20509
 Alpha virt. eigenvalues --    0.20887   0.21153   0.21498   0.21892   0.22456
 Alpha virt. eigenvalues --    0.22497   0.22815   0.23324   0.24056   0.24155
 Alpha virt. eigenvalues --    0.24649   0.25207   0.26079   0.26144   0.26401
 Alpha virt. eigenvalues --    0.26523   0.26872   0.27385   0.27808   0.28735
 Alpha virt. eigenvalues --    0.28966   0.29511   0.29603   0.30028   0.30829
 Alpha virt. eigenvalues --    0.31183   0.32060   0.32796   0.33206   0.34397
 Alpha virt. eigenvalues --    0.34456   0.35162   0.37349   0.38836   0.39167
 Alpha virt. eigenvalues --    0.39904   0.40867   0.41399   0.41991   0.42125
 Alpha virt. eigenvalues --    0.43109   0.43313   0.43633   0.43923   0.44483
 Alpha virt. eigenvalues --    0.45064   0.45228   0.45494   0.46215   0.46472
 Alpha virt. eigenvalues --    0.46926   0.47279   0.48037   0.48307   0.48858
 Alpha virt. eigenvalues --    0.48972   0.49688   0.49723   0.51122   0.51932
 Alpha virt. eigenvalues --    0.52306   0.52574   0.53613   0.54853   0.55378
 Alpha virt. eigenvalues --    0.56314   0.57323   0.57870   0.58032   0.58613
 Alpha virt. eigenvalues --    0.58616   0.59286   0.59567   0.60295   0.60710
 Alpha virt. eigenvalues --    0.60962   0.60989   0.62745   0.62853   0.63873
 Alpha virt. eigenvalues --    0.65140   0.65215   0.66114   0.67942   0.68805
 Alpha virt. eigenvalues --    0.68897   0.70999   0.74411   0.75488   0.75650
 Alpha virt. eigenvalues --    0.78299   0.78729   0.80797   0.81178   0.81928
 Alpha virt. eigenvalues --    0.82390   0.82928   0.83006   0.83237   0.83244
 Alpha virt. eigenvalues --    0.84035   0.84226   0.84608   0.84744   0.85000
 Alpha virt. eigenvalues --    0.85327   0.85450   0.85820   0.85955   0.86548
 Alpha virt. eigenvalues --    0.86975   0.87023   0.87450   0.88083   0.88450
 Alpha virt. eigenvalues --    0.89149   0.90794   0.91071   0.91361   0.92348
 Alpha virt. eigenvalues --    0.93123   0.93155   0.93546   0.94112   0.94474
 Alpha virt. eigenvalues --    0.94518   0.94760   0.95155   0.95496   0.95990
 Alpha virt. eigenvalues --    0.96247   0.97622   0.97694   0.98683   0.99086
 Alpha virt. eigenvalues --    1.00383   1.01259   1.03480   1.04156   1.04271
 Alpha virt. eigenvalues --    1.06161   1.06461   1.08144   1.11512   1.12798
 Alpha virt. eigenvalues --    1.15729   1.16864   1.18857   1.19180   1.20211
 Alpha virt. eigenvalues --    1.21202   1.21508   1.22541   1.22790   1.22923
 Alpha virt. eigenvalues --    1.24480   1.25563   1.25908   1.27002   1.27011
 Alpha virt. eigenvalues --    1.28092   1.28349   1.28950   1.29595   1.30095
 Alpha virt. eigenvalues --    1.30665   1.33391   1.34949   1.37752   1.45203
 Alpha virt. eigenvalues --    1.45979   1.47970   1.49347   1.49855   1.50534
 Alpha virt. eigenvalues --    1.56210   1.58151   1.59091   1.59923   1.60866
 Alpha virt. eigenvalues --    1.62847   1.66891   1.68789   1.71197   1.73413
 Alpha virt. eigenvalues --    1.74503   1.76912   1.79017   1.79402   1.81920
 Alpha virt. eigenvalues --    1.83006   1.83369   1.84471   1.84915   1.85084
 Alpha virt. eigenvalues --    1.85757   1.85953   1.87484   1.87563   1.94370
 Alpha virt. eigenvalues --    1.97772   2.00446   2.03119   2.04298   2.06068
 Alpha virt. eigenvalues --    2.08287   2.13306   2.15930   2.17381   2.19524
 Alpha virt. eigenvalues --    2.21237   2.21994   2.22991   2.23503   2.24504
 Alpha virt. eigenvalues --    2.25029   2.25561   2.25903   2.26618   2.27852
 Alpha virt. eigenvalues --    2.28252   2.29654   2.29759   2.31877   2.33373
 Alpha virt. eigenvalues --    2.34871   2.37653   2.40239   2.41523   2.42078
 Alpha virt. eigenvalues --    2.42871   2.43636   2.44206   2.45473   2.50351
 Alpha virt. eigenvalues --    2.51891   2.54779   2.55660   2.56860   2.58025
 Alpha virt. eigenvalues --    2.58393   2.59071   2.59576   2.60039   2.61681
 Alpha virt. eigenvalues --    2.66355   2.68775   2.70681   2.72750   2.73440
 Alpha virt. eigenvalues --    2.73588   2.74041   2.75726   2.76781   2.80705
 Alpha virt. eigenvalues --    2.83450   2.84424   2.85205   2.85933   2.87394
 Alpha virt. eigenvalues --    3.04353   3.05382   3.06324   3.08617   3.08907
 Alpha virt. eigenvalues --    3.12306   3.14179   3.14545   3.19221   3.21035
 Alpha virt. eigenvalues --    3.23652   3.26862   3.31856   3.36309   3.39704
 Alpha virt. eigenvalues --    3.47244   3.54164   3.65324   3.66637   3.73665
 Alpha virt. eigenvalues --    3.76092   3.86393   3.95337   4.03985   4.06697
 Alpha virt. eigenvalues --    4.79570   4.80261   9.66435   9.74347   9.76100
 Alpha virt. eigenvalues --    9.78722   9.80202   9.80349   9.83672   9.97368
 Alpha virt. eigenvalues --   23.27474  23.31051  23.78053  23.78321  23.82407
 Alpha virt. eigenvalues --   23.82919  23.92985  23.93573  23.94940  23.97158
 Alpha virt. eigenvalues --   24.04211  24.05867  25.72829  25.76138  25.77811
 Alpha virt. eigenvalues --   25.80697  25.83135  25.85327  25.88443  25.98459
 Alpha virt. eigenvalues --   26.07991  26.09908  26.12255  26.12773  26.20130
 Alpha virt. eigenvalues --   26.23662  26.36965  26.46748  26.50876  26.58764
 Alpha virt. eigenvalues --   26.68012  26.70851  26.83530  26.96017  27.00066
 Alpha virt. eigenvalues --   27.02148 215.66914 215.73743 215.76180 215.78572
 Alpha virt. eigenvalues --  215.80118 215.80468 215.84256 216.03734
          Condensed to atoms (all electrons):
               1          2          3          4          5          6
     1  C   33.186876  -5.873020  -7.076873   1.908444  -6.412308   1.068502
     2  C   -5.873020  30.564113   4.408990  -8.204932  -2.231084  -5.986765
     3  C   -7.076873   4.408990  26.361780  -3.054419 -11.174106  -0.361158
     4  C    1.908444  -8.204932  -3.054419  29.748498  -6.080795  -6.365120
     5  C   -6.412308  -2.231084 -11.174106  -6.080795  34.445783  -2.230934
     6  C    1.068502  -5.986765  -0.361158  -6.365120  -2.230934  35.001596
     7  C    9.301280  -5.452306  -3.910806   0.453291  -3.167217  -3.400386
     8  C   -0.032386   2.034449  -0.307523  -0.323899   0.385884  -1.293034
     9  C   -3.006558  -0.956852   0.679252  -0.071998  -0.578360  -0.283298
    10  C    0.504688   1.168369   0.318456   0.026275   0.095929  -0.561860
    11  C   -4.243726  -0.141204  -0.330805  -0.046470  -0.204247   1.326859
    12  C   -3.815295  -2.875664  -0.274158  -0.619741   0.111834  -2.482643
    13  H    0.001492  -0.107901   0.195940   0.120490   0.007604   0.108193
    14  H    0.050218  -0.035345   0.031290   0.011600  -0.002339  -0.002950
    15  Cl   2.947835  -0.928579  -0.495658   0.825725  -4.064163  16.803694
    16  Cl  -9.698249   0.864402   0.609958  -1.233308   8.267899 -24.513010
    17  Cl  -0.075011  -0.055564  -0.014129   0.005830  -0.004430  -0.009633
    18  Cl  -0.913688   0.735032   1.350214  -0.041092  -2.352973   0.736809
    19  Cl  -0.075290   0.000233  -0.000292  -0.000452  -0.001693   0.001509
    20  Cl  -0.324116  -0.486616  -0.406291  -1.205659   1.449546   0.115116
    21  Cl  -0.236013  -0.051855  -0.002870  -0.005060  -0.011607  -0.040002
    22  Cl  -0.194553  -0.250710   0.013900  -0.550641   0.277763   0.087712
               7          8          9         10         11         12
     1  C    9.301280  -0.032386  -3.006558   0.504688  -4.243726  -3.815295
     2  C   -5.452306   2.034449  -0.956852   1.168369  -0.141204  -2.875664
     3  C   -3.910806  -0.307523   0.679252   0.318456  -0.330805  -0.274158
     4  C    0.453291  -0.323899  -0.071998   0.026275  -0.046470  -0.619741
     5  C   -3.167217   0.385884  -0.578360   0.095929  -0.204247   0.111834
     6  C   -3.400386  -1.293034  -0.283298  -0.561860   1.326859  -2.482643
     7  C   34.142159  -3.061945  -6.379270   9.747642  -9.155747  -4.457159
     8  C   -3.061945  14.913856  -1.701771  -6.097072   3.819021  -1.840425
     9  C   -6.379270  -1.701771  19.572769  -6.087881  -2.738388   7.301868
    10  C    9.747642  -6.097072  -6.087881  30.280737  -8.733161  -9.863587
    11  C   -9.155747   3.819021  -2.738388  -8.733161  24.205088  -0.450234
    12  C   -4.457159  -1.840425   7.301868  -9.863587  -0.450234  25.333821
    13  H   -0.005009   0.000214  -0.000994   0.000372   0.000132   0.000229
    14  H    0.064687   0.225400  -0.081736   0.003155  -0.001340   0.062372
    15  Cl  -8.794958  -1.056080   1.207687  -6.221911   6.764347  -7.457750
    16  Cl   3.383552   1.004477  -0.536663   3.586424  -4.177735   7.625969
    17  Cl  -0.983844   0.512646  -0.167242  -1.065473   0.067058   0.575255
    18  Cl  -0.070387  -0.007792   0.009066  -0.009293  -0.032827  -0.149752
    19  Cl   0.048597  -0.380216  -0.266085  -0.036778   0.335897  -0.463710
    20  Cl  -0.105730  -0.004408  -0.001939   0.001025   0.000051   0.005979
    21  Cl  -1.241094   0.277431   0.416581  -0.768718  -0.021735   0.774499
    22  Cl   0.117453  -0.063950  -0.563039  -0.048188   0.176774  -0.124567
              13         14         15         16         17         18
     1  C    0.001492   0.050218   2.947835  -9.698249  -0.075011  -0.913688
     2  C   -0.107901  -0.035345  -0.928579   0.864402  -0.055564   0.735032
     3  C    0.195940   0.031290  -0.495658   0.609958  -0.014129   1.350214
     4  C    0.120490   0.011600   0.825725  -1.233308   0.005830  -0.041092
     5  C    0.007604  -0.002339  -4.064163   8.267899  -0.004430  -2.352973
     6  C    0.108193  -0.002950  16.803694 -24.513010  -0.009633   0.736809
     7  C   -0.005009   0.064687  -8.794958   3.383552  -0.983844  -0.070387
     8  C    0.000214   0.225400  -1.056080   1.004477   0.512646  -0.007792
     9  C   -0.000994  -0.081736   1.207687  -0.536663  -0.167242   0.009066
    10  C    0.000372   0.003155  -6.221911   3.586424  -1.065473  -0.009293
    11  C    0.000132  -0.001340   6.764347  -4.177735   0.067058  -0.032827
    12  C    0.000229   0.062372  -7.457750   7.625969   0.575255  -0.149752
    13  H    0.507856   0.000001  -0.005352   0.022542  -0.000002  -0.004101
    14  H    0.000001   0.556309   0.027332  -0.021159   0.001558  -0.000018
    15  Cl  -0.005352   0.027332  69.309529 -53.227450   0.253595  -0.305220
    16  Cl   0.022542  -0.021159 -53.227450  84.974632  -0.830396  -0.630335
    17  Cl  -0.000002   0.001558   0.253595  -0.830396  18.301872  -0.003617
    18  Cl  -0.004101  -0.000018  -0.305220  -0.630335  -0.003617  18.358737
    19  Cl  -0.000000   0.001283   0.112550  -0.038406  -0.274200  -0.000040
    20  Cl   0.005756   0.000097  -0.059981   0.263596  -0.000059  -0.356484
    21  Cl  -0.000031  -0.014639   0.061646  -0.024071   0.015000   0.000092
    22  Cl  -0.013335  -0.030592  -0.009626   0.004341   0.003240   0.007874
              19         20         21         22
     1  C   -0.075290  -0.324116  -0.236013  -0.194553
     2  C    0.000233  -0.486616  -0.051855  -0.250710
     3  C   -0.000292  -0.406291  -0.002870   0.013900
     4  C   -0.000452  -1.205659  -0.005060  -0.550641
     5  C   -0.001693   1.449546  -0.011607   0.277763
     6  C    0.001509   0.115116  -0.040002   0.087712
     7  C    0.048597  -0.105730  -1.241094   0.117453
     8  C   -0.380216  -0.004408   0.277431  -0.063950
     9  C   -0.266085  -0.001939   0.416581  -0.563039
    10  C   -0.036778   0.001025  -0.768718  -0.048188
    11  C    0.335897   0.000051  -0.021735   0.176774
    12  C   -0.463710   0.005979   0.774499  -0.124567
    13  H   -0.000000   0.005756  -0.000031  -0.013335
    14  H    0.001283   0.000097  -0.014639  -0.030592
    15  Cl   0.112550  -0.059981   0.061646  -0.009626
    16  Cl  -0.038406   0.263596  -0.024071   0.004341
    17  Cl  -0.274200  -0.000059   0.015000   0.003240
    18  Cl  -0.000040  -0.356484   0.000092   0.007874
    19  Cl  17.597441  -0.000004  -0.217153  -0.001189
    20  Cl  -0.000004  17.643164  -0.000047  -0.020801
    21  Cl  -0.217153  -0.000047  17.576713  -0.026121
    22  Cl  -0.001189  -0.020801  -0.026121  17.630343
 Mulliken charges:
               1
     1  C   -0.992248
     2  C   -0.137190
     3  C   -0.560690
     4  C    0.703434
     5  C   -0.525986
     6  C   -1.719196
     7  C   -1.072802
     8  C   -1.002876
     9  C    0.234851
    10  C   -0.239152
    11  C   -0.417608
    12  C   -0.917139
    13  H    0.165905
    14  H    0.154817
    15  Cl   1.312788
    16  Cl   1.322989
    17  Cl   0.747546
    18  Cl   0.679795
    19  Cl   0.657999
    20  Cl   0.487804
    21  Cl   0.539052
    22  Cl   0.577908
 Sum of Mulliken charges =  -0.00000
 Mulliken charges with hydrogens summed into heavy atoms:
               1
     1  C   -0.992248
     2  C   -0.137190
     3  C   -0.394785
     4  C    0.703434
     5  C   -0.525986
     6  C   -1.719196
     7  C   -1.072802
     8  C   -0.848059
     9  C    0.234851
    10  C   -0.239152
    11  C   -0.417608
    12  C   -0.917139
    15  Cl   1.312788
    16  Cl   1.322989
    17  Cl   0.747546
    18  Cl   0.679795
    19  Cl   0.657999
    20  Cl   0.487804
    21  Cl   0.539052
    22  Cl   0.577908
 Electronic spatial extent (au):  <R**2>=          11850.9429
 Charge=             -0.0000 electrons
 Dipole moment (field-independent basis, Debye):
    X=              0.5923    Y=             -1.0528    Z=              0.0000  Tot=              1.2079
 Quadrupole moment (field-independent basis, Debye-Ang):
   XX=           -189.6197   YY=           -164.3963   ZZ=           -170.6670
   XY=              1.5602   XZ=             -0.0000   YZ=             -0.0000
 Traceless Quadrupole moment (field-independent basis, Debye-Ang):
   XX=            -14.7254   YY=             10.4980   ZZ=              4.2274
   XY=              1.5602   XZ=             -0.0000   YZ=             -0.0000
 Octapole moment (field-independent basis, Debye-Ang**2):
  XXX=            -25.5695  YYY=            -27.0748  ZZZ=             -0.0000  XYY=             10.3331
  XXY=             11.9611  XXZ=             -0.0001  XZZ=             -2.8088  YZZ=             -9.7980
  YYZ=             -0.0000  XYZ=              0.0000
 Hexadecapole moment (field-independent basis, Debye-Ang**3):
 XXXX=         -11884.9988 YYYY=          -3681.7084 ZZZZ=           -198.7094 XXXY=             25.7342
 XXXZ=              0.0002 YYYX=            -34.5771 YYYZ=             -0.0001 ZZZX=              0.0001
 ZZZY=             -0.0000 XXYY=          -2536.9498 XXZZ=          -1993.1308 YYZZ=           -676.7818
 XXYZ=              0.0001 YYXZ=             -0.0001 ZZXY=            -10.6034
 N-N= 2.673922343674D+03 E-N=-1.516037982328D+04  KE= 4.131124831024D+03
 Calling FoFJK, ICntrl=      2127 FMM=F ISym2X=0 I1Cent= 0 IOpClX= 0 NMat=1 NMatS=1 NMatT=0.
 ***** Axes restored to original set *****
 -------------------------------------------------------------------
 Center     Atomic                   Forces (Hartrees/Bohr)
 Number     Number              X              Y              Z
 -------------------------------------------------------------------
      1        6          -0.025049018   -0.006307123    0.007068195
      2        6          -0.021645206    0.013993333    0.009759257
      3        6          -0.009596940   -0.001626942    0.002856281
      4        6          -0.003185338   -0.006689630   -0.000207116
      5        6          -0.005031137   -0.014483634   -0.001062417
      6        6           0.107248453    0.021083457   -0.031374034
      7        6           0.002190911    0.022707094    0.003542589
      8        6          -0.020111953   -0.002259531    0.006201803
      9        6          -0.001620051    0.006045110    0.001669054
     10        6          -0.004061959   -0.006499311    0.000117629
     11        6           0.000825344    0.011260784    0.001843004
     12        6           0.027512150   -0.050995640   -0.018641702
     13        1           0.008975285    0.000948602   -0.002778722
     14        1          -0.003121999   -0.005750296   -0.000051550
     15       17          -0.307896385   -0.440605991    0.018692474
     16       17           0.226744599    0.435952662    0.007169672
     17       17          -0.001740463   -0.005144461   -0.000392839
     18       17           0.000745565    0.007006944    0.001070339
     19       17           0.002566511    0.004130063   -0.000069911
     20       17           0.004394864   -0.002982593   -0.002008100
     21       17           0.000357332    0.006781030    0.001155794
     22       17           0.021499433    0.013436071   -0.004559701
 -------------------------------------------------------------------
 Cartesian Forces:  Max     0.440605991 RMS     0.091411598

 GradGradGradGradGradGradGradGradGradGradGradGradGradGradGradGradGradGrad
 Berny optimization.
 FormGI is forming the generalized inverse of G from B-inverse, IUseBI=4.
 Internal  Forces:  Max     0.551457202 RMS     0.057592865
 Search for a local minimum.
 Step number   1 out of a maximum of  112
 All quantities printed in internal units (Hartrees-Bohrs-Radians)
 Mixed Optimization -- RFO/linear search
 Second derivative matrix not updated -- first step.
 ITU=  0
     Eigenvalues ---    0.00238   0.00238   0.01655   0.01655   0.02070
     Eigenvalues ---    0.02070   0.02070   0.02070   0.02070   0.02070
     Eigenvalues ---    0.02070   0.02070   0.02070   0.02070   0.02070
     Eigenvalues ---    0.02070   0.02070   0.02070   0.04301   0.16000
     Eigenvalues ---    0.16000   0.23353   0.23485   0.25000   0.25000
     Eigenvalues ---    0.25000   0.25000   0.25000   0.25000   0.25000
     Eigenvalues ---    0.25000   0.25000   0.25000   0.25000   0.25000
     Eigenvalues ---    0.25000   0.25000   0.29539   0.29539   0.29539
     Eigenvalues ---    0.29539   0.29539   0.29539   0.29539   0.29539
     Eigenvalues ---    0.37230   0.37230   0.41665   0.41671   0.42170
     Eigenvalues ---    0.42184   0.45389   0.45389   0.45389   0.45389
     Eigenvalues ---    0.45389   0.45389   0.45389   0.45389   1.32680
 RFO step:  Lambda=-2.57273833D-01 EMin= 2.37799080D-03
 Linear search not attempted -- first point.
 Maximum step size (   0.300) exceeded in Quadratic search.
    -- Step size scaled by   0.604
 Iteration  1 RMS(Cart)=  0.32838555 RMS(Int)=  0.00858146
 Iteration  2 RMS(Cart)=  0.03528673 RMS(Int)=  0.00012018
 Iteration  3 RMS(Cart)=  0.00033143 RMS(Int)=  0.00002297
 Iteration  4 RMS(Cart)=  0.00000003 RMS(Int)=  0.00002297
 Variable       Old X    -DE/DX   Delta X   Delta X   Delta X     New X
                                 (Linear)    (Quad)   (Total)
    R1        2.64826   0.01328   0.00000   0.01173   0.01176   2.66002
    R2        2.64826  -0.00615   0.00000  -0.00471  -0.00466   2.64360
    R3        2.64826  -0.01215   0.00000  -0.01040  -0.01041   2.63785
    R4        3.32592  -0.00034   0.00000  -0.00037  -0.00037   3.32555
    R5        2.64826  -0.02632   0.00000  -0.02289  -0.02293   2.62533
    R6        2.02201   0.00941   0.00000   0.00904   0.00904   2.03104
    R7        2.64826  -0.01344   0.00000  -0.01186  -0.01190   2.63636
    R8        3.32592  -0.00035   0.00000  -0.00038  -0.00038   3.32554
    R9        2.64826  -0.00509   0.00000  -0.00425  -0.00424   2.64402
   R10        3.32592   0.00589   0.00000   0.00644   0.00644   3.33236
   R11        3.32592   0.08159   0.00000   0.08921   0.08921   3.41513
   R12        2.64826  -0.00673   0.00000  -0.00584  -0.00583   2.64244
   R13        2.64826  -0.01457   0.00000  -0.01237  -0.01234   2.63592
   R14        2.64826  -0.00937   0.00000  -0.00809  -0.00810   2.64016
   R15        2.02201  -0.00308   0.00000  -0.00295  -0.00295   2.01906
   R16        2.64826  -0.00992   0.00000  -0.00845  -0.00847   2.63979
   R17        3.32592  -0.00590   0.00000  -0.00645  -0.00645   3.31947
   R18        2.64826  -0.00966   0.00000  -0.00809  -0.00811   2.64016
   R19        3.32592  -0.00486   0.00000  -0.00532  -0.00532   3.32060
   R20        2.64826  -0.00306   0.00000  -0.00247  -0.00246   2.64580
   R21        3.32592   0.00164   0.00000   0.00180   0.00180   3.32771
   R22        3.32592   0.01926   0.00000   0.02106   0.02106   3.34698
   R23        3.16132   0.55146   0.00000   0.21039   0.21039   3.37171
    A1        2.09440  -0.03276   0.00000  -0.03718  -0.03706   2.05733
    A2        2.09440   0.01647   0.00000   0.02000   0.02002   2.11441
    A3        2.09440   0.03460   0.00000   0.04103   0.04102   2.13541
    A4        2.09440  -0.05107   0.00000  -0.06103  -0.06104   2.03336
    A5        2.09440   0.00371   0.00000   0.00364   0.00358   2.09797
    A6        2.09440  -0.00109   0.00000  -0.00071  -0.00068   2.09372
    A7        2.09440  -0.00262   0.00000  -0.00293  -0.00290   2.09149
    A8        2.09440  -0.00596   0.00000  -0.00861  -0.00870   2.08570
    A9        2.09440  -0.00645   0.00000  -0.00693  -0.00688   2.08751
   A10        2.09440   0.01241   0.00000   0.01553   0.01558   2.10997
   A11        2.09440   0.00419   0.00000   0.00434   0.00431   2.09870
   A12        2.09440  -0.00877   0.00000  -0.01012  -0.01010   2.08429
   A13        2.09440   0.00457   0.00000   0.00578   0.00579   2.10019
   A14        2.09440   0.01434   0.00000   0.01780   0.01785   2.11225
   A15        2.09440   0.01720   0.00000   0.02014   0.02011   2.11451
   A16        2.09440  -0.03155   0.00000  -0.03794  -0.03797   2.05643
   A17        2.09440  -0.02539   0.00000  -0.03067  -0.03062   2.06377
   A18        2.09440   0.01280   0.00000   0.01569   0.01569   2.11009
   A19        2.09440  -0.00056   0.00000   0.00061   0.00061   2.09501
   A20        2.09440  -0.01224   0.00000  -0.01630  -0.01630   2.07809
   A21        2.09440   0.00574   0.00000   0.00650   0.00647   2.10086
   A22        2.09440  -0.00878   0.00000  -0.01029  -0.01027   2.08412
   A23        2.09440   0.00304   0.00000   0.00379   0.00380   2.09820
   A24        2.09440  -0.01060   0.00000  -0.01262  -0.01265   2.08174
   A25        2.09440   0.00507   0.00000   0.00604   0.00606   2.10045
   A26        2.09440   0.00553   0.00000   0.00658   0.00660   2.10099
   A27        2.09440  -0.00309   0.00000  -0.00346  -0.00346   2.09093
   A28        2.09440  -0.00709   0.00000  -0.00855  -0.00855   2.08584
   A29        2.09440   0.01018   0.00000   0.01201   0.01202   2.10641
   A30        2.09440   0.02054   0.00000   0.02455   0.02458   2.11898
   A31        2.09440  -0.01114   0.00000  -0.01331  -0.01333   2.08107
   A32        2.09440  -0.00940   0.00000  -0.01124  -0.01125   2.08314
   A33        2.09440   0.02116   0.00000   0.02520   0.02520   2.11960
   A34        2.09440   0.12525   0.00000   0.14921   0.14921   2.24361
    D1        0.00000   0.00000   0.00000   0.00000   0.00000   0.00000
    D2        3.14159  -0.00000   0.00000  -0.00000   0.00000   3.14159
    D3       -0.00000  -0.00000   0.00000  -0.00000  -0.00000  -0.00000
    D4        3.14159   0.00000   0.00000   0.00000   0.00000   3.14159
    D5        0.00000  -0.00000   0.00000  -0.00000  -0.00000   0.00000
    D6        3.14159  -0.00000   0.00000  -0.00000  -0.00000   3.14159
    D7       -3.14159  -0.00000   0.00000  -0.00000  -0.00000  -3.14159
    D8        0.00000  -0.00000   0.00000  -0.00000  -0.00000   0.00000
    D9       -0.00000   0.00000   0.00000   0.00000   0.00000  -0.00000
   D10        3.14159  -0.00000   0.00000   0.00000   0.00000   3.14159
   D11        3.14159   0.00000   0.00000   0.00000   0.00000   3.14159
   D12        0.00000  -0.00000   0.00000   0.00000   0.00000   0.00000
   D13        0.00000  -0.00000   0.00000  -0.00000  -0.00000   0.00000
   D14       -3.14159  -0.00000   0.00000  -0.00000  -0.00000  -3.14159
   D15       -3.14159  -0.00000   0.00000  -0.00000  -0.00000  -3.14159
   D16        0.00000  -0.00000   0.00000  -0.00000  -0.00000   0.00000
   D17       -0.00000   0.00000   0.00000   0.00000   0.00000  -0.00000
   D18        3.14159  -0.00000   0.00000  -0.00000  -0.00000   3.14159
   D19        3.14159   0.00000   0.00000   0.00000   0.00000   3.14159
   D20       -0.00000  -0.00000   0.00000  -0.00000  -0.00000  -0.00000
   D21        0.00001  -0.00000   0.00000  -0.00000  -0.00000   0.00001
   D22       -3.14159  -0.00000   0.00000  -0.00000  -0.00000  -3.14159
   D23        0.00000   0.00000   0.00000   0.00000   0.00000   0.00000
   D24       -3.14159  -0.00000   0.00000  -0.00000  -0.00000  -3.14159
   D25       -0.00000  -0.00000   0.00000  -0.00000  -0.00000  -0.00000
   D26        3.14159   0.00000   0.00000   0.00000   0.00000   3.14159
   D27       -0.00000  -0.00000   0.00000  -0.00000  -0.00000  -0.00000
   D28        3.14159  -0.00000   0.00000  -0.00000  -0.00000   3.14159
   D29        3.14159   0.00000   0.00000   0.00000   0.00000   3.14159
   D30       -0.00000   0.00000   0.00000   0.00000   0.00000  -0.00000
   D31       -0.00000   0.00000   0.00000   0.00000   0.00000  -0.00000
   D32       -3.14159  -0.00000   0.00000  -0.00000  -0.00000  -3.14159
   D33        3.14159   0.00000   0.00000   0.00000   0.00000   3.14159
   D34        0.00000  -0.00000   0.00000  -0.00000  -0.00000   0.00000
   D35        0.00000  -0.00000   0.00000  -0.00000  -0.00000   0.00000
   D36       -3.14159  -0.00000   0.00000  -0.00000  -0.00000  -3.14159
   D37        3.14159   0.00000   0.00000   0.00000   0.00000   3.14159
   D38        0.00000  -0.00000   0.00000  -0.00000  -0.00000   0.00000
   D39        0.00000   0.00000   0.00000   0.00000   0.00000   0.00000
   D40       -3.14159  -0.00000   0.00000  -0.00000  -0.00000  -3.14159
   D41        3.14159   0.00000   0.00000   0.00000   0.00000   3.14159
   D42       -0.00000  -0.00000   0.00000  -0.00000  -0.00000  -0.00000
   D43        0.00001  -0.00000   0.00000  -0.00000  -0.00000   0.00001
   D44       -3.14159  -0.00000   0.00000  -0.00000  -0.00000  -3.14159
   D45       -0.00001  -0.00000   0.00000  -0.00000  -0.00000  -0.00001
         Item               Value     Threshold  Converged?
 Maximum Force            0.551457     0.000450     NO 
 RMS     Force            0.057593     0.000300     NO 
 Maximum Displacement     1.185304     0.001800     NO 
 RMS     Displacement     0.360725     0.001200     NO 
 Predicted change in Energy=-1.200765D-01
 GradGradGradGradGradGradGradGradGradGradGradGradGradGradGradGradGradGrad

                          Input orientation:                          
 ---------------------------------------------------------------------
 Center     Atomic      Atomic             Coordinates (Angstroms)
 Number     Number       Type             X           Y           Z
 ---------------------------------------------------------------------
      1          6           0        0.522960    0.228710   -0.096509
      2          6           0        1.853697    0.463277   -0.490872
      3          6           0        2.408896    1.742718   -0.433496
      4          6           0        1.649243    2.814655    0.018092
      5          6           0        0.328272    2.602369    0.413420
      6          6           0       -0.227246    1.319526    0.355511
      7          6           0       -0.944612   -1.996117   -0.030861
      8          6           0       -0.442519   -3.238757   -0.429660
      9          6           0       -1.241078   -4.384149   -0.381683
     10          6           0       -2.561371   -4.306302    0.067922
     11          6           0       -3.074706   -3.070415    0.469157
     12          6           0       -2.264203   -1.929990    0.416312
     13          1           0        3.427125    1.900200   -0.739379
     14          1           0        0.564408   -3.322193   -0.777071
     15         17           0       -2.927050   -0.369240    0.927820
     16         17           0       -1.943962    1.119066    0.883441
     17         17           0       -4.738265   -2.965184    1.037002
     18         17           0       -0.634039    3.964504    0.986272
     19         17           0       -3.565188   -5.747290    0.128010
     20         17           0        2.365051    4.420949    0.083940
     21         17           0       -0.570380   -5.925327   -0.892100
     22         17           0        2.902424   -0.822255   -1.077808
 ---------------------------------------------------------------------
                    Distance matrix (angstroms):
                    1          2          3          4          5
     1  C    0.000000
     2  C    1.407624   0.000000
     3  C    2.441830   1.395889   0.000000
     4  C    2.822899   2.414504   1.389264   0.000000
     5  C    2.435608   2.778558   2.405258   1.395103   0.000000
     6  C    1.398932   2.404132   2.784038   2.422905   1.399156
     7  C    2.666071   3.753767   5.038553   5.465713   4.792045
     8  C    3.614757   4.356766   5.739832   6.420261   5.951777
     9  C    4.946880   5.752138   7.131864   7.767661   7.204615
    10  C    5.486936   6.523340   7.845101   8.272834   7.496609
    11  C    4.914001   6.139853   7.351933   7.559974   6.615425
    12  C    3.562478   4.848485   6.004066   6.163221   5.221419
    13  H    3.411940   2.145269   1.074781   2.137956   3.380071
    14  H    3.615771   4.009234   5.401250   6.282520   6.047600
    15  Cl   3.648200   5.055820   5.897954   5.648650   4.437588
    16  Cl   2.799775   4.091578   4.590276   4.066322   2.753934
    17  Cl   6.258298   7.585691   8.683813   8.674386   7.553562
    18  Cl   4.057982   4.541957   4.026354   2.733660   1.763409
    19  Cl   7.244028   8.265499   9.597145  10.025432   9.217228
    20  Cl   4.582655   4.031756   2.728110   1.759800   2.750320
    21  Cl   6.300836   6.844808   8.239255   9.063249   8.673728
    22  Cl   2.780165   1.759804   2.690314   3.999822   4.536305
                    6          7          8          9         10
     6  C    0.000000
     7  C    3.414292   0.000000
     8  C    4.630419   1.398316   0.000000
     9  C    5.839796   2.431802   1.397112   0.000000
    10  C    6.097605   2.821457   2.424206   1.396918   0.000000
    11  C    5.233788   2.437506   2.786507   2.410813   1.397111
    12  C    3.835655   1.394868   2.397305   2.776054   2.420030
    13  H    3.858807   5.898760   6.440415   7.836651   8.662245
    14  H    4.843038   2.143000   1.068438   2.131634   3.384225
    15  Cl   3.235493   2.737857   4.031100   4.547174   4.046431
    16  Cl   1.807210   3.396913   4.792617   5.690339   5.520949
    17  Cl   6.258791   4.058476   4.547457   4.031928   2.734333
    18  Cl   2.749408   6.054752   7.343603   8.481733   8.541909
    19  Cl   7.818792   4.578641   4.044106   2.742158   1.757187
    20  Cl   4.051244   7.221204   8.174187   9.526317  10.021716
    21  Cl   7.359496   4.039860   2.729077   1.756585   2.739878
    22  Cl   4.054190   4.156168   4.177107   5.508202   6.580603
                   11         12         13         14         15
    11  C    0.000000
    12  C    1.400099   0.000000
    13  H    8.272931   6.956809   0.000000
    14  H    3.854819   3.370969   5.955666   0.000000
    15  Cl   2.743815   1.771143   6.950212   4.880253   0.000000
    16  Cl   4.359124   3.101210   5.665006   5.364141   1.784233
    17  Cl   1.760951   2.752792   9.669596   5.615751   3.167230
    18  Cl   7.464204   6.142259   4.871578   7.592207   4.903331
    19  Cl   2.742739   4.043200  10.398505   4.873790   5.474518
    20  Cl   9.266061   7.866059   2.856577   7.996243   7.187794
    21  Cl   4.034253   4.532516   8.788757   2.842056   6.303659
    22  Cl   6.570647   5.491220   2.793135   3.436052   6.181467
                   16         17         18         19         20
    16  Cl   0.000000
    17  Cl   4.951041   0.000000
    18  Cl   3.134165   8.054056   0.000000
    19  Cl   7.095484   3.153171  10.180727   0.000000
    20  Cl   5.487188  10.291763   3.164978  11.771269   0.000000
    21  Cl   7.393426   5.463986  10.066831   3.168784  10.798835
    22  Cl   5.576977   8.212471   6.299210   8.218271   5.397185
                   21         22
    21  Cl   0.000000
    22  Cl   6.175452   0.000000
 Stoichiometry    C12H2Cl8
 Framework group  C1[X(C12H2Cl8)]
 Deg. of freedom    60
 Full point group                 C1      NOp   1
 Largest Abelian subgroup         C1      NOp   1
 Largest concise Abelian subgroup C1      NOp   1
                         Standard orientation:                         
 ---------------------------------------------------------------------
 Center     Atomic      Atomic             Coordinates (Angstroms)
 Number     Number       Type             X           Y           Z
 ---------------------------------------------------------------------
      1          6           0        1.530236    0.783325   -0.000003
      2          6           0        2.343854    1.931990   -0.000006
      3          6           0        3.736059    1.830644   -0.000005
      4          6           0        4.345977    0.582423   -0.000002
      5          6           0        3.556648   -0.567913    0.000003
      6          6           0        2.161267   -0.465198    0.000002
      7          6           0       -1.118824    0.482638    0.000007
      8          6           0       -1.997856    1.570108    0.000009
      9          6           0       -3.381199    1.374446    0.000008
     10          6           0       -3.911719    0.082190    0.000002
     11          6           0       -3.043812   -1.012642   -0.000001
     12          6           0       -1.659467   -0.803194    0.000001
     13          1           0        4.339008    2.720368   -0.000007
     14          1           0       -1.614695    2.567479    0.000011
     15         17           0       -0.570046   -2.199657   -0.000005
     16         17           0        1.202666   -1.997221    0.000005
     17         17           0       -3.705897   -2.644386   -0.000012
     18         17           0        4.333045   -2.151206    0.000010
     19         17           0       -5.651690   -0.163181   -0.000003
     20         17           0        6.102373    0.473020   -0.000001
     21         17           0       -4.449616    2.768748    0.000012
     22         17           0        1.674971    3.559721   -0.000013
 ---------------------------------------------------------------------
 Rotational constants (GHZ):           0.3106207           0.0893854           0.0694113
 Standard basis: 6-311+G(d,p) (5D, 7F)
 There are   536 symmetry adapted cartesian basis functions of A   symmetry.
 There are   516 symmetry adapted basis functions of A   symmetry.
   516 basis functions,   872 primitive gaussians,   536 cartesian basis functions
   105 alpha electrons      105 beta electrons
       nuclear repulsion energy      2586.9762718689 Hartrees.
 NAtoms=   22 NActive=   22 NUniq=   22 SFac= 1.00D+00 NAtFMM=   60 NAOKFM=F Big=F
 Integral buffers will be    131072 words long.
 Raffenetti 2 integral format.
 Two-electron integral symmetry is turned on.
 One-electron integrals computed using PRISM.
 NBasis=   516 RedAO= T EigKep=  1.05D-06  NBF=   516
 NBsUse=   510 1.00D-06 EigRej=  7.96D-07 NBFU=   510
 Initial guess from the checkpoint file:  "./Gau-10899.chk"
 B after Tr=     0.000000    0.000000   -0.000000
         Rot=    0.999742   -0.000000    0.000000    0.022731 Ang=  -2.61 deg.
 ExpMin= 4.38D-02 ExpMax= 1.06D+05 ExpMxC= 3.62D+03 IAcc=3 IRadAn=         5 AccDes= 0.00D+00
 Harris functional with IExCor=  402 and IRadAn=       5 diagonalized for initial guess.
 HarFok:  IExCor=  402 AccDes= 0.00D+00 IRadAn=         5 IDoV= 1 UseB2=F ITyADJ=14
 ICtDFT=  3500011 ScaDFX=  1.000000  1.000000  1.000000  1.000000
 FoFCou: FMM=F IPFlag=           0 FMFlag=      100000 FMFlg1=           0
         NFxFlg=           0 DoJE=T BraDBF=F KetDBF=T FulRan=T
         wScrn=  0.000000 ICntrl=       500 IOpCl=  0 I1Cent=   200000004 NGrid=           0
         NMat0=    1 NMatS0=      1 NMatT0=    0 NMatD0=    1 NMtDS0=    0 NMtDT0=    0
 Petite list used in FoFCou.
 Requested convergence on RMS density matrix=1.00D-08 within  32 cycles.
 Requested convergence on MAX density matrix=1.00D-06.
 Requested convergence on             energy=1.00D-06.
 No special actions if energy rises.
 Restarting incremental Fock formation.
 SCF Done:  E(RB3LYP) =  -4139.89187027     A.U. after   21 cycles
            NFock= 21  Conv=0.73D-08     -V/T= 2.0023
 QCSCF skips out because SCF is already converged.
 Calling FoFJK, ICntrl=      2127 FMM=F ISym2X=0 I1Cent= 0 IOpClX= 0 NMat=1 NMatS=1 NMatT=0.
 ***** Axes restored to original set *****
 -------------------------------------------------------------------
 Center     Atomic                   Forces (Hartrees/Bohr)
 Number     Number              X              Y              Z
 -------------------------------------------------------------------
      1        6          -0.014291339    0.037938207    0.011833221
      2        6          -0.021999768   -0.002773697    0.006727018
      3        6          -0.002152849   -0.001232047    0.000478003
      4        6           0.001938351    0.000304320   -0.000581661
      5        6          -0.014366034   -0.000687397    0.004604008
      6        6           0.090277091   -0.007250502   -0.031103707
      7        6          -0.014060975    0.000182276    0.004666903
      8        6          -0.008305406    0.010308703    0.004672507
      9        6           0.003957779    0.000138737   -0.001277969
     10        6          -0.004436248   -0.008701427   -0.000172567
     11        6          -0.010051164    0.012338912    0.005628914
     12        6           0.042124944   -0.027393927   -0.019023668
     13        1           0.005123047    0.001013397   -0.001497447
     14        1           0.010169269   -0.000813368   -0.003503204
     15       17          -0.225206718   -0.252848926    0.026711287
     16       17           0.158423267    0.236711218   -0.007739697
     17       17           0.000794863   -0.001610418   -0.000564408
     18       17           0.000233366    0.002284781    0.000352240
     19       17           0.004201952    0.007316809   -0.000010253
     20       17          -0.000131258   -0.006392412   -0.001157304
     21       17           0.000082511    0.005332687    0.000974359
     22       17          -0.002324680   -0.004165926   -0.000016576
 -------------------------------------------------------------------
 Cartesian Forces:  Max     0.252848926 RMS     0.056716304

 GradGradGradGradGradGradGradGradGradGradGradGradGradGradGradGradGradGrad
 Berny optimization.
 Using GEDIIS/GDIIS optimizer.
 FormGI is forming the generalized inverse of G from B-inverse, IUseBI=4.
 Internal  Forces:  Max     0.324381517 RMS     0.035711397
 Search for a local minimum.
 Step number   2 out of a maximum of  112
 All quantities printed in internal units (Hartrees-Bohrs-Radians)
 Mixed Optimization -- RFO/linear search
 Update second derivatives using D2CorX and points    1    2
 DE= -9.45D-02 DEPred=-1.20D-01 R= 7.87D-01
 TightC=F SS=  1.41D+00  RLast= 3.00D-01 DXNew= 5.0454D-01 9.0000D-01
 Trust test= 7.87D-01 RLast= 3.00D-01 DXMaxT set to 5.05D-01
 ITU=  1  0
 Use linear search instead of GDIIS.
     Eigenvalues ---    0.00238   0.00238   0.01660   0.01667   0.02070
     Eigenvalues ---    0.02070   0.02070   0.02070   0.02070   0.02070
     Eigenvalues ---    0.02070   0.02070   0.02070   0.02070   0.02070
     Eigenvalues ---    0.02070   0.02070   0.02070   0.04301   0.16000
     Eigenvalues ---    0.16008   0.19881   0.23374   0.23484   0.25000
     Eigenvalues ---    0.25000   0.25000   0.25000   0.25000   0.25000
     Eigenvalues ---    0.25000   0.25000   0.25000   0.25000   0.25000
     Eigenvalues ---    0.25000   0.27968   0.29527   0.29539   0.29539
     Eigenvalues ---    0.29539   0.29539   0.29539   0.29539   0.37102
     Eigenvalues ---    0.37177   0.39274   0.41577   0.41582   0.41966
     Eigenvalues ---    0.42931   0.45223   0.45389   0.45389   0.45389
     Eigenvalues ---    0.45389   0.45389   0.45389   0.48064   1.35261
 RFO step:  Lambda=-3.09147891D-01 EMin= 2.37799080D-03
 Quartic linear search produced a step of  1.58089.
 Maximum step size (   0.505) exceeded in Quadratic search.
    -- Step size scaled by   0.697
 Iteration  1 RMS(Cart)=  0.16184083 RMS(Int)=  0.03783954
 Iteration  2 RMS(Cart)=  0.12004314 RMS(Int)=  0.01514459
 Iteration  3 RMS(Cart)=  0.03297729 RMS(Int)=  0.00017600
 Iteration  4 RMS(Cart)=  0.00001706 RMS(Int)=  0.00017590
 Iteration  5 RMS(Cart)=  0.00000000 RMS(Int)=  0.00017590
 Variable       Old X    -DE/DX   Delta X   Delta X   Delta X     New X
                                 (Linear)    (Quad)   (Total)
    R1        2.66002  -0.02811   0.01859  -0.06256  -0.04405   2.61597
    R2        2.64360  -0.05129  -0.00737  -0.11184  -0.11898   2.52462
    R3        2.63785  -0.00161  -0.01646  -0.00226  -0.01903   2.61882
    R4        3.32555   0.00166  -0.00058   0.00448   0.00390   3.32944
    R5        2.62533   0.00257  -0.03625   0.00903  -0.02745   2.59788
    R6        2.03104   0.00543   0.01428   0.01302   0.02730   2.05835
    R7        2.63636   0.00641  -0.01881   0.01603  -0.00269   2.63367
    R8        3.32554  -0.00593  -0.00060  -0.01609  -0.01669   3.30885
    R9        2.64402  -0.00633  -0.00670  -0.01387  -0.02026   2.62376
   R10        3.33236   0.00175   0.01018   0.00519   0.01537   3.34773
   R11        3.41513   0.04533   0.14104   0.12891   0.26995   3.68508
   R12        2.64244  -0.01416  -0.00921  -0.03084  -0.04015   2.60228
   R13        2.63592  -0.01766  -0.01951  -0.03825  -0.05755   2.57837
   R14        2.64016  -0.00221  -0.01281  -0.00395  -0.01705   2.62311
   R15        2.01906   0.01079  -0.00467   0.02593   0.02126   2.04032
   R16        2.63979   0.00744  -0.01339   0.01763   0.00403   2.64382
   R17        3.31947  -0.00493  -0.01020  -0.01380  -0.02400   3.29547
   R18        2.64016   0.00399  -0.01281   0.00990  -0.00282   2.63734
   R19        3.32060  -0.00840  -0.00840  -0.02312  -0.03153   3.28908
   R20        2.64580  -0.00658  -0.00389  -0.01428  -0.01786   2.62794
   R21        3.32771  -0.00103   0.00284  -0.00266   0.00018   3.32789
   R22        3.34698   0.01420   0.03329   0.03992   0.07321   3.42018
   R23        3.37171   0.32438   0.33260   0.25515   0.58775   3.95946
    A1        2.05733   0.01142  -0.05859   0.02194  -0.03644   2.02089
    A2        2.11441  -0.00321   0.03165  -0.00790   0.02336   2.13777
    A3        2.13541  -0.00583   0.06485  -0.01170   0.05334   2.18876
    A4        2.03336   0.00904  -0.09650   0.01960  -0.07670   1.95665
    A5        2.09797  -0.00547   0.00566  -0.01195  -0.00684   2.09114
    A6        2.09372   0.00296  -0.00107   0.00705   0.00625   2.09997
    A7        2.09149   0.00251  -0.00459   0.00490   0.00059   2.09208
    A8        2.08570  -0.00048  -0.01375   0.00312  -0.01079   2.07491
    A9        2.08751  -0.00417  -0.01088  -0.01583  -0.02663   2.06089
   A10        2.10997   0.00465   0.02463   0.01271   0.03742   2.14739
   A11        2.09870  -0.01655   0.00681  -0.04607  -0.03888   2.05982
   A12        2.08429   0.00573  -0.01597   0.01463  -0.00152   2.08277
   A13        2.10019   0.01082   0.00916   0.03144   0.04041   2.14059
   A14        2.11225   0.01431   0.02823   0.04087   0.06959   2.18184
   A15        2.11451  -0.04086   0.03180  -0.11566  -0.08412   2.03039
   A16        2.05643   0.02655  -0.06002   0.07480   0.01453   2.07095
   A17        2.06377   0.00359  -0.04841   0.00305  -0.04519   2.01858
   A18        2.11009  -0.00533   0.02480  -0.01452   0.00989   2.11998
   A19        2.09501   0.00263   0.00097   0.00928   0.01045   2.10546
   A20        2.07809   0.00269  -0.02577   0.00524  -0.02034   2.05775
   A21        2.10086   0.00225   0.01023   0.00962   0.01934   2.12020
   A22        2.08412  -0.00487  -0.01624  -0.01662  -0.03260   2.05152
   A23        2.09820   0.00262   0.00602   0.00700   0.01326   2.11146
   A24        2.08174  -0.00107  -0.02000  -0.00162  -0.02175   2.05999
   A25        2.10045   0.00184   0.00957   0.00460   0.01423   2.11468
   A26        2.10099  -0.00077   0.01043  -0.00297   0.00752   2.10851
   A27        2.09093  -0.01286  -0.00548  -0.03703  -0.04212   2.04881
   A28        2.08584   0.00381  -0.01352   0.00960  -0.00411   2.08173
   A29        2.10641   0.00905   0.01900   0.02743   0.04624   2.15265
   A30        2.11898   0.01341   0.03886   0.04051   0.07984   2.19881
   A31        2.08107  -0.02712  -0.02107  -0.08016  -0.10147   1.97960
   A32        2.08314   0.01371  -0.01779   0.03965   0.02163   2.10477
   A33        2.11960  -0.11415   0.03985  -0.33127  -0.29143   1.82817
   A34        2.24361  -0.01850   0.23589  -0.03627   0.19962   2.44323
    D1        0.00000  -0.00000   0.00000  -0.00000  -0.00000   0.00000
    D2        3.14159   0.00000   0.00000   0.00000   0.00000   3.14159
    D3       -0.00000   0.00000  -0.00000   0.00000  -0.00000  -0.00000
    D4        3.14159  -0.00000   0.00000   0.00000   0.00000  -3.14159
    D5        0.00000  -0.00000  -0.00000  -0.00000  -0.00000   0.00000
    D6        3.14159   0.00000  -0.00000   0.00000  -0.00000   3.14159
    D7       -3.14159  -0.00000  -0.00000  -0.00000  -0.00000  -3.14159
    D8        0.00000  -0.00000  -0.00000  -0.00000  -0.00000   0.00000
    D9       -0.00000   0.00000   0.00000   0.00000   0.00000  -0.00000
   D10        3.14159   0.00000   0.00000   0.00000   0.00000   3.14159
   D11        3.14159   0.00000   0.00000   0.00000   0.00000   3.14159
   D12        0.00000  -0.00000   0.00000  -0.00000  -0.00000   0.00000
   D13        0.00000  -0.00000  -0.00000  -0.00000  -0.00000   0.00000
   D14       -3.14159  -0.00000  -0.00000  -0.00000  -0.00000  -3.14159
   D15       -3.14159  -0.00000  -0.00000  -0.00000  -0.00000   3.14159
   D16        0.00000  -0.00000  -0.00000  -0.00000  -0.00000   0.00000
   D17       -0.00000   0.00000   0.00000   0.00000   0.00000   0.00000
   D18        3.14159   0.00000  -0.00000   0.00000  -0.00000   3.14159
   D19        3.14159  -0.00000   0.00000   0.00000   0.00000   3.14159
   D20       -0.00000   0.00000  -0.00000  -0.00000  -0.00000  -0.00000
   D21        0.00001   0.00000  -0.00000   0.00000  -0.00000   0.00001
   D22       -3.14159   0.00000  -0.00000   0.00000   0.00000  -3.14158
   D23        0.00000   0.00000   0.00000   0.00000   0.00000   0.00000
   D24       -3.14159  -0.00000  -0.00000  -0.00000  -0.00000  -3.14159
   D25       -0.00000   0.00000  -0.00000   0.00000  -0.00000  -0.00000
   D26        3.14159   0.00000   0.00000   0.00000   0.00000   3.14159
   D27       -0.00000  -0.00000  -0.00000  -0.00000  -0.00000  -0.00000
   D28        3.14159  -0.00000  -0.00000  -0.00000  -0.00000   3.14159
   D29        3.14159   0.00000   0.00000   0.00000   0.00000   3.14159
   D30       -0.00000   0.00000   0.00000   0.00000   0.00000  -0.00000
   D31       -0.00000   0.00000   0.00000   0.00000   0.00000   0.00000
   D32       -3.14159  -0.00000  -0.00000  -0.00000  -0.00000  -3.14159
   D33        3.14159   0.00000   0.00000   0.00000   0.00000  -3.14159
   D34        0.00000  -0.00000  -0.00000  -0.00000  -0.00000   0.00000
   D35       -0.00000   0.00000  -0.00000  -0.00000  -0.00000  -0.00000
   D36       -3.14159  -0.00000  -0.00000  -0.00000  -0.00000  -3.14159
   D37        3.14159   0.00000   0.00000   0.00000   0.00000   3.14159
   D38        0.00000  -0.00000  -0.00000  -0.00000  -0.00000   0.00000
   D39        0.00000  -0.00000   0.00000  -0.00000   0.00000   0.00000
   D40       -3.14159  -0.00000  -0.00000  -0.00000  -0.00000   3.14159
   D41        3.14159   0.00000   0.00000   0.00000   0.00000   3.14159
   D42       -0.00000   0.00000  -0.00000   0.00000  -0.00000  -0.00000
   D43        0.00001   0.00000  -0.00000   0.00000  -0.00000   0.00001
   D44       -3.14159   0.00000  -0.00000   0.00000   0.00000  -3.14159
   D45       -0.00001   0.00000  -0.00001  -0.00000  -0.00001  -0.00002
         Item               Value     Threshold  Converged?
 Maximum Force            0.324382     0.000450     NO 
 RMS     Force            0.035711     0.000300     NO 
 Maximum Displacement     0.983097     0.001800     NO 
 RMS     Displacement     0.266888     0.001200     NO 
 Predicted change in Energy=-1.274704D-01
 GradGradGradGradGradGradGradGradGradGradGradGradGradGradGradGradGradGrad

                          Input orientation:                          
 ---------------------------------------------------------------------
 Center     Atomic      Atomic             Coordinates (Angstroms)
 Number     Number       Type             X           Y           Z
 ---------------------------------------------------------------------
      1          6           0        0.529656    0.187217   -0.106497
      2          6           0        1.842464    0.374073   -0.503914
      3          6           0        2.459716    1.614485   -0.474319
      4          6           0        1.761403    2.715165   -0.037551
      5          6           0        0.437814    2.555123    0.368451
      6          6           0       -0.112716    1.281808    0.310696
      7          6           0       -1.262647   -1.767146    0.116922
      8          6           0       -0.577630   -2.879858   -0.317747
[...]
                 (A) (A) (A) (A) (A) (A) (A) (A) (A) (A) (A) (A)
                 (A) (A) (A) (A) (A) (A) (A) (A) (A) (A) (A) (A)
                 (A) (A) (A) (A) (A) (A) (A) (A) (A) (A) (A) (A)
                 (A) (A) (A) (A) (A) (A) (A) (A) (A) (A) (A) (A)
                 (A) (A) (A) (A) (A) (A) (A) (A) (A) (A) (A) (A)
                 (A) (A) (A) (A) (A) (A) (A) (A) (A) (A) (A) (A)
                 (A) (A) (A) (A) (A) (A) (A) (A) (A) (A) (A) (A)
                 (A) (A) (A) (A) (A) (A) (A) (A) (A) (A) (A) (A)
                 (A) (A) (A) (A) (A) (A) (A) (A) (A) (A) (A) (A)
                 (A) (A) (A) (A) (A) (A) (A) (A) (A) (A) (A) (A)
                 (A) (A) (A) (A) (A) (A) (A) (A) (A) (A) (A) (A)
                 (A) (A) (A) (A) (A) (A) (A) (A) (A) (A) (A) (A)
                 (A) (A) (A) (A) (A) (A) (A) (A) (A) (A) (A) (A)
                 (A) (A) (A) (A) (A) (A) (A) (A) (A) (A) (A) (A)
                 (A) (A) (A) (A) (A) (A) (A) (A) (A)
 The electronic state is 1-A.
 Alpha  occ. eigenvalues -- -101.58432-101.58417-101.58370-101.58272-101.58206
 Alpha  occ. eigenvalues -- -101.58164-101.58087-101.58020 -10.28737 -10.28449
 Alpha  occ. eigenvalues --  -10.28446 -10.28388 -10.28380 -10.28062 -10.28002
 Alpha  occ. eigenvalues --  -10.27757 -10.24631 -10.24152 -10.22832 -10.22516
 Alpha  occ. eigenvalues --   -9.49892  -9.49888  -9.49833  -9.49741  -9.49669
 Alpha  occ. eigenvalues --   -9.49630  -9.49562  -9.49476  -7.26385  -7.26383
 Alpha  occ. eigenvalues --   -7.26338  -7.26220  -7.26174  -7.26136  -7.26051
 Alpha  occ. eigenvalues --   -7.25969  -7.25374  -7.25366  -7.25311  -7.25301
 Alpha  occ. eigenvalues --   -7.25296  -7.25229  -7.25218  -7.25167  -7.25151
 Alpha  occ. eigenvalues --   -7.25111  -7.25063  -7.25040  -7.25024  -7.24973
 Alpha  occ. eigenvalues --   -7.24953  -7.24893  -0.97035  -0.96097  -0.92276
 Alpha  occ. eigenvalues --   -0.91601  -0.91204  -0.89694  -0.87855  -0.87070
 Alpha  occ. eigenvalues --   -0.85482  -0.84291  -0.79961  -0.76356  -0.75719
 Alpha  occ. eigenvalues --   -0.74408  -0.66798  -0.64653  -0.64153  -0.61932
 Alpha  occ. eigenvalues --   -0.55742  -0.55483  -0.55106  -0.52974  -0.50225
 Alpha  occ. eigenvalues --   -0.49082  -0.47612  -0.47565  -0.47270  -0.46505
 Alpha  occ. eigenvalues --   -0.46481  -0.44814  -0.43135  -0.42840  -0.42203
 Alpha  occ. eigenvalues --   -0.40799  -0.40067  -0.39480  -0.38305  -0.36362
 Alpha  occ. eigenvalues --   -0.36204  -0.35888  -0.35698  -0.35373  -0.35103
 Alpha  occ. eigenvalues --   -0.34643  -0.33820  -0.33789  -0.33406  -0.32497
 Alpha  occ. eigenvalues --   -0.32022  -0.28432  -0.27963  -0.27405  -0.27052
 Alpha virt. eigenvalues --   -0.06864  -0.06585  -0.06371  -0.05746  -0.05507
 Alpha virt. eigenvalues --   -0.04624  -0.00997  -0.00657  -0.00231   0.00570
 Alpha virt. eigenvalues --    0.01217   0.01708   0.01963   0.02140   0.02313
 Alpha virt. eigenvalues --    0.02489   0.03730   0.04309   0.04663   0.05255
 Alpha virt. eigenvalues --    0.05508   0.05825   0.06208   0.06815   0.06961
 Alpha virt. eigenvalues --    0.07556   0.07686   0.08195   0.08414   0.08459
 Alpha virt. eigenvalues --    0.09086   0.09119   0.09351   0.09544   0.10219
 Alpha virt. eigenvalues --    0.10413   0.10768   0.10960   0.11308   0.11479
 Alpha virt. eigenvalues --    0.11851   0.12386   0.12665   0.13102   0.13379
 Alpha virt. eigenvalues --    0.13651   0.13908   0.14286   0.14685   0.15223
 Alpha virt. eigenvalues --    0.15369   0.15827   0.16348   0.16931   0.17025
 Alpha virt. eigenvalues --    0.17347   0.17632   0.18016   0.18121   0.18458
 Alpha virt. eigenvalues --    0.18838   0.19092   0.19186   0.19777   0.20418
 Alpha virt. eigenvalues --    0.20717   0.20908   0.21656   0.21837   0.22027
 Alpha virt. eigenvalues --    0.22366   0.22698   0.23203   0.23279   0.24096
 Alpha virt. eigenvalues --    0.24159   0.24420   0.24697   0.25468   0.25629
 Alpha virt. eigenvalues --    0.25945   0.26249   0.26653   0.27002   0.27166
 Alpha virt. eigenvalues --    0.27578   0.28022   0.28390   0.28913   0.29154
 Alpha virt. eigenvalues --    0.29429   0.30023   0.30159   0.30466   0.31225
 Alpha virt. eigenvalues --    0.31276   0.31611   0.33630   0.35097   0.38548
 Alpha virt. eigenvalues --    0.39943   0.40568   0.42586   0.42852   0.42997
 Alpha virt. eigenvalues --    0.43564   0.44456   0.44664   0.44973   0.45199
 Alpha virt. eigenvalues --    0.45267   0.45528   0.45934   0.46277   0.46830
 Alpha virt. eigenvalues --    0.47578   0.47938   0.48027   0.48196   0.48839
 Alpha virt. eigenvalues --    0.49802   0.49951   0.50551   0.50816   0.51488
 Alpha virt. eigenvalues --    0.53304   0.53711   0.56044   0.56482   0.57034
 Alpha virt. eigenvalues --    0.57230   0.57582   0.58754   0.59225   0.59800
 Alpha virt. eigenvalues --    0.60563   0.60684   0.60981   0.62080   0.62240
 Alpha virt. eigenvalues --    0.62683   0.62937   0.63214   0.63772   0.64690
 Alpha virt. eigenvalues --    0.66000   0.66366   0.67042   0.67321   0.67886
 Alpha virt. eigenvalues --    0.68685   0.69705   0.69895   0.74569   0.76731
 Alpha virt. eigenvalues --    0.77729   0.79253   0.79923   0.80278   0.80614
 Alpha virt. eigenvalues --    0.81731   0.82534   0.82863   0.83066   0.83379
 Alpha virt. eigenvalues --    0.83573   0.83795   0.83907   0.84174   0.84375
 Alpha virt. eigenvalues --    0.84552   0.84675   0.85146   0.85251   0.85561
 Alpha virt. eigenvalues --    0.86089   0.86366   0.88036   0.88512   0.88918
 Alpha virt. eigenvalues --    0.89179   0.89366   0.89980   0.90662   0.90927
 Alpha virt. eigenvalues --    0.91517   0.92173   0.92488   0.92962   0.93748
 Alpha virt. eigenvalues --    0.93924   0.94349   0.94841   0.94989   0.95199
 Alpha virt. eigenvalues --    0.95659   0.96416   0.96798   0.97148   0.98179
 Alpha virt. eigenvalues --    0.99812   1.00387   1.01963   1.02719   1.03417
 Alpha virt. eigenvalues --    1.04790   1.05870   1.06255   1.08959   1.12037
 Alpha virt. eigenvalues --    1.13115   1.16148   1.17955   1.18293   1.19005
 Alpha virt. eigenvalues --    1.20083   1.21297   1.23025   1.23354   1.23698
 Alpha virt. eigenvalues --    1.25950   1.26401   1.26880   1.27596   1.27960
 Alpha virt. eigenvalues --    1.28512   1.28722   1.29320   1.30144   1.30882
 Alpha virt. eigenvalues --    1.33693   1.35333   1.36201   1.37613   1.38512
 Alpha virt. eigenvalues --    1.43469   1.44436   1.47106   1.47275   1.48560
 Alpha virt. eigenvalues --    1.54310   1.56463   1.58107   1.58509   1.60339
 Alpha virt. eigenvalues --    1.63525   1.64883   1.65413   1.70710   1.71617
 Alpha virt. eigenvalues --    1.73195   1.75567   1.77898   1.78937   1.80352
 Alpha virt. eigenvalues --    1.80684   1.81662   1.82856   1.83647   1.84490
 Alpha virt. eigenvalues --    1.85262   1.87263   1.90583   1.92677   1.93579
 Alpha virt. eigenvalues --    1.95346   2.00469   2.01478   2.04079   2.06220
 Alpha virt. eigenvalues --    2.06612   2.10128   2.12349   2.18136   2.20271
 Alpha virt. eigenvalues --    2.22264   2.22505   2.23042   2.23613   2.24855
 Alpha virt. eigenvalues --    2.25572   2.25757   2.26565   2.27522   2.28963
 Alpha virt. eigenvalues --    2.29923   2.30651   2.32100   2.33044   2.33174
 Alpha virt. eigenvalues --    2.36042   2.39812   2.40322   2.41357   2.41981
 Alpha virt. eigenvalues --    2.42001   2.43330   2.45879   2.46956   2.48557
 Alpha virt. eigenvalues --    2.50807   2.51414   2.52351   2.54520   2.54948
 Alpha virt. eigenvalues --    2.57691   2.60248   2.60981   2.62076   2.65288
 Alpha virt. eigenvalues --    2.66463   2.67399   2.68753   2.68914   2.69953
 Alpha virt. eigenvalues --    2.74125   2.74821   2.75801   2.80752   2.81661
 Alpha virt. eigenvalues --    2.82602   2.85195   2.88534   2.95690   2.96245
 Alpha virt. eigenvalues --    3.04009   3.06911   3.07596   3.08216   3.10854
 Alpha virt. eigenvalues --    3.11341   3.13668   3.14529   3.16609   3.20254
 Alpha virt. eigenvalues --    3.22365   3.24622   3.27563   3.36569   3.39145
 Alpha virt. eigenvalues --    3.47012   3.54886   3.63756   3.66315   3.70916
 Alpha virt. eigenvalues --    3.76174   3.88090   3.92472   4.00719   4.02840
 Alpha virt. eigenvalues --    4.29663   4.79589   4.80366   9.74396   9.74921
 Alpha virt. eigenvalues --    9.78625   9.78850   9.80452   9.80568   9.83523
 Alpha virt. eigenvalues --    9.84785  23.28740  23.43896  23.79469  23.80687
 Alpha virt. eigenvalues --   23.83150  23.84920  23.91932  23.93391  23.94206
 Alpha virt. eigenvalues --   24.01800  24.06942  24.12319  25.76642  25.76950
 Alpha virt. eigenvalues --   25.79531  25.82436  25.85232  25.88992  25.94128
 Alpha virt. eigenvalues --   25.98201  26.07532  26.09636  26.10244  26.15207
 Alpha virt. eigenvalues --   26.17645  26.22856  26.33817  26.38015  26.47948
 Alpha virt. eigenvalues --   26.51228  26.59834  26.64170  26.71556  26.78006
 Alpha virt. eigenvalues --   26.93721  27.06994 215.73399 215.74082 215.78147
 Alpha virt. eigenvalues --  215.78421 215.80250 215.80530 215.84449 215.85547
          Condensed to atoms (all electrons):
               1          2          3          4          5          6
     1  C   33.242812 -15.997453 -11.093473  -0.352056  -5.291573   1.277958
     2  C  -15.997453  43.977579  -3.212653  -4.755537   6.113100  -6.527984
     3  C  -11.093473  -3.212653  32.697008   5.051088 -13.383707   5.394616
     4  C   -0.352056  -4.755537   5.051088  27.511389 -10.772334  -7.623084
     5  C   -5.291573   6.113100 -13.383707 -10.772334  37.125511  -3.179180
     6  C    1.277958  -6.527984   5.394616  -7.623084  -3.179180  27.658108
     7  C    9.960622  -5.914057  -5.926507  -1.886766  -3.970801  -1.024408
     8  C   -3.572873  -0.580657  -0.018273   0.114547  -0.330832  -1.872810
     9  C    0.533913  -0.090902  -0.095179  -0.006510   0.413472  -0.151927
    10  C   -0.506396   0.945990   0.356281   0.019334  -0.053384   0.636126
    11  C   -3.327421  -1.257228  -0.141134  -0.002164  -0.362770  -1.391083
    12  C    2.180951  -6.155088  -2.298474  -0.380371  -2.016048  -2.333926
    13  H    0.157523   0.030321   0.101556   0.014103   0.045425  -0.017722
    14  H    0.073038   0.063377   0.024586   0.009031   0.008886   0.078048
    15  Cl   0.274144   0.048575  -0.240756  -0.040652   0.161107   0.033682
    16  Cl  -0.570516   0.436402   1.054251   1.245215  -0.659844  -3.392816
    17  Cl  -0.151021  -0.049072  -0.004864   0.001110  -0.007849  -0.065983
    18  Cl  -0.963060   0.561346   0.024331  -0.873692   0.046565   0.845751
    19  Cl   0.007653  -0.030027  -0.003858  -0.002910   0.003821  -0.031080
    20  Cl  -0.005797  -0.527116   0.049198  -0.461002   0.426254  -0.107644
    21  Cl  -0.064230  -0.039838  -0.000707   0.007532  -0.009028  -0.033003
    22  Cl   0.389559  -0.757790  -1.706901  -0.891735   0.896299  -0.526922
               7          8          9         10         11         12
     1  C    9.960622  -3.572873   0.533913  -0.506396  -3.327421   2.180951
     2  C   -5.914057  -0.580657  -0.090902   0.945990  -1.257228  -6.155088
     3  C   -5.926507  -0.018273  -0.095179   0.356281  -0.141134  -2.298474
     4  C   -1.886766   0.114547  -0.006510   0.019334  -0.002164  -0.380371
     5  C   -3.970801  -0.330832   0.413472  -0.053384  -0.362770  -2.016048
     6  C   -1.024408  -1.872810  -0.151927   0.636126  -1.391083  -2.333926
     7  C   27.883174  -2.329924  -9.278537   5.756834  -3.338327  -1.370803
     8  C   -2.329924  11.854239  -0.163220  -4.546306   4.314766   3.037530
     9  C   -9.278537  -0.163220  25.265081  -9.499677  -5.642197   5.047589
    10  C    5.756834  -4.546306  -9.499677  25.698881  -1.077267  -9.572805
    11  C   -3.338327   4.314766  -5.642197  -1.077267  18.018379  -0.147403
    12  C   -1.370803   3.037530   5.047589  -9.572805  -0.147403  21.305405
    13  H    0.023227  -0.003892  -0.000743   0.000178  -0.000254   0.005508
    14  H    0.054586   0.299559  -0.085999  -0.010742  -0.058264  -0.075936
    15  Cl  -0.357916  -0.293121   1.040471  -0.985188  -0.442623  -1.131236
    16  Cl  -0.807386   0.445652  -0.054852  -0.064680   0.162274   0.135105
    17  Cl  -0.582905   0.245812  -0.090569  -0.384662  -0.075604   0.616754
    18  Cl  -0.114899  -0.012824   0.020302  -0.004474  -0.010515  -0.072579
    19  Cl   0.161527  -0.112527  -0.907837   0.212234   0.789193  -0.775569
    20  Cl  -0.035603  -0.005599   0.006463  -0.000337  -0.002296  -0.039009
    21  Cl  -0.855040   0.344461   0.154918  -0.667513  -0.090778   0.413361
    22  Cl   0.362850   0.087667   0.108442  -0.056940  -0.004078   0.585211
              13         14         15         16         17         18
     1  C    0.157523   0.073038   0.274144  -0.570516  -0.151021  -0.963060
     2  C    0.030321   0.063377   0.048575   0.436402  -0.049072   0.561346
     3  C    0.101556   0.024586  -0.240756   1.054251  -0.004864   0.024331
     4  C    0.014103   0.009031  -0.040652   1.245215   0.001110  -0.873692
     5  C    0.045425   0.008886   0.161107  -0.659844  -0.007849   0.046565
     6  C   -0.017722   0.078048   0.033682  -3.392816  -0.065983   0.845751
     7  C    0.023227   0.054586  -0.357916  -0.807386  -0.582905  -0.114899
     8  C   -0.003892   0.299559  -0.293121   0.445652   0.245812  -0.012824
     9  C   -0.000743  -0.085999   1.040471  -0.054852  -0.090569   0.020302
    10  C    0.000178  -0.010742  -0.985188  -0.064680  -0.384662  -0.004474
    11  C   -0.000254  -0.058264  -0.442623   0.162274  -0.075604  -0.010515
    12  C    0.005508  -0.075936  -1.131236   0.135105   0.616754  -0.072579
    13  H    0.487832   0.000004  -0.001047   0.000679  -0.000006  -0.000839
    14  H    0.000004   0.510619  -0.002117  -0.016760   0.000374   0.000621
    15  Cl  -0.001047  -0.002117  18.608192   0.031015  -0.307081   0.003663
    16  Cl   0.000679  -0.016760   0.031015  19.003354   0.001497  -0.438917
    17  Cl  -0.000006   0.000374  -0.307081   0.001497  17.422631  -0.000022
    18  Cl  -0.000839   0.000621   0.003663  -0.438917  -0.000022  17.581153
    19  Cl  -0.000001  -0.001788  -0.040565   0.013458  -0.192075  -0.000008
    20  Cl  -0.008170   0.000110   0.010799  -0.015521  -0.000023  -0.187874
    21  Cl  -0.000015  -0.008807   0.009793  -0.008609   0.009840   0.000269
    22  Cl  -0.008605  -0.014329   0.073111  -0.083657  -0.005360   0.005830
              19         20         21         22
     1  C    0.007653  -0.005797  -0.064230   0.389559
     2  C   -0.030027  -0.527116  -0.039838  -0.757790
     3  C   -0.003858   0.049198  -0.000707  -1.706901
     4  C   -0.002910  -0.461002   0.007532  -0.891735
     5  C    0.003821   0.426254  -0.009028   0.896299
     6  C   -0.031080  -0.107644  -0.033003  -0.526922
     7  C    0.161527  -0.035603  -0.855040   0.362850
     8  C   -0.112527  -0.005599   0.344461   0.087667
     9  C   -0.907837   0.006463   0.154918   0.108442
    10  C    0.212234  -0.000337  -0.667513  -0.056940
    11  C    0.789193  -0.002296  -0.090778  -0.004078
    12  C   -0.775569  -0.039009   0.413361   0.585211
    13  H   -0.000001  -0.008170  -0.000015  -0.008605
    14  H   -0.001788   0.000110  -0.008807  -0.014329
    15  Cl  -0.040565   0.010799   0.009793   0.073111
    16  Cl   0.013458  -0.015521  -0.008609  -0.083657
    17  Cl  -0.192075  -0.000023   0.009840  -0.005360
    18  Cl  -0.000008  -0.187874   0.000269   0.005830
    19  Cl  17.481916   0.000006  -0.209906   0.013603
    20  Cl   0.000006  17.415955   0.000130  -0.046453
    21  Cl  -0.209906   0.000130  17.476961  -0.006882
    22  Cl   0.013603  -0.046453  -0.006882  18.208600
 Mulliken charges:
               1
     1  C   -0.202304
     2  C   -0.281286
     3  C   -0.626429
     4  C    0.075464
     5  C    0.796911
     6  C   -1.644717
     7  C   -0.408940
     8  C   -0.901373
     9  C   -0.522499
    10  C   -0.195487
    11  C    0.086794
    12  C   -0.958169
    13  H    0.174937
    14  H    0.151903
    15  Cl   0.547748
    16  Cl   0.584656
    17  Cl   0.619077
    18  Cl   0.589872
    19  Cl   0.624740
    20  Cl   0.533530
    21  Cl   0.577091
    22  Cl   0.378481
 Sum of Mulliken charges =  -0.00000
 Mulliken charges with hydrogens summed into heavy atoms:
               1
     1  C   -0.202304
     2  C   -0.281286
     3  C   -0.451492
     4  C    0.075464
     5  C    0.796911
     6  C   -1.644717
     7  C   -0.408940
     8  C   -0.749470
     9  C   -0.522499
    10  C   -0.195487
    11  C    0.086794
    12  C   -0.958169
    15  Cl   0.547748
    16  Cl   0.584656
    17  Cl   0.619077
    18  Cl   0.589872
    19  Cl   0.624740
    20  Cl   0.533530
    21  Cl   0.577091
    22  Cl   0.378481
 Electronic spatial extent (au):  <R**2>=          10745.9746
 Charge=             -0.0000 electrons
 Dipole moment (field-independent basis, Debye):
    X=              0.9992    Y=              0.4989    Z=              0.9956  Tot=              1.4961
 Quadrupole moment (field-independent basis, Debye-Ang):
   XX=           -172.4184   YY=           -169.1574   ZZ=           -168.0434
   XY=             -0.2750   XZ=              3.5621   YZ=              0.1061
 Traceless Quadrupole moment (field-independent basis, Debye-Ang):
   XX=             -2.5453   YY=              0.7157   ZZ=              1.8297
   XY=             -0.2750   XZ=              3.5621   YZ=              0.1061
 Octapole moment (field-independent basis, Debye-Ang**2):
  XXX=             -4.6299  YYY=             -4.9472  ZZZ=             -8.3916  XYY=             -2.7955
  XXY=            -10.1173  XXZ=              6.1563  XZZ=              6.9505  YZZ=             -2.6478
  YYZ=             -3.0565  XYZ=             -2.2108
 Hexadecapole moment (field-independent basis, Debye-Ang**3):
 XXXX=          -9863.7628 YYYY=          -2006.3633 ZZZZ=          -1903.9183 XXXY=              9.8475
 XXXZ=             25.1967 YYYX=              1.0745 YYYZ=             24.5408 ZZZX=            -14.3468
 ZZZY=            -25.6315 XXYY=          -2002.6825 XXZZ=          -1945.0292 YYZZ=           -675.3406
 XXYZ=             -8.0520 YYXZ=             -5.9692 ZZXY=              3.8881
 N-N= 2.693505913629D+03 E-N=-1.520042613268D+04  KE= 4.129828346829D+03
 1\1\GINC-CN048\FOpt\RB3LYP\6-311+G(d,p)\C12H2Cl8\20CY91R06\04-Apr-2022
 \0\\# opt b3lyp/6-311+g(d,p) scf=xqc\\Title Card Required\\0,1\C,-0.04
 56789538,-0.1290848821,-0.0556910738\C,0.7196721154,0.1830384658,-1.18
 42712952\C,1.4102532155,1.3816278496,-1.2938188397\C,1.3469902079,2.30
 46629891,-0.2579489399\C,0.5952125452,2.0387877473,0.8931870412\C,-0.0
 927710337,0.8189266153,0.9776481896\C,-0.7658986572,-1.4310862901,0.05
 60083817\C,-0.1108491088,-2.5247192377,0.6141144378\C,-0.7443846811,-3
 .7546213949,0.7294803262\C,-2.0605943866,-3.917446919,0.283278597\C,-2
 .7320446818,-2.8208758929,-0.2827010384\C,-2.0817024807,-1.5843830695,
 -0.3932719427\H,1.9936240907,1.5993234132,-2.1771210943\H,0.9070101349
 ,-2.4193613508,0.9651208932\Cl,-2.9053863147,-0.2172697072,-1.09204310
 43\Cl,-1.0412458958,0.4620392389,2.3957858153\Cl,-4.364957718,-3.00050
 53478,-0.8435215371\Cl,0.5213314072,3.1936872604,2.1855620949\Cl,-2.85
 2599237,-5.4541984506,0.4267686021\Cl,2.2288262063,3.7973378474,-0.433
 5032195\Cl,0.1400358049,-5.0787358975,1.4400469927\Cl,0.8226147815,-0.
 9483889072,-2.5156501168\\Version=EM64L-G16RevB.01\State=1-A\HF=-4140.
 3606195\RMSD=8.766e-09\RMSF=2.352e-05\Dipole=0.53502,0.1729726,-0.1740
 934\Quadrupole=1.5917402,-2.4590108,0.8672706,-0.2171408,-1.3674027,-1
 .8264279\PG=C01 [X(C12H2Cl8)]\\@


 JUST WHEN YOU THINK YOU'VE GOT THE WORLD ON A STRING,
 YOU FIND OUT IT'S YOUR LEASH.
 Job cpu time:       1 days 23 hours 29 minutes 38.0 seconds.
 Elapsed time:       1 days 23 hours 29 minutes 38.0 seconds.
 File lengths (MBytes):  RWF=    177 Int=      0 D2E=      0 Chk=     25 Scr=      1
 Normal termination of Gaussian 16 at Mon Apr  4 23:00:12 2022.
