 Entering Gaussian System, Link 0=g16
 Input=2,2prime,5-Trichlorobiphenyl.gjf
 Output=2,2prime,5-Trichlorobiphenyl.log
 Initial command:
 /home/apps/g16/l1.exe "./Gau-336478.inp" -scrdir="./"
 Entering Link 1 = /home/apps/g16/l1.exe PID=    336479.
  
 Copyright (c) 1988-2017, Gaussian, Inc.  All Rights Reserved.
  
 This is part of the Gaussian(R) 16 program.  It is based on
 the Gaussian(R) 09 system (copyright 2009, Gaussian, Inc.),
 the Gaussian(R) 03 system (copyright 2003, Gaussian, Inc.),
 the Gaussian(R) 98 system (copyright 1998, Gaussian, Inc.),
 the Gaussian(R) 94 system (copyright 1995, Gaussian, Inc.),
 the Gaussian 92(TM) system (copyright 1992, Gaussian, Inc.),
 the Gaussian 90(TM) system (copyright 1990, Gaussian, Inc.),
 the Gaussian 88(TM) system (copyright 1988, Gaussian, Inc.),
 the Gaussian 86(TM) system (copyright 1986, Carnegie Mellon
 University), and the Gaussian 82(TM) system (copyright 1983,
 Carnegie Mellon University). Gaussian is a federally registered
 trademark of Gaussian, Inc.
  
 This software contains proprietary and confidential information,
 including trade secrets, belonging to Gaussian, Inc.
  
 This software is provided under written license and may be
 used, copied, transmitted, or stored only in accord with that
 written license.
  
 The following legend is applicable only to US Government
 contracts under FAR:
  
                    RESTRICTED RIGHTS LEGEND
  
 Use, reproduction and disclosure by the US Government is
 subject to restrictions as set forth in subparagraphs (a)
 and (c) of the Commercial Computer Software - Restricted
 Rights clause in FAR 52.227-19.
  
 Gaussian, Inc.
 340 Quinnipiac St., Bldg. 40, Wallingford CT 06492
  
  
 ---------------------------------------------------------------
 Warning -- This program may not be used in any manner that
 competes with the business of Gaussian, Inc. or will provide
 assistance to any competitor of Gaussian, Inc.  The licensee
 of this program is prohibited from giving any competitor of
 Gaussian, Inc. access to this program.  By using this program,
 the user acknowledges that Gaussian, Inc. is engaged in the
 business of creating and licensing software in the field of
 computational chemistry and represents and warrants to the
 licensee that it is not a competitor of Gaussian, Inc. and that
 it will not use this program in any manner prohibited above.
 ---------------------------------------------------------------
  

 Cite this work as:
 Gaussian 16, Revision B.01,
 M. J. Frisch, G. W. Trucks, H. B. Schlegel, G. E. Scuseria, 
 M. A. Robb, J. R. Cheeseman, G. Scalmani, V. Barone, 
 G. A. Petersson, H. Nakatsuji, X. Li, M. Caricato, A. V. Marenich, 
 J. Bloino, B. G. Janesko, R. Gomperts, B. Mennucci, H. P. Hratchian, 
 J. V. Ortiz, A. F. Izmaylov, J. L. Sonnenberg, D. Williams-Young, 
 F. Ding, F. Lipparini, F. Egidi, J. Goings, B. Peng, A. Petrone, 
 T. Henderson, D. Ranasinghe, V. G. Zakrzewski, J. Gao, N. Rega, 
 G. Zheng, W. Liang, M. Hada, M. Ehara, K. Toyota, R. Fukuda, 
 J. Hasegawa, M. Ishida, T. Nakajima, Y. Honda, O. Kitao, H. Nakai, 
 T. Vreven, K. Throssell, J. A. Montgomery, Jr., J. E. Peralta, 
 F. Ogliaro, M. J. Bearpark, J. J. Heyd, E. N. Brothers, K. N. Kudin, 
 V. N. Staroverov, T. A. Keith, R. Kobayashi, J. Normand, 
 K. Raghavachari, A. P. Rendell, J. C. Burant, S. S. Iyengar, 
 J. Tomasi, M. Cossi, J. M. Millam, M. Klene, C. Adamo, R. Cammi, 
 J. W. Ochterski, R. L. Martin, K. Morokuma, O. Farkas, 
 J. B. Foresman, and D. J. Fox, Gaussian, Inc., Wallingford CT, 2016.
 
 ******************************************
 Gaussian 16:  EM64L-G16RevB.01 20-Dec-2017
                14-Mar-2022 
 ******************************************
 %mem=10GB
 %nprocshared=4
 Will use up to    4 processors via shared memory.
 --------------------------------
 # opt b3lyp/6-311+g(d,p) scf=xqc
 --------------------------------
 1/18=20,19=15,26=3,38=1/1,3;
 2/9=110,12=2,17=6,18=5,40=1/2;
 3/5=4,6=6,7=111,11=2,25=1,30=1,71=1,74=-5/1,2,3;
 4//1;
 5/5=2,8=3,13=1,38=5/2,8;
 6/7=2,8=2,9=2,10=2,28=1/1;
 7//1,2,3,16;
 1/18=20,19=15,26=3/3(2);
 2/9=110/2;
 99//99;
 2/9=110/2;
 3/5=4,6=6,7=111,11=2,25=1,30=1,71=1,74=-5/1,2,3;
 4/5=5,16=3,69=1/1;
 5/5=2,8=3,13=1,38=5/2,8;
 7//1,2,3,16;
 1/18=20,19=15,26=3/3(-5);
 2/9=110/2;
 6/7=2,8=2,9=2,10=2,19=2,28=1/1;
 99/9=1/99;
 -------------------
 Title Card Required
 -------------------
 Symbolic Z-matrix:
 Charge =  0 Multiplicity = 1
 C                     0.11635   0.36216  -0.00285 
 C                     1.44873   0.39205  -0.4362 
 C                     2.15663   1.6015   -0.44227 
 C                     1.53214   2.78107  -0.015 
 C                     0.19976   2.75118   0.41835 
 C                    -0.50814   1.54173   0.42442 
 C                    -0.66155  -0.9669    0.00382 
 C                    -0.03707  -2.14647  -0.42345 
 C                    -0.74496  -3.35592  -0.41738 
 C                    -2.07734  -3.38581   0.01597 
 C                    -2.70183  -2.20624   0.44325 
 C                    -1.99393  -0.99679   0.43717 
 H                     3.17393   1.62432  -0.77314 
 H                     2.07263   3.70451  -0.01963 
 H                    -1.52544   1.51891   0.75529 
 H                    -0.26815  -4.25654  -0.74361 
 H                    -2.61783  -4.30925   0.02061 
 H                    -3.71913  -2.22906   0.77412 
 H                    -2.47074  -0.09617   0.76341 
 Cl                    2.23302  -1.08935  -0.9728 
 Cl                    1.63625  -2.10894  -0.96769 
 Cl                   -0.58453   4.23258   0.95495 
 

 GradGradGradGradGradGradGradGradGradGradGradGradGradGradGradGradGradGrad
 Berny optimization.
 Initialization pass.
                           ----------------------------
                           !    Initial Parameters    !
                           ! (Angstroms and Degrees)  !
 --------------------------                            --------------------------
 ! Name  Definition              Value          Derivative Info.                !
 --------------------------------------------------------------------------------
 ! R1    R(1,2)                  1.4014         estimate D2E/DX2                !
 ! R2    R(1,6)                  1.4014         estimate D2E/DX2                !
 ! R3    R(1,7)                  1.54           estimate D2E/DX2                !
 ! R4    R(2,3)                  1.4014         estimate D2E/DX2                !
 ! R5    R(2,20)                 1.76           estimate D2E/DX2                !
 ! R6    R(3,4)                  1.4014         estimate D2E/DX2                !
 ! R7    R(3,13)                 1.07           estimate D2E/DX2                !
 ! R8    R(4,5)                  1.4014         estimate D2E/DX2                !
 ! R9    R(4,14)                 1.07           estimate D2E/DX2                !
 ! R10   R(5,6)                  1.4014         estimate D2E/DX2                !
 ! R11   R(5,22)                 1.76           estimate D2E/DX2                !
 ! R12   R(6,15)                 1.07           estimate D2E/DX2                !
 ! R13   R(7,8)                  1.4014         estimate D2E/DX2                !
 ! R14   R(7,12)                 1.4014         estimate D2E/DX2                !
 ! R15   R(8,9)                  1.4014         estimate D2E/DX2                !
 ! R16   R(8,21)                 1.76           estimate D2E/DX2                !
 ! R17   R(9,10)                 1.4014         estimate D2E/DX2                !
 ! R18   R(9,16)                 1.07           estimate D2E/DX2                !
 ! R19   R(10,11)                1.4014         estimate D2E/DX2                !
 ! R20   R(10,17)                1.07           estimate D2E/DX2                !
 ! R21   R(11,12)                1.4014         estimate D2E/DX2                !
 ! R22   R(11,18)                1.07           estimate D2E/DX2                !
 ! R23   R(12,19)                1.07           estimate D2E/DX2                !
 ! R24   R(20,21)                1.1814         estimate D2E/DX2                !
 ! A1    A(2,1,6)              120.0            estimate D2E/DX2                !
 ! A2    A(2,1,7)              120.0            estimate D2E/DX2                !
 ! A3    A(6,1,7)              120.0            estimate D2E/DX2                !
 ! A4    A(1,2,3)              120.0            estimate D2E/DX2                !
 ! A5    A(1,2,20)             120.0            estimate D2E/DX2                !
 ! A6    A(3,2,20)             120.0            estimate D2E/DX2                !
 ! A7    A(2,3,4)              120.0            estimate D2E/DX2                !
 ! A8    A(2,3,13)             120.0            estimate D2E/DX2                !
 ! A9    A(4,3,13)             120.0            estimate D2E/DX2                !
 ! A10   A(3,4,5)              120.0            estimate D2E/DX2                !
 ! A11   A(3,4,14)             120.0            estimate D2E/DX2                !
 ! A12   A(5,4,14)             120.0            estimate D2E/DX2                !
 ! A13   A(4,5,6)              120.0            estimate D2E/DX2                !
 ! A14   A(4,5,22)             120.0            estimate D2E/DX2                !
 ! A15   A(6,5,22)             120.0            estimate D2E/DX2                !
 ! A16   A(1,6,5)              120.0            estimate D2E/DX2                !
 ! A17   A(1,6,15)             120.0            estimate D2E/DX2                !
 ! A18   A(5,6,15)             120.0            estimate D2E/DX2                !
 ! A19   A(1,7,8)              120.0            estimate D2E/DX2                !
 ! A20   A(1,7,12)             120.0            estimate D2E/DX2                !
 ! A21   A(8,7,12)             120.0            estimate D2E/DX2                !
 ! A22   A(7,8,9)              120.0            estimate D2E/DX2                !
 ! A23   A(7,8,21)             120.0            estimate D2E/DX2                !
 ! A24   A(9,8,21)             120.0            estimate D2E/DX2                !
 ! A25   A(8,9,10)             120.0            estimate D2E/DX2                !
 ! A26   A(8,9,16)             120.0            estimate D2E/DX2                !
 ! A27   A(10,9,16)            120.0            estimate D2E/DX2                !
 ! A28   A(9,10,11)            120.0            estimate D2E/DX2                !
 ! A29   A(9,10,17)            120.0            estimate D2E/DX2                !
 ! A30   A(11,10,17)           120.0            estimate D2E/DX2                !
 ! A31   A(10,11,12)           120.0            estimate D2E/DX2                !
 ! A32   A(10,11,18)           120.0            estimate D2E/DX2                !
 ! A33   A(12,11,18)           120.0            estimate D2E/DX2                !
 ! A34   A(7,12,11)            120.0            estimate D2E/DX2                !
 ! A35   A(7,12,19)            120.0            estimate D2E/DX2                !
 ! A36   A(11,12,19)           120.0            estimate D2E/DX2                !
 ! A37   A(2,20,21)            120.0            estimate D2E/DX2                !
 ! A38   A(8,21,20)            120.0            estimate D2E/DX2                !
 ! D1    D(6,1,2,3)              0.0001         estimate D2E/DX2                !
 ! D2    D(6,1,2,20)           180.0            estimate D2E/DX2                !
 ! D3    D(7,1,2,3)           -180.0            estimate D2E/DX2                !
 ! D4    D(7,1,2,20)            -0.0001         estimate D2E/DX2                !
 ! D5    D(2,1,6,5)             -0.0001         estimate D2E/DX2                !
 ! D6    D(2,1,6,15)           180.0            estimate D2E/DX2                !
 ! D7    D(7,1,6,5)            180.0            estimate D2E/DX2                !
 ! D8    D(7,1,6,15)             0.0            estimate D2E/DX2                !
 ! D9    D(2,1,7,8)             -0.0001         estimate D2E/DX2                !
 ! D10   D(2,1,7,12)           179.9998         estimate D2E/DX2                !
 ! D11   D(6,1,7,8)            179.9999         estimate D2E/DX2                !
 ! D12   D(6,1,7,12)            -0.0002         estimate D2E/DX2                !
 ! D13   D(1,2,3,4)              0.0            estimate D2E/DX2                !
 ! D14   D(1,2,3,13)           180.0            estimate D2E/DX2                !
 ! D15   D(20,2,3,4)          -179.9999         estimate D2E/DX2                !
 ! D16   D(20,2,3,13)            0.0001         estimate D2E/DX2                !
 ! D17   D(1,2,20,21)            0.0002         estimate D2E/DX2                !
 ! D18   D(3,2,20,21)         -179.9999         estimate D2E/DX2                !
 ! D19   D(2,3,4,5)             -0.0001         estimate D2E/DX2                !
 ! D20   D(2,3,4,14)           180.0            estimate D2E/DX2                !
 ! D21   D(13,3,4,5)           179.9999         estimate D2E/DX2                !
 ! D22   D(13,3,4,14)            0.0            estimate D2E/DX2                !
 ! D23   D(3,4,5,6)              0.0001         estimate D2E/DX2                !
 ! D24   D(3,4,5,22)          -179.9999         estimate D2E/DX2                !
 ! D25   D(14,4,5,6)          -180.0            estimate D2E/DX2                !
 ! D26   D(14,4,5,22)            0.0            estimate D2E/DX2                !
 ! D27   D(4,5,6,1)              0.0            estimate D2E/DX2                !
 ! D28   D(4,5,6,15)           179.9999         estimate D2E/DX2                !
 ! D29   D(22,5,6,1)           180.0            estimate D2E/DX2                !
 ! D30   D(22,5,6,15)           -0.0001         estimate D2E/DX2                !
 ! D31   D(1,7,8,9)            179.9999         estimate D2E/DX2                !
 ! D32   D(1,7,8,21)             0.0001         estimate D2E/DX2                !
 ! D33   D(12,7,8,9)             0.0001         estimate D2E/DX2                !
 ! D34   D(12,7,8,21)         -179.9998         estimate D2E/DX2                !
 ! D35   D(1,7,12,11)         -179.9999         estimate D2E/DX2                !
 ! D36   D(1,7,12,19)            0.0            estimate D2E/DX2                !
 ! D37   D(8,7,12,11)           -0.0001         estimate D2E/DX2                !
 ! D38   D(8,7,12,19)          179.9999         estimate D2E/DX2                !
 ! D39   D(7,8,9,10)             0.0            estimate D2E/DX2                !
 ! D40   D(7,8,9,16)           180.0            estimate D2E/DX2                !
 ! D41   D(21,8,9,10)          179.9998         estimate D2E/DX2                !
 ! D42   D(21,8,9,16)           -0.0002         estimate D2E/DX2                !
 ! D43   D(7,8,21,20)            0.0001         estimate D2E/DX2                !
 ! D44   D(9,8,21,20)         -179.9998         estimate D2E/DX2                !
 ! D45   D(8,9,10,11)            0.0            estimate D2E/DX2                !
 ! D46   D(8,9,10,17)         -179.9999         estimate D2E/DX2                !
 ! D47   D(16,9,10,11)         180.0            estimate D2E/DX2                !
 ! D48   D(16,9,10,17)           0.0001         estimate D2E/DX2                !
 ! D49   D(9,10,11,12)           0.0            estimate D2E/DX2                !
 ! D50   D(9,10,11,18)        -179.9998         estimate D2E/DX2                !
 ! D51   D(17,10,11,12)        179.9999         estimate D2E/DX2                !
 ! D52   D(17,10,11,18)          0.0001         estimate D2E/DX2                !
 ! D53   D(10,11,12,7)           0.0            estimate D2E/DX2                !
 ! D54   D(10,11,12,19)       -179.9999         estimate D2E/DX2                !
 ! D55   D(18,11,12,7)         179.9999         estimate D2E/DX2                !
 ! D56   D(18,11,12,19)         -0.0001         estimate D2E/DX2                !
 ! D57   D(2,20,21,8)           -0.0002         estimate D2E/DX2                !
 --------------------------------------------------------------------------------
 Trust Radius=3.00D-01 FncErr=1.00D-07 GrdErr=1.00D-06 EigMax=2.50D+02 EigMin=1.00D-04
 Number of steps in this run=    129 maximum allowed number of steps=    132.
 GradGradGradGradGradGradGradGradGradGradGradGradGradGradGradGradGradGrad

                          Input orientation:                          
 ---------------------------------------------------------------------
 Center     Atomic      Atomic             Coordinates (Angstroms)
 Number     Number       Type             X           Y           Z
 ---------------------------------------------------------------------
      1          6           0        0.116350    0.362164   -0.002851
      2          6           0        1.448732    0.392050   -0.436198
      3          6           0        2.156625    1.601501   -0.442270
      4          6           0        1.532138    2.781066   -0.014995
      5          6           0        0.199756    2.751180    0.418349
      6          6           0       -0.508138    1.541729    0.424422
      7          6           0       -0.661554   -0.966903    0.003823
      8          6           0       -0.037067   -2.146469   -0.423452
      9          6           0       -0.744960   -3.355920   -0.417378
     10          6           0       -2.077340   -3.385806    0.015972
     11          6           0       -2.701827   -2.206241    0.443247
     12          6           0       -1.993934   -0.996790    0.437173
     13          1           0        3.173928    1.624319   -0.773139
     14          1           0        2.072630    3.704508   -0.019631
     15          1           0       -1.525440    1.518911    0.755291
     16          1           0       -0.268150   -4.256544   -0.743612
     17          1           0       -2.617831   -4.309250    0.020612
     18          1           0       -3.719128   -2.229061    0.774122
     19          1           0       -2.470744   -0.096166    0.763408
     20         17           0        2.233018   -1.089351   -0.972803
     21         17           0        1.636253   -2.108935   -0.967686
     22         17           0       -0.584531    4.232581    0.954955
 ---------------------------------------------------------------------
                    Distance matrix (angstroms):
                    1          2          3          4          5
     1  C    0.000000
     2  C    1.401400   0.000000
     3  C    2.427296   1.401400   0.000000
     4  C    2.802800   2.427296   1.401400   0.000000
     5  C    2.427296   2.802800   2.427296   1.401400   0.000000
     6  C    1.401400   2.427296   2.802800   2.427296   1.401400
     7  C    1.540000   2.548270   3.838989   4.342800   3.838989
     8  C    2.548270   2.941400   4.342800   5.187469   4.975106
     9  C    3.838989   4.342800   5.744200   6.558176   6.235992
    10  C    4.342800   5.187469   6.558176   7.145600   6.558176
    11  C    3.838989   4.975106   6.235992   6.558176   5.744200
    12  C    2.548270   3.813607   4.975106   5.187469   4.342800
    13  H    3.396345   2.146700   1.070000   2.146700   3.396345
    14  H    3.872800   3.396345   2.146700   1.070000   2.146700
    15  H    2.146700   3.396345   3.872800   3.396345   2.146700
    16  H    4.693509   4.965039   6.347206   7.300676   7.118798
    17  H    5.412800   6.232802   7.612271   8.215600   7.612271
    18  H    4.693509   5.919617   7.118798   7.300676   6.347206
    19  H    2.736837   4.127917   5.074276   4.990735   3.918930
    20  Cl   2.743718   1.760000   2.743718   4.048303   4.562800
    21  Cl   3.057342   2.563702   3.783409   4.983028   5.254079
    22  Cl   4.048303   4.562800   4.048303   2.743718   1.760000
                    6          7          8          9         10
     6  C    0.000000
     7  C    2.548270   0.000000
     8  C    3.813607   1.401400   0.000000
     9  C    4.975106   2.427296   1.401400   0.000000
    10  C    5.187469   2.802800   2.427296   1.401400   0.000000
    11  C    4.342800   2.427296   2.802800   2.427296   1.401400
    12  C    2.941400   1.401400   2.427296   2.802800   2.427296
    13  H    3.872800   4.693509   4.965039   6.347206   7.300676
    14  H    3.396345   5.412800   6.232802   7.612271   8.215600
    15  H    1.070000   2.736837   4.127917   5.074276   4.990735
    16  H    5.919617   3.396345   2.146700   1.070000   2.146700
    17  H    6.232802   3.872800   3.396345   2.146700   1.070000
    18  H    4.965039   3.396345   3.872800   3.396345   2.146700
    19  H    2.578650   2.146700   3.396345   3.872800   3.396345
    20  Cl   4.048303   3.057342   2.563702   3.783409   4.983028
    21  Cl   4.456874   2.743718   1.760000   2.743718   4.048303
    22  Cl   2.743718   5.286324   6.549198   7.713260   7.819846
                   11         12         13         14         15
    11  C    0.000000
    12  C    1.401400   0.000000
    13  H    7.118798   5.919617   0.000000
    14  H    7.612271   6.232802   2.471400   0.000000
    15  H    3.918930   2.578650   4.942800   4.280590   0.000000
    16  H    3.396345   3.872800   6.814200   8.329571   6.097816
    17  H    2.146700   3.396345   8.329571   9.285600   5.974992
    18  H    1.070000   2.146700   8.047159   8.329571   4.342800
    19  H    2.146700   1.070000   6.097816   5.974992   1.871400
    20  Cl   5.254079   4.456874   2.879094   4.890332   4.890332
    21  Cl   4.562800   4.048303   4.042212   5.906383   5.111382
    22  Cl   6.797295   5.440665   4.890332   2.879094   2.879094
                   16         17         18         19         20
    16  H    0.000000
    17  H    2.471400   0.000000
    18  H    4.280590   2.471400   0.000000
    19  H    4.942800   4.280590   2.471400   0.000000
    20  Cl   4.042212   5.906383   6.307038   5.111382   0.000000
    21  Cl   2.879094   4.890332   5.632800   4.890332   1.181400
    22  Cl   8.663168   8.830073   7.184095   4.725732   6.322800
                   21         22
    21  Cl   0.000000
    22  Cl   6.988795   0.000000
 Stoichiometry    C12H7Cl3
 Framework group  C1[X(C12H7Cl3)]
 Deg. of freedom    60
 Full point group                 C1      NOp   1
 Largest Abelian subgroup         C1      NOp   1
 Largest concise Abelian subgroup C1      NOp   1
                         Standard orientation:                         
 ---------------------------------------------------------------------
 Center     Atomic      Atomic             Coordinates (Angstroms)
 Number     Number       Type             X           Y           Z
 ---------------------------------------------------------------------
      1          6           0        0.430323    0.157632   -0.000001
      2          6           0        0.477591   -1.242971    0.000000
      3          6           0        1.714182   -1.902337    0.000002
      4          6           0        2.903506   -1.161101    0.000003
      5          6           0        2.856238    0.239502    0.000000
      6          6           0        1.619647    0.898868   -0.000001
      7          6           0       -0.928569    0.882210   -0.000001
      8          6           0       -2.117892    0.140974   -0.000003
      9          6           0       -3.354483    0.800340   -0.000002
     10          6           0       -3.401751    2.200943    0.000001
     11          6           0       -2.212427    2.942179    0.000003
     12          6           0       -0.975836    2.282813    0.000002
     13          1           0        1.750272   -2.971728    0.000003
     14          1           0        3.847671   -1.664542    0.000005
     15          1           0        1.583557    1.968259   -0.000002
     16          1           0       -4.262558    0.234390   -0.000003
     17          1           0       -4.345916    2.704383    0.000003
     18          1           0       -2.248517    4.011570    0.000007
     19          1           0       -0.067761    2.848763    0.000005
     20         17           0       -1.016065   -2.173880    0.000002
     21         17           0       -2.058529   -1.618025   -0.000002
     22         17           0        4.349894    1.170411   -0.000002
 ---------------------------------------------------------------------
 Rotational constants (GHZ):           0.7425804           0.3179178           0.2226119
 Standard basis: 6-311+G(d,p) (5D, 7F)
 There are   411 symmetry adapted cartesian basis functions of A   symmetry.
 There are   396 symmetry adapted basis functions of A   symmetry.
   396 basis functions,   647 primitive gaussians,   411 cartesian basis functions
    65 alpha electrons       65 beta electrons
       nuclear repulsion energy      1319.8125292065 Hartrees.
 NAtoms=   22 NActive=   22 NUniq=   22 SFac= 1.00D+00 NAtFMM=   60 NAOKFM=F Big=F
 Integral buffers will be    131072 words long.
 Raffenetti 2 integral format.
 Two-electron integral symmetry is turned on.
 One-electron integrals computed using PRISM.
 NBasis=   396 RedAO= T EigKep=  1.25D-06  NBF=   396
 NBsUse=   391 1.00D-06 EigRej=  9.61D-07 NBFU=   391
 ExpMin= 4.38D-02 ExpMax= 1.06D+05 ExpMxC= 3.62D+03 IAcc=3 IRadAn=         5 AccDes= 0.00D+00
 Harris functional with IExCor=  402 and IRadAn=       5 diagonalized for initial guess.
 HarFok:  IExCor=  402 AccDes= 0.00D+00 IRadAn=         5 IDoV= 1 UseB2=F ITyADJ=14
 ICtDFT=  3500011 ScaDFX=  1.000000  1.000000  1.000000  1.000000
 FoFCou: FMM=F IPFlag=           0 FMFlag=      100000 FMFlg1=           0
         NFxFlg=           0 DoJE=T BraDBF=F KetDBF=T FulRan=T
         wScrn=  0.000000 ICntrl=       500 IOpCl=  0 I1Cent=   200000004 NGrid=           0
         NMat0=    1 NMatS0=      1 NMatT0=    0 NMatD0=    1 NMtDS0=    0 NMtDT0=    0
 Petite list used in FoFCou.
 Requested convergence on RMS density matrix=1.00D-08 within  32 cycles.
 Requested convergence on MAX density matrix=1.00D-06.
 Requested convergence on             energy=1.00D-06.
 No special actions if energy rises.
 SCF Done:  E(RB3LYP) =  -1840.65598876     A.U. after   20 cycles
            NFock= 20  Conv=0.67D-08     -V/T= 1.9986
 QCSCF skips out because SCF is already converged.

 **********************************************************************

            Population analysis using the SCF Density.

 **********************************************************************

 Orbital symmetries:
       Occupied  (A) (A) (A) (A) (A) (A) (A) (A) (A) (A) (A) (A)
                 (A) (A) (A) (A) (A) (A) (A) (A) (A) (A) (A) (A)
                 (A) (A) (A) (A) (A) (A) (A) (A) (A) (A) (A) (A)
                 (A) (A) (A) (A) (A) (A) (A) (A) (A) (A) (A) (A)
                 (A) (A) (A) (A) (A) (A) (A) (A) (A) (A) (A) (A)
                 (A) (A) (A) (A) (A)
       Virtual   (A) (A) (A) (A) (A) (A) (A) (A) (A) (A) (A) (A)
                 (A) (A) (A) (A) (A) (A) (A) (A) (A) (A) (A) (A)
                 (A) (A) (A) (A) (A) (A) (A) (A) (A) (A) (A) (A)
                 (A) (A) (A) (A) (A) (A) (A) (A) (A) (A) (A) (A)
                 (A) (A) (A) (A) (A) (A) (A) (A) (A) (A) (A) (A)
                 (A) (A) (A) (A) (A) (A) (A) (A) (A) (A) (A) (A)
                 (A) (A) (A) (A) (A) (A) (A) (A) (A) (A) (A) (A)
                 (A) (A) (A) (A) (A) (A) (A) (A) (A) (A) (A) (A)
                 (A) (A) (A) (A) (A) (A) (A) (A) (A) (A) (A) (A)
                 (A) (A) (A) (A) (A) (A) (A) (A) (A) (A) (A) (A)
                 (A) (A) (A) (A) (A) (A) (A) (A) (A) (A) (A) (A)
                 (A) (A) (A) (A) (A) (A) (A) (A) (A) (A) (A) (A)
                 (A) (A) (A) (A) (A) (A) (A) (A) (A) (A) (A) (A)
                 (A) (A) (A) (A) (A) (A) (A) (A) (A) (A) (A) (A)
                 (A) (A) (A) (A) (A) (A) (A) (A) (A) (A) (A) (A)
                 (A) (A) (A) (A) (A) (A) (A) (A) (A) (A) (A) (A)
                 (A) (A) (A) (A) (A) (A) (A) (A) (A) (A) (A) (A)
                 (A) (A) (A) (A) (A) (A) (A) (A) (A) (A) (A) (A)
                 (A) (A) (A) (A) (A) (A) (A) (A) (A) (A) (A) (A)
                 (A) (A) (A) (A) (A) (A) (A) (A) (A) (A) (A) (A)
                 (A) (A) (A) (A) (A) (A) (A) (A) (A) (A) (A) (A)
                 (A) (A) (A) (A) (A) (A) (A) (A) (A) (A) (A) (A)
                 (A) (A) (A) (A) (A) (A) (A) (A) (A) (A) (A) (A)
                 (A) (A) (A) (A) (A) (A) (A) (A) (A) (A) (A) (A)
                 (A) (A) (A) (A) (A) (A) (A) (A) (A) (A) (A) (A)
                 (A) (A) (A) (A) (A) (A) (A) (A) (A) (A) (A) (A)
                 (A) (A) (A) (A) (A) (A) (A) (A) (A) (A) (A) (A)
                 (A) (A)
 The electronic state is 1-A.
 Alpha  occ. eigenvalues -- -101.65061-101.65054-101.55307 -10.23967 -10.19958
 Alpha  occ. eigenvalues --  -10.19456 -10.18991 -10.18861 -10.18697 -10.18218
 Alpha  occ. eigenvalues --  -10.18156 -10.17948 -10.17859 -10.16257 -10.16127
 Alpha  occ. eigenvalues --   -9.63819  -9.61693  -9.46751  -7.42234  -7.37248
 Alpha  occ. eigenvalues --   -7.37233  -7.36799  -7.36623  -7.36197  -7.23209
 Alpha  occ. eigenvalues --   -7.22234  -7.22206  -1.38160  -0.89575  -0.87340
 Alpha  occ. eigenvalues --   -0.85244  -0.80609  -0.79199  -0.78042  -0.73952
 Alpha  occ. eigenvalues --   -0.71436  -0.71416  -0.69650  -0.65065  -0.62007
 Alpha  occ. eigenvalues --   -0.59972  -0.58587  -0.56515  -0.51129  -0.49205
 Alpha  occ. eigenvalues --   -0.48053  -0.46924  -0.45093  -0.44034  -0.43345
 Alpha  occ. eigenvalues --   -0.41014  -0.40456  -0.39217  -0.38060  -0.37655
 Alpha  occ. eigenvalues --   -0.35273  -0.34581  -0.33802  -0.31553  -0.29573
 Alpha  occ. eigenvalues --   -0.28733  -0.26270  -0.24426  -0.20048  -0.14916
 Alpha virt. eigenvalues --   -0.05486  -0.04182  -0.01803  -0.00840   0.00693
 Alpha virt. eigenvalues --    0.00877   0.01385   0.01512   0.02215   0.02324
 Alpha virt. eigenvalues --    0.02584   0.02839   0.04414   0.04768   0.05743
 Alpha virt. eigenvalues --    0.06455   0.06559   0.06885   0.07537   0.07844
 Alpha virt. eigenvalues --    0.08804   0.09014   0.10252   0.10353   0.10370
 Alpha virt. eigenvalues --    0.11019   0.11500   0.12047   0.12541   0.12927
 Alpha virt. eigenvalues --    0.13385   0.13855   0.14299   0.14488   0.14636
 Alpha virt. eigenvalues --    0.15087   0.15994   0.16537   0.16850   0.17373
 Alpha virt. eigenvalues --    0.17568   0.17713   0.18029   0.18577   0.18742
 Alpha virt. eigenvalues --    0.19027   0.19359   0.19748   0.20058   0.20610
 Alpha virt. eigenvalues --    0.20621   0.21187   0.21831   0.22137   0.22667
 Alpha virt. eigenvalues --    0.22854   0.23496   0.24379   0.24603   0.24887
 Alpha virt. eigenvalues --    0.25471   0.25738   0.26079   0.27271   0.27502
 Alpha virt. eigenvalues --    0.27675   0.28279   0.29108   0.29146   0.29805
 Alpha virt. eigenvalues --    0.30048   0.30520   0.31664   0.32683   0.33395
 Alpha virt. eigenvalues --    0.34318   0.35496   0.35973   0.36781   0.37473
 Alpha virt. eigenvalues --    0.39739   0.40281   0.43180   0.44945   0.45190
 Alpha virt. eigenvalues --    0.45562   0.46038   0.46581   0.47399   0.47744
 Alpha virt. eigenvalues --    0.50141   0.50861   0.51545   0.53030   0.53198
 Alpha virt. eigenvalues --    0.54240   0.54906   0.55196   0.55397   0.55700
 Alpha virt. eigenvalues --    0.56446   0.57290   0.58476   0.59550   0.59863
 Alpha virt. eigenvalues --    0.59965   0.62130   0.62529   0.63084   0.63598
 Alpha virt. eigenvalues --    0.63930   0.66187   0.66468   0.66739   0.67916
 Alpha virt. eigenvalues --    0.68408   0.68883   0.69648   0.71241   0.72120
 Alpha virt. eigenvalues --    0.72438   0.73303   0.73304   0.74949   0.75739
 Alpha virt. eigenvalues --    0.78258   0.80256   0.80603   0.81268   0.81691
 Alpha virt. eigenvalues --    0.83883   0.84270   0.84976   0.84996   0.85800
 Alpha virt. eigenvalues --    0.86923   0.86990   0.88314   0.89070   0.90663
 Alpha virt. eigenvalues --    0.91348   0.92156   0.92872   0.93487   0.95801
 Alpha virt. eigenvalues --    0.96414   0.97241   0.97613   0.97920   0.98785
 Alpha virt. eigenvalues --    1.00595   1.01660   1.03826   1.04352   1.06235
 Alpha virt. eigenvalues --    1.06450   1.06877   1.09071   1.09715   1.10333
 Alpha virt. eigenvalues --    1.12139   1.12641   1.12818   1.17682   1.21144
 Alpha virt. eigenvalues --    1.21759   1.24002   1.26419   1.26862   1.28310
 Alpha virt. eigenvalues --    1.31017   1.31977   1.34514   1.35733   1.41357
 Alpha virt. eigenvalues --    1.43521   1.45300   1.47298   1.49946   1.51637
 Alpha virt. eigenvalues --    1.51680   1.52646   1.52914   1.55377   1.55861
 Alpha virt. eigenvalues --    1.56740   1.58948   1.59343   1.62304   1.62834
 Alpha virt. eigenvalues --    1.65704   1.65953   1.67762   1.69143   1.70918
 Alpha virt. eigenvalues --    1.73828   1.75084   1.75916   1.76929   1.78572
 Alpha virt. eigenvalues --    1.84514   1.85441   1.86694   1.86815   1.89678
 Alpha virt. eigenvalues --    1.90221   1.91899   1.93216   1.93900   1.94551
 Alpha virt. eigenvalues --    1.96011   1.97305   1.97328   1.99069   2.00305
 Alpha virt. eigenvalues --    2.02610   2.02641   2.03727   2.07557   2.08594
 Alpha virt. eigenvalues --    2.09504   2.10276   2.11173   2.18155   2.21060
 Alpha virt. eigenvalues --    2.23861   2.25198   2.27895   2.28092   2.28361
 Alpha virt. eigenvalues --    2.30889   2.31476   2.34080   2.37515   2.37987
 Alpha virt. eigenvalues --    2.40928   2.43038   2.43778   2.45123   2.46256
 Alpha virt. eigenvalues --    2.47974   2.51862   2.55158   2.56660   2.63736
 Alpha virt. eigenvalues --    2.64090   2.66280   2.66304   2.68086   2.69421
 Alpha virt. eigenvalues --    2.71054   2.72137   2.72788   2.74091   2.74894
 Alpha virt. eigenvalues --    2.75414   2.76590   2.77824   2.79439   2.80288
 Alpha virt. eigenvalues --    2.82024   2.82777   2.83886   2.86071   2.86863
 Alpha virt. eigenvalues --    2.87617   2.87841   2.93600   2.93925   2.96877
 Alpha virt. eigenvalues --    3.06861   3.08138   3.09496   3.12022   3.15632
 Alpha virt. eigenvalues --    3.17418   3.22336   3.24702   3.35111   3.35914
 Alpha virt. eigenvalues --    3.38343   3.40191   3.47758   3.53692   3.53932
 Alpha virt. eigenvalues --    3.58151   3.61799   3.68025   3.79663   3.87811
 Alpha virt. eigenvalues --    3.93324   4.05353   4.07631   4.10642   4.15115
 Alpha virt. eigenvalues --    4.23547   4.50549   4.82286   4.85544   9.78220
 Alpha virt. eigenvalues --    9.80538  10.55315  23.47147  23.63489  23.87160
 Alpha virt. eigenvalues --   23.91991  23.95076  23.96574  24.03103  24.05140
 Alpha virt. eigenvalues --   24.06930  24.07723  24.13688  24.16532  25.42011
 Alpha virt. eigenvalues --   25.83134  26.01047  26.14985  26.20583  26.61148
 Alpha virt. eigenvalues --   27.09814  27.40162  28.44337 215.77689 215.90342
 Alpha virt. eigenvalues --  216.87141
          Condensed to atoms (all electrons):
               1          2          3          4          5          6
     1  C   18.315342  -9.513569   2.763926   1.250375  -3.969345  -0.991789
     2  C   -9.513569  70.356665 -23.244802  -8.967457   4.312428   4.312420
     3  C    2.763926 -23.244802  18.722611   2.683123  -2.503495  -0.963333
     4  C    1.250375  -8.967457   2.683123  16.349494  -6.295453  -2.756107
     5  C   -3.969345   4.312428  -2.503495  -6.295453  17.153905   3.284412
     6  C   -0.991789   4.312420  -0.963333  -2.756107   3.284412   9.611729
     7  C    3.506589  -2.773806   0.097415   0.329198  -1.616290  -1.480259
     8  C   -0.435940  19.960048  -7.042536  -0.493709  -0.509449  -0.141163
     9  C   -1.674421  -7.287905   2.058097   0.292619  -0.711009  -0.748952
    10  C   -1.016239  -1.236317   0.314656   0.107615  -0.267173  -0.573077
    11  C   -0.019874  -0.078156  -0.233991   0.013290   0.516060   0.137695
    12  C   -0.433034  -3.662804   1.140718   0.169688  -1.170527  -1.207578
    13  H    0.072936   0.220361   0.270911  -0.060702  -0.041165  -0.005067
    14  H    0.107575  -0.145909  -0.060830   0.431249   0.009083  -0.007592
    15  H    0.197925  -0.134105   0.021503   0.113810  -0.247926   0.170334
    16  H    0.005619   0.030544  -0.004254  -0.000275   0.000458   0.001437
    17  H   -0.001237  -0.003407   0.000575   0.000000  -0.000044   0.001162
    18  H    0.004065   0.000901  -0.000154   0.000091   0.002168   0.010546
    19  H    0.063202  -0.024928   0.013239  -0.006569  -0.040161  -0.005660
    20  Cl  -0.980370 -27.232171   9.633902   3.374210  -1.602777  -2.161860
    21  Cl   0.050546  -9.536687   2.603507   0.573469  -0.830879  -0.374825
    22  Cl  -0.760718   0.347309   0.262653  -0.386220  -0.347416   0.385568
               7          8          9         10         11         12
     1  C    3.506589  -0.435940  -1.674421  -1.016239  -0.019874  -0.433034
     2  C   -2.773806  19.960048  -7.287905  -1.236317  -0.078156  -3.662804
     3  C    0.097415  -7.042536   2.058097   0.314656  -0.233991   1.140718
     4  C    0.329198  -0.493709   0.292619   0.107615   0.013290   0.169688
     5  C   -1.616290  -0.509449  -0.711009  -0.267173   0.516060  -1.170527
     6  C   -1.480259  -0.141163  -0.748952  -0.573077   0.137695  -1.207578
     7  C   11.900655  -0.547690  -0.147643  -1.401802  -0.305852  -1.244083
     8  C   -0.547690  52.037956 -17.560180  -6.528961   1.106282  -3.720794
     9  C   -0.147643 -17.560180  16.035703   2.438637  -1.289660   2.803248
    10  C   -1.401802  -6.528961   2.438637   9.441665  -0.162048   1.409394
    11  C   -0.305852   1.106282  -1.289660  -0.162048   9.832633  -2.193230
    12  C   -1.244083  -3.720794   2.803248   1.409394  -2.193230  11.512028
    13  H    0.004104   0.021189  -0.006364  -0.000382   0.000704  -0.000518
    14  H    0.006127  -0.002550   0.000506   0.000026   0.000096   0.003870
    15  H    0.049004   0.004669   0.006477   0.006671   0.018529   0.094178
    16  H    0.086168   0.174459   0.308133  -0.083139  -0.037587  -0.012611
    17  H    0.034832  -0.077650  -0.074233   0.477466  -0.010874  -0.014200
    18  H    0.040486   0.000449  -0.005832  -0.043519   0.458600  -0.118387
    19  H    0.026368  -0.054384   0.009027   0.022641  -0.163565   0.444976
    20  Cl   0.956305 -12.508488   4.981423   1.146009  -0.977716   1.532337
    21  Cl  -1.268331 -17.764284   6.954714   2.240222  -0.271432   0.992396
    22  Cl  -0.140929  -0.072136  -0.015256  -0.006600   0.014333  -0.085548
              13         14         15         16         17         18
     1  C    0.072936   0.107575   0.197925   0.005619  -0.001237   0.004065
     2  C    0.220361  -0.145909  -0.134105   0.030544  -0.003407   0.000901
     3  C    0.270911  -0.060830   0.021503  -0.004254   0.000575  -0.000154
     4  C   -0.060702   0.431249   0.113810  -0.000275   0.000000   0.000091
     5  C   -0.041165   0.009083  -0.247926   0.000458  -0.000044   0.002168
     6  C   -0.005067  -0.007592   0.170334   0.001437   0.001162   0.010546
     7  C    0.004104   0.006127   0.049004   0.086168   0.034832   0.040486
     8  C    0.021189  -0.002550   0.004669   0.174459  -0.077650   0.000449
     9  C   -0.006364   0.000506   0.006477   0.308133  -0.074233  -0.005832
    10  C   -0.000382   0.000026   0.006671  -0.083139   0.477466  -0.043519
    11  C    0.000704   0.000096   0.018529  -0.037587  -0.010874   0.458600
    12  C   -0.000518   0.003870   0.094178  -0.012611  -0.014200  -0.118387
    13  H    0.535905  -0.009615   0.000013   0.000002  -0.000000   0.000000
    14  H   -0.009615   0.526370  -0.000236  -0.000000   0.000000  -0.000000
    15  H    0.000013  -0.000236   0.565544  -0.000004   0.000001   0.000002
    16  H    0.000002  -0.000000  -0.000004   0.540489  -0.009207  -0.000273
    17  H   -0.000000   0.000000   0.000001  -0.009207   0.548109  -0.007584
    18  H    0.000000  -0.000000   0.000002  -0.000273  -0.007584   0.540564
    19  H   -0.000003   0.000003   0.005632   0.000054  -0.000240  -0.007640
    20  Cl  -0.143162   0.014430   0.020896   0.010276   0.001359  -0.001824
    21  Cl   0.005975   0.000397   0.015155  -0.136984   0.011697   0.002022
    22  Cl   0.001922  -0.013025  -0.037982   0.000004   0.000000   0.000011
              19         20         21         22
     1  C    0.063202  -0.980370   0.050546  -0.760718
     2  C   -0.024928 -27.232171  -9.536687   0.347309
     3  C    0.013239   9.633902   2.603507   0.262653
     4  C   -0.006569   3.374210   0.573469  -0.386220
     5  C   -0.040161  -1.602777  -0.830879  -0.347416
     6  C   -0.005660  -2.161860  -0.374825   0.385568
     7  C    0.026368   0.956305  -1.268331  -0.140929
     8  C   -0.054384 -12.508488 -17.764284  -0.072136
     9  C    0.009027   4.981423   6.954714  -0.015256
    10  C    0.022641   1.146009   2.240222  -0.006600
    11  C   -0.163565  -0.977716  -0.271432   0.014333
    12  C    0.444976   1.532337   0.992396  -0.085548
    13  H   -0.000003  -0.143162   0.005975   0.001922
    14  H    0.000003   0.014430   0.000397  -0.013025
    15  H    0.005632   0.020896   0.015155  -0.037982
    16  H    0.000054   0.010276  -0.136984   0.000004
    17  H   -0.000240   0.001359   0.011697   0.000000
    18  H   -0.007640  -0.001824   0.002022   0.000011
    19  H    0.579494   0.015977   0.008814  -0.000956
    20  Cl   0.015977  37.428475   3.169559  -0.070763
    21  Cl   0.008814   3.169559  29.954875  -0.012006
    22  Cl  -0.000956  -0.070763  -0.012006  17.515682
 Mulliken charges:
               1
     1  C   -0.541563
     2  C    0.301347
     3  C   -0.533442
     4  C   -0.721739
     5  C    0.874595
     6  C   -0.498040
     7  C   -0.110566
     8  C    0.154861
     9  C   -0.367129
    10  C   -0.285744
    11  C   -0.354236
    12  C   -0.239520
    13  H    0.132958
    14  H    0.140027
    15  H    0.129911
    16  H    0.126691
    17  H    0.123476
    18  H    0.125309
    19  H    0.114680
    20  Cl   0.393971
    21  Cl   0.612081
    22  Cl   0.422073
 Sum of Mulliken charges =  -0.00000
 Mulliken charges with hydrogens summed into heavy atoms:
               1
     1  C   -0.541563
     2  C    0.301347
     3  C   -0.400484
     4  C   -0.581712
     5  C    0.874595
     6  C   -0.368129
     7  C   -0.110566
     8  C    0.154861
     9  C   -0.240438
    10  C   -0.162268
    11  C   -0.228927
    12  C   -0.124840
    20  Cl   0.393971
    21  Cl   0.612081
    22  Cl   0.422073
 Electronic spatial extent (au):  <R**2>=           4427.0064
 Charge=             -0.0000 electrons
 Dipole moment (field-independent basis, Debye):
    X=             -2.6010    Y=             -2.0831    Z=              0.0000  Tot=              3.3324
 Quadrupole moment (field-independent basis, Debye-Ang):
   XX=           -109.0487   YY=            -95.9632   ZZ=           -111.7284
   XY=             -0.4807   XZ=             -0.0000   YZ=              0.0000
 Traceless Quadrupole moment (field-independent basis, Debye-Ang):
   XX=             -3.4686   YY=              9.6169   ZZ=             -6.1483
   XY=             -0.4807   XZ=             -0.0000   YZ=              0.0000
 Octapole moment (field-independent basis, Debye-Ang**2):
  XXX=            -44.4626  YYY=            -17.8886  ZZZ=             -0.0000  XYY=            -12.6718
  XXY=            -21.9318  XXZ=              0.0001  XZZ=              0.9475  YZZ=            -13.0231
  YYZ=              0.0001  XYZ=             -0.0001
 Hexadecapole moment (field-independent basis, Debye-Ang**3):
 XXXX=          -4030.4452 YYYY=          -1708.4013 ZZZZ=           -136.3260 XXXY=            -26.0446
 XXXZ=             -0.0000 YYYX=             48.6219 YYYZ=              0.0004 ZZZX=             -0.0001
 ZZZY=              0.0000 XXYY=           -906.7242 XXZZ=           -740.7309 YYZZ=           -351.8220
 XXYZ=              0.0001 YYXZ=             -0.0002 ZZXY=             41.9790
 N-N= 1.319812529206D+03 E-N=-6.991644588139D+03  KE= 1.843226518668D+03
 Calling FoFJK, ICntrl=      2127 FMM=F ISym2X=0 I1Cent= 0 IOpClX= 0 NMat=1 NMatS=1 NMatT=0.
 ***** Axes restored to original set *****
 -------------------------------------------------------------------
 Center     Atomic                   Forces (Hartrees/Bohr)
 Number     Number              X              Y              Z
 -------------------------------------------------------------------
      1        6          -0.023222167   -0.009371476    0.005890481
      2        6          -0.055401498    0.089661184    0.035091489
      3        6          -0.025429676   -0.005945205    0.007261467
      4        6          -0.004874643   -0.007065368    0.000278827
      5        6           0.006353200   -0.012441191   -0.004429601
      6        6           0.011952098    0.007243160   -0.002577302
      7        6          -0.003733779    0.029040362    0.006684342
      8        6          -0.104795214    0.005611641    0.035578901
      9        6          -0.006548372    0.020600856    0.006026417
     10        6           0.008113010    0.012576013   -0.000310926
     11        6           0.014342086    0.000696796   -0.004594103
     12        6           0.003521840   -0.018065356   -0.004553155
     13        1           0.012756090    0.000617162   -0.004086637
     14        1           0.004147666    0.009018713    0.000327336
     15        1          -0.006958425    0.003998279    0.003043349
     16        1           0.006896170   -0.011212414   -0.004377761
     17        1          -0.005468686   -0.009041755    0.000103517
     18        1          -0.009239187   -0.000190030    0.003008150
     19        1          -0.006835536    0.005028043    0.003196328
     20       17           1.715069369    2.717798770   -0.054602493
     21       17          -1.531555722   -2.826976265   -0.026361310
     22       17           0.000911376   -0.001581920   -0.000597318
 -------------------------------------------------------------------
 Cartesian Forces:  Max     2.826976265 RMS     0.560013345

 GradGradGradGradGradGradGradGradGradGradGradGradGradGradGradGradGradGrad
 Berny optimization.
 FormGI is forming the generalized inverse of G from B-inverse, IUseBI=4.
 Internal  Forces:  Max     3.116275200 RMS     0.292423588
 Search for a local minimum.
 Step number   1 out of a maximum of  129
 All quantities printed in internal units (Hartrees-Bohrs-Radians)
 Mixed Optimization -- RFO/linear search
 Second derivative matrix not updated -- first step.
 ITU=  0
     Eigenvalues ---    0.01035   0.01214   0.01489   0.01712   0.01738
     Eigenvalues ---    0.01829   0.02070   0.02070   0.02070   0.02070
     Eigenvalues ---    0.02070   0.02070   0.02070   0.02070   0.02070
     Eigenvalues ---    0.02070   0.02070   0.02070   0.03966   0.16000
     Eigenvalues ---    0.16000   0.16000   0.16000   0.16000   0.16000
     Eigenvalues ---    0.16000   0.22000   0.22442   0.22593   0.23516
     Eigenvalues ---    0.24501   0.24620   0.25000   0.25000   0.25000
     Eigenvalues ---    0.25000   0.28334   0.29041   0.29447   0.29539
     Eigenvalues ---    0.37230   0.37230   0.37230   0.37230   0.37230
     Eigenvalues ---    0.37230   0.37230   0.39957   0.40772   0.41370
     Eigenvalues ---    0.41429   0.44573   0.45129   0.45389   0.45389
     Eigenvalues ---    0.45389   0.45389   0.45389   0.45389  16.61567
 RFO step:  Lambda=-6.25821717D-01 EMin= 1.03510892D-02
 Linear search not attempted -- first point.
 Iteration  1 RMS(Cart)=  0.03049602 RMS(Int)=  0.00050705
 Iteration  2 RMS(Cart)=  0.00119846 RMS(Int)=  0.00023349
 Iteration  3 RMS(Cart)=  0.00000061 RMS(Int)=  0.00023349
 Variable       Old X    -DE/DX   Delta X   Delta X   Delta X     New X
                                 (Linear)    (Quad)   (Total)
    R1        2.64826   0.10217   0.00000   0.01708   0.01674   2.66501
    R2        2.64826   0.01793   0.00000   0.00201   0.00195   2.65021
    R3        2.91018   0.11936   0.00000  -0.01282  -0.01333   2.89685
    R4        2.64826  -0.00625   0.00000  -0.00807  -0.00808   2.64018
    R5        3.32592   0.05134   0.00000   0.12686   0.12710   3.45302
    R6        2.64826  -0.02497   0.00000  -0.00854  -0.00848   2.63979
    R7        2.02201   0.01341   0.00000   0.01343   0.01343   2.03544
    R8        2.64826  -0.03057   0.00000  -0.01144  -0.01137   2.63690
    R9        2.02201   0.00988   0.00000   0.00990   0.00990   2.03190
   R10        2.64826  -0.01186   0.00000  -0.00870  -0.00869   2.63957
   R11        3.32592  -0.00192   0.00000  -0.00208  -0.00208   3.32383
   R12        2.02201   0.00747   0.00000   0.00749   0.00749   2.02949
   R13        2.64826   0.10242   0.00000   0.01728   0.01694   2.66520
   R14        2.64826   0.01894   0.00000   0.00295   0.00289   2.65115
   R15        2.64826  -0.00628   0.00000  -0.00812  -0.00813   2.64013
   R16        3.32592   0.05000   0.00000   0.12539   0.12562   3.45154
   R17        2.64826  -0.02394   0.00000  -0.00758  -0.00752   2.64075
   R18        2.02201   0.01384   0.00000   0.01387   0.01387   2.03588
   R19        2.64826  -0.02766   0.00000  -0.00872  -0.00865   2.63961
   R20        2.02201   0.01057   0.00000   0.01059   0.01059   2.03259
   R21        2.64826  -0.00940   0.00000  -0.00640  -0.00639   2.64187
   R22        2.02201   0.00972   0.00000   0.00974   0.00974   2.03174
   R23        2.02201   0.00825   0.00000   0.00827   0.00827   2.03028
   R24        2.23252   3.11628   0.00000   0.18075   0.18126   2.41378
    A1        2.09440  -0.07939   0.00000  -0.00959  -0.00931   2.08508
    A2        2.09440   0.24627   0.00000   0.01214   0.01120   2.10560
    A3        2.09440  -0.16688   0.00000  -0.00255  -0.00189   2.09250
    A4        2.09440   0.01211   0.00000  -0.00404  -0.00410   2.09030
    A5        2.09440   0.06942   0.00000   0.03125   0.03107   2.12546
    A6        2.09440  -0.08153   0.00000  -0.02721  -0.02697   2.06743
    A7        2.09440   0.02246   0.00000   0.00968   0.00962   2.10401
    A8        2.09440  -0.01089   0.00000  -0.00441  -0.00438   2.09002
    A9        2.09440  -0.01157   0.00000  -0.00527  -0.00524   2.08916
   A10        2.09440  -0.01179   0.00000  -0.00588  -0.00585   2.08854
   A11        2.09440   0.00695   0.00000   0.00428   0.00427   2.09866
   A12        2.09440   0.00484   0.00000   0.00160   0.00158   2.09598
   A13        2.09440   0.01297   0.00000   0.00713   0.00710   2.10150
   A14        2.09440  -0.00660   0.00000  -0.00369  -0.00368   2.09071
   A15        2.09440  -0.00637   0.00000  -0.00343  -0.00342   2.09097
   A16        2.09440   0.04364   0.00000   0.00270   0.00254   2.09694
   A17        2.09440  -0.01755   0.00000   0.00408   0.00416   2.09856
   A18        2.09440  -0.02609   0.00000  -0.00679  -0.00671   2.08769
   A19        2.09440   0.24532   0.00000   0.01108   0.01014   2.10453
   A20        2.09440  -0.16505   0.00000  -0.00041   0.00025   2.09464
   A21        2.09440  -0.08027   0.00000  -0.01067  -0.01038   2.08401
   A22        2.09440   0.01294   0.00000  -0.00317  -0.00323   2.09117
   A23        2.09440   0.07012   0.00000   0.03207   0.03188   2.12628
   A24        2.09440  -0.08307   0.00000  -0.02890  -0.02865   2.06574
   A25        2.09440   0.02098   0.00000   0.00787   0.00781   2.10220
   A26        2.09440  -0.01136   0.00000  -0.00505  -0.00501   2.08938
   A27        2.09440  -0.00962   0.00000  -0.00282  -0.00279   2.09160
   A28        2.09440  -0.00795   0.00000  -0.00135  -0.00133   2.09307
   A29        2.09440   0.00414   0.00000   0.00089   0.00087   2.09527
   A30        2.09440   0.00381   0.00000   0.00046   0.00045   2.09485
   A31        2.09440   0.00737   0.00000   0.00077   0.00074   2.09514
   A32        2.09440  -0.00367   0.00000  -0.00036  -0.00035   2.09405
   A33        2.09440  -0.00370   0.00000  -0.00041  -0.00040   2.09400
   A34        2.09440   0.04692   0.00000   0.00655   0.00639   2.10078
   A35        2.09440  -0.01966   0.00000   0.00156   0.00164   2.09603
   A36        2.09440  -0.02726   0.00000  -0.00811  -0.00803   2.08637
   A37        2.09440  -0.31572   0.00000  -0.04344  -0.04231   2.05208
   A38        2.09440  -0.31541   0.00000  -0.04310  -0.04198   2.05242
    D1        0.00000  -0.00000   0.00000  -0.00000  -0.00000   0.00000
    D2        3.14159  -0.00000   0.00000  -0.00000  -0.00000   3.14159
    D3       -3.14159  -0.00000   0.00000  -0.00000  -0.00000  -3.14159
    D4       -0.00000  -0.00000   0.00000  -0.00000  -0.00000  -0.00000
    D5       -0.00000   0.00000   0.00000   0.00000   0.00000  -0.00000
    D6        3.14159   0.00000   0.00000   0.00000   0.00000   3.14159
    D7        3.14159   0.00000   0.00000   0.00000   0.00000   3.14159
    D8        0.00000   0.00000   0.00000  -0.00000  -0.00000   0.00000
    D9       -0.00000  -0.00000   0.00000  -0.00000  -0.00000  -0.00000
   D10        3.14159  -0.00000   0.00000  -0.00000  -0.00000   3.14159
   D11        3.14159  -0.00000   0.00000  -0.00000  -0.00000   3.14159
   D12       -0.00000  -0.00000   0.00000  -0.00000  -0.00000  -0.00000
   D13        0.00000   0.00000   0.00000  -0.00000  -0.00000   0.00000
   D14        3.14159   0.00000   0.00000   0.00000   0.00000   3.14159
   D15       -3.14159   0.00000   0.00000  -0.00000  -0.00000  -3.14159
   D16        0.00000   0.00000   0.00000  -0.00000  -0.00000   0.00000
   D17        0.00000  -0.00000   0.00000  -0.00000  -0.00000   0.00000
   D18       -3.14159  -0.00000   0.00000  -0.00000  -0.00000  -3.14159
   D19       -0.00000   0.00000   0.00000   0.00000   0.00000  -0.00000
   D20        3.14159  -0.00000   0.00000   0.00000   0.00000   3.14159
   D21        3.14159   0.00000   0.00000   0.00000   0.00000   3.14159
   D22        0.00000   0.00000   0.00000  -0.00000  -0.00000   0.00000
   D23        0.00000  -0.00000   0.00000  -0.00000  -0.00000   0.00000
   D24       -3.14159  -0.00000   0.00000  -0.00000  -0.00000  -3.14159
   D25       -3.14159  -0.00000   0.00000  -0.00000  -0.00000  -3.14159
   D26        0.00000   0.00000   0.00000  -0.00000  -0.00000   0.00000
   D27       -0.00000  -0.00000   0.00000   0.00000   0.00000  -0.00000
   D28        3.14159   0.00000   0.00000   0.00000   0.00000   3.14159
   D29        3.14159  -0.00000   0.00000   0.00000   0.00000   3.14159
   D30       -0.00000   0.00000   0.00000   0.00000   0.00000  -0.00000
   D31        3.14159  -0.00000   0.00000   0.00000   0.00000   3.14159
   D32        0.00000  -0.00000   0.00000   0.00000   0.00000   0.00000
   D33        0.00000  -0.00000   0.00000  -0.00000  -0.00000   0.00000
   D34       -3.14159  -0.00000   0.00000   0.00000   0.00000  -3.14159
   D35       -3.14159  -0.00000   0.00000  -0.00000  -0.00000  -3.14159
   D36        0.00000  -0.00000   0.00000  -0.00000  -0.00000   0.00000
   D37       -0.00000   0.00000   0.00000   0.00000   0.00000  -0.00000
   D38        3.14159   0.00000   0.00000   0.00000   0.00000   3.14159
   D39       -0.00000   0.00000   0.00000   0.00000   0.00000  -0.00000
   D40        3.14159  -0.00000   0.00000   0.00000   0.00000   3.14159
   D41        3.14159   0.00000   0.00000   0.00000   0.00000   3.14159
   D42       -0.00000   0.00000   0.00000   0.00000   0.00000  -0.00000
   D43        0.00000  -0.00000   0.00000  -0.00000  -0.00000   0.00000
   D44       -3.14159  -0.00000   0.00000  -0.00000  -0.00000  -3.14159
   D45       -0.00000   0.00000   0.00000  -0.00000  -0.00000  -0.00000
   D46       -3.14159  -0.00000   0.00000  -0.00000  -0.00000  -3.14159
   D47        3.14159   0.00000   0.00000   0.00000   0.00000   3.14159
   D48        0.00000   0.00000   0.00000  -0.00000  -0.00000   0.00000
   D49        0.00000  -0.00000   0.00000  -0.00000  -0.00000   0.00000
   D50       -3.14159  -0.00000   0.00000  -0.00000  -0.00000  -3.14159
   D51        3.14159   0.00000   0.00000   0.00000   0.00000   3.14159
   D52        0.00000  -0.00000   0.00000  -0.00000  -0.00000   0.00000
   D53        0.00000  -0.00000   0.00000  -0.00000  -0.00000   0.00000
   D54       -3.14159  -0.00000   0.00000  -0.00000  -0.00000  -3.14159
   D55        3.14159   0.00000   0.00000   0.00000   0.00000   3.14159
   D56       -0.00000   0.00000   0.00000   0.00000   0.00000  -0.00000
   D57       -0.00000   0.00000   0.00000   0.00000   0.00000  -0.00000
         Item               Value     Threshold  Converged?
 Maximum Force            3.116275     0.000450     NO 
 RMS     Force            0.292424     0.000300     NO 
 Maximum Displacement     0.194466     0.001800     NO 
 RMS     Displacement     0.029875     0.001200     NO 
 Predicted change in Energy=-3.347582D-01
 GradGradGradGradGradGradGradGradGradGradGradGradGradGradGradGradGradGrad

                          Input orientation:                          
 ---------------------------------------------------------------------
 Center     Atomic      Atomic             Coordinates (Angstroms)
 Number     Number       Type             X           Y           Z
 ---------------------------------------------------------------------
      1          6           0        0.117150    0.358346   -0.003831
      2          6           0        1.458394    0.403130   -0.437300
      3          6           0        2.147495    1.618486   -0.436072
      4          6           0        1.519046    2.790635   -0.008885
      5          6           0        0.191939    2.745865    0.419927
      6          6           0       -0.509316    1.537858    0.424083
      7          6           0       -0.657937   -0.964194    0.003140
      8          6           0       -0.042226   -2.158973   -0.424101
      9          6           0       -0.763610   -3.355350   -0.411126
     10          6           0       -2.091888   -3.376676    0.022479
     11          6           0       -2.705525   -2.195657    0.446454
     12          6           0       -1.991754   -0.993618    0.437050
     13          1           0        3.171882    1.652397   -0.767192
     14          1           0        2.054056    3.723318   -0.009979
     15          1           0       -1.530274    1.517996    0.756712
     16          1           0       -0.291658   -4.267042   -0.737839
     17          1           0       -2.641297   -4.301346    0.029826
     18          1           0       -3.727435   -2.211029    0.780245
     19          1           0       -2.471670   -0.090015    0.764869
     20         17           0        2.335925   -1.094685   -1.007708
     21         17           0        1.690045   -2.196658   -1.001883
     22         17           0       -0.602558    4.219785    0.958491
 ---------------------------------------------------------------------
                    Distance matrix (angstroms):
                    1          2          3          4          5
     1  C    0.000000
     2  C    1.410260   0.000000
     3  C    2.428391   1.397123   0.000000
     4  C    2.807378   2.426396   1.396915   0.000000
     5  C    2.425987   2.797705   2.414108   1.395385   0.000000
     6  C    1.402433   2.429294   2.793745   2.423049   1.396803
     7  C    1.532945   2.557815   3.838436   4.340293   3.828908
     8  C    2.557132   2.969243   4.366259   5.206592   4.982434
     9  C    3.838381   4.366252   5.763176   6.568520   6.231256
    10  C    4.339462   5.206038   6.567669   7.146717   6.546704
    11  C    3.833169   4.987277   6.235249   6.551141   5.728406
    12  C    2.543553   3.823468   4.971802   5.181231   4.330420
    13  H    3.404214   2.146053   1.077107   2.145339   3.388951
    14  H    3.882612   3.400157   2.149559   1.075237   2.146559
    15  H    2.153420   3.405983   3.867663   3.391770   2.141753
    16  H    4.701074   4.996349   6.378084   7.322624   7.124264
    17  H    5.415062   6.257617   7.628499   8.222296   7.605432
    18  H    4.690128   5.933722   7.117543   7.291429   6.329464
    19  H    2.737502   4.139299   5.069311   4.982234   3.905894
    20  Cl   2.835847   1.827259   2.779131   4.093977   4.624353
    21  Cl   3.161986   2.670452   3.883906   5.088063   5.356716
    22  Cl   4.044102   4.556601   4.034149   2.734866   1.758897
                    6          7          8          9         10
     6  C    0.000000
     7  C    2.541563   0.000000
     8  C    3.821537   1.410366   0.000000
     9  C    4.970485   2.429076   1.397098   0.000000
    10  C    5.178654   2.806538   2.425562   1.397423   0.000000
    11  C    4.331624   2.430153   2.802209   2.418959   1.396822
    12  C    2.933626   1.402929   2.429052   2.793835   2.420921
    13  H    3.870849   4.701859   4.997474   6.379061   7.322734
    14  H    3.396399   5.415519   6.258374   7.629397   8.221911
    15  H    1.073961   2.736806   4.138684   5.069627   4.981196
    16  H    5.924043   3.404704   2.145833   1.077340   2.147478
    17  H    6.228730   3.882140   3.398674   2.148268   1.075602
    18  H    4.953513   3.402985   3.877361   3.393095   2.146615
    19  H    2.572341   2.152683   3.405354   3.868183   3.390799
    20  Cl   4.132275   3.162602   2.670001   3.882478   5.086678
    21  Cl   4.562584   2.835852   1.826476   2.777046   4.092038
    22  Cl   2.736243   5.271566   6.550885   7.699641   7.797464
                   11         12         13         14         15
    11  C    0.000000
    12  C    1.398018   0.000000
    13  H    7.129121   5.925769   0.000000
    14  H    7.608956   6.230401   2.472169   0.000000
    15  H    3.907517   2.573587   4.944757   4.277696   0.000000
    16  H    3.394103   3.871174   6.858333   8.359306   6.102008
    17  H    2.147471   3.395409   8.359148   9.297481   5.968875
    18  H    1.075153   2.147664   8.057370   8.322654   4.328244
    19  H    2.142383   1.074376   6.101876   5.968592   1.863328
    20  Cl   5.361244   4.563589   2.881516   4.928292   4.988664
    21  Cl   4.628036   4.132006   4.131120   6.013526   5.221280
    22  Cl   6.770713   5.420456   4.880150   2.870891   2.863746
                   16         17         18         19         20
    16  H    0.000000
    17  H    2.472103   0.000000
    18  H    4.282094   2.472296   0.000000
    19  H    4.945516   4.278361   2.464931   0.000000
    20  Cl   4.128058   6.010981   6.419294   5.221528   0.000000
    21  Cl   2.878081   4.924902   5.703093   4.987908   1.277318
    22  Cl   8.660279   8.810707   7.152063   4.701643   6.383120
                   21         22
    21  Cl   0.000000
    22  Cl   7.090123   0.000000
 Stoichiometry    C12H7Cl3
 Framework group  C1[X(C12H7Cl3)]
 Deg. of freedom    60
 Full point group                 C1      NOp   1
 Largest Abelian subgroup         C1      NOp   1
 Largest concise Abelian subgroup C1      NOp   1
                         Standard orientation:                         
 ---------------------------------------------------------------------
 Center     Atomic      Atomic             Coordinates (Angstroms)
 Number     Number       Type             X           Y           Z
 ---------------------------------------------------------------------
      1          6           0        0.440782    0.165776   -0.000001
      2          6           0        0.480117   -1.243936    0.000000
      3          6           0        1.711789   -1.903433    0.000002
      4          6           0        2.905620   -1.178079    0.000003
      5          6           0        2.866233    0.216750    0.000000
      6          6           0        1.642084    0.889442   -0.000001
      7          6           0       -0.899397    0.909981   -0.000001
      8          6           0       -2.116161    0.196808   -0.000003
      9          6           0       -3.328401    0.891327   -0.000002
     10          6           0       -3.343961    2.288663    0.000001
     11          6           0       -2.141186    2.998905    0.000003
     12          6           0       -0.923159    2.312710    0.000002
     13          1           0        1.741535   -2.980129    0.000003
     14          1           0        3.850795   -1.690696    0.000004
     15          1           0        1.626597    1.963292   -0.000002
     16          1           0       -4.256879    0.344892   -0.000004
     17          1           0       -4.280929    2.816878    0.000003
     18          1           0       -2.152106    4.074002    0.000007
     19          1           0       -0.002863    2.867090    0.000005
     20         17           0       -1.045744   -2.249233    0.000002
     21         17           0       -2.162415   -1.629082   -0.000002
     22         17           0        4.367436    1.133325   -0.000002
 ---------------------------------------------------------------------
 Rotational constants (GHZ):           0.7166845           0.3156680           0.2191445
 Standard basis: 6-311+G(d,p) (5D, 7F)
 There are   411 symmetry adapted cartesian basis functions of A   symmetry.
 There are   396 symmetry adapted basis functions of A   symmetry.
   396 basis functions,   647 primitive gaussians,   411 cartesian basis functions
    65 alpha electrons       65 beta electrons
       nuclear repulsion energy      1299.4993935567 Hartrees.
 NAtoms=   22 NActive=   22 NUniq=   22 SFac= 1.00D+00 NAtFMM=   60 NAOKFM=F Big=F
 Integral buffers will be    131072 words long.
 Raffenetti 2 integral format.
 Two-electron integral symmetry is turned on.
 One-electron integrals computed using PRISM.
 NBasis=   396 RedAO= T EigKep=  1.04D-06  NBF=   396
 NBsUse=   392 1.00D-06 EigRej=  8.33D-07 NBFU=   392
 Initial guess from the checkpoint file:  "./Gau-336479.chk"
 B after Tr=     0.000000    0.000000    0.000000
         Rot=    0.999975   -0.000000   -0.000000    0.007097 Ang=   0.81 deg.
 ExpMin= 4.38D-02 ExpMax= 1.06D+05 ExpMxC= 3.62D+03 IAcc=3 IRadAn=         5 AccDes= 0.00D+00
 Harris functional with IExCor=  402 and IRadAn=       5 diagonalized for initial guess.
 HarFok:  IExCor=  402 AccDes= 0.00D+00 IRadAn=         5 IDoV= 1 UseB2=F ITyADJ=14
 ICtDFT=  3500011 ScaDFX=  1.000000  1.000000  1.000000  1.000000
 FoFCou: FMM=F IPFlag=           0 FMFlag=      100000 FMFlg1=           0
         NFxFlg=           0 DoJE=T BraDBF=F KetDBF=T FulRan=T
         wScrn=  0.000000 ICntrl=       500 IOpCl=  0 I1Cent=   200000004 NGrid=           0
         NMat0=    1 NMatS0=      1 NMatT0=    0 NMatD0=    1 NMtDS0=    0 NMtDT0=    0
 Petite list used in FoFCou.
 Requested convergence on RMS density matrix=1.00D-08 within  32 cycles.
 Requested convergence on MAX density matrix=1.00D-06.
 Requested convergence on             energy=1.00D-06.
 No special actions if energy rises.
 SCF Done:  E(RB3LYP) =  -1841.16361432     A.U. after   17 cycles
            NFock= 17  Conv=0.87D-08     -V/T= 1.9999
 QCSCF skips out because SCF is already converged.
 Calling FoFJK, ICntrl=      2127 FMM=F ISym2X=0 I1Cent= 0 IOpClX= 0 NMat=1 NMatS=1 NMatT=0.
 ***** Axes restored to original set *****
 -------------------------------------------------------------------
 Center     Atomic                   Forces (Hartrees/Bohr)
 Number     Number              X              Y              Z
 -------------------------------------------------------------------
      1        6          -0.017075243   -0.010246146    0.003701078
      2        6          -0.058079419    0.069077251    0.032107870
      3        6          -0.016324474   -0.009080762    0.003672825
      4        6          -0.001433958   -0.001111512    0.000263491
      5        6           0.003849531   -0.009536019   -0.003059151
      6        6           0.007750992    0.005151459   -0.001586058
      7        6          -0.000175310    0.023190574    0.004413341
      8        6          -0.087880369    0.018031522    0.032338852
      9        6           0.000122025    0.014703869    0.002721299
     10        6           0.003678356    0.006159312   -0.000055018
     11        6           0.008832028    0.001148704   -0.002693890
     12        6           0.002443782   -0.012801943   -0.003209477
     13        1           0.008534347    0.000822188   -0.002657261
     14        1           0.002340380    0.005686093    0.000296854
     15        1          -0.004354824    0.003514002    0.002094629
     16        1           0.004363192   -0.007577750   -0.002860628
     17        1          -0.003472144   -0.005692434    0.000074771
     18        1          -0.005796555    0.000033562    0.001915936
     19        1          -0.005085596    0.002831050    0.002207181
     20       17           1.102050131    1.697113605   -0.044337272
     21       17          -0.944480717   -1.791076125   -0.025221598
     22       17           0.000193845   -0.000340498   -0.000127775
 -------------------------------------------------------------------
 Cartesian Forces:  Max     1.791076125 RMS     0.352867413

 GradGradGradGradGradGradGradGradGradGradGradGradGradGradGradGradGradGrad
 Berny optimization.
 Using GEDIIS/GDIIS optimizer.
 FormGI is forming the generalized inverse of G from B-inverse, IUseBI=4.
 Internal  Forces:  Max     1.969063166 RMS     0.184779034
 Search for a local minimum.
 Step number   2 out of a maximum of  129
 All quantities printed in internal units (Hartrees-Bohrs-Radians)
 Mixed Optimization -- RFO/linear search
 Update second derivatives using D2CorX and points    1    2
 DE= -5.08D-01 DEPred=-3.35D-01 R= 1.52D+00
 TightC=F SS=  1.41D+00  RLast= 2.74D-01 DXNew= 5.0454D-01 8.2166D-01
 Trust test= 1.52D+00 RLast= 2.74D-01 DXMaxT set to 5.05D-01
 ITU=  1  0
 Use linear search instead of GDIIS.
 Linear search step of   0.548 exceeds DXMaxT=   0.505 but not scaled.
 Quartic linear search produced a step of  2.00000.
 Iteration  1 RMS(Cart)=  0.03956413 RMS(Int)=  0.01604258
 Iteration  2 RMS(Cart)=  0.02213976 RMS(Int)=  0.00129208
 Iteration  3 RMS(Cart)=  0.00021044 RMS(Int)=  0.00128738
 Iteration  4 RMS(Cart)=  0.00000008 RMS(Int)=  0.00128738
 Variable       Old X    -DE/DX   Delta X   Delta X   Delta X     New X
                                 (Linear)    (Quad)   (Total)
    R1        2.66501   0.06055   0.03349   0.00000   0.03167   2.69668
    R2        2.65021   0.01229   0.00390   0.00000   0.00356   2.65377
    R3        2.89685   0.06119  -0.02666   0.00000  -0.02931   2.86754
    R4        2.64018  -0.00539  -0.01617   0.00000  -0.01624   2.62394
    R5        3.45302   0.06323   0.25420   0.00000   0.25525   3.70827
    R6        2.63979  -0.01390  -0.01695   0.00000  -0.01660   2.62318
    R7        2.03544   0.00896   0.02686   0.00000   0.02686   2.06230
    R8        2.63690  -0.01885  -0.02273   0.00000  -0.02230   2.61460
    R9        2.03190   0.00610   0.01979   0.00000   0.01979   2.05169
   R10        2.63957  -0.00794  -0.01738   0.00000  -0.01728   2.62229
   R11        3.32383  -0.00041  -0.00417   0.00000  -0.00417   3.31966
   R12        2.02949   0.00472   0.01497   0.00000   0.01497   2.04446
   R13        2.66520   0.06051   0.03389   0.00000   0.03208   2.69729
   R14        2.65115   0.01260   0.00578   0.00000   0.00544   2.65660
   R15        2.64013  -0.00530  -0.01626   0.00000  -0.01633   2.62380
   R16        3.45154   0.06152   0.25124   0.00000   0.25227   3.70381
   R17        2.64075  -0.01360  -0.01503   0.00000  -0.01469   2.62606
   R18        2.03588   0.00919   0.02774   0.00000   0.02774   2.06362
   R19        2.63961  -0.01716  -0.01730   0.00000  -0.01688   2.62273
   R20        2.03259   0.00667   0.02117   0.00000   0.02117   2.05377
   R21        2.64187  -0.00632  -0.01278   0.00000  -0.01271   2.62917
   R22        2.03174   0.00610   0.01947   0.00000   0.01947   2.05122
   R23        2.03028   0.00533   0.01654   0.00000   0.01654   2.04681
   R24        2.41378   1.96906   0.36252   0.00000   0.36516   2.77894
    A1        2.08508  -0.04754  -0.01862   0.00000  -0.01715   2.06793
    A2        2.10560   0.14639   0.02240   0.00000   0.01730   2.12290
    A3        2.09250  -0.09885  -0.00378   0.00000  -0.00015   2.09236
    A4        2.09030   0.00588  -0.00820   0.00000  -0.00847   2.08182
    A5        2.12546   0.05540   0.06214   0.00000   0.06095   2.18641
    A6        2.06743  -0.06128  -0.05394   0.00000  -0.05247   2.01496
    A7        2.10401   0.01597   0.01923   0.00000   0.01887   2.12288
    A8        2.09002  -0.00743  -0.00875   0.00000  -0.00857   2.08145
    A9        2.08916  -0.00855  -0.01048   0.00000  -0.01030   2.07886
   A10        2.08854  -0.00903  -0.01170   0.00000  -0.01153   2.07701
   A11        2.09866   0.00538   0.00853   0.00000   0.00845   2.10711
   A12        2.09598   0.00365   0.00317   0.00000   0.00308   2.09906
   A13        2.10150   0.00806   0.01421   0.00000   0.01410   2.11560
   A14        2.09071  -0.00405  -0.00736   0.00000  -0.00731   2.08341
   A15        2.09097  -0.00402  -0.00685   0.00000  -0.00680   2.08418
   A16        2.09694   0.02665   0.00508   0.00000   0.00418   2.10112
   A17        2.09856  -0.00961   0.00833   0.00000   0.00878   2.10734
   A18        2.08769  -0.01704  -0.01341   0.00000  -0.01296   2.07473
   A19        2.10453   0.14567   0.02028   0.00000   0.01515   2.11968
   A20        2.09464  -0.09733   0.00049   0.00000   0.00412   2.09876
   A21        2.08401  -0.04834  -0.02077   0.00000  -0.01927   2.06474
   A22        2.09117   0.00670  -0.00645   0.00000  -0.00669   2.08448
   A23        2.12628   0.05587   0.06376   0.00000   0.06253   2.18881
   A24        2.06574  -0.06256  -0.05731   0.00000  -0.05584   2.00990
   A25        2.10220   0.01461   0.01562   0.00000   0.01525   2.11745
   A26        2.08938  -0.00771  -0.01003   0.00000  -0.00985   2.07953
   A27        2.09160  -0.00690  -0.00559   0.00000  -0.00540   2.08620
   A28        2.09307  -0.00605  -0.00265   0.00000  -0.00252   2.09055
   A29        2.09527   0.00311   0.00175   0.00000   0.00168   2.09695
   A30        2.09485   0.00294   0.00090   0.00000   0.00084   2.09568
   A31        2.09514   0.00394   0.00149   0.00000   0.00135   2.09649
   A32        2.09405  -0.00184  -0.00070   0.00000  -0.00063   2.09342
   A33        2.09400  -0.00209  -0.00079   0.00000  -0.00072   2.09328
   A34        2.10078   0.02915   0.01277   0.00000   0.01187   2.11265
   A35        2.09603  -0.01131   0.00328   0.00000   0.00373   2.09977
   A36        2.08637  -0.01785  -0.01605   0.00000  -0.01560   2.07077
   A37        2.05208  -0.20200  -0.08463   0.00000  -0.07828   1.97380
   A38        2.05242  -0.20132  -0.08396   0.00000  -0.07764   1.97478
    D1        0.00000  -0.00000  -0.00000   0.00000  -0.00000   0.00000
    D2        3.14159  -0.00000  -0.00000   0.00000  -0.00000   3.14159
    D3       -3.14159  -0.00000  -0.00000   0.00000  -0.00000  -3.14159
    D4       -0.00000  -0.00000  -0.00000   0.00000  -0.00000  -0.00000
    D5       -0.00000   0.00000   0.00000   0.00000   0.00000  -0.00000
    D6        3.14159   0.00000   0.00000   0.00000   0.00000   3.14159
    D7        3.14159   0.00000   0.00000   0.00000   0.00000   3.14159
    D8        0.00000  -0.00000  -0.00000   0.00000  -0.00000   0.00000
    D9       -0.00000  -0.00000  -0.00000   0.00000  -0.00000  -0.00000
   D10        3.14159  -0.00000  -0.00000   0.00000  -0.00000   3.14159
   D11        3.14159  -0.00000  -0.00000   0.00000  -0.00000   3.14159
   D12       -0.00000  -0.00000  -0.00000   0.00000  -0.00000  -0.00000
   D13        0.00000   0.00000  -0.00000   0.00000  -0.00000   0.00000
   D14        3.14159   0.00000   0.00000   0.00000   0.00000   3.14159
   D15       -3.14159   0.00000  -0.00000   0.00000  -0.00000  -3.14159
   D16        0.00000   0.00000  -0.00000   0.00000  -0.00000   0.00000
   D17        0.00000  -0.00000  -0.00000   0.00000  -0.00000   0.00000
   D18       -3.14159  -0.00000  -0.00000   0.00000  -0.00000  -3.14159
   D19       -0.00000   0.00000   0.00000   0.00000   0.00000  -0.00000
   D20        3.14159  -0.00000   0.00000   0.00000   0.00000   3.14159
   D21        3.14159   0.00000   0.00000   0.00000   0.00000   3.14159
   D22        0.00000   0.00000  -0.00000   0.00000  -0.00000   0.00000
   D23        0.00000  -0.00000  -0.00000   0.00000  -0.00000   0.00000
   D24       -3.14159  -0.00000  -0.00000   0.00000  -0.00000  -3.14159
   D25       -3.14159  -0.00000  -0.00000   0.00000  -0.00000  -3.14159
   D26        0.00000   0.00000  -0.00000   0.00000  -0.00000   0.00000
   D27       -0.00000  -0.00000   0.00000   0.00000   0.00000  -0.00000
   D28        3.14159   0.00000   0.00000   0.00000   0.00000   3.14159
   D29        3.14159  -0.00000   0.00000   0.00000   0.00000   3.14159
   D30       -0.00000   0.00000   0.00000   0.00000   0.00000  -0.00000
   D31        3.14159  -0.00000   0.00000   0.00000   0.00000   3.14159
   D32        0.00000  -0.00000   0.00000   0.00000   0.00000   0.00000
   D33        0.00000  -0.00000  -0.00000   0.00000  -0.00000   0.00000
   D34       -3.14159  -0.00000   0.00000   0.00000   0.00000  -3.14159
   D35       -3.14159  -0.00000  -0.00000   0.00000  -0.00000  -3.14159
   D36        0.00000  -0.00000  -0.00000   0.00000  -0.00000   0.00000
   D37       -0.00000   0.00000   0.00000   0.00000   0.00000  -0.00000
   D38        3.14159   0.00000   0.00000   0.00000   0.00000   3.14159
   D39       -0.00000   0.00000   0.00000   0.00000   0.00000  -0.00000
   D40        3.14159  -0.00000   0.00000   0.00000   0.00000   3.14159
   D41        3.14159   0.00000   0.00000   0.00000   0.00000   3.14159
   D42       -0.00000   0.00000   0.00000   0.00000   0.00000  -0.00000
   D43        0.00000  -0.00000  -0.00000   0.00000  -0.00000   0.00000
   D44       -3.14159  -0.00000  -0.00000   0.00000  -0.00000  -3.14159
   D45       -0.00000   0.00000  -0.00000   0.00000  -0.00000  -0.00000
   D46       -3.14159  -0.00000  -0.00000   0.00000  -0.00000  -3.14159
   D47        3.14159   0.00000   0.00000   0.00000   0.00000   3.14159
   D48        0.00000   0.00000  -0.00000   0.00000  -0.00000   0.00000
   D49        0.00000  -0.00000  -0.00000   0.00000  -0.00000   0.00000
   D50       -3.14159  -0.00000  -0.00000   0.00000  -0.00000  -3.14159
   D51        3.14159   0.00000   0.00000   0.00000   0.00000   3.14159
   D52        0.00000  -0.00000  -0.00000   0.00000  -0.00000   0.00000
   D53        0.00000  -0.00000  -0.00000   0.00000  -0.00000   0.00000
   D54       -3.14159  -0.00000  -0.00000   0.00000  -0.00000  -3.14159
   D55        3.14159   0.00000   0.00000   0.00000   0.00000   3.14159
   D56       -0.00000   0.00000   0.00000   0.00000   0.00000  -0.00000
   D57       -0.00000   0.00000   0.00000   0.00000   0.00000  -0.00000
         Item               Value     Threshold  Converged?
 Maximum Force            1.969063     0.000450     NO 
 RMS     Force            0.184779     0.000300     NO 
 Maximum Displacement     0.374546     0.001800     NO 
 RMS     Displacement     0.055592     0.001200     NO 
 Predicted change in Energy=-3.667678D-01
 GradGradGradGradGradGradGradGradGradGradGradGradGradGradGradGradGradGrad

                          Input orientation:                          
 ---------------------------------------------------------------------
 Center     Atomic      Atomic             Coordinates (Angstroms)
 Number     Number       Type             X           Y           Z
 ---------------------------------------------------------------------
      1          6           0        0.112797    0.353264   -0.003352
      2          6           0        1.470364    0.421287   -0.437833
      3          6           0        2.127175    1.644573   -0.424478
      4          6           0        1.495960    2.805198    0.001456
      5          6           0        0.179698    2.737244    0.422340
      6          6           0       -0.513361    1.535058    0.424890
      7          6           0       -0.655820   -0.955089    0.004153
      8          6           0       -0.052406   -2.175734   -0.423895
      9          6           0       -0.794610   -3.348917   -0.399705
     10          6           0       -2.115029   -3.359579    0.033314
     11          6           0       -2.712734   -2.179019    0.451953
[...]
     19          1           0       -0.931277    0.841224    2.486955
     20         17           0       -0.557414   -2.645941    0.543926
     21         17           0       -1.415198   -0.102159   -2.280246
     22         17           0        3.918918    1.701778   -0.111712
 ---------------------------------------------------------------------
 Rotational constants (GHZ):           0.6217280           0.2887536           0.2570422

 **********************************************************************

            Population analysis using the SCF Density.

 **********************************************************************

 Orbital symmetries:
       Occupied  (A) (A) (A) (A) (A) (A) (A) (A) (A) (A) (A) (A)
                 (A) (A) (A) (A) (A) (A) (A) (A) (A) (A) (A) (A)
                 (A) (A) (A) (A) (A) (A) (A) (A) (A) (A) (A) (A)
                 (A) (A) (A) (A) (A) (A) (A) (A) (A) (A) (A) (A)
                 (A) (A) (A) (A) (A) (A) (A) (A) (A) (A) (A) (A)
                 (A) (A) (A) (A) (A)
       Virtual   (A) (A) (A) (A) (A) (A) (A) (A) (A) (A) (A) (A)
                 (A) (A) (A) (A) (A) (A) (A) (A) (A) (A) (A) (A)
                 (A) (A) (A) (A) (A) (A) (A) (A) (A) (A) (A) (A)
                 (A) (A) (A) (A) (A) (A) (A) (A) (A) (A) (A) (A)
                 (A) (A) (A) (A) (A) (A) (A) (A) (A) (A) (A) (A)
                 (A) (A) (A) (A) (A) (A) (A) (A) (A) (A) (A) (A)
                 (A) (A) (A) (A) (A) (A) (A) (A) (A) (A) (A) (A)
                 (A) (A) (A) (A) (A) (A) (A) (A) (A) (A) (A) (A)
                 (A) (A) (A) (A) (A) (A) (A) (A) (A) (A) (A) (A)
                 (A) (A) (A) (A) (A) (A) (A) (A) (A) (A) (A) (A)
                 (A) (A) (A) (A) (A) (A) (A) (A) (A) (A) (A) (A)
                 (A) (A) (A) (A) (A) (A) (A) (A) (A) (A) (A) (A)
                 (A) (A) (A) (A) (A) (A) (A) (A) (A) (A) (A) (A)
                 (A) (A) (A) (A) (A) (A) (A) (A) (A) (A) (A) (A)
                 (A) (A) (A) (A) (A) (A) (A) (A) (A) (A) (A) (A)
                 (A) (A) (A) (A) (A) (A) (A) (A) (A) (A) (A) (A)
                 (A) (A) (A) (A) (A) (A) (A) (A) (A) (A) (A) (A)
                 (A) (A) (A) (A) (A) (A) (A) (A) (A) (A) (A) (A)
                 (A) (A) (A) (A) (A) (A) (A) (A) (A) (A) (A) (A)
                 (A) (A) (A) (A) (A) (A) (A) (A) (A) (A) (A) (A)
                 (A) (A) (A) (A) (A) (A) (A) (A) (A) (A) (A) (A)
                 (A) (A) (A) (A) (A) (A) (A) (A) (A) (A) (A) (A)
                 (A) (A) (A) (A) (A) (A) (A) (A) (A) (A) (A) (A)
                 (A) (A) (A) (A) (A) (A) (A) (A) (A) (A) (A) (A)
                 (A) (A) (A) (A) (A) (A) (A) (A) (A) (A) (A) (A)
                 (A) (A) (A) (A) (A) (A) (A) (A) (A) (A) (A) (A)
                 (A) (A) (A) (A) (A) (A) (A) (A) (A) (A) (A) (A)
                 (A) (A) (A) (A) (A) (A)
 The electronic state is 1-A.
 Alpha  occ. eigenvalues -- -101.56372-101.56167-101.55904 -10.25443 -10.25361
 Alpha  occ. eigenvalues --  -10.25140 -10.22025 -10.21416 -10.20663 -10.20639
 Alpha  occ. eigenvalues --  -10.20602 -10.19864 -10.19863 -10.19734 -10.19414
 Alpha  occ. eigenvalues --   -9.47827  -9.47637  -9.47378  -7.24291  -7.24102
 Alpha  occ. eigenvalues --   -7.23836  -7.23308  -7.23275  -7.23120  -7.23076
 Alpha  occ. eigenvalues --   -7.22863  -7.22819  -0.92544  -0.90467  -0.88570
 Alpha  occ. eigenvalues --   -0.85051  -0.83583  -0.80639  -0.76260  -0.74902
 Alpha  occ. eigenvalues --   -0.73237  -0.65897  -0.63063  -0.62484  -0.59773
 Alpha  occ. eigenvalues --   -0.54317  -0.52246  -0.51002  -0.49265  -0.48707
 Alpha  occ. eigenvalues --   -0.46972  -0.45159  -0.44905  -0.44500  -0.42211
 Alpha  occ. eigenvalues --   -0.41072  -0.40716  -0.39064  -0.38059  -0.37549
 Alpha  occ. eigenvalues --   -0.37435  -0.34579  -0.32877  -0.32580  -0.32388
 Alpha  occ. eigenvalues --   -0.32237  -0.28505  -0.27703  -0.26136  -0.25498
 Alpha virt. eigenvalues --   -0.04724  -0.04422  -0.03409  -0.03022  -0.00736
 Alpha virt. eigenvalues --   -0.00430   0.00732   0.00924   0.01483   0.01869
 Alpha virt. eigenvalues --    0.02472   0.03378   0.04031   0.04648   0.04976
 Alpha virt. eigenvalues --    0.05175   0.05853   0.06423   0.06533   0.06948
 Alpha virt. eigenvalues --    0.08268   0.08634   0.09039   0.09747   0.09965
 Alpha virt. eigenvalues --    0.10553   0.10690   0.10743   0.11330   0.12200
 Alpha virt. eigenvalues --    0.12641   0.12791   0.12979   0.13281   0.13898
 Alpha virt. eigenvalues --    0.14197   0.14499   0.14899   0.15468   0.15945
 Alpha virt. eigenvalues --    0.16231   0.16900   0.17163   0.17613   0.17825
 Alpha virt. eigenvalues --    0.18409   0.18648   0.18889   0.19109   0.19702
 Alpha virt. eigenvalues --    0.20101   0.20273   0.20697   0.21052   0.21402
 Alpha virt. eigenvalues --    0.21809   0.22400   0.22535   0.23168   0.23353
 Alpha virt. eigenvalues --    0.23756   0.23794   0.24619   0.24877   0.25687
 Alpha virt. eigenvalues --    0.25970   0.26326   0.27419   0.27498   0.27563
 Alpha virt. eigenvalues --    0.27908   0.28546   0.29182   0.29368   0.29725
 Alpha virt. eigenvalues --    0.30831   0.31649   0.32179   0.32518   0.33176
 Alpha virt. eigenvalues --    0.33560   0.33755   0.35758   0.37079   0.42650
 Alpha virt. eigenvalues --    0.43187   0.43868   0.44478   0.45615   0.46602
 Alpha virt. eigenvalues --    0.47560   0.47858   0.48692   0.50513   0.50973
 Alpha virt. eigenvalues --    0.51458   0.52078   0.52159   0.53333   0.54185
 Alpha virt. eigenvalues --    0.55307   0.55504   0.56745   0.57438   0.57704
 Alpha virt. eigenvalues --    0.58063   0.58574   0.58792   0.59782   0.61602
 Alpha virt. eigenvalues --    0.62309   0.63363   0.64279   0.64805   0.66131
 Alpha virt. eigenvalues --    0.66282   0.66522   0.67405   0.67856   0.68366
 Alpha virt. eigenvalues --    0.69686   0.70144   0.70306   0.71008   0.71521
 Alpha virt. eigenvalues --    0.72308   0.73556   0.74110   0.76354   0.79313
 Alpha virt. eigenvalues --    0.81260   0.82056   0.82695   0.83020   0.83402
 Alpha virt. eigenvalues --    0.84136   0.84441   0.85632   0.85915   0.86047
 Alpha virt. eigenvalues --    0.86412   0.87172   0.88257   0.88681   0.88963
 Alpha virt. eigenvalues --    0.89733   0.90533   0.91067   0.92768   0.94698
 Alpha virt. eigenvalues --    0.95188   0.96164   0.96864   0.98085   0.98091
 Alpha virt. eigenvalues --    0.98517   0.99600   1.00203   1.00465   1.01709
 Alpha virt. eigenvalues --    1.02635   1.03294   1.04231   1.05370   1.05870
 Alpha virt. eigenvalues --    1.09193   1.13620   1.15137   1.15517   1.17842
 Alpha virt. eigenvalues --    1.20370   1.23237   1.24685   1.25954   1.26765
 Alpha virt. eigenvalues --    1.27951   1.31005   1.32024   1.33026   1.33812
 Alpha virt. eigenvalues --    1.39145   1.40253   1.43576   1.48123   1.48941
 Alpha virt. eigenvalues --    1.49646   1.49965   1.52616   1.55392   1.56017
 Alpha virt. eigenvalues --    1.56747   1.57274   1.58557   1.60932   1.61250
 Alpha virt. eigenvalues --    1.64885   1.65457   1.66431   1.67406   1.68419
 Alpha virt. eigenvalues --    1.70258   1.71833   1.73611   1.76101   1.78322
 Alpha virt. eigenvalues --    1.81959   1.82414   1.84386   1.85214   1.86766
 Alpha virt. eigenvalues --    1.88060   1.88314   1.92750   1.93650   1.94273
 Alpha virt. eigenvalues --    1.94773   1.95198   1.96461   1.97650   1.99748
 Alpha virt. eigenvalues --    2.01628   2.02897   2.03956   2.05024   2.06129
 Alpha virt. eigenvalues --    2.07950   2.12793   2.14604   2.19178   2.21742
 Alpha virt. eigenvalues --    2.27444   2.27739   2.28166   2.29000   2.30642
 Alpha virt. eigenvalues --    2.32218   2.32720   2.37142   2.37879   2.38608
 Alpha virt. eigenvalues --    2.39243   2.43640   2.45747   2.45967   2.50594
 Alpha virt. eigenvalues --    2.54302   2.54391   2.56641   2.57575   2.60072
 Alpha virt. eigenvalues --    2.60166   2.60944   2.67761   2.68595   2.69402
 Alpha virt. eigenvalues --    2.69894   2.70831   2.72000   2.73308   2.74563
 Alpha virt. eigenvalues --    2.75587   2.75758   2.77324   2.77999   2.79171
 Alpha virt. eigenvalues --    2.80464   2.82846   2.84158   2.84548   2.85967
 Alpha virt. eigenvalues --    2.86256   2.88920   2.91403   3.00226   3.00478
 Alpha virt. eigenvalues --    3.08345   3.10001   3.10559   3.13945   3.15187
 Alpha virt. eigenvalues --    3.21020   3.24356   3.28276   3.33642   3.34923
 Alpha virt. eigenvalues --    3.39084   3.42015   3.51741   3.54891   3.55428
 Alpha virt. eigenvalues --    3.61199   3.69029   3.77537   3.84976   3.88966
 Alpha virt. eigenvalues --    4.01917   4.04611   4.07305   4.12705   4.13527
 Alpha virt. eigenvalues --    4.36238   4.81997   4.83018   9.77951   9.81998
 Alpha virt. eigenvalues --    9.83460  23.44842  23.60908  23.85503  23.90196
 Alpha virt. eigenvalues --   23.91806  23.97113  23.99591  24.03689  24.06588
 Alpha virt. eigenvalues --   24.09881  24.14351  24.17348  25.82747  25.86820
 Alpha virt. eigenvalues --   25.96471  26.11361  26.26424  26.30281  26.61345
 Alpha virt. eigenvalues --   26.66417  26.80874 215.77161 215.82277 215.83535
          Condensed to atoms (all electrons):
               1          2          3          4          5          6
     1  C   31.983833  -5.528510  -5.248764  -2.558170  -6.039872   0.224538
     2  C   -5.528510  38.325383  -9.090277  -0.954142  -4.922988  -2.413603
     3  C   -5.248764  -9.090277  30.370185   0.652448   1.939329 -10.073214
     4  C   -2.558170  -0.954142   0.652448  17.500445  -1.610005  -7.959654
     5  C   -6.039872  -4.922988   1.939329  -1.610005  19.058770  -4.140713
     6  C    0.224538  -2.413603 -10.073214  -7.959654  -4.140713  39.720478
     7  C   -0.936714  -2.581834   1.469879   0.700325   2.081600 -10.646539
     8  C   -3.672437  -6.581479  -1.666098   0.889258  -0.443498   0.714634
     9  C    0.992252  -0.985412   0.223177   0.177402  -0.575792   0.801942
    10  C   -1.048360  -0.261293   0.019600   0.009256   0.028770  -0.210106
    11  C    0.490430   0.626835   0.068717  -0.062991   0.048533   0.024805
    12  C   -2.989464   0.478309  -0.387498  -0.386518   0.764009  -0.757502
    13  H    0.113410   0.054528   0.281539  -0.048003  -0.036503  -0.027324
    14  H    0.040772  -0.072455   0.012677   0.277832   0.091242  -0.001781
    15  H    0.069930  -0.076923   0.007420   0.062932   0.051591   0.003324
    16  H    0.007368   0.001942   0.000269   0.000027  -0.000650  -0.000707
    17  H    0.009111   0.001195   0.000107  -0.000024  -0.000189  -0.000947
    18  H    0.004183   0.001803   0.000093   0.000030  -0.000797   0.000086
    19  H    0.101089   0.075135   0.020710  -0.001638  -0.028747   0.026087
    20  Cl   0.498156  -0.016597  -1.779622   0.204340  -0.152462   1.005640
    21  Cl  -0.849340  -0.006009  -0.305546  -0.083518   0.381089  -0.293002
    22  Cl  -0.229294   0.186876   0.209733  -0.173485  -1.309993   0.809872
               7          8          9         10         11         12
     1  C   -0.936714  -3.672437   0.992252  -1.048360   0.490430  -2.989464
     2  C   -2.581834  -6.581479  -0.985412  -0.261293   0.626835   0.478309
     3  C    1.469879  -1.666098   0.223177   0.019600   0.068717  -0.387498
     4  C    0.700325   0.889258   0.177402   0.009256  -0.062991  -0.386518
     5  C    2.081600  -0.443498  -0.575792   0.028770   0.048533   0.764009
     6  C  -10.646539   0.714634   0.801942  -0.210106   0.024805  -0.757502
     7  C   32.940422  -4.460299  -4.269406  -3.035292  -1.351311  -4.804495
     8  C   -4.460299  37.189221  -7.636686  -0.245325  -3.302356  -3.870497
     9  C   -4.269406  -7.636686  27.493325   0.870903   2.864574 -11.571352
    10  C   -3.035292  -0.245325   0.870903   7.434199  -0.054772   2.232045
    11  C   -1.351311  -3.302356   2.864574  -0.054772   9.009633  -2.389663
    12  C   -4.804495  -3.870497 -11.571352   2.232045  -2.389663  28.562688
    13  H    0.014830   0.003157   0.000253   0.000059  -0.000405  -0.000884
    14  H    0.006638  -0.000323   0.000010  -0.000007  -0.000024  -0.000275
    15  H    0.177052   0.073166   0.012330   0.006105  -0.009632  -0.009902
    16  H    0.104526   0.030731   0.278120  -0.048605  -0.035782   0.019952
    17  H    0.038133  -0.056204   0.032114   0.333572   0.051807  -0.058130
    18  H   -0.012082   0.014125  -0.030113   0.019040   0.345777   0.006661
    19  H    0.008939  -0.082612   0.017917  -0.017295  -0.055742   0.289387
    20  Cl  -0.932817  -0.108721  -0.353142  -0.046355   0.017755   0.416697
    21  Cl   0.647372  -0.176210  -1.758520   0.137295  -0.113621   1.165136
    22  Cl  -0.177015  -0.087359   0.010785  -0.004829   0.018447  -0.006960
              13         14         15         16         17         18
     1  C    0.113410   0.040772   0.069930   0.007368   0.009111   0.004183
     2  C    0.054528  -0.072455  -0.076923   0.001942   0.001195   0.001803
     3  C    0.281539   0.012677   0.007420   0.000269   0.000107   0.000093
     4  C   -0.048003   0.277832   0.062932   0.000027  -0.000024   0.000030
     5  C   -0.036503   0.091242   0.051591  -0.000650  -0.000189  -0.000797
     6  C   -0.027324  -0.001781   0.003324  -0.000707  -0.000947   0.000086
     7  C    0.014830   0.006638   0.177052   0.104526   0.038133  -0.012082
     8  C    0.003157  -0.000323   0.073166   0.030731  -0.056204   0.014125
     9  C    0.000253   0.000010   0.012330   0.278120   0.032114  -0.030113
    10  C    0.000059  -0.000007   0.006105  -0.048605   0.333572   0.019040
    11  C   -0.000405  -0.000024  -0.009632  -0.035782   0.051807   0.345777
    12  C   -0.000884  -0.000275  -0.009902   0.019952  -0.058130   0.006661
    13  H    0.509417  -0.007966   0.000046   0.000000  -0.000000   0.000000
    14  H   -0.007966   0.509068  -0.000290  -0.000000  -0.000000  -0.000000
    15  H    0.000046  -0.000290   0.514673   0.000004  -0.000003   0.000004
    16  H    0.000000  -0.000000   0.000004   0.513535  -0.007856  -0.000203
    17  H   -0.000000  -0.000000  -0.000003  -0.007856   0.530334  -0.007685
    18  H    0.000000  -0.000000   0.000004  -0.000203  -0.007685   0.532322
    19  H   -0.000000  -0.000001  -0.000373   0.000054  -0.000265  -0.007292
    20  Cl  -0.010171  -0.000019  -0.002877  -0.000932  -0.000154  -0.000242
    21  Cl  -0.000948  -0.000095  -0.005050  -0.011067  -0.000151   0.001043
    22  Cl   0.000704  -0.008888  -0.018230  -0.000009   0.000001  -0.000001
              19         20         21         22
     1  C    0.101089   0.498156  -0.849340  -0.229294
     2  C    0.075135  -0.016597  -0.006009   0.186876
     3  C    0.020710  -1.779622  -0.305546   0.209733
     4  C   -0.001638   0.204340  -0.083518  -0.173485
     5  C   -0.028747  -0.152462   0.381089  -1.309993
     6  C    0.026087   1.005640  -0.293002   0.809872
     7  C    0.008939  -0.932817   0.647372  -0.177015
     8  C   -0.082612  -0.108721  -0.176210  -0.087359
     9  C    0.017917  -0.353142  -1.758520   0.010785
    10  C   -0.017295  -0.046355   0.137295  -0.004829
    11  C   -0.055742   0.017755  -0.113621   0.018447
    12  C    0.289387   0.416697   1.165136  -0.006960
    13  H   -0.000000  -0.010171  -0.000948   0.000704
    14  H   -0.000001  -0.000019  -0.000095  -0.008888
    15  H   -0.000373  -0.002877  -0.005050  -0.018230
    16  H    0.000054  -0.000932  -0.011067  -0.000009
    17  H   -0.000265  -0.000154  -0.000151   0.000001
    18  H   -0.007292  -0.000242   0.001043  -0.000001
    19  H    0.535374  -0.006134  -0.003759   0.000560
    20  Cl  -0.006134  17.797029   0.105413  -0.013462
    21  Cl  -0.003759   0.105413  17.793252  -0.003943
    22  Cl   0.000560  -0.013462  -0.003943  17.397753
 Mulliken charges:
               1
     1  C    0.565852
     2  C   -0.260483
     3  C   -0.724863
     4  C   -0.636148
     5  C    0.817278
     6  C   -0.806313
     7  C    1.018091
     8  C   -0.524188
     9  C   -0.594683
    10  C   -0.118604
    11  C   -0.191013
    12  C   -0.701743
    13  H    0.154262
    14  H    0.153888
    15  H    0.144703
    16  H    0.149281
    17  H    0.135233
    18  H    0.133249
    19  H    0.128607
    20  Cl   0.378679
    21  Cl   0.380180
    22  Cl   0.398737
 Sum of Mulliken charges =  -0.00000
 Mulliken charges with hydrogens summed into heavy atoms:
               1
     1  C    0.565852
     2  C   -0.260483
     3  C   -0.570601
     4  C   -0.482261
     5  C    0.817278
     6  C   -0.661609
     7  C    1.018091
     8  C   -0.524188
     9  C   -0.445402
    10  C    0.016629
    11  C   -0.057765
    12  C   -0.573136
    20  Cl   0.378679
    21  Cl   0.380180
    22  Cl   0.398737
 Electronic spatial extent (au):  <R**2>=           4413.7763
 Charge=             -0.0000 electrons
 Dipole moment (field-independent basis, Debye):
    X=             -0.8993    Y=              0.4475    Z=              1.4420  Tot=              1.7574
 Quadrupole moment (field-independent basis, Debye-Ang):
   XX=            -99.0765   YY=           -107.6225   ZZ=           -107.5922
   XY=            -10.0229   XZ=             -1.7781   YZ=              2.0766
 Traceless Quadrupole moment (field-independent basis, Debye-Ang):
   XX=              5.6872   YY=             -2.8588   ZZ=             -2.8284
   XY=            -10.0229   XZ=             -1.7781   YZ=              2.0766
 Octapole moment (field-independent basis, Debye-Ang**2):
  XXX=            -34.1281  YYY=            -12.4439  ZZZ=              0.4269  XYY=             10.2859
  XXY=             -5.0504  XXZ=             -0.5882  XZZ=             -7.6407  YZZ=              4.7880
  YYZ=             -2.2256  XYZ=             -5.4420
 Hexadecapole moment (field-independent basis, Debye-Ang**3):
 XXXX=          -3552.1472 YYYY=          -1353.2960 ZZZZ=           -814.7558 XXXY=           -118.9923
 XXXZ=              4.3302 YYYX=             38.5347 YYYZ=             -9.7248 ZZZX=            -16.4852
 ZZZY=             20.8460 XXYY=           -814.6518 XXZZ=           -764.2710 YYZZ=           -372.8909
 XXYZ=              9.7168 YYXZ=             -4.5544 ZZXY=             -4.9534
 N-N= 1.225191600148D+03 E-N=-6.802701169603D+03  KE= 1.836981174352D+03
 1\1\GINC-CN247\FOpt\RB3LYP\6-311+G(d,p)\C12H7Cl3\20CY91R06\14-Mar-2022
 \0\\# opt b3lyp/6-311+g(d,p) scf=xqc\\Title Card Required\\0,1\C,0.142
 9255178,0.3205386166,-0.0307721242\C,1.4918965899,0.4477012935,0.32055
 86024\C,2.1379238571,1.6800180643,0.2775334567\C,1.4434535186,2.817936
 3101,-0.118424218\C,0.101961186,2.7022290442,-0.4650532512\C,-0.545979
 4023,1.4740049963,-0.4230419027\C,-0.5858243495,-0.9805680862,0.026208
 2009\C,-0.5354737466,-1.9173883324,-1.0123433526\C,-1.2391144091,-3.11
 6894011,-0.9462084383\C,-2.0134872985,-3.3978388721,0.1754224809\C,-2.
 0844468272,-2.4804862806,1.2212676966\C,-1.3767337025,-1.2851862056,1.
 1409250847\H,3.1817600076,1.7480766562,0.5554886721\H,1.9392653583,3.7
 791995328,-0.1549361471\H,-1.5890755484,1.4010908791,-0.7027136847\H,-
 1.1778036716,-3.8175399811,-1.7690436081\H,-2.5601438349,-4.3322899021
 ,0.2268161279\H,-2.6864906748,-2.6937146228,2.0965944236\H,-1.42412586
 55,-0.5700436347,1.9542017407\Cl,2.4080309869,-0.9565382308,0.84035458
 03\Cl,0.4209561137,-1.5904798189,-2.4508794046\Cl,-0.790686975,4.13074
 39652,-0.9645955254\\Version=EM64L-G16RevB.01\State=1-A\HF=-1842.28316
 15\RMSD=2.767e-09\RMSF=7.229e-06\Dipole=-0.3568094,-0.2716007,0.526284
 5\Quadrupole=1.4804233,1.3282438,-2.808667,8.0168537,-1.6397197,0.4342
 391\PG=C01 [X(C12H7Cl3)]\\@


 ORIGINALITY CONSISTS NOT IN SAYING WHAT NO ONE HAS EVER SAID BEFORE, 
 BUT IN SAYING WHAT YOU THINK YOUR SELF.

                                    -- JAMES F. STEPHEN
 Job cpu time:       0 days 13 hours  4 minutes 50.0 seconds.
 Elapsed time:       0 days  3 hours 48 minutes 11.1 seconds.
 File lengths (MBytes):  RWF=    107 Int=      0 D2E=      0 Chk=     17 Scr=      1
 Normal termination of Gaussian 16 at Mon Mar 14 16:13:08 2022.
