 Entering Gaussian System, Link 0=g16
 Input=2,2prime,3,4,4prime,5prime,6-Heptachlorobiphenyl1.gjf
 Output=2,2prime,3,4,4prime,5prime,6-Heptachlorobiphenyl1.log
 Initial command:
 /home/apps/g16/l1.exe "./Gau-116295.inp" -scrdir="./"
 Entering Link 1 = /home/apps/g16/l1.exe PID=    116296.
  
 Copyright (c) 1988-2017, Gaussian, Inc.  All Rights Reserved.
  
 This is part of the Gaussian(R) 16 program.  It is based on
 the Gaussian(R) 09 system (copyright 2009, Gaussian, Inc.),
 the Gaussian(R) 03 system (copyright 2003, Gaussian, Inc.),
 the Gaussian(R) 98 system (copyright 1998, Gaussian, Inc.),
 the Gaussian(R) 94 system (copyright 1995, Gaussian, Inc.),
 the Gaussian 92(TM) system (copyright 1992, Gaussian, Inc.),
 the Gaussian 90(TM) system (copyright 1990, Gaussian, Inc.),
 the Gaussian 88(TM) system (copyright 1988, Gaussian, Inc.),
 the Gaussian 86(TM) system (copyright 1986, Carnegie Mellon
 University), and the Gaussian 82(TM) system (copyright 1983,
 Carnegie Mellon University). Gaussian is a federally registered
 trademark of Gaussian, Inc.
  
 This software contains proprietary and confidential information,
 including trade secrets, belonging to Gaussian, Inc.
  
 This software is provided under written license and may be
 used, copied, transmitted, or stored only in accord with that
 written license.
  
 The following legend is applicable only to US Government
 contracts under FAR:
  
                    RESTRICTED RIGHTS LEGEND
  
 Use, reproduction and disclosure by the US Government is
 subject to restrictions as set forth in subparagraphs (a)
 and (c) of the Commercial Computer Software - Restricted
 Rights clause in FAR 52.227-19.
  
 Gaussian, Inc.
 340 Quinnipiac St., Bldg. 40, Wallingford CT 06492
  
  
 ---------------------------------------------------------------
 Warning -- This program may not be used in any manner that
 competes with the business of Gaussian, Inc. or will provide
 assistance to any competitor of Gaussian, Inc.  The licensee
 of this program is prohibited from giving any competitor of
 Gaussian, Inc. access to this program.  By using this program,
 the user acknowledges that Gaussian, Inc. is engaged in the
 business of creating and licensing software in the field of
 computational chemistry and represents and warrants to the
 licensee that it is not a competitor of Gaussian, Inc. and that
 it will not use this program in any manner prohibited above.
 ---------------------------------------------------------------
  

 Cite this work as:
 Gaussian 16, Revision B.01,
 M. J. Frisch, G. W. Trucks, H. B. Schlegel, G. E. Scuseria, 
 M. A. Robb, J. R. Cheeseman, G. Scalmani, V. Barone, 
 G. A. Petersson, H. Nakatsuji, X. Li, M. Caricato, A. V. Marenich, 
 J. Bloino, B. G. Janesko, R. Gomperts, B. Mennucci, H. P. Hratchian, 
 J. V. Ortiz, A. F. Izmaylov, J. L. Sonnenberg, D. Williams-Young, 
 F. Ding, F. Lipparini, F. Egidi, J. Goings, B. Peng, A. Petrone, 
 T. Henderson, D. Ranasinghe, V. G. Zakrzewski, J. Gao, N. Rega, 
 G. Zheng, W. Liang, M. Hada, M. Ehara, K. Toyota, R. Fukuda, 
 J. Hasegawa, M. Ishida, T. Nakajima, Y. Honda, O. Kitao, H. Nakai, 
 T. Vreven, K. Throssell, J. A. Montgomery, Jr., J. E. Peralta, 
 F. Ogliaro, M. J. Bearpark, J. J. Heyd, E. N. Brothers, K. N. Kudin, 
 V. N. Staroverov, T. A. Keith, R. Kobayashi, J. Normand, 
 K. Raghavachari, A. P. Rendell, J. C. Burant, S. S. Iyengar, 
 J. Tomasi, M. Cossi, J. M. Millam, M. Klene, C. Adamo, R. Cammi, 
 J. W. Ochterski, R. L. Martin, K. Morokuma, O. Farkas, 
 J. B. Foresman, and D. J. Fox, Gaussian, Inc., Wallingford CT, 2016.
 
 ******************************************
 Gaussian 16:  EM64L-G16RevB.01 20-Dec-2017
                13-Apr-2022 
 ******************************************
 %mem=48GB
 %nprocshared=16
 Will use up to   16 processors via shared memory.
 --------------------------------
 # opt b3lyp/6-311+g(d,p) scf=xqc
 --------------------------------
 1/18=20,19=15,26=3,38=1/1,3;
 2/9=110,12=2,17=6,18=5,40=1/2;
 3/5=4,6=6,7=111,11=2,25=1,30=1,71=1,74=-5/1,2,3;
 4//1;
 5/5=2,8=3,13=1,38=5/2,8;
 6/7=2,8=2,9=2,10=2,28=1/1;
 7//1,2,3,16;
 1/18=20,19=15,26=3/3(2);
 2/9=110/2;
 99//99;
 2/9=110/2;
 3/5=4,6=6,7=111,11=2,25=1,30=1,71=1,74=-5/1,2,3;
 4/5=5,16=3,69=1/1;
 5/5=2,8=3,13=1,38=5/2,8;
 7//1,2,3,16;
 1/18=20,19=15,26=3/3(-5);
 2/9=110/2;
 6/7=2,8=2,9=2,10=2,19=2,28=1/1;
 99/9=1/99;
 -------------------
 Title Card Required
 -------------------
 Symbolic Z-matrix:
 Charge =  0 Multiplicity = 1
 C                    -0.81681   1.86428   0.80839 
 C                     0.51558   1.89416   0.37504 
 C                     1.22347   3.10361   0.36897 
 C                     0.59898   4.28318   0.79625 
 C                    -0.7334    4.25329   1.22959 
 C                    -1.44129   3.04384   1.23566 
 C                    -1.84515   0.10732   0.81721 
 C                    -1.22067  -1.07225   0.38994 
 C                    -1.92856  -2.2817    0.39601 
 C                    -3.26094  -2.31159   0.82936 
 C                    -3.88543  -1.13202   1.25664 
 C                    -3.17753   0.07743   1.25056 
 H                     0.99239   0.99354   0.04881 
 H                    -1.21021   5.15392   1.55582 
 H                    -1.45175  -3.18232   0.06978 
 Cl                   -3.96182   1.55883   1.78718 
 Cl                   -3.11461   3.00631   1.7799 
 Cl                   -5.55875  -1.16956   1.80088 
 Cl                   -4.14997  -3.83052   0.83699 
 Cl                    1.48802   5.80211   0.78862 
 Cl                    2.89679   3.14115  -0.17526 
 Cl                    0.45265  -1.03471  -0.1543 
 

 GradGradGradGradGradGradGradGradGradGradGradGradGradGradGradGradGradGrad
 Berny optimization.
 Initialization pass.
                           ----------------------------
                           !    Initial Parameters    !
                           ! (Angstroms and Degrees)  !
 --------------------------                            --------------------------
 ! Name  Definition              Value          Derivative Info.                !
 --------------------------------------------------------------------------------
 ! R1    R(1,2)                  1.4014         estimate D2E/DX2                !
 ! R2    R(1,6)                  1.4014         estimate D2E/DX2                !
 ! R3    R(2,3)                  1.4014         estimate D2E/DX2                !
 ! R4    R(2,13)                 1.07           estimate D2E/DX2                !
 ! R5    R(3,4)                  1.4014         estimate D2E/DX2                !
 ! R6    R(3,21)                 1.76           estimate D2E/DX2                !
 ! R7    R(4,5)                  1.4014         estimate D2E/DX2                !
 ! R8    R(4,20)                 1.76           estimate D2E/DX2                !
 ! R9    R(5,6)                  1.4014         estimate D2E/DX2                !
 ! R10   R(5,14)                 1.07           estimate D2E/DX2                !
 ! R11   R(6,17)                 1.76           estimate D2E/DX2                !
 ! R12   R(7,8)                  1.4014         estimate D2E/DX2                !
 ! R13   R(7,12)                 1.4014         estimate D2E/DX2                !
 ! R14   R(8,9)                  1.4014         estimate D2E/DX2                !
 ! R15   R(8,22)                 1.76           estimate D2E/DX2                !
 ! R16   R(9,10)                 1.4014         estimate D2E/DX2                !
 ! R17   R(9,15)                 1.07           estimate D2E/DX2                !
 ! R18   R(10,11)                1.4014         estimate D2E/DX2                !
 ! R19   R(10,19)                1.76           estimate D2E/DX2                !
 ! R20   R(11,12)                1.4014         estimate D2E/DX2                !
 ! R21   R(11,18)                1.76           estimate D2E/DX2                !
 ! R22   R(12,16)                1.76           estimate D2E/DX2                !
 ! R23   R(16,17)                1.6772         estimate D2E/DX2                !
 ! A1    A(2,1,6)              120.0            estimate D2E/DX2                !
 ! A2    A(1,2,3)              120.0            estimate D2E/DX2                !
 ! A3    A(1,2,13)             120.0            estimate D2E/DX2                !
 ! A4    A(3,2,13)             120.0            estimate D2E/DX2                !
 ! A5    A(2,3,4)              120.0            estimate D2E/DX2                !
 ! A6    A(2,3,21)             120.0            estimate D2E/DX2                !
 ! A7    A(4,3,21)             120.0            estimate D2E/DX2                !
 ! A8    A(3,4,5)              120.0            estimate D2E/DX2                !
 ! A9    A(3,4,20)             120.0            estimate D2E/DX2                !
 ! A10   A(5,4,20)             120.0            estimate D2E/DX2                !
 ! A11   A(4,5,6)              120.0            estimate D2E/DX2                !
 ! A12   A(4,5,14)             120.0            estimate D2E/DX2                !
 ! A13   A(6,5,14)             120.0            estimate D2E/DX2                !
 ! A14   A(1,6,5)              120.0            estimate D2E/DX2                !
 ! A15   A(1,6,17)             120.0            estimate D2E/DX2                !
 ! A16   A(5,6,17)             120.0            estimate D2E/DX2                !
 ! A17   A(8,7,12)             120.0            estimate D2E/DX2                !
 ! A18   A(7,8,9)              120.0            estimate D2E/DX2                !
 ! A19   A(7,8,22)             120.0            estimate D2E/DX2                !
 ! A20   A(9,8,22)             120.0            estimate D2E/DX2                !
 ! A21   A(8,9,10)             120.0            estimate D2E/DX2                !
 ! A22   A(8,9,15)             120.0            estimate D2E/DX2                !
 ! A23   A(10,9,15)            120.0            estimate D2E/DX2                !
 ! A24   A(9,10,11)            120.0            estimate D2E/DX2                !
 ! A25   A(9,10,19)            120.0            estimate D2E/DX2                !
 ! A26   A(11,10,19)           120.0            estimate D2E/DX2                !
 ! A27   A(10,11,12)           120.0            estimate D2E/DX2                !
 ! A28   A(10,11,18)           120.0            estimate D2E/DX2                !
 ! A29   A(12,11,18)           120.0            estimate D2E/DX2                !
 ! A30   A(7,12,11)            120.0            estimate D2E/DX2                !
 ! A31   A(7,12,16)            120.0            estimate D2E/DX2                !
 ! A32   A(11,12,16)           120.0            estimate D2E/DX2                !
 ! A33   A(12,16,17)           120.0            estimate D2E/DX2                !
 ! A34   A(6,17,16)            120.0            estimate D2E/DX2                !
 ! D1    D(6,1,2,3)              0.0001         estimate D2E/DX2                !
 ! D2    D(6,1,2,13)           180.0            estimate D2E/DX2                !
 ! D3    D(2,1,6,5)             -0.0001         estimate D2E/DX2                !
 ! D4    D(2,1,6,17)           180.0            estimate D2E/DX2                !
 ! D5    D(1,2,3,4)              0.0            estimate D2E/DX2                !
 ! D6    D(1,2,3,21)           180.0            estimate D2E/DX2                !
 ! D7    D(13,2,3,4)          -179.9999         estimate D2E/DX2                !
 ! D8    D(13,2,3,21)            0.0001         estimate D2E/DX2                !
 ! D9    D(2,3,4,5)             -0.0001         estimate D2E/DX2                !
 ! D10   D(2,3,4,20)           180.0            estimate D2E/DX2                !
 ! D11   D(21,3,4,5)           179.9999         estimate D2E/DX2                !
 ! D12   D(21,3,4,20)            0.0            estimate D2E/DX2                !
 ! D13   D(3,4,5,6)              0.0001         estimate D2E/DX2                !
 ! D14   D(3,4,5,14)          -179.9999         estimate D2E/DX2                !
 ! D15   D(20,4,5,6)          -180.0            estimate D2E/DX2                !
 ! D16   D(20,4,5,14)            0.0            estimate D2E/DX2                !
 ! D17   D(4,5,6,1)              0.0            estimate D2E/DX2                !
 ! D18   D(4,5,6,17)           179.9999         estimate D2E/DX2                !
 ! D19   D(14,5,6,1)           180.0            estimate D2E/DX2                !
 ! D20   D(14,5,6,17)           -0.0001         estimate D2E/DX2                !
 ! D21   D(1,6,17,16)            0.0004         estimate D2E/DX2                !
 ! D22   D(5,6,17,16)         -179.9996         estimate D2E/DX2                !
 ! D23   D(12,7,8,9)             0.0001         estimate D2E/DX2                !
 ! D24   D(12,7,8,22)         -179.9998         estimate D2E/DX2                !
 ! D25   D(8,7,12,11)           -0.0001         estimate D2E/DX2                !
 ! D26   D(8,7,12,16)          179.9999         estimate D2E/DX2                !
 ! D27   D(7,8,9,10)             0.0            estimate D2E/DX2                !
 ! D28   D(7,8,9,15)           180.0            estimate D2E/DX2                !
 ! D29   D(22,8,9,10)          179.9998         estimate D2E/DX2                !
 ! D30   D(22,8,9,15)           -0.0002         estimate D2E/DX2                !
 ! D31   D(8,9,10,11)            0.0            estimate D2E/DX2                !
 ! D32   D(8,9,10,19)         -179.9999         estimate D2E/DX2                !
 ! D33   D(15,9,10,11)         180.0            estimate D2E/DX2                !
 ! D34   D(15,9,10,19)           0.0001         estimate D2E/DX2                !
 ! D35   D(9,10,11,12)           0.0            estimate D2E/DX2                !
 ! D36   D(9,10,11,18)        -179.9998         estimate D2E/DX2                !
 ! D37   D(19,10,11,12)        179.9999         estimate D2E/DX2                !
 ! D38   D(19,10,11,18)          0.0001         estimate D2E/DX2                !
 ! D39   D(10,11,12,7)           0.0            estimate D2E/DX2                !
 ! D40   D(10,11,12,16)       -179.9999         estimate D2E/DX2                !
 ! D41   D(18,11,12,7)         179.9999         estimate D2E/DX2                !
 ! D42   D(18,11,12,16)         -0.0001         estimate D2E/DX2                !
 ! D43   D(7,12,16,17)           0.0004         estimate D2E/DX2                !
 ! D44   D(11,12,16,17)       -179.9997         estimate D2E/DX2                !
 ! D45   D(12,16,17,6)          -0.0006         estimate D2E/DX2                !
 --------------------------------------------------------------------------------
 Trust Radius=3.00D-01 FncErr=1.00D-07 GrdErr=1.00D-06 EigMax=2.50D+02 EigMin=1.00D-04
 Number of steps in this run=    112 maximum allowed number of steps=    132.
 GradGradGradGradGradGradGradGradGradGradGradGradGradGradGradGradGradGrad

                          Input orientation:                          
 ---------------------------------------------------------------------
 Center     Atomic      Atomic             Coordinates (Angstroms)
 Number     Number       Type             X           Y           Z
 ---------------------------------------------------------------------
      1          6           0       -0.816805    1.864275    0.808391
      2          6           0        0.515576    1.894161    0.375045
      3          6           0        1.223470    3.103612    0.368972
      4          6           0        0.598982    4.283177    0.796247
      5          6           0       -0.733400    4.253292    1.229592
      6          6           0       -1.441293    3.043841    1.235664
      7          6           0       -1.845155    0.107317    0.817214
      8          6           0       -1.220667   -1.072248    0.389939
      9          6           0       -1.928560   -2.281699    0.396013
     10          6           0       -3.260940   -2.311585    0.829363
     11          6           0       -3.885428   -1.132020    1.256638
     12          6           0       -3.177535    0.077431    1.250564
     13          1           0        0.992387    0.993537    0.048813
     14          1           0       -1.210210    5.153916    1.555823
     15          1           0       -1.451750   -3.182323    0.069779
     16         17           0       -3.961819    1.558831    1.787175
     17         17           0       -3.114613    3.006308    1.779898
     18         17           0       -5.558745   -1.169555    1.800881
     19         17           0       -4.149973   -3.830520    0.836994
     20         17           0        1.488017    5.802111    0.788621
     21         17           0        2.896790    3.141145   -0.175261
     22         17           0        0.452653   -1.034714   -0.154295
 ---------------------------------------------------------------------
                    Distance matrix (angstroms):
                    1          2          3          4          5
     1  C    0.000000
     2  C    1.401400   0.000000
     3  C    2.427296   1.401400   0.000000
     4  C    2.802800   2.427296   1.401400   0.000000
     5  C    2.427296   2.802800   2.427296   1.401400   0.000000
     6  C    1.401400   2.427296   2.802800   2.427296   1.401400
     7  C    2.035800   2.993555   4.312210   4.838600   4.312210
     8  C    2.993555   3.437200   4.838600   5.670695   5.413300
     9  C    4.312210   4.838600   6.240000   7.046010   6.695474
    10  C    4.838600   5.670695   7.046010   7.641400   7.046010
    11  C    4.312210   5.413300   6.695474   7.046010   6.240000
    12  C    2.993555   4.207863   5.413300   5.670695   4.838600
    13  H    2.146700   1.070000   2.146700   3.396345   3.872800
    14  H    3.396345   3.872800   3.396345   2.146700   1.070000
    15  H    5.139733   5.452912   6.838077   7.776050   7.559733
    16  Cl   3.307934   4.706764   5.593288   5.404157   4.241900
    17  Cl   2.743718   4.048303   4.562800   4.048303   2.743718
    18  Cl   5.716219   6.951025   8.143019   8.286084   7.281319
    19  Cl   6.598600   7.399508   8.784937   9.401400   8.784937
    20  Cl   4.562800   4.048303   2.743718   1.760000   2.743718
    21  Cl   4.048303   2.743718   1.760000   2.743718   4.048303
    22  Cl   3.307934   2.976990   4.241900   5.404157   5.593288
                    6          7          8          9         10
     6  C    0.000000
     7  C    2.993555   0.000000
     8  C    4.207863   1.401400   0.000000
     9  C    5.413300   2.427296   1.401400   0.000000
    10  C    5.670695   2.802800   2.427296   1.401400   0.000000
    11  C    4.838600   2.427296   2.802800   2.427296   1.401400
    12  C    3.437200   1.401400   2.427296   2.802800   2.427296
    13  H    3.396345   3.070418   3.046546   4.402232   5.442783
    14  H    2.146700   5.139733   6.334391   7.559733   7.776050
    15  H    6.334391   3.396345   2.146700   1.070000   2.146700
    16  Cl   2.976990   2.743718   4.048303   4.562800   4.048303
    17  Cl   1.760000   3.307934   4.706764   5.593288   5.404157
    18  Cl   5.918242   4.048303   4.562800   4.048303   2.743718
    19  Cl   7.399508   4.562800   4.048303   2.743718   1.760000
    20  Cl   4.048303   6.598600   7.399508   8.784937   9.401400
    21  Cl   4.562800   5.716219   5.918242   7.281319   8.286084
    22  Cl   4.706764   2.743718   1.760000   2.743718   4.048303
                   11         12         13         14         15
    11  C    0.000000
    12  C    1.401400   0.000000
    13  H    5.456181   4.435279   0.000000
    14  H    6.838077   5.452912   4.942800   0.000000
    15  H    3.396345   3.872800   4.838600   8.471101   0.000000
    16  Cl   2.743718   1.760000   5.280684   4.533157   5.632800
    17  Cl   4.241900   2.976990   4.890332   2.879094   6.632403
    18  Cl   1.760000   2.743718   7.118008   7.678288   4.890332
    19  Cl   2.743718   4.048303   7.094830   9.480455   2.879094
    20  Cl   8.784937   7.399508   4.890332   2.879094   9.480455
    21  Cl   8.143019   6.951025   2.879094   4.890332   7.678288
    22  Cl   4.562800   4.048303   2.108641   6.632403   2.879094
                   16         17         18         19         20
    16  Cl   0.000000
    17  Cl   1.677200   0.000000
    18  Cl   3.161400   4.838600   0.000000
    19  Cl   5.475705   6.978771   3.161400   0.000000
    20  Cl   6.978771   5.475705   9.964218  11.161400   0.000000
    21  Cl   7.307216   6.322800   9.694501   9.964218   3.161400
    22  Cl   5.475705   5.726810   6.322800   5.475705   6.978771
                   21         22
    21  Cl   0.000000
    22  Cl   4.838600   0.000000
 Stoichiometry    C12H3Cl7
 Framework group  C1[X(C12H3Cl7)]
 Deg. of freedom    60
 Full point group                 C1      NOp   1
 Largest Abelian subgroup         C1      NOp   1
 Largest concise Abelian subgroup C1      NOp   1
                         Standard orientation:                         
 ---------------------------------------------------------------------
 Center     Atomic      Atomic             Coordinates (Angstroms)
 Number     Number       Type             X           Y           Z
 ---------------------------------------------------------------------
      1          6           0        1.109156    0.001344    0.000003
      2          6           0        2.043955    1.045410    0.000001
      3          6           0        3.415542    0.757883   -0.000001
      4          6           0        3.852330   -0.573709   -0.000001
      5          6           0        2.917531   -1.617775    0.000003
      6          6           0        1.545944   -1.330248    0.000004
      7          6           0       -0.883334    0.419031    0.000004
      8          6           0       -1.320122    1.750624    0.000004
      9          6           0       -2.691709    2.038150    0.000003
     10          6           0       -3.626508    0.994085    0.000002
     11          6           0       -3.189720   -0.337508    0.000001
     12          6           0       -1.818133   -0.625034    0.000001
     13          1           0        1.710458    2.062110   -0.000001
     14          1           0        3.251029   -2.634475    0.000004
     15          1           0       -3.025206    3.054851    0.000004
     16         17           0       -1.269577   -2.297364   -0.000002
     17         17           0        0.371943   -2.641477    0.000007
     18         17           0       -4.363721   -1.648736   -0.000006
     19         17           0       -5.349066    1.355186   -0.000002
     20         17           0        5.574888   -0.934810   -0.000004
     21         17           0        4.589544    2.069112   -0.000003
     22         17           0       -0.146121    3.061852    0.000002
 ---------------------------------------------------------------------
 Rotational constants (GHZ):           0.3888405           0.1116789           0.0867604
 Standard basis: 6-311+G(d,p) (5D, 7F)
 There are   511 symmetry adapted cartesian basis functions of A   symmetry.
 There are   492 symmetry adapted basis functions of A   symmetry.
   492 basis functions,   827 primitive gaussians,   511 cartesian basis functions
    97 alpha electrons       97 beta electrons
       nuclear repulsion energy      2328.6866197947 Hartrees.
 NAtoms=   22 NActive=   22 NUniq=   22 SFac= 1.00D+00 NAtFMM=   60 NAOKFM=F Big=F
 Integral buffers will be    131072 words long.
 Raffenetti 2 integral format.
 Two-electron integral symmetry is turned on.
 One-electron integrals computed using PRISM.
 NBasis=   492 RedAO= T EigKep=  1.01D-06  NBF=   492
 NBsUse=   486 1.00D-06 EigRej=  7.19D-07 NBFU=   486
 ExpMin= 4.38D-02 ExpMax= 1.06D+05 ExpMxC= 3.62D+03 IAcc=3 IRadAn=         5 AccDes= 0.00D+00
 Harris functional with IExCor=  402 and IRadAn=       5 diagonalized for initial guess.
 HarFok:  IExCor=  402 AccDes= 0.00D+00 IRadAn=         5 IDoV= 1 UseB2=F ITyADJ=14
 ICtDFT=  3500011 ScaDFX=  1.000000  1.000000  1.000000  1.000000
 FoFCou: FMM=F IPFlag=           0 FMFlag=      100000 FMFlg1=           0
         NFxFlg=           0 DoJE=T BraDBF=F KetDBF=T FulRan=T
         wScrn=  0.000000 ICntrl=       500 IOpCl=  0 I1Cent=   200000004 NGrid=           0
         NMat0=    1 NMatS0=      1 NMatT0=    0 NMatD0=    1 NMtDS0=    0 NMtDT0=    0
 Petite list used in FoFCou.
 Requested convergence on RMS density matrix=1.00D-08 within  32 cycles.
 Requested convergence on MAX density matrix=1.00D-06.
 Requested convergence on             energy=1.00D-06.
 No special actions if energy rises.
 EnCoef did     4 forward-backward iterations
 EnCoef did     3 forward-backward iterations
 EnCoef did   100 forward-backward iterations
 EnCoef did     1 forward-backward iterations
 EnCoef did     2 forward-backward iterations
 Restarting incremental Fock formation.
 SCF Done:  E(RB3LYP) =  -3680.19094868     A.U. after   30 cycles
            NFock= 30  Conv=0.70D-08     -V/T= 2.0021
 QCSCF skips out because SCF is already converged.

 **********************************************************************

            Population analysis using the SCF Density.

 **********************************************************************

 Orbital symmetries:
       Occupied  (A) (A) (A) (A) (A) (A) (A) (A) (A) (A) (A) (A)
                 (A) (A) (A) (A) (A) (A) (A) (A) (A) (A) (A) (A)
                 (A) (A) (A) (A) (A) (A) (A) (A) (A) (A) (A) (A)
                 (A) (A) (A) (A) (A) (A) (A) (A) (A) (A) (A) (A)
                 (A) (A) (A) (A) (A) (A) (A) (A) (A) (A) (A) (A)
                 (A) (A) (A) (A) (A) (A) (A) (A) (A) (A) (A) (A)
                 (A) (A) (A) (A) (A) (A) (A) (A) (A) (A) (A) (A)
                 (A) (A) (A) (A) (A) (A) (A) (A) (A) (A) (A) (A)
                 (A)
       Virtual   (A) (A) (A) (A) (A) (A) (A) (A) (A) (A) (A) (A)
                 (A) (A) (A) (A) (A) (A) (A) (A) (A) (A) (A) (A)
                 (A) (A) (A) (A) (A) (A) (A) (A) (A) (A) (A) (A)
                 (A) (A) (A) (A) (A) (A) (A) (A) (A) (A) (A) (A)
                 (A) (A) (A) (A) (A) (A) (A) (A) (A) (A) (A) (A)
                 (A) (A) (A) (A) (A) (A) (A) (A) (A) (A) (A) (A)
                 (A) (A) (A) (A) (A) (A) (A) (A) (A) (A) (A) (A)
                 (A) (A) (A) (A) (A) (A) (A) (A) (A) (A) (A) (A)
                 (A) (A) (A) (A) (A) (A) (A) (A) (A) (A) (A) (A)
                 (A) (A) (A) (A) (A) (A) (A) (A) (A) (A) (A) (A)
                 (A) (A) (A) (A) (A) (A) (A) (A) (A) (A) (A) (A)
                 (A) (A) (A) (A) (A) (A) (A) (A) (A) (A) (A) (A)
                 (A) (A) (A) (A) (A) (A) (A) (A) (A) (A) (A) (A)
                 (A) (A) (A) (A) (A) (A) (A) (A) (A) (A) (A) (A)
                 (A) (A) (A) (A) (A) (A) (A) (A) (A) (A) (A) (A)
                 (A) (A) (A) (A) (A) (A) (A) (A) (A) (A) (A) (A)
                 (A) (A) (A) (A) (A) (A) (A) (A) (A) (A) (A) (A)
                 (A) (A) (A) (A) (A) (A) (A) (A) (A) (A) (A) (A)
                 (A) (A) (A) (A) (A) (A) (A) (A) (A) (A) (A) (A)
                 (A) (A) (A) (A) (A) (A) (A) (A) (A) (A) (A) (A)
                 (A) (A) (A) (A) (A) (A) (A) (A) (A) (A) (A) (A)
                 (A) (A) (A) (A) (A) (A) (A) (A) (A) (A) (A) (A)
                 (A) (A) (A) (A) (A) (A) (A) (A) (A) (A) (A) (A)
                 (A) (A) (A) (A) (A) (A) (A) (A) (A) (A) (A) (A)
                 (A) (A) (A) (A) (A) (A) (A) (A) (A) (A) (A) (A)
                 (A) (A) (A) (A) (A) (A) (A) (A) (A) (A) (A) (A)
                 (A) (A) (A) (A) (A) (A) (A) (A) (A) (A) (A) (A)
                 (A) (A) (A) (A) (A) (A) (A) (A) (A) (A) (A) (A)
                 (A) (A) (A) (A) (A) (A) (A) (A) (A) (A) (A) (A)
                 (A) (A) (A) (A) (A) (A) (A) (A) (A) (A) (A) (A)
                 (A) (A) (A) (A) (A) (A) (A) (A) (A) (A) (A) (A)
                 (A) (A) (A) (A) (A) (A) (A) (A) (A) (A) (A) (A)
                 (A) (A) (A) (A) (A)
 The electronic state is 1-A.
 Alpha  occ. eigenvalues -- -101.65932-101.63854-101.58391-101.57963-101.57145
 Alpha  occ. eigenvalues -- -101.56292-101.56043 -10.29716 -10.28507 -10.28060
 Alpha  occ. eigenvalues --  -10.27007 -10.26361 -10.26278 -10.24855 -10.24668
 Alpha  occ. eigenvalues --  -10.24487 -10.22500 -10.22076 -10.21497  -9.58105
 Alpha  occ. eigenvalues --   -9.56281  -9.49804  -9.49386  -9.48701  -9.47806
 Alpha  occ. eigenvalues --   -9.47506  -7.34450  -7.33756  -7.33240  -7.33121
 Alpha  occ. eigenvalues --   -7.31603  -7.31118  -7.26309  -7.25879  -7.25276
 Alpha  occ. eigenvalues --   -7.25222  -7.25139  -7.24870  -7.24802  -7.24238
 Alpha  occ. eigenvalues --   -7.24178  -7.24148  -7.23969  -7.23295  -7.23259
 Alpha  occ. eigenvalues --   -7.23000  -7.22936  -1.12934  -0.94810  -0.93413
 Alpha  occ. eigenvalues --   -0.90442  -0.89566  -0.88112  -0.86979  -0.85095
 Alpha  occ. eigenvalues --   -0.83105  -0.78806  -0.78036  -0.74334  -0.73564
 Alpha  occ. eigenvalues --   -0.68367  -0.66297  -0.62112  -0.60700  -0.58857
 Alpha  occ. eigenvalues --   -0.55991  -0.53355  -0.52591  -0.52459  -0.51409
 Alpha  occ. eigenvalues --   -0.50816  -0.49368  -0.46905  -0.45884  -0.45148
 Alpha  occ. eigenvalues --   -0.45038  -0.43829  -0.43420  -0.42415  -0.40951
 Alpha  occ. eigenvalues --   -0.39402  -0.38467  -0.37046  -0.36336  -0.36055
 Alpha  occ. eigenvalues --   -0.35497  -0.34212  -0.33928  -0.32981  -0.32742
 Alpha  occ. eigenvalues --   -0.32332  -0.31461  -0.29461  -0.28588  -0.26088
 Alpha  occ. eigenvalues --   -0.25824  -0.13549
 Alpha virt. eigenvalues --   -0.09860  -0.07360  -0.06786  -0.06071  -0.04679
 Alpha virt. eigenvalues --   -0.03274  -0.02661  -0.01849  -0.00827   0.00116
 Alpha virt. eigenvalues --    0.00608   0.01090   0.01760   0.02413   0.02977
 Alpha virt. eigenvalues --    0.03211   0.03833   0.04301   0.05106   0.05254
 Alpha virt. eigenvalues --    0.05419   0.05562   0.06408   0.06449   0.07001
 Alpha virt. eigenvalues --    0.07344   0.07592   0.07768   0.08596   0.08994
 Alpha virt. eigenvalues --    0.09124   0.09387   0.10086   0.10158   0.10492
 Alpha virt. eigenvalues --    0.10664   0.10999   0.11593   0.11650   0.12089
 Alpha virt. eigenvalues --    0.12636   0.12958   0.13156   0.13552   0.13973
 Alpha virt. eigenvalues --    0.14171   0.14235   0.14779   0.15087   0.15484
 Alpha virt. eigenvalues --    0.15802   0.16749   0.16982   0.17198   0.17271
 Alpha virt. eigenvalues --    0.17353   0.18522   0.18895   0.19088   0.19850
 Alpha virt. eigenvalues --    0.20246   0.20442   0.20764   0.21022   0.21291
 Alpha virt. eigenvalues --    0.21669   0.22063   0.22610   0.22929   0.23123
 Alpha virt. eigenvalues --    0.23224   0.23753   0.24040   0.24398   0.25173
 Alpha virt. eigenvalues --    0.25490   0.25914   0.26475   0.27031   0.27206
 Alpha virt. eigenvalues --    0.27846   0.28297   0.29204   0.29309   0.29570
 Alpha virt. eigenvalues --    0.30373   0.30464   0.32031   0.32310   0.33209
 Alpha virt. eigenvalues --    0.34184   0.34241   0.34909   0.36128   0.37625
 Alpha virt. eigenvalues --    0.39735   0.39814   0.40348   0.41492   0.41815
 Alpha virt. eigenvalues --    0.42774   0.43020   0.43136   0.43230   0.43922
 Alpha virt. eigenvalues --    0.44280   0.45132   0.45699   0.46179   0.46521
 Alpha virt. eigenvalues --    0.46753   0.47037   0.47580   0.47992   0.48035
 Alpha virt. eigenvalues --    0.49066   0.49883   0.50016   0.51161   0.51951
 Alpha virt. eigenvalues --    0.53112   0.53407   0.53733   0.55005   0.55731
 Alpha virt. eigenvalues --    0.56444   0.57489   0.57836   0.58314   0.58725
 Alpha virt. eigenvalues --    0.59524   0.60100   0.60569   0.60691   0.61407
 Alpha virt. eigenvalues --    0.61441   0.62943   0.63424   0.63841   0.64800
 Alpha virt. eigenvalues --    0.64857   0.65636   0.67196   0.68472   0.69379
 Alpha virt. eigenvalues --    0.69611   0.72725   0.74535   0.75465   0.76840
 Alpha virt. eigenvalues --    0.78719   0.79354   0.81251   0.81558   0.82243
 Alpha virt. eigenvalues --    0.82804   0.83021   0.83638   0.83960   0.84318
 Alpha virt. eigenvalues --    0.84345   0.84430   0.84679   0.85011   0.85481
 Alpha virt. eigenvalues --    0.85919   0.86037   0.86905   0.87013   0.87683
 Alpha virt. eigenvalues --    0.88222   0.88423   0.88541   0.89666   0.89785
 Alpha virt. eigenvalues --    0.90728   0.91529   0.92786   0.92922   0.93474
 Alpha virt. eigenvalues --    0.94067   0.94391   0.94752   0.95189   0.95339
 Alpha virt. eigenvalues --    0.95748   0.96173   0.96747   0.96915   0.97415
 Alpha virt. eigenvalues --    0.99382   1.00224   1.01190   1.02867   1.04047
 Alpha virt. eigenvalues --    1.04749   1.04821   1.06737   1.08492   1.09411
 Alpha virt. eigenvalues --    1.12477   1.13303   1.16900   1.17076   1.19556
 Alpha virt. eigenvalues --    1.19853   1.20665   1.21916   1.21951   1.22818
 Alpha virt. eigenvalues --    1.23724   1.24578   1.26795   1.26846   1.27255
 Alpha virt. eigenvalues --    1.27629   1.29298   1.29424   1.29904   1.30048
 Alpha virt. eigenvalues --    1.31094   1.33859   1.34979   1.39979   1.45751
 Alpha virt. eigenvalues --    1.46978   1.49030   1.50348   1.50658   1.53761
 Alpha virt. eigenvalues --    1.54745   1.57274   1.58297   1.60193   1.60809
 Alpha virt. eigenvalues --    1.65369   1.66258   1.67223   1.71119   1.71490
 Alpha virt. eigenvalues --    1.73669   1.75133   1.77753   1.77860   1.80171
 Alpha virt. eigenvalues --    1.83781   1.85008   1.85196   1.85576   1.86263
 Alpha virt. eigenvalues --    1.87265   1.87978   1.88344   1.92863   1.95977
 Alpha virt. eigenvalues --    1.96724   1.98914   2.00078   2.04282   2.05340
 Alpha virt. eigenvalues --    2.05580   2.07192   2.09920   2.14106   2.16470
 Alpha virt. eigenvalues --    2.19990   2.21594   2.22354   2.22776   2.23655
 Alpha virt. eigenvalues --    2.24798   2.26080   2.26208   2.26701   2.28204
 Alpha virt. eigenvalues --    2.28434   2.29134   2.30897   2.31530   2.34413
 Alpha virt. eigenvalues --    2.36838   2.39732   2.40575   2.41621   2.42819
 Alpha virt. eigenvalues --    2.44317   2.46350   2.50471   2.50920   2.52834
 Alpha virt. eigenvalues --    2.55457   2.56859   2.58382   2.58900   2.58925
 Alpha virt. eigenvalues --    2.59568   2.60954   2.61235   2.61790   2.66920
 Alpha virt. eigenvalues --    2.67812   2.71539   2.72862   2.73737   2.74482
 Alpha virt. eigenvalues --    2.74550   2.76006   2.76887   2.77602   2.80533
 Alpha virt. eigenvalues --    2.83385   2.85141   2.86568   2.86604   2.88095
 Alpha virt. eigenvalues --    3.03621   3.05638   3.06929   3.08822   3.09107
 Alpha virt. eigenvalues --    3.14678   3.14883   3.16119   3.22114   3.24630
 Alpha virt. eigenvalues --    3.27669   3.30709   3.35141   3.37595   3.48003
 Alpha virt. eigenvalues --    3.51080   3.54874   3.67545   3.74218   3.76184
 Alpha virt. eigenvalues --    3.82713   3.87086   3.96170   4.05311   4.13869
 Alpha virt. eigenvalues --    4.78949   4.80981   9.67169   9.74100   9.77001
 Alpha virt. eigenvalues --    9.78786   9.81254   9.84092   9.95963  23.30376
 Alpha virt. eigenvalues --   23.36700  23.77503  23.79417  23.84982  23.86380
 Alpha virt. eigenvalues --   23.93037  23.94607  23.98931  23.99928  24.05472
 Alpha virt. eigenvalues --   24.06645  25.73396  25.76726  25.78682  25.83203
 Alpha virt. eigenvalues --   25.85371  25.86075  25.96323  26.09053  26.10760
 Alpha virt. eigenvalues --   26.13296  26.16957  26.23067  26.36676  26.49612
 Alpha virt. eigenvalues --   26.50919  26.64362  26.71291  26.76785  26.89177
 Alpha virt. eigenvalues --   26.97217  27.00105 215.67722 215.73352 215.76883
 Alpha virt. eigenvalues --  215.78346 215.81301 215.84680 216.01557
          Condensed to atoms (all electrons):
               1          2          3          4          5          6
     1  C   30.856860  -0.382579  -5.114150   7.030669  -7.449871  -7.975550
     2  C   -0.382579  15.656713   2.667428  -7.443354  -1.170545  -4.488328
     3  C   -5.114150   2.667428  39.774106 -18.078405 -11.852645   0.943890
     4  C    7.030669  -7.443354 -18.078405  40.295660  -0.741399 -11.883988
     5  C   -7.449871  -1.170545 -11.852645  -0.741399  25.156602   3.326415
     6  C   -7.975550  -4.488328   0.943890 -11.883988   3.326415  34.631769
     7  C    5.620404   1.387215  -1.942001   0.199119  -2.260824  -7.781528
     8  C   -6.311391   3.508959  -1.084762   0.051097   0.165522  -3.275416
     9  C   -1.562579  -0.335805   0.441272   0.148014  -0.012121   0.119120
    10  C    0.483589  -0.638213  -0.220688   0.181472  -0.101557  -0.311198
    11  C   -3.885081   0.352490  -0.458684  -0.110221  -0.053463  -0.279674
    12  C   -0.840284  -1.705724  -0.028588  -1.122971   0.123644   0.285457
    13  H    0.070419   0.221549  -0.132659   0.086250  -0.029025   0.016415
    14  H    0.033546  -0.020622   0.116774  -0.072160   0.229606  -0.009961
    15  H    0.009443  -0.007714  -0.001970   0.000478   0.000431   0.002729
    16  Cl   0.680225  -0.791879  -2.739933   3.764502  -0.051599   5.632129
    17  Cl  -3.547431   0.330748   3.104613  -4.877098   0.918174  -2.431409
    18  Cl   0.017415   0.028649   0.026219  -0.031263  -0.046599  -0.281986
    19  Cl  -0.102889  -0.021456  -0.004101   0.003152   0.001925   0.028099
    20  Cl   0.166282  -0.033385   0.498349  -0.912541   0.012956  -0.405115
    21  Cl  -1.336191   0.239053  -0.404154  -0.535508   0.520506   0.900925
    22  Cl   0.131165  -0.148733  -0.506079   0.026166   0.130102  -0.046862
               7          8          9         10         11         12
     1  C    5.620404  -6.311391  -1.562579   0.483589  -3.885081  -0.840284
     2  C    1.387215   3.508959  -0.335805  -0.638213   0.352490  -1.705724
     3  C   -1.942001  -1.084762   0.441272  -0.220688  -0.458684  -0.028588
     4  C    0.199119   0.051097   0.148014   0.181472  -0.110221  -1.122971
     5  C   -2.260824   0.165522  -0.012121  -0.101557  -0.053463   0.123644
     6  C   -7.781528  -3.275416   0.119120  -0.311198  -0.279674   0.285457
     7  C   30.108608  -3.547879  -5.413726  -0.289336  -2.867400   1.910616
     8  C   -3.547879  33.289024   6.185679 -10.757079  -1.157321  -7.989067
     9  C   -5.413726   6.185679  21.916317  -2.952053  -8.874025  -2.515782
    10  C   -0.289336 -10.757079  -2.952053  29.696562  -6.285117  -2.471426
    11  C   -2.867400  -1.157321  -8.874025  -6.285117  31.119161  -5.202647
    12  C    1.910616  -7.989067  -2.515782  -2.471426  -5.202647  44.665526
    13  H    0.096079  -0.054103   0.030762   0.014942  -0.005041   0.021034
    14  H    0.019833  -0.000268  -0.000006  -0.000095   0.001115   0.020658
    15  H    0.043198  -0.176713   0.136031   0.219765  -0.022538   0.128861
    16  Cl -10.540189  -3.721870  -1.703269   0.473949   7.536542 -34.071292
    17  Cl   3.014462   0.765782   0.096041  -0.146816  -1.694621  14.411773
    18  Cl  -0.089954   1.207378   1.665628   0.005064  -3.569211   2.169435
    19  Cl  -0.349090  -0.909069  -0.989086  -0.786776   1.595062   0.334978
    20  Cl  -0.016148  -0.013270  -0.002368   0.000024  -0.000411  -0.017592
    21  Cl  -0.232378  -0.031276  -0.000919  -0.009163  -0.005981  -0.045175
    22  Cl  -0.063660   0.137334   0.034571  -0.751415   0.296883  -0.196929
              13         14         15         16         17         18
     1  C    0.070419   0.033546   0.009443   0.680225  -3.547431   0.017415
     2  C    0.221549  -0.020622  -0.007714  -0.791879   0.330748   0.028649
     3  C   -0.132659   0.116774  -0.001970  -2.739933   3.104613   0.026219
     4  C    0.086250  -0.072160   0.000478   3.764502  -4.877098  -0.031263
     5  C   -0.029025   0.229606   0.000431  -0.051599   0.918174  -0.046599
     6  C    0.016415  -0.009961   0.002729   5.632129  -2.431409  -0.281986
     7  C    0.096079   0.019833   0.043198 -10.540189   3.014462  -0.089954
     8  C   -0.054103  -0.000268  -0.176713  -3.721870   0.765782   1.207378
     9  C    0.030762  -0.000006   0.136031  -1.703269   0.096041   1.665628
    10  C    0.014942  -0.000095   0.219765   0.473949  -0.146816   0.005064
    11  C   -0.005041   0.001115  -0.022538   7.536542  -1.694621  -3.569211
    12  C    0.021034   0.020658   0.128861 -34.071292  14.411773   2.169435
    13  H    0.536801   0.000023   0.000081   0.009418  -0.005614  -0.000135
    14  H    0.000023   0.491744  -0.000000  -0.051403   0.065004   0.000089
    15  H    0.000081  -0.000000   0.507078   0.023991  -0.002758  -0.009616
    16  Cl   0.009418  -0.051403   0.023991  87.644565 -33.305834  -3.470592
    17  Cl  -0.005614   0.065004  -0.002758 -33.305834  38.740319   0.452288
    18  Cl  -0.000135   0.000089  -0.009616  -3.470592   0.452288  19.019677
    19  Cl   0.000195  -0.000002   0.013429   0.567504  -0.064639  -0.626363
    20  Cl   0.001075  -0.007593   0.000000   0.004319  -0.049677  -0.000083
    21  Cl  -0.025481   0.001099  -0.000036  -0.034326   0.047716   0.000230
    22  Cl  -0.022308  -0.000031  -0.026692  -0.205960   0.056847   0.024672
              19         20         21         22
     1  C   -0.102889   0.166282  -1.336191   0.131165
     2  C   -0.021456  -0.033385   0.239053  -0.148733
     3  C   -0.004101   0.498349  -0.404154  -0.506079
     4  C    0.003152  -0.912541  -0.535508   0.026166
     5  C    0.001925   0.012956   0.520506   0.130102
     6  C    0.028099  -0.405115   0.900925  -0.046862
     7  C   -0.349090  -0.016148  -0.232378  -0.063660
     8  C   -0.909069  -0.013270  -0.031276   0.137334
     9  C   -0.989086  -0.002368  -0.000919   0.034571
    10  C   -0.786776   0.000024  -0.009163  -0.751415
    11  C    1.595062  -0.000411  -0.005981   0.296883
    12  C    0.334978  -0.017592  -0.045175  -0.196929
    13  H    0.000195   0.001075  -0.025481  -0.022308
    14  H   -0.000002  -0.007593   0.001099  -0.000031
    15  H    0.013429   0.000000  -0.000036  -0.026692
    16  Cl   0.567504   0.004319  -0.034326  -0.205960
    17  Cl  -0.064639  -0.049677   0.047716   0.056847
    18  Cl  -0.626363  -0.000083   0.000230   0.024672
    19  Cl  17.858894  -0.000002  -0.000088  -0.042381
    20  Cl  -0.000002  17.430106  -0.213121  -0.001138
    21  Cl  -0.000088  -0.213121  17.665486  -0.026688
    22  Cl  -0.042381  -0.001138  -0.026688  17.618010
 Mulliken charges:
               1
     1  C   -0.592023
     2  C   -1.204467
     3  C    0.996170
     4  C    0.022329
     5  C   -0.816234
     6  C   -0.715934
     7  C   -1.005419
     8  C   -0.281292
     9  C   -0.411696
    10  C    0.645565
    11  C   -0.429818
    12  C   -1.864504
    13  H    0.169324
    14  H    0.182650
    15  H    0.162524
    16  Cl   1.351002
    17  Cl   1.122131
    18  Cl   0.509059
    19  Cl   0.492706
    20  Cl   0.559331
    21  Cl   0.525468
    22  Cl   0.583127
 Sum of Mulliken charges =  -0.00000
 Mulliken charges with hydrogens summed into heavy atoms:
               1
     1  C   -0.592023
     2  C   -1.035143
     3  C    0.996170
     4  C    0.022329
     5  C   -0.633584
     6  C   -0.715934
     7  C   -1.005419
     8  C   -0.281292
     9  C   -0.249172
    10  C    0.645565
    11  C   -0.429818
    12  C   -1.864504
    16  Cl   1.351002
    17  Cl   1.122131
    18  Cl   0.509059
    19  Cl   0.492706
    20  Cl   0.559331
    21  Cl   0.525468
    22  Cl   0.583127
 Electronic spatial extent (au):  <R**2>=          10608.8610
 Charge=             -0.0000 electrons
 Dipole moment (field-independent basis, Debye):
    X=              2.0212    Y=             -2.0490    Z=              0.0000  Tot=              2.8782
 Quadrupole moment (field-independent basis, Debye-Ang):
   XX=           -175.9871   YY=           -151.0977   ZZ=           -159.1516
   XY=             -2.7154   XZ=             -0.0000   YZ=             -0.0000
 Traceless Quadrupole moment (field-independent basis, Debye-Ang):
   XX=            -13.9083   YY=             10.9811   ZZ=              2.9272
   XY=             -2.7154   XZ=             -0.0000   YZ=             -0.0000
 Octapole moment (field-independent basis, Debye-Ang**2):
  XXX=             51.8952  YYY=            -17.7226  ZZZ=             -0.0001  XYY=             -0.5378
  XXY=             -4.6609  XXZ=              0.0000  XZZ=             -0.6843  YZZ=             -6.5058
  YYZ=             -0.0001  XYZ=              0.0000
 Hexadecapole moment (field-independent basis, Debye-Ang**3):
 XXXX=         -10999.1794 YYYY=          -3080.8832 ZZZZ=           -186.1935 XXXY=             11.5009
 XXXZ=             -0.0000 YYYX=             56.1451 YYYZ=              0.0001 ZZZX=             -0.0000
 ZZZY=             -0.0000 XXYY=          -2249.4274 XXZZ=          -1841.9903 YYZZ=           -563.7704
 XXYZ=             -0.0000 YYXZ=             -0.0002 ZZXY=             18.4145
 N-N= 2.328686619795D+03 E-N=-1.337734795794D+04  KE= 3.672376579208D+03
 Calling FoFJK, ICntrl=      2127 FMM=F ISym2X=0 I1Cent= 0 IOpClX= 0 NMat=1 NMatS=1 NMatT=0.
 ***** Axes restored to original set *****
 -------------------------------------------------------------------
 Center     Atomic                   Forces (Hartrees/Bohr)
 Number     Number              X              Y              Z
 -------------------------------------------------------------------
      1        6          -0.018331344   -0.045340293   -0.002475761
      2        6          -0.006944294    0.022021177    0.006423659
      3        6          -0.000940688   -0.000137440    0.000284176
      4        6           0.000670566   -0.002222774   -0.000638609
      5        6          -0.009018187   -0.001852326    0.002623315
      6        6           0.027195682   -0.036613140   -0.015835643
      7        6          -0.009843031    0.028782338    0.008648378
      8        6          -0.020147479    0.014456024    0.009352795
      9        6          -0.003781182    0.009399015    0.003010912
     10        6           0.001290187    0.008879601    0.001242581
     11        6           0.030880901    0.008551023   -0.008568086
     12        6           0.035495657   -0.160309585   -0.041801548
     13        1           0.002666067    0.004912935    0.000044296
     14        1          -0.001349085    0.007495106    0.001852166
     15        1           0.003882443   -0.007866757   -0.002756571
     16       17          -0.187169279   -0.311140677    0.003231909
     17       17           0.176624508    0.502145078    0.036113869
     18       17          -0.010051370   -0.000532921    0.003211407
     19       17           0.003420507   -0.006536904   -0.002354598
     20       17          -0.009047391   -0.004507972    0.002134058
     21       17          -0.007190117   -0.004007079    0.001616258
     22       17           0.001686927   -0.025574430   -0.005358963
 -------------------------------------------------------------------
 Cartesian Forces:  Max     0.502145078 RMS     0.083013095

 GradGradGradGradGradGradGradGradGradGradGradGradGradGradGradGradGradGrad
 Berny optimization.
 FormGI is forming the generalized inverse of G from B-inverse, IUseBI=4.
 Internal  Forces:  Max     0.459188157 RMS     0.053412631
 Search for a local minimum.
 Step number   1 out of a maximum of  112
 All quantities printed in internal units (Hartrees-Bohrs-Radians)
 Mixed Optimization -- RFO/linear search
 Second derivative matrix not updated -- first step.
 ITU=  0
     Eigenvalues ---    0.00238   0.00238   0.01655   0.01655   0.02070
     Eigenvalues ---    0.02070   0.02070   0.02070   0.02070   0.02070
     Eigenvalues ---    0.02070   0.02070   0.02070   0.02070   0.02070
     Eigenvalues ---    0.02070   0.02070   0.02070   0.04244   0.16000
     Eigenvalues ---    0.16000   0.16000   0.22929   0.23485   0.23918
     Eigenvalues ---    0.25000   0.25000   0.25000   0.25000   0.25000
     Eigenvalues ---    0.25000   0.25000   0.25000   0.25000   0.25000
     Eigenvalues ---    0.25000   0.25000   0.29539   0.29539   0.29539
     Eigenvalues ---    0.29539   0.29539   0.29539   0.29539   0.37230
     Eigenvalues ---    0.37230   0.37230   0.41523   0.41665   0.42162
     Eigenvalues ---    0.42170   0.45389   0.45389   0.45389   0.45389
     Eigenvalues ---    0.45389   0.45389   0.45389   0.45389   1.29765
 RFO step:  Lambda=-2.80741654D-01 EMin= 2.37799121D-03
 Linear search not attempted -- first point.
 Maximum step size (   0.300) exceeded in Quadratic search.
    -- Step size scaled by   0.503
 Iteration  1 RMS(Cart)=  0.10365561 RMS(Int)=  0.00254830
 Iteration  2 RMS(Cart)=  0.00868231 RMS(Int)=  0.00002480
 Iteration  3 RMS(Cart)=  0.00001625 RMS(Int)=  0.00002368
 Iteration  4 RMS(Cart)=  0.00000000 RMS(Int)=  0.00002368
 Variable       Old X    -DE/DX   Delta X   Delta X   Delta X     New X
                                 (Linear)    (Quad)   (Total)
    R1        2.64826  -0.00410   0.00000  -0.00264  -0.00260   2.64566
    R2        2.64826   0.01012   0.00000   0.00714   0.00718   2.65544
    R3        2.64826  -0.00452   0.00000  -0.00314  -0.00314   2.64512
    R4        2.02201  -0.00296   0.00000  -0.00228  -0.00228   2.01973
    R5        2.64826  -0.00663   0.00000  -0.00475  -0.00479   2.64347
    R6        3.32592  -0.00742   0.00000  -0.00648  -0.00648   3.31944
    R7        2.64826  -0.01837   0.00000  -0.01274  -0.01278   2.63548
    R8        3.32592  -0.00847   0.00000  -0.00740  -0.00740   3.31852
    R9        2.64826  -0.01360   0.00000  -0.00927  -0.00927   2.63900
   R10        2.02201   0.00747   0.00000   0.00576   0.00576   2.02776
   R11        3.32592  -0.02124   0.00000  -0.01855  -0.01855   3.30737
   R12        2.64826   0.01313   0.00000   0.00938   0.00939   2.65765
   R13        2.64826  -0.00670   0.00000  -0.00427  -0.00424   2.64402
   R14        2.64826  -0.01053   0.00000  -0.00715  -0.00716   2.64111
   R15        3.32592   0.00272   0.00000   0.00237   0.00237   3.32829
   R16        2.64826  -0.02369   0.00000  -0.01655  -0.01657   2.63169
   R17        2.02201   0.00919   0.00000   0.00708   0.00708   2.02909
   R18        2.64826  -0.01407   0.00000  -0.01002  -0.01004   2.63823
   R19        3.32592   0.00390   0.00000   0.00341   0.00341   3.32933
   R20        2.64826  -0.01272   0.00000  -0.00877  -0.00876   2.63950
   R21        3.32592   0.01056   0.00000   0.00922   0.00922   3.33514
   R22        3.32592   0.13547   0.00000   0.11829   0.11829   3.44421
   R23        3.16945   0.45919   0.00000   0.14635   0.14635   3.31580
    A1        2.09440  -0.03969   0.00000  -0.03699  -0.03687   2.05753
    A2        2.09440   0.01461   0.00000   0.01476   0.01479   2.10919
    A3        2.09440  -0.00251   0.00000  -0.00191  -0.00192   2.09247
    A4        2.09440  -0.01210   0.00000  -0.01285  -0.01287   2.08153
    A5        2.09440   0.00602   0.00000   0.00526   0.00520   2.09960
    A6        2.09440  -0.00951   0.00000  -0.00879  -0.00877   2.08563
    A7        2.09440   0.00350   0.00000   0.00354   0.00356   2.09796
    A8        2.09440  -0.00499   0.00000  -0.00534  -0.00543   2.08896
    A9        2.09440   0.01233   0.00000   0.01199   0.01204   2.10643
   A10        2.09440  -0.00734   0.00000  -0.00665  -0.00661   2.08779
   A11        2.09440  -0.00824   0.00000  -0.00855  -0.00860   2.08580
   A12        2.09440   0.00173   0.00000   0.00156   0.00158   2.09597
   A13        2.09440   0.00650   0.00000   0.00700   0.00702   2.10141
   A14        2.09440   0.03229   0.00000   0.03086   0.03090   2.12530
   A15        2.09440  -0.00993   0.00000  -0.00954  -0.00956   2.08483
   A16        2.09440  -0.02235   0.00000  -0.02132  -0.02134   2.07306
   A17        2.09440  -0.02949   0.00000  -0.02662  -0.02656   2.06783
   A18        2.09440   0.01298   0.00000   0.01283   0.01283   2.10722
   A19        2.09440   0.03682   0.00000   0.03464   0.03464   2.12903
   A20        2.09440  -0.04980   0.00000  -0.04746  -0.04747   2.04693
   A21        2.09440   0.00436   0.00000   0.00387   0.00383   2.09823
   A22        2.09440  -0.00192   0.00000  -0.00164  -0.00162   2.09277
   A23        2.09440  -0.00244   0.00000  -0.00223  -0.00221   2.09218
   A24        2.09440  -0.00837   0.00000  -0.00904  -0.00909   2.08531
   A25        2.09440  -0.00694   0.00000  -0.00602  -0.00600   2.08840
   A26        2.09440   0.01530   0.00000   0.01506   0.01508   2.10948
   A27        2.09440   0.00790   0.00000   0.00674   0.00673   2.10113
   A28        2.09440  -0.00447   0.00000  -0.00386  -0.00386   2.09054
   A29        2.09440  -0.00343   0.00000  -0.00288  -0.00288   2.09152
   A30        2.09440   0.01262   0.00000   0.01222   0.01225   2.10664
   A31        2.09440  -0.00306   0.00000  -0.00303  -0.00305   2.09135
   A32        2.09440  -0.00956   0.00000  -0.00919  -0.00920   2.08519
   A33        2.09440   0.11545   0.00000   0.10944   0.10944   2.20383
   A34        2.09440  -0.18966   0.00000  -0.17977  -0.17977   1.91462
    D1        0.00000  -0.00000   0.00000  -0.00000  -0.00000   0.00000
    D2        3.14159   0.00000   0.00000   0.00000   0.00000   3.14159
    D3       -0.00000  -0.00000   0.00000  -0.00000  -0.00000  -0.00000
    D4        3.14159   0.00000   0.00000   0.00000   0.00000   3.14159
    D5        0.00000  -0.00000   0.00000   0.00000   0.00000   0.00000
    D6        3.14159   0.00000   0.00000   0.00000   0.00000   3.14159
    D7       -3.14159  -0.00000   0.00000  -0.00000  -0.00000  -3.14159
    D8        0.00000  -0.00000   0.00000  -0.00000  -0.00000   0.00000
    D9       -0.00000   0.00000   0.00000   0.00000   0.00000  -0.00000
   D10        3.14159  -0.00000   0.00000  -0.00000  -0.00000   3.14159
   D11        3.14159   0.00000   0.00000   0.00000   0.00000   3.14159
   D12        0.00000  -0.00000   0.00000  -0.00000  -0.00000   0.00000
   D13        0.00000  -0.00000   0.00000  -0.00000  -0.00000   0.00000
   D14       -3.14159  -0.00000   0.00000  -0.00000  -0.00000  -3.14159
   D15       -3.14159  -0.00000   0.00000  -0.00000  -0.00000  -3.14159
   D16        0.00000   0.00000   0.00000   0.00000   0.00000   0.00000
   D17       -0.00000   0.00000   0.00000   0.00000   0.00000  -0.00000
   D18        3.14159   0.00000   0.00000   0.00000   0.00000   3.14159
   D19        3.14159   0.00000   0.00000   0.00000   0.00000   3.14159
   D20       -0.00000  -0.00000   0.00000  -0.00000  -0.00000  -0.00000
   D21        0.00001  -0.00000   0.00000  -0.00000  -0.00000   0.00001
   D22       -3.14159  -0.00000   0.00000  -0.00000  -0.00000  -3.14159
   D23        0.00000   0.00000   0.00000   0.00000   0.00000   0.00000
   D24       -3.14159  -0.00000   0.00000  -0.00000  -0.00000  -3.14159
   D25       -0.00000   0.00000   0.00000  -0.00000  -0.00000  -0.00000
   D26        3.14159   0.00000   0.00000   0.00000   0.00000   3.14159
   D27       -0.00000  -0.00000   0.00000  -0.00000  -0.00000  -0.00000
   D28        3.14159  -0.00000   0.00000  -0.00000  -0.00000   3.14159
   D29        3.14159   0.00000   0.00000   0.00000   0.00000   3.14159
   D30       -0.00000   0.00000   0.00000   0.00000   0.00000  -0.00000
   D31       -0.00000   0.00000   0.00000   0.00000   0.00000  -0.00000
   D32       -3.14159  -0.00000   0.00000  -0.00000  -0.00000  -3.14159
   D33        3.14159   0.00000   0.00000   0.00000   0.00000   3.14159
   D34        0.00000  -0.00000   0.00000  -0.00000  -0.00000   0.00000
   D35        0.00000  -0.00000   0.00000  -0.00000  -0.00000   0.00000
   D36       -3.14159  -0.00000   0.00000  -0.00000  -0.00000  -3.14159
   D37        3.14159   0.00000   0.00000   0.00000   0.00000   3.14159
   D38        0.00000  -0.00000   0.00000  -0.00000  -0.00000   0.00000
   D39        0.00000   0.00000   0.00000   0.00000   0.00000   0.00000
   D40       -3.14159  -0.00000   0.00000  -0.00000  -0.00000  -3.14159
   D41        3.14159   0.00000   0.00000   0.00000   0.00000   3.14159
   D42       -0.00000  -0.00000   0.00000  -0.00000  -0.00000  -0.00000
   D43        0.00001  -0.00000   0.00000  -0.00000  -0.00000   0.00001
   D44       -3.14159   0.00000   0.00000   0.00000   0.00000  -3.14159
   D45       -0.00001  -0.00000   0.00000  -0.00000  -0.00000  -0.00001
         Item               Value     Threshold  Converged?
 Maximum Force            0.459188     0.000450     NO 
 RMS     Force            0.053413     0.000300     NO 
 Maximum Displacement     0.393551     0.001800     NO 
 RMS     Displacement     0.110521     0.001200     NO 
 Predicted change in Energy=-1.183408D-01
 GradGradGradGradGradGradGradGradGradGradGradGradGradGradGradGradGradGrad

                          Input orientation:                          
 ---------------------------------------------------------------------
 Center     Atomic      Atomic             Coordinates (Angstroms)
 Number     Number       Type             X           Y           Z
 ---------------------------------------------------------------------
      1          6           0       -0.977976    1.892618    0.866813
      2          6           0        0.349710    1.862069    0.423665
      3          6           0        1.121661    3.029167    0.388534
      4          6           0        0.574566    4.249755    0.798015
      5          6           0       -0.746329    4.300170    1.242655
      6          6           0       -1.506909    3.129367    1.273343
      7          6           0       -1.748828    0.117178    0.787328
      8          6           0       -1.151046   -1.083673    0.364853
      9          6           0       -1.869915   -2.282177    0.376601
     10          6           0       -3.193553   -2.301394    0.809077
     11          6           0       -3.795952   -1.114537    1.230445
     12          6           0       -3.079178    0.084239    1.219438
     13          1           0        0.784394    0.938442    0.106993
     14          1           0       -1.172510    5.233012    1.558256
     15          1           0       -1.400356   -3.191315    0.051157
     16         17           0       -3.890137    1.619065    1.774871
     17         17           0       -3.162415    3.214566    1.834757
     18         17           0       -5.472989   -1.129811    1.780095
     19         17           0       -4.085836   -3.820508    0.817747
     20         17           0        1.533715    5.720226    0.758188
     21         17           0        2.783867    2.950127   -0.173930
     22         17           0        0.516993   -1.148301   -0.196830
 ---------------------------------------------------------------------
                    Distance matrix (angstroms):
                    1          2          3          4          5
     1  C    0.000000
     2  C    1.400022   0.000000
     3  C    2.434948   1.399736   0.000000
     4  C    2.823333   2.427291   1.398865   0.000000
     5  C    2.447697   2.795779   2.415441   1.394636   0.000000
     6  C    1.405199   2.403129   2.775303   2.411170   1.396496
     7  C    1.937194   2.753317   4.108336   4.740935   4.325476
     8  C    3.023281   3.306527   4.699065   5.622350   5.469926
     9  C    4.297066   4.701460   6.095904   6.987074   6.733482
    10  C    4.743612   5.480664   6.871158   7.557539   7.053902
    11  C    4.137173   5.166971   6.485524   6.932824   6.214450
    12  C    2.794572   3.943502   5.197120   5.556884   4.818380
    13  H    2.143298   1.068793   2.136386   3.389149   3.864460
    14  H    3.416748   3.868812   3.389455   2.144070   1.073047
    15  H    5.166245   5.360801   6.720774   7.734833   7.613788
    16  Cl   3.062693   4.456581   5.387805   5.273362   4.165946
    17  Cl   2.730610   4.019384   4.525400   4.013910   2.714146
    18  Cl   5.493114   6.685437   7.919782   8.153351   7.219061
    19  Cl   6.503923   7.219491   8.615121   9.319274   8.790805
    20  Cl   4.579407   4.049586   2.747404   1.756086   2.729445
    21  Cl   4.043876   2.732419   1.756571   2.741299   4.036287
    22  Cl   3.551543   3.078202   4.261398   5.489266   5.775286
                    6          7          8          9         10
     6  C    0.000000
     7  C    3.060722   0.000000
     8  C    4.324546   1.406369   0.000000
     9  C    5.497338   2.437265   1.397613   0.000000
    10  C    5.705565   2.817303   2.419094   1.392631   0.000000
    11  C    4.822062   2.429854   2.783115   2.408744   1.396089
    12  C    3.427498   1.399155   2.410815   2.787941   2.423370
    13  H    3.377957   2.748553   2.810937   4.182156   5.178177
    14  H    2.149027   5.205596   6.428466   7.639420   7.836655
    15  H    6.438643   3.407273   2.145394   1.073747   2.140550
    16  Cl   2.865715   2.795731   4.098240   4.610439   4.097315
    17  Cl   1.750184   3.562182   4.968005   5.831891   5.610597
    18  Cl   5.841848   4.050919   4.547992   4.034833   2.740677
    19  Cl   7.426924   4.579072   4.038363   2.733382   1.761804
    20  Cl   4.027819   6.493850   7.325005   8.704525   9.311071
    21  Cl   4.531830   5.430925   5.660863   7.024085   8.017127
    22  Cl   4.955405   2.775599   1.761255   2.704039   4.013679
                   11         12         13         14         15
    11  C    0.000000
    12  C    1.396764   0.000000
    13  H    5.143582   4.110278   0.000000
    14  H    6.876139   5.500913   4.937506   0.000000
    15  H    3.382692   3.861681   4.672381   8.561107   0.000000
    16  Cl   2.788880   1.822595   5.009622   4.526923   5.684186
    17  Cl   4.416751   3.191315   4.872700   2.847859   6.879054
    18  Cl   1.764880   2.742004   6.799396   7.683023   4.881123
    19  Cl   2.752568   4.052378   6.846307   9.539499   2.862751
    20  Cl   8.679998   7.297663   4.883748   2.863763   9.408732
    21  Cl   7.860520   6.673087   2.850208   4.885177   7.434763
    22  Cl   4.543099   4.056774   2.125631   6.830513   2.812762
                   16         17         18         19         20
    16  Cl   0.000000
    17  Cl   1.754647   0.000000
    18  Cl   3.172029   4.920909   0.000000
    19  Cl   5.526603   7.167934   3.176501   0.000000
    20  Cl   6.875416   5.430559   9.851964  11.072873   0.000000
    21  Cl   7.078975   6.281960   9.414870   9.696275   3.178864
    22  Cl   5.564955   6.058052   6.307809   5.418126   7.008741
                   21         22
    21  Cl   0.000000
    22  Cl   4.683627   0.000000
 Stoichiometry    C12H3Cl7
 Framework group  C1[X(C12H3Cl7)]
 Deg. of freedom    60
 Full point group                 C1      NOp   1
 Largest Abelian subgroup         C1      NOp   1
 Largest concise Abelian subgroup C1      NOp   1
                         Standard orientation:                         
 ---------------------------------------------------------------------
 Center     Atomic      Atomic             Coordinates (Angstroms)
 Number     Number       Type             X           Y           Z
 ---------------------------------------------------------------------
      1          6           0        1.016687   -0.141912    0.000002
      2          6           0        1.883776    0.957279   -0.000001
      3          6           0        3.271789    0.776503   -0.000002
      4          6           0        3.815616   -0.512324   -0.000002
      5          6           0        2.967898   -1.619746    0.000003
      6          6           0        1.584744   -1.427173    0.000005
      7          6           0       -0.824392    0.460706    0.000006
      8          6           0       -1.319524    1.777033    0.000007
      9          6           0       -2.695387    2.022640    0.000005
     10          6           0       -3.596887    0.961170    0.000001
     11          6           0       -3.115288   -0.349222   -0.000000
     12          6           0       -1.740627   -0.596720    0.000002
     13          1           0        1.486127    1.949345   -0.000003
     14          1           0        3.378121   -2.611284    0.000006
     15          1           0       -3.058852    3.032999    0.000006
     16         17           0       -1.139243   -2.317240   -0.000001
     17         17           0        0.538701   -2.830361    0.000009
     18         17           0       -4.250712   -1.700375   -0.000009
     19         17           0       -5.328145    1.287818   -0.000004
     20         17           0        5.555404   -0.751022   -0.000004
     21         17           0        4.326916    2.180870   -0.000007
     22         17           0       -0.249736    3.176165    0.000007
 ---------------------------------------------------------------------
 Rotational constants (GHZ):           0.3690202           0.1159716           0.0882404
 Standard basis: 6-311+G(d,p) (5D, 7F)
 There are   511 symmetry adapted cartesian basis functions of A   symmetry.
 There are   492 symmetry adapted basis functions of A   symmetry.
   492 basis functions,   827 primitive gaussians,   511 cartesian basis functions
    97 alpha electrons       97 beta electrons
       nuclear repulsion energy      2328.8603010415 Hartrees.
 NAtoms=   22 NActive=   22 NUniq=   22 SFac= 1.00D+00 NAtFMM=   60 NAOKFM=F Big=F
 Integral buffers will be    131072 words long.
 Raffenetti 2 integral format.
 Two-electron integral symmetry is turned on.
 One-electron integrals computed using PRISM.
 NBasis=   492 RedAO= T EigKep=  1.14D-06  NBF=   492
 NBsUse=   485 1.00D-06 EigRej=  9.52D-07 NBFU=   485
 Initial guess from the checkpoint file:  "./Gau-116296.chk"
 B after Tr=    -0.000000   -0.000000   -0.000000
         Rot=    0.999930   -0.000000   -0.000000   -0.011825 Ang=  -1.36 deg.
 ExpMin= 4.38D-02 ExpMax= 1.06D+05 ExpMxC= 3.62D+03 IAcc=3 IRadAn=         5 AccDes= 0.00D+00
 Harris functional with IExCor=  402 and IRadAn=       5 diagonalized for initial guess.
 HarFok:  IExCor=  402 AccDes= 0.00D+00 IRadAn=         5 IDoV= 1 UseB2=F ITyADJ=14
 ICtDFT=  3500011 ScaDFX=  1.000000  1.000000  1.000000  1.000000
 FoFCou: FMM=F IPFlag=           0 FMFlag=      100000 FMFlg1=           0
         NFxFlg=           0 DoJE=T BraDBF=F KetDBF=T FulRan=T
         wScrn=  0.000000 ICntrl=       500 IOpCl=  0 I1Cent=   200000004 NGrid=           0
         NMat0=    1 NMatS0=      1 NMatT0=    0 NMatD0=    1 NMtDS0=    0 NMtDT0=    0
 Petite list used in FoFCou.
 Requested convergence on RMS density matrix=1.00D-08 within  32 cycles.
 Requested convergence on MAX density matrix=1.00D-06.
 Requested convergence on             energy=1.00D-06.
 No special actions if energy rises.
 SCF Done:  E(RB3LYP) =  -3680.31847987     A.U. after   19 cycles
            NFock= 19  Conv=0.91D-08     -V/T= 2.0022
 QCSCF skips out because SCF is already converged.
 Calling FoFJK, ICntrl=      2127 FMM=F ISym2X=0 I1Cent= 0 IOpClX= 0 NMat=1 NMatS=1 NMatT=0.
 ***** Axes restored to original set *****
 -------------------------------------------------------------------
 Center     Atomic                   Forces (Hartrees/Bohr)
 Number     Number              X              Y              Z
 -------------------------------------------------------------------
      1        6           0.001860161   -0.065877325   -0.012985389
      2        6          -0.003761344    0.023049415    0.005568219
      3        6           0.001469339   -0.001127307   -0.000695656
      4        6           0.002391024   -0.000428013   -0.000868362
      5        6          -0.005407892   -0.005130745    0.000818139
      6        6           0.005051942   -0.037812061   -0.008765562
      7        6          -0.017348377    0.056253870    0.016280873
      8        6          -0.005864876    0.016400557    0.005012521
      9        6          -0.001653549    0.005966771    0.001665299
     10        6          -0.003028096    0.000929302    0.001172168
     11        6           0.013885420    0.000857373   -0.004413702
     12        6          -0.002156344   -0.117259861   -0.021311610
     13        1           0.002985974    0.002173880   -0.000575513
     14        1          -0.002259490    0.004614593    0.001611119
     15        1           0.003121597   -0.004374686   -0.001850037
     16       17          -0.077020040   -0.279115305   -0.027043577
     17       17           0.094873950    0.424447909    0.048455557
     18       17          -0.001012739   -0.000174301    0.000300873
     19       17           0.004838380   -0.001231628   -0.001825382
     20       17          -0.006920472   -0.003820331    0.001562487
     21       17          -0.005704225   -0.002684118    0.001375175
     22       17           0.001659657   -0.015657990   -0.003487642
 -------------------------------------------------------------------
 Cartesian Forces:  Max     0.424447909 RMS     0.067618100

 GradGradGradGradGradGradGradGradGradGradGradGradGradGradGradGradGradGrad
 Berny optimization.
 Using GEDIIS/GDIIS optimizer.
 FormGI is forming the generalized inverse of G from B-inverse, IUseBI=4.
 Internal  Forces:  Max     0.343093106 RMS     0.045911389
 Search for a local minimum.
 Step number   2 out of a maximum of  112
 All quantities printed in internal units (Hartrees-Bohrs-Radians)
 Mixed Optimization -- RFO/linear search
 Update second derivatives using D2CorX and points    1    2
 DE= -1.28D-01 DEPred=-1.18D-01 R= 1.08D+00
 TightC=F SS=  1.41D+00  RLast= 3.00D-01 DXNew= 5.0454D-01 9.0000D-01
 Trust test= 1.08D+00 RLast= 3.00D-01 DXMaxT set to 5.05D-01
 ITU=  1  0
 Use linear search instead of GDIIS.
     Eigenvalues ---    0.00238   0.00238   0.01660   0.01670   0.02070
     Eigenvalues ---    0.02070   0.02070   0.02070   0.02070   0.02070
     Eigenvalues ---    0.02070   0.02070   0.02070   0.02070   0.02070
     Eigenvalues ---    0.02070   0.02070   0.02070   0.04244   0.04644
     Eigenvalues ---    0.16000   0.16002   0.16006   0.22933   0.23490
     Eigenvalues ---    0.23942   0.25000   0.25000   0.25000   0.25000
     Eigenvalues ---    0.25000   0.25000   0.25000   0.25000   0.25000
     Eigenvalues ---    0.25000   0.28028   0.29533   0.29539   0.29539
     Eigenvalues ---    0.29539   0.29539   0.29539   0.37202   0.37230
     Eigenvalues ---    0.37230   0.41326   0.41541   0.41869   0.42028
     Eigenvalues ---    0.44968   0.45074   0.45389   0.45389   0.45389
     Eigenvalues ---    0.45389   0.45389   0.45389   0.64374   2.27205
 RFO step:  Lambda=-2.45229200D-01 EMin= 2.37799121D-03
 Quartic linear search produced a step of  1.05169.
 Maximum step size (   0.505) exceeded in Quadratic search.
    -- Step size scaled by   0.713
 Iteration  1 RMS(Cart)=  0.30938151 RMS(Int)=  0.04354674
 Iteration  2 RMS(Cart)=  0.31066518 RMS(Int)=  0.01717609
 Iteration  3 RMS(Cart)=  0.23734124 RMS(Int)=  0.00429832
 Iteration  4 RMS(Cart)=  0.00780270 RMS(Int)=  0.00014178
 Iteration  5 RMS(Cart)=  0.00000675 RMS(Int)=  0.00014177
 Iteration  6 RMS(Cart)=  0.00000000 RMS(Int)=  0.00014177
 Variable       Old X    -DE/DX   Delta X   Delta X   Delta X     New X
                                 (Linear)    (Quad)   (Total)
    R1        2.64566  -0.00081  -0.00274  -0.00105  -0.00351   2.64215
    R2        2.65544   0.04482   0.00755   0.04927   0.05699   2.71243
    R3        2.64512  -0.00415  -0.00331  -0.00524  -0.00844   2.63667
    R4        2.01973  -0.00049  -0.00240  -0.00063  -0.00303   2.01670
    R5        2.64347  -0.00483  -0.00504  -0.00659  -0.01181   2.63166
    R6        3.31944  -0.00572  -0.00681  -0.00653  -0.01334   3.30610
    R7        2.63548  -0.01059  -0.01344  -0.01400  -0.02772   2.60776
    R8        3.31852  -0.00701  -0.00778  -0.00812  -0.01589   3.30263
    R9        2.63900  -0.01203  -0.00975  -0.01426  -0.02411   2.61489
   R10        2.02776   0.00538   0.00606   0.00654   0.01259   2.04036
   R11        3.30737  -0.00135  -0.01951   0.00182  -0.01769   3.28968
   R12        2.65765   0.00244   0.00987   0.00395   0.01386   2.67151
   R13        2.64402  -0.01861  -0.00446  -0.02115  -0.02546   2.61856
   R14        2.64111  -0.00071  -0.00753  -0.00194  -0.00958   2.63153
   R15        3.32829   0.00326   0.00249   0.00398   0.00647   3.33476
   R16        2.63169  -0.00459  -0.01743  -0.00741  -0.02499   2.60670
   R17        2.02909   0.00563   0.00745   0.00686   0.01431   2.04339
   R18        2.63823  -0.00478  -0.01055  -0.00654  -0.01713   2.62110
   R19        3.32933  -0.00140   0.00358  -0.00258   0.00100   3.33033
   R20        2.63950  -0.00932  -0.00921  -0.01176  -0.02086   2.61864
   R21        3.33514   0.00106   0.00970  -0.00038   0.00932   3.34446
   R22        3.44421   0.04830   0.12440   0.04260   0.16700   3.61120
   R23        3.31580   0.34309   0.15392   0.29994   0.45386   3.76966
    A1        2.05753  -0.03320  -0.03877  -0.03471  -0.07280   1.98473
    A2        2.10919   0.01476   0.01555   0.01627   0.03217   2.14136
    A3        2.09247  -0.00364  -0.00202  -0.00557  -0.00776   2.08471
    A4        2.08153  -0.01112  -0.01353  -0.01070  -0.02441   2.05712
    A5        2.09960   0.00535   0.00547   0.00480   0.01015   2.10974
    A6        2.08563  -0.00764  -0.00922  -0.00760  -0.01676   2.06887
    A7        2.09796   0.00229   0.00375   0.00280   0.00661   2.10457
    A8        2.08896  -0.00136  -0.00571  -0.00153  -0.00776   2.08120
    A9        2.10643   0.00726   0.01266   0.00725   0.02017   2.12661
   A10        2.08779  -0.00590  -0.00695  -0.00572  -0.01241   2.07538
   A11        2.08580  -0.00122  -0.00904   0.00186  -0.00761   2.07819
   A12        2.09597   0.00075   0.00166   0.00144   0.00332   2.09929
   A13        2.10141   0.00047   0.00738  -0.00330   0.00430   2.10571
   A14        2.12530   0.01567   0.03250   0.01331   0.04585   2.17114
   A15        2.08483   0.00543  -0.01006   0.01101   0.00094   2.08577
   A16        2.07306  -0.02110  -0.02244  -0.02432  -0.04678   2.02627
   A17        2.06783  -0.02173  -0.02793  -0.02532  -0.05297   2.01486
   A18        2.10722   0.00217   0.01349  -0.00162   0.01178   2.11900
   A19        2.12903   0.02520   0.03643   0.02536   0.06183   2.19087
   A20        2.04693  -0.02737  -0.04992  -0.02374  -0.07361   1.97332
   A21        2.09823   0.00753   0.00403   0.01156   0.01530   2.11353
   A22        2.09277  -0.00456  -0.00171  -0.00745  -0.00901   2.08376
   A23        2.09218  -0.00297  -0.00233  -0.00411  -0.00629   2.08589
   A24        2.08531  -0.00625  -0.00955  -0.00435  -0.01412   2.07119
   A25        2.08840  -0.00541  -0.00631  -0.00680  -0.01300   2.07540
   A26        2.10948   0.01167   0.01586   0.01114   0.02712   2.13660
   A27        2.10113  -0.01148   0.00708  -0.01906  -0.01192   2.08921
   A28        2.09054   0.00546  -0.00406   0.00929   0.00520   2.09573
   A29        2.09152   0.00602  -0.00302   0.00977   0.00672   2.09824
   A30        2.10664   0.02976   0.01288   0.03879   0.05193   2.15857
   A31        2.09135  -0.09585  -0.00320  -0.14116  -0.14449   1.94686
   A32        2.08519   0.06609  -0.00968   0.10237   0.09256   2.17775
   A33        2.20383  -0.04296   0.11509  -0.10299   0.01210   2.21593
   A34        1.91462  -0.26647  -0.18907  -0.33309  -0.52216   1.39247
    D1        0.00000  -0.00000  -0.00000  -0.00000  -0.00000   0.00000
    D2        3.14159  -0.00000   0.00000  -0.00000  -0.00000   3.14159
    D3       -0.00000   0.00000  -0.00000   0.00000   0.00000  -0.00000
    D4        3.14159   0.00000   0.00000   0.00000   0.00000   3.14159
    D5        0.00000  -0.00000   0.00000  -0.00000  -0.00000   0.00000
    D6        3.14159   0.00000   0.00000   0.00000   0.00000   3.14159
    D7       -3.14159  -0.00000  -0.00000  -0.00000  -0.00000  -3.14159
    D8        0.00000  -0.00000  -0.00000   0.00000  -0.00000   0.00000
    D9       -0.00000   0.00000   0.00000   0.00000   0.00000  -0.00000
   D10        3.14159   0.00000  -0.00000   0.00000   0.00000   3.14159
   D11        3.14159   0.00000   0.00000  -0.00000   0.00000   3.14159
   D12        0.00000  -0.00000  -0.00000  -0.00000  -0.00000   0.00000
   D13        0.00000  -0.00000  -0.00000   0.00000  -0.00000   0.00000
   D14       -3.14159  -0.00000  -0.00000  -0.00000  -0.00000  -3.14159
   D15       -3.14159  -0.00000  -0.00000   0.00000   0.00000  -3.14159
   D16        0.00000  -0.00000   0.00000  -0.00000  -0.00000   0.00000
   D17       -0.00000   0.00000   0.00000  -0.00000  -0.00000  -0.00000
   D18        3.14159   0.00000   0.00000  -0.00000   0.00000   3.14159
   D19        3.14159   0.00000   0.00000  -0.00000  -0.00000   3.14159
   D20       -0.00000   0.00000  -0.00000   0.00000   0.00000  -0.00000
   D21        0.00001   0.00000  -0.00000   0.00000   0.00000   0.00001
   D22       -3.14159   0.00000  -0.00000   0.00000   0.00000  -3.14158
   D23        0.00000  -0.00000   0.00000  -0.00000  -0.00000   0.00000
   D24       -3.14159  -0.00000  -0.00000  -0.00000  -0.00000  -3.14159
   D25       -0.00000   0.00000  -0.00000   0.00000   0.00000  -0.00000
   D26        3.14159   0.00000   0.00000  -0.00000   0.00000   3.14159
   D27       -0.00000  -0.00000  -0.00000   0.00000  -0.00000  -0.00000
   D28        3.14159  -0.00000  -0.00000   0.00000  -0.00000   3.14159
   D29        3.14159   0.00000   0.00000   0.00000   0.00000   3.14159
   D30       -0.00000   0.00000   0.00000   0.00000   0.00000  -0.00000
   D31       -0.00000   0.00000   0.00000   0.00000   0.00000   0.00000
   D32       -3.14159  -0.00000  -0.00000   0.00000  -0.00000  -3.14159
   D33        3.14159   0.00000   0.00000   0.00000   0.00000  -3.14159
   D34        0.00000  -0.00000  -0.00000  -0.00000  -0.00000   0.00000
   D35        0.00000  -0.00000  -0.00000   0.00000   0.00000   0.00000
   D36       -3.14159  -0.00000  -0.00000   0.00000  -0.00000  -3.14159
   D37        3.14159   0.00000   0.00000   0.00000   0.00000   3.14159
   D38        0.00000  -0.00000  -0.00000   0.00000  -0.00000   0.00000
   D39        0.00000  -0.00000   0.00000  -0.00000  -0.00000   0.00000
   D40       -3.14159  -0.00000  -0.00000   0.00000  -0.00000  -3.14159
   D41        3.14159   0.00000   0.00000  -0.00000  -0.00000   3.14159
   D42       -0.00000  -0.00000  -0.00000   0.00000   0.00000  -0.00000
   D43        0.00001   0.00000  -0.00000   0.00000   0.00000   0.00001
   D44       -3.14159   0.00000   0.00000   0.00000   0.00000  -3.14159
   D45       -0.00001   0.00000  -0.00000   0.00001   0.00000  -0.00001
         Item               Value     Threshold  Converged?
 Maximum Force            0.343093     0.000450     NO 
 RMS     Force            0.045911     0.000300     NO 
 Maximum Displacement     2.973575     0.001800     NO 
 RMS     Displacement     0.847451     0.001200     NO 
 Predicted change in Energy=-3.156080D-01
 GradGradGradGradGradGradGradGradGradGradGradGradGradGradGradGradGradGrad

                          Input orientation:                          
 ---------------------------------------------------------------------
 Center     Atomic      Atomic             Coordinates (Angstroms)
 Number     Number       Type             X           Y           Z
 ---------------------------------------------------------------------
      1          6           0       -1.862755    1.696938    1.121553
      2          6           0       -0.638179    1.233561    0.631086
      3          6           0        0.458070    2.072336    0.427455
      4          6           0        0.378440    3.433787    0.709384
      5          6           0       -0.803569    3.953395    1.196386
      6          6           0       -1.880222    3.106473    1.392032
      7          6           0       -1.621721    0.843484    0.881862
      8          6           0       -0.786721   -0.195821    0.411575
      9          6           0       -1.244455   -1.507510    0.316032
     10          6           0       -2.533175   -1.840513    0.678069
     11          6           0       -3.373490   -0.839684    1.142881
     12          6           0       -2.906571    0.461859    1.233493
     13          1           0       -0.523933    0.198198    0.398997
[...]
                 (A) (A) (A) (A) (A) (A) (A) (A) (A) (A) (A) (A)
                 (A) (A) (A) (A) (A) (A) (A) (A) (A) (A) (A) (A)
                 (A) (A) (A) (A) (A) (A) (A) (A) (A) (A) (A) (A)
                 (A) (A) (A) (A) (A) (A) (A) (A) (A) (A) (A) (A)
                 (A) (A) (A) (A) (A) (A) (A) (A) (A) (A) (A) (A)
                 (A) (A) (A) (A) (A) (A) (A) (A) (A) (A) (A) (A)
                 (A) (A) (A) (A) (A) (A) (A) (A) (A) (A) (A) (A)
                 (A) (A) (A) (A) (A) (A) (A) (A) (A) (A) (A) (A)
                 (A) (A) (A) (A) (A) (A) (A) (A) (A) (A) (A) (A)
                 (A) (A) (A) (A) (A) (A) (A) (A) (A) (A) (A) (A)
                 (A) (A) (A) (A) (A) (A) (A) (A) (A) (A) (A) (A)
                 (A) (A) (A) (A) (A) (A) (A) (A) (A) (A) (A) (A)
                 (A) (A) (A) (A) (A) (A) (A) (A) (A) (A) (A) (A)
                 (A) (A) (A) (A) (A) (A) (A) (A) (A) (A) (A) (A)
                 (A) (A) (A) (A) (A) (A) (A) (A) (A) (A) (A) (A)
                 (A) (A) (A) (A) (A) (A) (A) (A) (A) (A) (A) (A)
                 (A) (A) (A) (A) (A) (A) (A) (A) (A) (A) (A) (A)
                 (A) (A) (A) (A) (A) (A) (A) (A) (A) (A) (A) (A)
                 (A) (A) (A) (A) (A) (A) (A)
 The electronic state is 1-A.
 Alpha  occ. eigenvalues -- -101.58286-101.58217-101.58216-101.58075-101.57785
 Alpha  occ. eigenvalues -- -101.57641-101.57638 -10.28538 -10.28270 -10.28201
 Alpha  occ. eigenvalues --  -10.27862 -10.27533 -10.27167 -10.27148 -10.24377
 Alpha  occ. eigenvalues --  -10.23584 -10.22650 -10.22319 -10.22271  -9.49743
 Alpha  occ. eigenvalues --   -9.49693  -9.49679  -9.49543  -9.49241  -9.49107
 Alpha  occ. eigenvalues --   -9.49096  -7.26237  -7.26185  -7.26184  -7.26022
 Alpha  occ. eigenvalues --   -7.25729  -7.25583  -7.25579  -7.25221  -7.25175
 Alpha  occ. eigenvalues --   -7.25158  -7.25156  -7.25095  -7.25076  -7.25021
 Alpha  occ. eigenvalues --   -7.24970  -7.24720  -7.24660  -7.24584  -7.24572
 Alpha  occ. eigenvalues --   -7.24543  -7.24518  -0.96567  -0.94745  -0.91845
 Alpha  occ. eigenvalues --   -0.91110  -0.90322  -0.88239  -0.87669  -0.85009
 Alpha  occ. eigenvalues --   -0.84100  -0.80356  -0.76762  -0.75716  -0.73958
 Alpha  occ. eigenvalues --   -0.66653  -0.65116  -0.64055  -0.61214  -0.55610
 Alpha  occ. eigenvalues --   -0.55273  -0.53761  -0.52652  -0.50032  -0.49009
 Alpha  occ. eigenvalues --   -0.47408  -0.47213  -0.46730  -0.46228  -0.45094
 Alpha  occ. eigenvalues --   -0.44269  -0.42814  -0.41747  -0.41391  -0.40313
 Alpha  occ. eigenvalues --   -0.39411  -0.39132  -0.36939  -0.36159  -0.35995
 Alpha  occ. eigenvalues --   -0.35034  -0.34926  -0.34436  -0.33899  -0.33526
 Alpha  occ. eigenvalues --   -0.33217  -0.32901  -0.32369  -0.28599  -0.28265
 Alpha  occ. eigenvalues --   -0.27228  -0.26685
 Alpha virt. eigenvalues --   -0.06653  -0.06370  -0.05862  -0.05308  -0.04986
 Alpha virt. eigenvalues --   -0.02965  -0.00788  -0.00498   0.00041   0.00729
 Alpha virt. eigenvalues --    0.01157   0.01671   0.02226   0.02339   0.02528
 Alpha virt. eigenvalues --    0.03592   0.04264   0.04466   0.04980   0.05355
 Alpha virt. eigenvalues --    0.05783   0.06144   0.06737   0.06943   0.07087
 Alpha virt. eigenvalues --    0.08129   0.08179   0.08494   0.08853   0.09207
 Alpha virt. eigenvalues --    0.09346   0.09681   0.10352   0.10472   0.10595
 Alpha virt. eigenvalues --    0.10923   0.11425   0.11565   0.11785   0.12204
 Alpha virt. eigenvalues --    0.12387   0.12662   0.13301   0.13492   0.13916
 Alpha virt. eigenvalues --    0.14226   0.14711   0.15011   0.15193   0.15643
 Alpha virt. eigenvalues --    0.16304   0.16453   0.16884   0.17155   0.17470
 Alpha virt. eigenvalues --    0.17838   0.18489   0.18776   0.19194   0.19486
 Alpha virt. eigenvalues --    0.19715   0.20270   0.20351   0.20876   0.21054
 Alpha virt. eigenvalues --    0.21289   0.21656   0.22172   0.22460   0.22851
 Alpha virt. eigenvalues --    0.23131   0.23538   0.23853   0.24450   0.24618
 Alpha virt. eigenvalues --    0.24877   0.25009   0.25718   0.25995   0.26365
 Alpha virt. eigenvalues --    0.26879   0.26949   0.27463   0.27825   0.28103
 Alpha virt. eigenvalues --    0.28491   0.28808   0.29216   0.29799   0.30262
 Alpha virt. eigenvalues --    0.30438   0.31425   0.31745   0.31920   0.32601
 Alpha virt. eigenvalues --    0.34393   0.36140   0.38881   0.40138   0.41585
 Alpha virt. eigenvalues --    0.43025   0.43387   0.43530   0.44110   0.44636
 Alpha virt. eigenvalues --    0.44779   0.45232   0.45460   0.45694   0.46704
 Alpha virt. eigenvalues --    0.46848   0.47257   0.47650   0.48075   0.48273
 Alpha virt. eigenvalues --    0.49145   0.49817   0.50032   0.50633   0.51524
 Alpha virt. eigenvalues --    0.52420   0.53688   0.54757   0.56250   0.56890
 Alpha virt. eigenvalues --    0.57220   0.57469   0.57966   0.59204   0.59469
 Alpha virt. eigenvalues --    0.60151   0.60756   0.61163   0.62045   0.62358
 Alpha virt. eigenvalues --    0.62880   0.63190   0.63855   0.64384   0.65077
 Alpha virt. eigenvalues --    0.65668   0.66637   0.67496   0.68263   0.68407
 Alpha virt. eigenvalues --    0.69084   0.69257   0.69922   0.70936   0.75774
 Alpha virt. eigenvalues --    0.78615   0.78656   0.79487   0.80491   0.81442
 Alpha virt. eigenvalues --    0.81800   0.82430   0.83130   0.83556   0.83758
 Alpha virt. eigenvalues --    0.83876   0.83959   0.84322   0.84445   0.84646
 Alpha virt. eigenvalues --    0.84854   0.85158   0.85631   0.85846   0.86156
 Alpha virt. eigenvalues --    0.86765   0.88300   0.88781   0.89561   0.89784
 Alpha virt. eigenvalues --    0.89964   0.90300   0.91043   0.91205   0.91706
 Alpha virt. eigenvalues --    0.92387   0.92777   0.93314   0.94224   0.94380
 Alpha virt. eigenvalues --    0.94899   0.95331   0.95648   0.96148   0.96911
 Alpha virt. eigenvalues --    0.97173   0.98104   0.98640   1.00393   1.00811
 Alpha virt. eigenvalues --    1.02205   1.02726   1.03305   1.05008   1.05945
 Alpha virt. eigenvalues --    1.08223   1.10033   1.14146   1.15088   1.16611
 Alpha virt. eigenvalues --    1.18604   1.20676   1.21134   1.22119   1.22433
 Alpha virt. eigenvalues --    1.23341   1.24528   1.25394   1.26286   1.27295
 Alpha virt. eigenvalues --    1.27717   1.28237   1.29079   1.29411   1.31198
 Alpha virt. eigenvalues --    1.32523   1.33177   1.34311   1.35831   1.37384
 Alpha virt. eigenvalues --    1.41834   1.44456   1.47188   1.47447   1.48646
 Alpha virt. eigenvalues --    1.54506   1.55090   1.56556   1.57034   1.58059
 Alpha virt. eigenvalues --    1.58729   1.62812   1.63263   1.67097   1.68182
 Alpha virt. eigenvalues --    1.71961   1.73488   1.74501   1.76435   1.78149
 Alpha virt. eigenvalues --    1.80025   1.80651   1.81914   1.82732   1.83916
 Alpha virt. eigenvalues --    1.84981   1.86468   1.91245   1.92577   1.93702
 Alpha virt. eigenvalues --    1.94294   1.98070   1.99517   2.01175   2.02057
 Alpha virt. eigenvalues --    2.02216   2.06130   2.07486   2.10292   2.12697
 Alpha virt. eigenvalues --    2.14483   2.19537   2.22490   2.22572   2.23443
 Alpha virt. eigenvalues --    2.23815   2.25030   2.25965   2.26124   2.27175
 Alpha virt. eigenvalues --    2.28594   2.29672   2.31062   2.31670   2.34111
 Alpha virt. eigenvalues --    2.34559   2.37979   2.40529   2.42005   2.42204
 Alpha virt. eigenvalues --    2.43744   2.44405   2.46023   2.48315   2.50870
 Alpha virt. eigenvalues --    2.51279   2.51649   2.53784   2.55010   2.56573
 Alpha virt. eigenvalues --    2.59611   2.60254   2.60612   2.62478   2.65362
 Alpha virt. eigenvalues --    2.67120   2.68526   2.69261   2.71126   2.73695
 Alpha virt. eigenvalues --    2.74497   2.74861   2.76299   2.77013   2.81700
 Alpha virt. eigenvalues --    2.82359   2.82736   2.84598   2.88577   2.96191
 Alpha virt. eigenvalues --    2.97328   3.04292   3.06930   3.08372   3.08990
 Alpha virt. eigenvalues --    3.11105   3.12085   3.13865   3.15052   3.19602
 Alpha virt. eigenvalues --    3.22112   3.25029   3.27749   3.35040   3.39401
 Alpha virt. eigenvalues --    3.46651   3.52970   3.56490   3.64250   3.71781
 Alpha virt. eigenvalues --    3.76506   3.80763   3.88978   3.93126   4.01146
 Alpha virt. eigenvalues --    4.11244   4.31313   4.79728   4.80800   9.75112
 Alpha virt. eigenvalues --    9.75987   9.78795   9.79487   9.80611   9.83003
 Alpha virt. eigenvalues --    9.85133  23.31889  23.48369  23.80812  23.82579
 Alpha virt. eigenvalues --   23.83626  23.88391  23.92639  23.93733  24.01597
 Alpha virt. eigenvalues --   24.05421  24.07492  24.12647  25.77071  25.77928
 Alpha virt. eigenvalues --   25.81310  25.85272  25.86180  25.94265  25.96874
 Alpha virt. eigenvalues --   26.07382  26.09020  26.13318  26.16120  26.25920
 Alpha virt. eigenvalues --   26.33671  26.37983  26.49765  26.51433  26.63977
 Alpha virt. eigenvalues --   26.68691  26.76491  26.79961  27.02741 215.74237
 Alpha virt. eigenvalues --  215.75124 215.78312 215.79021 215.80546 215.83455
 Alpha virt. eigenvalues --  215.86275
          Condensed to atoms (all electrons):
               1          2          3          4          5          6
     1  C   45.860109   0.727409 -14.264490  -5.826410  -5.819382  -4.663597
     2  C    0.727409  27.107161  -1.183213 -10.098682   0.979690 -11.181838
     3  C  -14.264490  -1.183213  36.885060  -5.270966 -12.793928  -0.990233
     4  C   -5.826410 -10.098682  -5.270966  32.622254   5.169482  -9.409817
     5  C   -5.819382   0.979690 -12.793928   5.169482  30.534528  -3.515968
     6  C   -4.663597 -11.181838  -0.990233  -9.409817  -3.515968  64.942332
     7  C    9.458352  -3.332672   2.127779   0.233209  -4.363073  -6.455398
     8  C   -5.578467   1.491088   0.563999   0.197122  -1.258931  -9.457169
     9  C   -5.385576   0.645391  -0.162907   0.037165   0.162529  -2.979854
    10  C   -1.577587   0.162169  -0.030465  -0.035514   0.029868  -0.549218
    11  C   -3.853053   0.556113   0.706629   0.052118  -0.661454  -3.531733
    12  C   -1.458688   0.275637   0.189146  -0.047443  -1.196488  -6.415046
    13  H   -0.031177   0.236952   0.009169   0.064984  -0.062378  -0.159143
    14  H    0.124610  -0.042560   0.037378  -0.003509   0.213716   0.008131
    15  H    0.021744  -0.002547  -0.000606   0.000140  -0.000113   0.002441
    16  Cl  -0.753249   0.079316  -0.001634   0.079523   0.042611   0.616545
    17  Cl  -0.519362  -0.413629   0.772021  -0.615157  -1.308862   0.415197
    18  Cl  -0.142776   0.039180   0.028802  -0.001000  -0.018029  -0.151034
    19  Cl  -0.054544   0.019159   0.009818  -0.001535  -0.005791  -0.080967
    20  Cl   0.000224   0.390619   0.117828  -1.041654   0.270676  -0.381099
    21  Cl  -0.585370   0.388353  -1.101284  -0.301902   0.246809   0.745581
    22  Cl   0.349673  -0.000824   0.161798   0.067167  -0.108749   0.476446
               7          8          9         10         11         12
     1  C    9.458352  -5.578467  -5.385576  -1.577587  -3.853053  -1.458688
     2  C   -3.332672   1.491088   0.645391   0.162169   0.556113   0.275637
     3  C    2.127779   0.563999  -0.162907  -0.030465   0.706629   0.189146
     4  C    0.233209   0.197122   0.037165  -0.035514   0.052118  -0.047443
     5  C   -4.363073  -1.258931   0.162529   0.029868  -0.661454  -1.196488
     6  C   -6.455398  -9.457169  -2.979854  -0.549218  -3.531733  -6.415046
     7  C   34.039325 -12.506202 -10.071878   0.220782  -4.453591   2.024734
     8  C  -12.506202  39.772347  -3.454597  -5.495431   7.368596  -5.369785
     9  C  -10.071878  -3.454597  31.812868   4.474053 -13.567601   5.824465
    10  C    0.220782  -5.495431   4.474053  24.505095  -9.554814  -5.144855
    11  C   -4.453591   7.368596 -13.567601  -9.554814  34.610399  -3.026756
    12  C    2.024734  -5.369785   5.824465  -5.144855  -3.026756  24.385364
    13  H    0.135800   0.063075   0.019597   0.009956   0.009146   0.084309
    14  H    0.019084  -0.002601  -0.000495   0.000185  -0.000772   0.002234
    15  H    0.163267   0.028228   0.091879   0.013872   0.051637  -0.016333
    16  Cl  -0.697554   0.123300   1.118082   0.910076  -0.860545  -2.506514
    17  Cl   0.420703   0.055408  -0.248130  -0.014920   0.088263  -0.007157
    18  Cl  -0.942888   0.602801   0.022754  -0.764444   0.078891   0.672232
    19  Cl  -0.003767  -0.490638   0.035600  -0.434398   0.400200  -0.098578
    20  Cl  -0.039756  -0.027304  -0.003079  -0.001896   0.002805  -0.032594
    21  Cl  -0.165623  -0.041022   0.001534   0.004523  -0.006951  -0.048298
    22  Cl   0.125275  -0.281685  -1.657592  -0.778784   0.872541  -0.587267
              13         14         15         16         17         18
     1  C   -0.031177   0.124610   0.021744  -0.753249  -0.519362  -0.142776
     2  C    0.236952  -0.042560  -0.002547   0.079316  -0.413629   0.039180
     3  C    0.009169   0.037378  -0.000606  -0.001634   0.772021   0.028802
     4  C    0.064984  -0.003509   0.000140   0.079523  -0.615157  -0.001000
     5  C   -0.062378   0.213716  -0.000113   0.042611  -1.308862  -0.018029
     6  C   -0.159143   0.008131   0.002441   0.616545   0.415197  -0.151034
     7  C    0.135800   0.019084   0.163267  -0.697554   0.420703  -0.942888
     8  C    0.063075  -0.002601   0.028228   0.123300   0.055408   0.602801
     9  C    0.019597  -0.000495   0.091879   1.118082  -0.248130   0.022754
    10  C    0.009956   0.000185   0.013872   0.910076  -0.014920  -0.764444
    11  C    0.009146  -0.000772   0.051637  -0.860545   0.088263   0.078891
    12  C    0.084309   0.002234  -0.016333  -2.506514  -0.007157   0.672232
    13  H    0.514641   0.000046   0.000005  -0.016449  -0.000659   0.000676
    14  H    0.000046   0.489233   0.000000  -0.001123  -0.006997  -0.000002
    15  H    0.000005   0.000000   0.488481   0.000549  -0.000849  -0.000731
    16  Cl  -0.016449  -0.001123   0.000549  18.745337   0.017737  -0.403508
    17  Cl  -0.000659  -0.006997  -0.000849   0.017737  17.996255   0.001858
    18  Cl   0.000676  -0.000002  -0.000731  -0.403508   0.001858  17.567170
    19  Cl   0.000121  -0.000001  -0.008104  -0.014070   0.008121  -0.188619
    20  Cl  -0.001593  -0.008578  -0.000001   0.009417  -0.043556  -0.000005
    21  Cl  -0.015465   0.000100  -0.000013  -0.003456  -0.001490   0.000105
    22  Cl  -0.013598  -0.000903  -0.007414  -0.077375   0.019263   0.004195
              19         20         21         22
     1  C   -0.054544   0.000224  -0.585370   0.349673
     2  C    0.019159   0.390619   0.388353  -0.000824
     3  C    0.009818   0.117828  -1.101284   0.161798
     4  C   -0.001535  -1.041654  -0.301902   0.067167
     5  C   -0.005791   0.270676   0.246809  -0.108749
     6  C   -0.080967  -0.381099   0.745581   0.476446
     7  C   -0.003767  -0.039756  -0.165623   0.125275
     8  C   -0.490638  -0.027304  -0.041022  -0.281685
     9  C    0.035600  -0.003079   0.001534  -1.657592
    10  C   -0.434398  -0.001896   0.004523  -0.778784
    11  C    0.400200   0.002805  -0.006951   0.872541
    12  C   -0.098578  -0.032594  -0.048298  -0.587267
    13  H    0.000121  -0.001593  -0.015465  -0.013598
    14  H   -0.000001  -0.008578   0.000100  -0.000903
    15  H   -0.008104  -0.000001  -0.000013  -0.007414
    16  Cl  -0.014070   0.009417  -0.003456  -0.077375
    17  Cl   0.008121  -0.043556  -0.001490   0.019263
    18  Cl  -0.188619  -0.000005   0.000105   0.004195
    19  Cl  17.416975   0.000004   0.000101  -0.044982
    20  Cl   0.000004  17.456694  -0.180700   0.008598
    21  Cl   0.000101  -0.180700  17.524885  -0.003211
    22  Cl  -0.044982   0.008598  -0.003211  18.079496
 Mulliken charges:
               1
     1  C   -0.028392
     2  C   -0.842272
     3  C    0.190298
     4  C    0.130425
     5  C   -0.536762
     6  C   -1.284556
     7  C    0.064093
     8  C   -0.302131
     9  C   -0.714209
    10  C    0.051748
    11  C    0.719932
    12  C   -1.502320
    13  H    0.151984
    14  H    0.172823
    15  H    0.174468
    16  Cl   0.592984
    17  Cl   0.385942
    18  Cl   0.594371
    19  Cl   0.535895
    20  Cl   0.504950
    21  Cl   0.542796
    22  Cl   0.397932
 Sum of Mulliken charges =  -0.00000
 Mulliken charges with hydrogens summed into heavy atoms:
               1
     1  C   -0.028392
     2  C   -0.690288
     3  C    0.190298
     4  C    0.130425
     5  C   -0.363939
     6  C   -1.284556
     7  C    0.064093
     8  C   -0.302131
     9  C   -0.539741
    10  C    0.051748
    11  C    0.719932
    12  C   -1.502320
    16  Cl   0.592984
    17  Cl   0.385942
    18  Cl   0.594371
    19  Cl   0.535895
    20  Cl   0.504950
    21  Cl   0.542796
    22  Cl   0.397932
 Electronic spatial extent (au):  <R**2>=           9566.5016
 Charge=             -0.0000 electrons
 Dipole moment (field-independent basis, Debye):
    X=             -0.4814    Y=              0.7979    Z=              0.1277  Tot=              0.9405
 Quadrupole moment (field-independent basis, Debye-Ang):
   XX=           -161.1915   YY=           -156.8984   ZZ=           -155.7780
   XY=             -2.7915   XZ=             -3.8079   YZ=              0.5761
 Traceless Quadrupole moment (field-independent basis, Debye-Ang):
   XX=             -3.2355   YY=              1.0576   ZZ=              2.1780
   XY=             -2.7915   XZ=             -3.8079   YZ=              0.5761
 Octapole moment (field-independent basis, Debye-Ang**2):
  XXX=            -16.0916  YYY=             -5.9991  ZZZ=             -1.6177  XYY=            -11.0532
  XXY=              9.0202  XXZ=            -15.0049  XZZ=              6.7252  YZZ=             -2.9905
  YYZ=              0.5003  XYZ=             -2.1729
 Hexadecapole moment (field-independent basis, Debye-Ang**3):
 XXXX=          -9038.4899 YYYY=          -1894.5646 ZZZZ=          -1474.9466 XXXY=             -3.3317
 XXXZ=            -43.6255 YYYX=             16.4570 YYYZ=             12.8606 ZZZX=             23.0855
 ZZZY=            -11.7697 XXYY=          -1800.5201 XXZZ=          -1738.7892 YYZZ=           -591.1506
 XXYZ=              5.3834 YYXZ=              0.3684 ZZXY=              0.5394
 N-N= 2.341680997571D+03 E-N=-1.340453789145D+04  KE= 3.671258848562D+03
 1\1\GINC-CN332\FOpt\RB3LYP\6-311+G(d,p)\C12H3Cl7\20CY91R06\13-Apr-2022
 \0\\# opt b3lyp/6-311+g(d,p) scf=xqc\\Title Card Required\\0,1\C,-0.98
 34487958,1.6548501978,0.8142352492\C,-0.2543714053,1.9771052495,-0.330
 6645692\C,0.4355398543,3.1802616355,-0.438419057\C,0.401364252,4.09088
 14382,0.6219655328\C,-0.3198688427,3.7859986116,1.7726607756\C,-1.0027
 579741,2.5796165225,1.8628523743\C,-1.7024951721,0.3505974916,0.889248
 9296\C,-1.0769382431,-0.798229486,1.3855728261\C,-1.7302055614,-2.0208
 555322,1.4504652533\C,-3.0441956011,-2.1180898946,1.0115525693\C,-3.71
 46039036,-0.9979974463,0.5049974148\C,-3.0298986734,0.2253956785,0.450
 8989631\H,-0.2223461378,1.2783436018,-1.1566866066\H,-0.3457884447,4.4
 897516862,2.5930086363\H,-1.2242072103,-2.8929080366,1.8395589\Cl,-3.8
 407433945,1.6378216617,-0.1711004253\Cl,-1.8963614239,2.2365800458,3.3
 290813766\Cl,-5.3555386773,-1.1253339191,-0.0443160728\Cl,-3.829611752
 ,-3.6709221176,1.109139916\Cl,1.2452247521,5.6142237903,0.5459693416\C
 l,1.3250014542,3.5126437846,-1.9013486098\Cl,0.5772304028,-0.721446694
 4,1.9533966282\\Version=EM64L-G16RevB.01\State=1-A\HF=-3680.7499683\RM
 SD=3.238e-09\RMSF=2.308e-05\Dipole=0.1320003,-0.3193817,0.1322821\Quad
 rupole=-2.9823786,2.2176499,0.7647287,-2.6431423,0.7512229,1.506733\PG
 =C01 [X(C12H3Cl7)]\\@


 NEVER LISTEN TO CRITICISM
 OR YOU'LL BE DOIN' EVERYBODY ELSE'S THING BUT BUT YOUR OWN.

                                               -- ANDY CAPP
 Job cpu time:       1 days  7 hours 23 minutes 40.9 seconds.
 Elapsed time:       0 days  1 hours 58 minutes 12.6 seconds.
 File lengths (MBytes):  RWF=    167 Int=      0 D2E=      0 Chk=     23 Scr=      1
 Normal termination of Gaussian 16 at Wed Apr 13 12:44:52 2022.
