 Entering Gaussian System, Link 0=g16
 Input=2,2prime,3,4prime,5prime,6-Hexachlorobiphenyl1.gjf
 Output=2,2prime,3,4prime,5prime,6-Hexachlorobiphenyl1.log
 Initial command:
 /home/apps/g16/l1.exe "./Gau-391806.inp" -scrdir="./"
 Entering Link 1 = /home/apps/g16/l1.exe PID=    391807.
  
 Copyright (c) 1988-2017, Gaussian, Inc.  All Rights Reserved.
  
 This is part of the Gaussian(R) 16 program.  It is based on
 the Gaussian(R) 09 system (copyright 2009, Gaussian, Inc.),
 the Gaussian(R) 03 system (copyright 2003, Gaussian, Inc.),
 the Gaussian(R) 98 system (copyright 1998, Gaussian, Inc.),
 the Gaussian(R) 94 system (copyright 1995, Gaussian, Inc.),
 the Gaussian 92(TM) system (copyright 1992, Gaussian, Inc.),
 the Gaussian 90(TM) system (copyright 1990, Gaussian, Inc.),
 the Gaussian 88(TM) system (copyright 1988, Gaussian, Inc.),
 the Gaussian 86(TM) system (copyright 1986, Carnegie Mellon
 University), and the Gaussian 82(TM) system (copyright 1983,
 Carnegie Mellon University). Gaussian is a federally registered
 trademark of Gaussian, Inc.
  
 This software contains proprietary and confidential information,
 including trade secrets, belonging to Gaussian, Inc.
  
 This software is provided under written license and may be
 used, copied, transmitted, or stored only in accord with that
 written license.
  
 The following legend is applicable only to US Government
 contracts under FAR:
  
                    RESTRICTED RIGHTS LEGEND
  
 Use, reproduction and disclosure by the US Government is
 subject to restrictions as set forth in subparagraphs (a)
 and (c) of the Commercial Computer Software - Restricted
 Rights clause in FAR 52.227-19.
  
 Gaussian, Inc.
 340 Quinnipiac St., Bldg. 40, Wallingford CT 06492
  
  
 ---------------------------------------------------------------
 Warning -- This program may not be used in any manner that
 competes with the business of Gaussian, Inc. or will provide
 assistance to any competitor of Gaussian, Inc.  The licensee
 of this program is prohibited from giving any competitor of
 Gaussian, Inc. access to this program.  By using this program,
 the user acknowledges that Gaussian, Inc. is engaged in the
 business of creating and licensing software in the field of
 computational chemistry and represents and warrants to the
 licensee that it is not a competitor of Gaussian, Inc. and that
 it will not use this program in any manner prohibited above.
 ---------------------------------------------------------------
  

 Cite this work as:
 Gaussian 16, Revision B.01,
 M. J. Frisch, G. W. Trucks, H. B. Schlegel, G. E. Scuseria, 
 M. A. Robb, J. R. Cheeseman, G. Scalmani, V. Barone, 
 G. A. Petersson, H. Nakatsuji, X. Li, M. Caricato, A. V. Marenich, 
 J. Bloino, B. G. Janesko, R. Gomperts, B. Mennucci, H. P. Hratchian, 
 J. V. Ortiz, A. F. Izmaylov, J. L. Sonnenberg, D. Williams-Young, 
 F. Ding, F. Lipparini, F. Egidi, J. Goings, B. Peng, A. Petrone, 
 T. Henderson, D. Ranasinghe, V. G. Zakrzewski, J. Gao, N. Rega, 
 G. Zheng, W. Liang, M. Hada, M. Ehara, K. Toyota, R. Fukuda, 
 J. Hasegawa, M. Ishida, T. Nakajima, Y. Honda, O. Kitao, H. Nakai, 
 T. Vreven, K. Throssell, J. A. Montgomery, Jr., J. E. Peralta, 
 F. Ogliaro, M. J. Bearpark, J. J. Heyd, E. N. Brothers, K. N. Kudin, 
 V. N. Staroverov, T. A. Keith, R. Kobayashi, J. Normand, 
 K. Raghavachari, A. P. Rendell, J. C. Burant, S. S. Iyengar, 
 J. Tomasi, M. Cossi, J. M. Millam, M. Klene, C. Adamo, R. Cammi, 
 J. W. Ochterski, R. L. Martin, K. Morokuma, O. Farkas, 
 J. B. Foresman, and D. J. Fox, Gaussian, Inc., Wallingford CT, 2016.
 
 ******************************************
 Gaussian 16:  EM64L-G16RevB.01 20-Dec-2017
                24-Apr-2022 
 ******************************************
 %mem=120GB
 %nprocshared=40
 Will use up to   40 processors via shared memory.
 --------------------------------
 # opt b3lyp/6-311+g(d,p) scf=xqc
 --------------------------------
 1/18=20,19=15,26=3,38=1/1,3;
 2/9=110,12=2,17=6,18=5,40=1/2;
 3/5=4,6=6,7=111,11=2,25=1,30=1,71=1,74=-5/1,2,3;
 4//1;
 5/5=2,8=3,13=1,38=5/2,8;
 6/7=2,8=2,9=2,10=2,28=1/1;
 7//1,2,3,16;
 1/18=20,19=15,26=3/3(2);
 2/9=110/2;
 99//99;
 2/9=110/2;
 3/5=4,6=6,7=111,11=2,25=1,30=1,71=1,74=-5/1,2,3;
 4/5=5,16=3,69=1/1;
 5/5=2,8=3,13=1,38=5/2,8;
 7//1,2,3,16;
 1/18=20,19=15,26=3/3(-5);
 2/9=110/2;
 6/7=2,8=2,9=2,10=2,19=2,28=1/1;
 99/9=1/99;
 -------------------
 Title Card Required
 -------------------
 Symbolic Z-matrix:
 Charge =  0 Multiplicity = 1
 C                     1.07764  -0.29274  -0.00393 
 C                     2.41002  -0.26286  -0.43727 
 C                     3.11791   0.94659  -0.44334 
 C                     2.49343   2.12616  -0.01607 
 C                     1.16104   2.09627   0.41728 
 C                     0.45315   0.88682   0.42335 
 C                     0.04929  -2.0497    0.0049 
 C                     0.67378  -3.22927  -0.42238 
 C                    -0.03412  -4.43872  -0.4163 
 C                    -1.3665   -4.4686    0.01705 
 C                    -1.99098  -3.28904   0.44432 
 C                    -1.28309  -2.07959   0.43825 
 H                     2.88683  -1.16348  -0.7635 
 H                     0.68423   2.9969    0.74351 
 H                     0.44269  -5.33934  -0.74254 
 H                    -1.90699  -5.39205   0.02169 
 Cl                   -2.06738  -0.59819   0.97486 
 Cl                   -1.22017   0.84929   0.96758 
 Cl                   -3.6643   -3.32657   0.98856 
 Cl                    3.38246   3.64509  -0.0237 
 Cl                    4.79123   0.98413  -0.98758 
 Cl                    2.3471   -3.19173  -0.96661 
 

 GradGradGradGradGradGradGradGradGradGradGradGradGradGradGradGradGradGrad
 Berny optimization.
 Initialization pass.
                           ----------------------------
                           !    Initial Parameters    !
                           ! (Angstroms and Degrees)  !
 --------------------------                            --------------------------
 ! Name  Definition              Value          Derivative Info.                !
 --------------------------------------------------------------------------------
 ! R1    R(1,2)                  1.4014         estimate D2E/DX2                !
 ! R2    R(1,6)                  1.4014         estimate D2E/DX2                !
 ! R3    R(2,3)                  1.4014         estimate D2E/DX2                !
 ! R4    R(2,13)                 1.07           estimate D2E/DX2                !
 ! R5    R(3,4)                  1.4014         estimate D2E/DX2                !
 ! R6    R(3,21)                 1.76           estimate D2E/DX2                !
 ! R7    R(4,5)                  1.4014         estimate D2E/DX2                !
 ! R8    R(4,20)                 1.76           estimate D2E/DX2                !
 ! R9    R(5,6)                  1.4014         estimate D2E/DX2                !
 ! R10   R(5,14)                 1.07           estimate D2E/DX2                !
 ! R11   R(6,18)                 1.76           estimate D2E/DX2                !
 ! R12   R(7,8)                  1.4014         estimate D2E/DX2                !
 ! R13   R(7,12)                 1.4014         estimate D2E/DX2                !
 ! R14   R(8,9)                  1.4014         estimate D2E/DX2                !
 ! R15   R(8,22)                 1.76           estimate D2E/DX2                !
 ! R16   R(9,10)                 1.4014         estimate D2E/DX2                !
 ! R17   R(9,15)                 1.07           estimate D2E/DX2                !
 ! R18   R(10,11)                1.4014         estimate D2E/DX2                !
 ! R19   R(10,16)                1.07           estimate D2E/DX2                !
 ! R20   R(11,12)                1.4014         estimate D2E/DX2                !
 ! R21   R(11,19)                1.76           estimate D2E/DX2                !
 ! R22   R(12,17)                1.76           estimate D2E/DX2                !
 ! R23   R(17,18)                1.6772         estimate D2E/DX2                !
 ! A1    A(2,1,6)              120.0            estimate D2E/DX2                !
 ! A2    A(1,2,3)              120.0            estimate D2E/DX2                !
 ! A3    A(1,2,13)             120.0            estimate D2E/DX2                !
 ! A4    A(3,2,13)             120.0            estimate D2E/DX2                !
 ! A5    A(2,3,4)              120.0            estimate D2E/DX2                !
 ! A6    A(2,3,21)             120.0            estimate D2E/DX2                !
 ! A7    A(4,3,21)             120.0            estimate D2E/DX2                !
 ! A8    A(3,4,5)              120.0            estimate D2E/DX2                !
 ! A9    A(3,4,20)             120.0            estimate D2E/DX2                !
 ! A10   A(5,4,20)             120.0            estimate D2E/DX2                !
 ! A11   A(4,5,6)              120.0            estimate D2E/DX2                !
 ! A12   A(4,5,14)             120.0            estimate D2E/DX2                !
 ! A13   A(6,5,14)             120.0            estimate D2E/DX2                !
 ! A14   A(1,6,5)              120.0            estimate D2E/DX2                !
 ! A15   A(1,6,18)             120.0            estimate D2E/DX2                !
 ! A16   A(5,6,18)             120.0            estimate D2E/DX2                !
 ! A17   A(8,7,12)             120.0            estimate D2E/DX2                !
 ! A18   A(7,8,9)              120.0            estimate D2E/DX2                !
 ! A19   A(7,8,22)             120.0            estimate D2E/DX2                !
 ! A20   A(9,8,22)             120.0            estimate D2E/DX2                !
 ! A21   A(8,9,10)             120.0            estimate D2E/DX2                !
 ! A22   A(8,9,15)             120.0            estimate D2E/DX2                !
 ! A23   A(10,9,15)            120.0            estimate D2E/DX2                !
 ! A24   A(9,10,11)            120.0            estimate D2E/DX2                !
 ! A25   A(9,10,16)            120.0            estimate D2E/DX2                !
 ! A26   A(11,10,16)           120.0            estimate D2E/DX2                !
 ! A27   A(10,11,12)           120.0            estimate D2E/DX2                !
 ! A28   A(10,11,19)           120.0            estimate D2E/DX2                !
 ! A29   A(12,11,19)           120.0            estimate D2E/DX2                !
 ! A30   A(7,12,11)            120.0            estimate D2E/DX2                !
 ! A31   A(7,12,17)            120.0            estimate D2E/DX2                !
 ! A32   A(11,12,17)           120.0            estimate D2E/DX2                !
 ! A33   A(12,17,18)           120.0            estimate D2E/DX2                !
 ! A34   A(6,18,17)            120.0            estimate D2E/DX2                !
 ! D1    D(6,1,2,3)              0.0001         estimate D2E/DX2                !
 ! D2    D(6,1,2,13)           180.0            estimate D2E/DX2                !
 ! D3    D(2,1,6,5)             -0.0001         estimate D2E/DX2                !
 ! D4    D(2,1,6,18)           180.0            estimate D2E/DX2                !
 ! D5    D(1,2,3,4)              0.0            estimate D2E/DX2                !
 ! D6    D(1,2,3,21)           180.0            estimate D2E/DX2                !
 ! D7    D(13,2,3,4)          -179.9999         estimate D2E/DX2                !
 ! D8    D(13,2,3,21)            0.0001         estimate D2E/DX2                !
 ! D9    D(2,3,4,5)             -0.0001         estimate D2E/DX2                !
 ! D10   D(2,3,4,20)           180.0            estimate D2E/DX2                !
 ! D11   D(21,3,4,5)           179.9999         estimate D2E/DX2                !
 ! D12   D(21,3,4,20)            0.0            estimate D2E/DX2                !
 ! D13   D(3,4,5,6)              0.0001         estimate D2E/DX2                !
 ! D14   D(3,4,5,14)          -179.9999         estimate D2E/DX2                !
 ! D15   D(20,4,5,6)          -180.0            estimate D2E/DX2                !
 ! D16   D(20,4,5,14)            0.0            estimate D2E/DX2                !
 ! D17   D(4,5,6,1)              0.0            estimate D2E/DX2                !
 ! D18   D(4,5,6,18)           179.9999         estimate D2E/DX2                !
 ! D19   D(14,5,6,1)           180.0            estimate D2E/DX2                !
 ! D20   D(14,5,6,18)           -0.0001         estimate D2E/DX2                !
 ! D21   D(1,6,18,17)            0.0004         estimate D2E/DX2                !
 ! D22   D(5,6,18,17)         -179.9996         estimate D2E/DX2                !
 ! D23   D(12,7,8,9)             0.0001         estimate D2E/DX2                !
 ! D24   D(12,7,8,22)         -179.9998         estimate D2E/DX2                !
 ! D25   D(8,7,12,11)           -0.0001         estimate D2E/DX2                !
 ! D26   D(8,7,12,17)          179.9999         estimate D2E/DX2                !
 ! D27   D(7,8,9,10)             0.0            estimate D2E/DX2                !
 ! D28   D(7,8,9,15)           180.0            estimate D2E/DX2                !
 ! D29   D(22,8,9,10)          179.9998         estimate D2E/DX2                !
 ! D30   D(22,8,9,15)           -0.0002         estimate D2E/DX2                !
 ! D31   D(8,9,10,11)            0.0            estimate D2E/DX2                !
 ! D32   D(8,9,10,16)         -179.9999         estimate D2E/DX2                !
 ! D33   D(15,9,10,11)         180.0            estimate D2E/DX2                !
 ! D34   D(15,9,10,16)           0.0001         estimate D2E/DX2                !
 ! D35   D(9,10,11,12)           0.0            estimate D2E/DX2                !
 ! D36   D(9,10,11,19)        -179.9998         estimate D2E/DX2                !
 ! D37   D(16,10,11,12)        179.9999         estimate D2E/DX2                !
 ! D38   D(16,10,11,19)          0.0001         estimate D2E/DX2                !
 ! D39   D(10,11,12,7)           0.0            estimate D2E/DX2                !
 ! D40   D(10,11,12,17)       -179.9999         estimate D2E/DX2                !
 ! D41   D(19,11,12,7)         179.9999         estimate D2E/DX2                !
 ! D42   D(19,11,12,17)         -0.0001         estimate D2E/DX2                !
 ! D43   D(7,12,17,18)           0.0004         estimate D2E/DX2                !
 ! D44   D(11,12,17,18)       -179.9997         estimate D2E/DX2                !
 ! D45   D(12,17,18,6)          -0.0006         estimate D2E/DX2                !
 --------------------------------------------------------------------------------
 Trust Radius=3.00D-01 FncErr=1.00D-07 GrdErr=1.00D-06 EigMax=2.50D+02 EigMin=1.00D-04
 Number of steps in this run=    112 maximum allowed number of steps=    132.
 GradGradGradGradGradGradGradGradGradGradGradGradGradGradGradGradGradGrad

                          Input orientation:                          
 ---------------------------------------------------------------------
 Center     Atomic      Atomic             Coordinates (Angstroms)
 Number     Number       Type             X           Y           Z
 ---------------------------------------------------------------------
      1          6           0        1.077639   -0.292743   -0.003925
      2          6           0        2.410020   -0.262858   -0.437272
      3          6           0        3.117913    0.946593   -0.443344
      4          6           0        2.493426    2.126159   -0.016069
      5          6           0        1.161044    2.096273    0.417275
      6          6           0        0.453151    0.886822    0.423348
      7          6           0        0.049289   -2.049701    0.004897
      8          6           0        0.673776   -3.229266   -0.422378
      9          6           0       -0.034117   -4.438718   -0.416303
     10          6           0       -1.366497   -4.468604    0.017046
     11          6           0       -1.990984   -3.289039    0.444322
     12          6           0       -1.283091   -2.079588    0.438247
     13          1           0        2.886830   -1.163482   -0.763504
     14          1           0        0.684233    2.996898    0.743507
     15          1           0        0.442693   -5.339342   -0.742537
     16          1           0       -1.906988   -5.392047    0.021686
     17         17           0       -2.067376   -0.598188    0.974859
     18         17           0       -1.220170    0.849289    0.967581
     19         17           0       -3.664301   -3.326574    0.988564
     20         17           0        3.382460    3.645092   -0.023695
     21         17           0        4.791234    0.984127   -0.987578
     22         17           0        2.347096   -3.191733   -0.966612
 ---------------------------------------------------------------------
                    Distance matrix (angstroms):
                    1          2          3          4          5
     1  C    0.000000
     2  C    1.401400   0.000000
     3  C    2.427296   1.401400   0.000000
     4  C    2.802800   2.427296   1.401400   0.000000
     5  C    2.427296   2.802800   2.427296   1.401400   0.000000
     6  C    1.401400   2.427296   2.802800   2.427296   1.401400
     7  C    2.035800   2.993555   4.312210   4.838600   4.312210
     8  C    2.993555   3.437200   4.838600   5.670695   5.413300
     9  C    4.312210   4.838600   6.240000   7.046010   6.695474
    10  C    4.838600   5.670695   7.046010   7.641400   7.046010
    11  C    4.312210   5.413300   6.695474   7.046010   6.240000
    12  C    2.993555   4.207863   5.413300   5.670695   4.838600
    13  H    2.146700   1.070000   2.146700   3.396345   3.872800
    14  H    3.396345   3.872800   3.396345   2.146700   1.070000
    15  H    5.139733   5.452912   6.838077   7.776050   7.559733
    16  H    5.908600   6.719806   8.102114   8.711400   8.102114
    17  Cl   3.307934   4.706764   5.593288   5.404157   4.241900
    18  Cl   2.743718   4.048303   4.562800   4.048303   2.743718
    19  Cl   5.716219   6.951025   8.143019   8.286084   7.281319
    20  Cl   4.562800   4.048303   2.743718   1.760000   2.743718
    21  Cl   4.048303   2.743718   1.760000   2.743718   4.048303
    22  Cl   3.307934   2.976990   4.241900   5.404157   5.593288
                    6          7          8          9         10
     6  C    0.000000
     7  C    2.993555   0.000000
     8  C    4.207863   1.401400   0.000000
     9  C    5.413300   2.427296   1.401400   0.000000
    10  C    5.670695   2.802800   2.427296   1.401400   0.000000
    11  C    4.838600   2.427296   2.802800   2.427296   1.401400
    12  C    3.437200   1.401400   2.427296   2.802800   2.427296
    13  H    3.396345   3.070418   3.046546   4.402232   5.442783
    14  H    2.146700   5.139733   6.334391   7.559733   7.776050
    15  H    6.334391   3.396345   2.146700   1.070000   2.146700
    16  H    6.719806   3.872800   3.396345   2.146700   1.070000
    17  Cl   2.976990   2.743718   4.048303   4.562800   4.048303
    18  Cl   1.760000   3.307934   4.706764   5.593288   5.404157
    19  Cl   5.918242   4.048303   4.562800   4.048303   2.743718
    20  Cl   4.048303   6.598600   7.399508   8.784937   9.401400
    21  Cl   4.562800   5.716219   5.918242   7.281319   8.286084
    22  Cl   4.706764   2.743718   1.760000   2.743718   4.048303
                   11         12         13         14         15
    11  C    0.000000
    12  C    1.401400   0.000000
    13  H    5.456181   4.435279   0.000000
    14  H    6.838077   5.452912   4.942800   0.000000
    15  H    3.396345   3.872800   4.838600   8.471101   0.000000
    16  H    2.146700   3.396345   6.440340   8.809645   2.471400
    17  Cl   2.743718   1.760000   5.280684   4.533157   5.632800
    18  Cl   4.241900   2.976990   4.890332   2.879094   6.632403
    19  Cl   1.760000   2.743718   7.118008   7.678288   4.890332
    20  Cl   8.784937   7.399508   4.890332   2.879094   9.480455
    21  Cl   8.143019   6.951025   2.879094   4.890332   7.678288
    22  Cl   4.562800   4.048303   2.108641   6.632403   2.879094
                   16         17         18         19         20
    16  H    0.000000
    17  Cl   4.890332   0.000000
    18  Cl   6.349860   1.677200   0.000000
    19  Cl   2.879094   3.161400   4.838600   0.000000
    20  Cl  10.471400   6.978771   5.475705   9.964218   0.000000
    21  Cl   9.302708   7.307216   6.322800   9.694501   3.161400
    22  Cl   4.890332   5.475705   5.726810   6.322800   6.978771
                   21         22
    21  Cl   0.000000
    22  Cl   4.838600   0.000000
 Stoichiometry    C12H4Cl6
 Framework group  C1[X(C12H4Cl6)]
 Deg. of freedom    60
 Full point group                 C1      NOp   1
 Largest Abelian subgroup         C1      NOp   1
 Largest concise Abelian subgroup C1      NOp   1
                         Standard orientation:                         
 ---------------------------------------------------------------------
 Center     Atomic      Atomic             Coordinates (Angstroms)
 Number     Number       Type             X           Y           Z
 ---------------------------------------------------------------------
      1          6           0        0.634587    0.052186    0.000002
      2          6           0        1.681965    0.983272    0.000001
      3          6           0        3.011998    0.541760   -0.000001
      4          6           0        3.294654   -0.830839   -0.000001
      5          6           0        2.247276   -1.761926    0.000003
      6          6           0        0.917242   -1.320413    0.000004
      7          6           0       -1.297539    0.693568    0.000003
      8          6           0       -1.580194    2.066167    0.000004
      9          6           0       -2.910228    2.507679    0.000003
     10          6           0       -3.957605    1.576593    0.000001
     11          6           0       -3.674950    0.203994    0.000000
     12          6           0       -2.344917   -0.237518    0.000001
     13          1           0        1.466152    2.031282   -0.000001
     14          1           0        2.463089   -2.809935    0.000005
     15          1           0       -3.126041    3.555689    0.000003
     16          1           0       -4.973115    1.913698   -0.000001
     17         17           0       -1.989934   -1.961348   -0.000003
     18         17           0       -0.398146   -2.489752    0.000007
     19         17           0       -4.990339   -0.965345   -0.000007
     20         17           0        4.965025   -1.385330   -0.000003
     21         17           0        4.327387    1.711099   -0.000003
     22         17           0       -0.264806    3.235506    0.000001
 ---------------------------------------------------------------------
 Rotational constants (GHZ):           0.4238106           0.1446405           0.1078372
 Standard basis: 6-311+G(d,p) (5D, 7F)
 There are   486 symmetry adapted cartesian basis functions of A   symmetry.
 There are   468 symmetry adapted basis functions of A   symmetry.
   468 basis functions,   782 primitive gaussians,   486 cartesian basis functions
    89 alpha electrons       89 beta electrons
       nuclear repulsion energy      2040.4886994911 Hartrees.
 NAtoms=   22 NActive=   22 NUniq=   22 SFac= 1.00D+00 NAtFMM=   60 NAOKFM=F Big=F
 Integral buffers will be    131072 words long.
 Raffenetti 2 integral format.
 Two-electron integral symmetry is turned on.
 One-electron integrals computed using PRISM.
 NBasis=   468 RedAO= T EigKep=  1.09D-06  NBF=   468
 NBsUse=   462 1.00D-06 EigRej=  8.99D-07 NBFU=   462
 ExpMin= 4.38D-02 ExpMax= 1.06D+05 ExpMxC= 3.62D+03 IAcc=3 IRadAn=         5 AccDes= 0.00D+00
 Harris functional with IExCor=  402 and IRadAn=       5 diagonalized for initial guess.
 HarFok:  IExCor=  402 AccDes= 0.00D+00 IRadAn=         5 IDoV= 1 UseB2=F ITyADJ=14
 ICtDFT=  3500011 ScaDFX=  1.000000  1.000000  1.000000  1.000000
 FoFCou: FMM=F IPFlag=           0 FMFlag=      100000 FMFlg1=           0
         NFxFlg=           0 DoJE=T BraDBF=F KetDBF=T FulRan=T
         wScrn=  0.000000 ICntrl=       500 IOpCl=  0 I1Cent=   200000004 NGrid=           0
         NMat0=    1 NMatS0=      1 NMatT0=    0 NMatD0=    1 NMtDS0=    0 NMtDT0=    0
 Petite list used in FoFCou.
 Requested convergence on RMS density matrix=1.00D-08 within  32 cycles.
 Requested convergence on MAX density matrix=1.00D-06.
 Requested convergence on             energy=1.00D-06.
 No special actions if energy rises.
 EnCoef did     4 forward-backward iterations
 EnCoef did     3 forward-backward iterations
 EnCoef did   100 forward-backward iterations
 Restarting incremental Fock formation.
 SCF Done:  E(RB3LYP) =  -3220.57079761     A.U. after   26 cycles
            NFock= 26  Conv=0.85D-08     -V/T= 2.0021
 QCSCF skips out because SCF is already converged.

 **********************************************************************

            Population analysis using the SCF Density.

 **********************************************************************

 Orbital symmetries:
       Occupied  (A) (A) (A) (A) (A) (A) (A) (A) (A) (A) (A) (A)
                 (A) (A) (A) (A) (A) (A) (A) (A) (A) (A) (A) (A)
                 (A) (A) (A) (A) (A) (A) (A) (A) (A) (A) (A) (A)
                 (A) (A) (A) (A) (A) (A) (A) (A) (A) (A) (A) (A)
                 (A) (A) (A) (A) (A) (A) (A) (A) (A) (A) (A) (A)
                 (A) (A) (A) (A) (A) (A) (A) (A) (A) (A) (A) (A)
                 (A) (A) (A) (A) (A) (A) (A) (A) (A) (A) (A) (A)
                 (A) (A) (A) (A) (A)
       Virtual   (A) (A) (A) (A) (A) (A) (A) (A) (A) (A) (A) (A)
                 (A) (A) (A) (A) (A) (A) (A) (A) (A) (A) (A) (A)
                 (A) (A) (A) (A) (A) (A) (A) (A) (A) (A) (A) (A)
                 (A) (A) (A) (A) (A) (A) (A) (A) (A) (A) (A) (A)
                 (A) (A) (A) (A) (A) (A) (A) (A) (A) (A) (A) (A)
                 (A) (A) (A) (A) (A) (A) (A) (A) (A) (A) (A) (A)
                 (A) (A) (A) (A) (A) (A) (A) (A) (A) (A) (A) (A)
                 (A) (A) (A) (A) (A) (A) (A) (A) (A) (A) (A) (A)
                 (A) (A) (A) (A) (A) (A) (A) (A) (A) (A) (A) (A)
                 (A) (A) (A) (A) (A) (A) (A) (A) (A) (A) (A) (A)
                 (A) (A) (A) (A) (A) (A) (A) (A) (A) (A) (A) (A)
                 (A) (A) (A) (A) (A) (A) (A) (A) (A) (A) (A) (A)
                 (A) (A) (A) (A) (A) (A) (A) (A) (A) (A) (A) (A)
                 (A) (A) (A) (A) (A) (A) (A) (A) (A) (A) (A) (A)
                 (A) (A) (A) (A) (A) (A) (A) (A) (A) (A) (A) (A)
                 (A) (A) (A) (A) (A) (A) (A) (A) (A) (A) (A) (A)
                 (A) (A) (A) (A) (A) (A) (A) (A) (A) (A) (A) (A)
                 (A) (A) (A) (A) (A) (A) (A) (A) (A) (A) (A) (A)
                 (A) (A) (A) (A) (A) (A) (A) (A) (A) (A) (A) (A)
                 (A) (A) (A) (A) (A) (A) (A) (A) (A) (A) (A) (A)
                 (A) (A) (A) (A) (A) (A) (A) (A) (A) (A) (A) (A)
                 (A) (A) (A) (A) (A) (A) (A) (A) (A) (A) (A) (A)
                 (A) (A) (A) (A) (A) (A) (A) (A) (A) (A) (A) (A)
                 (A) (A) (A) (A) (A) (A) (A) (A) (A) (A) (A) (A)
                 (A) (A) (A) (A) (A) (A) (A) (A) (A) (A) (A) (A)
                 (A) (A) (A) (A) (A) (A) (A) (A) (A) (A) (A) (A)
                 (A) (A) (A) (A) (A) (A) (A) (A) (A) (A) (A) (A)
                 (A) (A) (A) (A) (A) (A) (A) (A) (A) (A) (A) (A)
                 (A) (A) (A) (A) (A) (A) (A) (A) (A) (A) (A) (A)
                 (A) (A) (A) (A) (A) (A) (A) (A) (A) (A) (A) (A)
                 (A) (A) (A) (A) (A) (A) (A) (A) (A) (A) (A) (A)
                 (A)
 The electronic state is 1-A.
 Alpha  occ. eigenvalues -- -101.63505-101.61838-101.57549-101.57248-101.56796
 Alpha  occ. eigenvalues -- -101.56343 -10.28707 -10.27458 -10.27173 -10.26428
 Alpha  occ. eigenvalues --  -10.26161 -10.23900 -10.23797 -10.23703 -10.23417
 Alpha  occ. eigenvalues --  -10.21327 -10.20982 -10.20862  -9.55945  -9.54521
 Alpha  occ. eigenvalues --   -9.48969  -9.48675  -9.48352  -9.47849  -7.32409
 Alpha  occ. eigenvalues --   -7.31480  -7.31299  -7.31026  -7.29814  -7.29389
 Alpha  occ. eigenvalues --   -7.25466  -7.25164  -7.24791  -7.24445  -7.24391
 Alpha  occ. eigenvalues --   -7.24286  -7.24161  -7.24095  -7.23828  -7.23797
 Alpha  occ. eigenvalues --   -7.23333  -7.23305  -1.11467  -0.93868  -0.92315
 Alpha  occ. eigenvalues --   -0.89701  -0.88401  -0.87311  -0.84708  -0.83405
 Alpha  occ. eigenvalues --   -0.78658  -0.77586  -0.74349  -0.73447  -0.67480
 Alpha  occ. eigenvalues --   -0.65463  -0.62091  -0.60849  -0.58096  -0.54807
 Alpha  occ. eigenvalues --   -0.52349  -0.52066  -0.51596  -0.50862  -0.49727
 Alpha  occ. eigenvalues --   -0.48479  -0.46524  -0.45141  -0.44550  -0.44129
 Alpha  occ. eigenvalues --   -0.42754  -0.42730  -0.41608  -0.40099  -0.38743
 Alpha  occ. eigenvalues --   -0.37356  -0.36285  -0.35583  -0.34787  -0.33973
 Alpha  occ. eigenvalues --   -0.32956  -0.32716  -0.32205  -0.32043  -0.28802
 Alpha  occ. eigenvalues --   -0.28463  -0.26030  -0.25527  -0.12550
 Alpha virt. eigenvalues --   -0.08805  -0.06622  -0.05998  -0.05362  -0.04373
 Alpha virt. eigenvalues --   -0.02823  -0.01928  -0.01273   0.00147   0.00642
 Alpha virt. eigenvalues --    0.01246   0.01616   0.02529   0.02993   0.03542
 Alpha virt. eigenvalues --    0.03747   0.04308   0.04743   0.05454   0.05462
 Alpha virt. eigenvalues --    0.05785   0.06534   0.07097   0.07115   0.07386
 Alpha virt. eigenvalues --    0.07749   0.07803   0.08572   0.09325   0.09466
 Alpha virt. eigenvalues --    0.09698   0.10421   0.10776   0.10891   0.11415
 Alpha virt. eigenvalues --    0.11584   0.12218   0.12489   0.13011   0.13405
 Alpha virt. eigenvalues --    0.13427   0.13827   0.14143   0.14591   0.14832
 Alpha virt. eigenvalues --    0.14880   0.15381   0.15693   0.16176   0.16397
 Alpha virt. eigenvalues --    0.17008   0.17547   0.18338   0.18411   0.18860
 Alpha virt. eigenvalues --    0.19035   0.19299   0.19923   0.20643   0.20831
 Alpha virt. eigenvalues --    0.21141   0.21559   0.21714   0.22406   0.22795
 Alpha virt. eigenvalues --    0.23024   0.23149   0.23420   0.23790   0.24305
 Alpha virt. eigenvalues --    0.24950   0.25276   0.25736   0.26067   0.26587
 Alpha virt. eigenvalues --    0.26780   0.27211   0.28196   0.28449   0.28774
 Alpha virt. eigenvalues --    0.29617   0.30225   0.31169   0.32082   0.32819
 Alpha virt. eigenvalues --    0.33322   0.34140   0.34327   0.35304   0.35571
 Alpha virt. eigenvalues --    0.37731   0.39102   0.40543   0.41065   0.42107
 Alpha virt. eigenvalues --    0.42385   0.43392   0.43579   0.43871   0.44041
 Alpha virt. eigenvalues --    0.44132   0.44685   0.45104   0.46330   0.47327
 Alpha virt. eigenvalues --    0.47709   0.47733   0.48523   0.48526   0.49068
 Alpha virt. eigenvalues --    0.49714   0.51003   0.51939   0.52732   0.53092
 Alpha virt. eigenvalues --    0.53308   0.54053   0.55332   0.56732   0.57128
 Alpha virt. eigenvalues --    0.57519   0.58273   0.58486   0.58843   0.59754
 Alpha virt. eigenvalues --    0.60055   0.61018   0.61591   0.61891   0.63048
 Alpha virt. eigenvalues --    0.63841   0.64147   0.64363   0.65567   0.65616
 Alpha virt. eigenvalues --    0.66723   0.68527   0.68980   0.70032   0.70518
 Alpha virt. eigenvalues --    0.73535   0.75553   0.75919   0.77633   0.78993
 Alpha virt. eigenvalues --    0.80699   0.81269   0.81844   0.82495   0.83120
 Alpha virt. eigenvalues --    0.83278   0.83462   0.84489   0.84565   0.84696
 Alpha virt. eigenvalues --    0.85285   0.85406   0.85651   0.86196   0.86300
 Alpha virt. eigenvalues --    0.86928   0.88211   0.88814   0.88953   0.89751
 Alpha virt. eigenvalues --    0.90082   0.90341   0.91543   0.91646   0.92466
 Alpha virt. eigenvalues --    0.93345   0.93641   0.94530   0.95546   0.95929
 Alpha virt. eigenvalues --    0.96126   0.96550   0.96678   0.97230   0.97257
 Alpha virt. eigenvalues --    0.99712   1.00834   1.01194   1.03025   1.03394
 Alpha virt. eigenvalues --    1.03885   1.05385   1.06079   1.07401   1.09247
 Alpha virt. eigenvalues --    1.10380   1.14010   1.14322   1.19003   1.19947
 Alpha virt. eigenvalues --    1.20783   1.21981   1.22402   1.22468   1.23087
 Alpha virt. eigenvalues --    1.24507   1.25692   1.27413   1.27701   1.28215
 Alpha virt. eigenvalues --    1.28442   1.29973   1.30151   1.31486   1.32882
 Alpha virt. eigenvalues --    1.34401   1.35837   1.45111   1.47037   1.49177
 Alpha virt. eigenvalues --    1.49657   1.50404   1.51628   1.54738   1.55667
 Alpha virt. eigenvalues --    1.56466   1.58626   1.59262   1.65526   1.65526
 Alpha virt. eigenvalues --    1.66547   1.67078   1.69769   1.71640   1.73373
 Alpha virt. eigenvalues --    1.75346   1.75359   1.77499   1.80822   1.84205
 Alpha virt. eigenvalues --    1.85899   1.85990   1.86487   1.87129   1.87196
 Alpha virt. eigenvalues --    1.87935   1.89287   1.92515   1.94917   1.96302
 Alpha virt. eigenvalues --    1.97717   1.98877   2.00707   2.01400   2.06176
 Alpha virt. eigenvalues --    2.07394   2.10527   2.11706   2.13627   2.17740
 Alpha virt. eigenvalues --    2.19349   2.21037   2.23084   2.23502   2.24629
 Alpha virt. eigenvalues --    2.25153   2.26832   2.27186   2.29049   2.29259
 Alpha virt. eigenvalues --    2.29670   2.31322   2.33041   2.37571   2.38996
 Alpha virt. eigenvalues --    2.40765   2.41446   2.42696   2.43022   2.44965
 Alpha virt. eigenvalues --    2.51021   2.51842   2.53607   2.54469   2.58228
 Alpha virt. eigenvalues --    2.58994   2.59745   2.59804   2.61556   2.61889
 Alpha virt. eigenvalues --    2.62470   2.65233   2.65771   2.70632   2.71564
 Alpha virt. eigenvalues --    2.73738   2.73808   2.74979   2.75351   2.75504
 Alpha virt. eigenvalues --    2.77011   2.77315   2.78029   2.81184   2.84120
 Alpha virt. eigenvalues --    2.85870   2.86507   2.88735   2.94587   3.04486
 Alpha virt. eigenvalues --    3.06772   3.07542   3.08991   3.09849   3.15444
 Alpha virt. eigenvalues --    3.16960   3.21018   3.24169   3.28137   3.31565
 Alpha virt. eigenvalues --    3.34930   3.36443   3.41217   3.51676   3.52118
 Alpha virt. eigenvalues --    3.62172   3.68963   3.75802   3.83566   3.84994
 Alpha virt. eigenvalues --    3.91073   4.05858   4.07056   4.14850   4.79872
 Alpha virt. eigenvalues --    4.80769   9.68978   9.74903   9.79332   9.79505
 Alpha virt. eigenvalues --    9.84252   9.97611  23.35054  23.38202  23.78475
 Alpha virt. eigenvalues --   23.82011  23.87274  23.88667  23.94069  23.97174
 Alpha virt. eigenvalues --   23.99116  24.00856  24.07464  24.09702  25.74898
 Alpha virt. eigenvalues --   25.77477  25.81744  25.83767  25.86250  25.97042
 Alpha virt. eigenvalues --   26.09928  26.11689  26.16584  26.23446  26.34762
 Alpha virt. eigenvalues --   26.50388  26.54028  26.69434  26.76346  26.84647
 Alpha virt. eigenvalues --   26.96979  27.00289 215.69804 215.74367 215.79057
 Alpha virt. eigenvalues --  215.79654 215.84817 216.03618
          Condensed to atoms (all electrons):
               1          2          3          4          5          6
     1  C   29.625184   2.988529  -7.241068   5.879101  -4.404156  -8.758419
     2  C    2.988529  14.713561   2.446116  -9.327380  -0.560853  -2.714539
     3  C   -7.241068   2.446116  41.205871 -17.182226 -11.465132   0.544483
     4  C    5.879101  -9.327380 -17.182226  40.430907   0.933505 -10.067158
     5  C   -4.404156  -0.560853 -11.465132   0.933505  19.083094   0.055012
     6  C   -8.758419  -2.714539   0.544483 -10.067158   0.055012  33.741324
     7  C    5.151404  -0.360571  -3.002563  -0.226584   0.585968  -5.577767
     8  C   -2.359502   0.520360  -1.008551  -0.069621   0.700905  -0.490805
     9  C   -3.238924  -0.035429   0.381778   0.256629  -0.077659   0.298673
    10  C   -0.060012   0.232331   0.001018   0.084493   0.083302   0.163544
    11  C   -3.354157  -0.164464  -0.637068   0.041820   0.515803   0.653600
    12  C   -1.986185  -0.404445  -0.130111  -0.756536  -0.211006  -4.922734
    13  H   -0.010988   0.276804  -0.084186   0.051741  -0.029286   0.041166
    14  H   -0.058192  -0.014459   0.128393  -0.097006   0.375941  -0.122438
    15  H    0.001122  -0.001091  -0.001093   0.000367   0.000031  -0.000330
    16  H   -0.005907  -0.000289  -0.000079   0.000101  -0.000051   0.001796
    17  Cl   3.510622  -0.726890  -2.699463   3.641364  -2.019072  11.387298
    18  Cl  -7.719466   0.585606   3.994681  -6.210859   2.523316  -7.850281
    19  Cl  -0.036505  -0.011578   0.015201  -0.017728  -0.021393  -0.143888
    20  Cl   0.087825   0.085757   0.824637  -1.472052   0.009022  -0.246593
    21  Cl  -1.333606   0.044100  -0.605035  -0.168193   0.479609   0.967148
    22  Cl   0.306591  -0.394756  -0.494295   0.055294   0.068496  -0.082556
               7          8          9         10         11         12
     1  C    5.151404  -2.359502  -3.238924  -0.060012  -3.354157  -1.986185
     2  C   -0.360571   0.520360  -0.035429   0.232331  -0.164464  -0.404445
     3  C   -3.002563  -1.008551   0.381778   0.001018  -0.637068  -0.130111
     4  C   -0.226584  -0.069621   0.256629   0.084493   0.041820  -0.756536
     5  C    0.585968   0.700905  -0.077659   0.083302   0.515803  -0.211006
     6  C   -5.577767  -0.490805   0.298673   0.163544   0.653600  -4.922734
     7  C   26.457792  -0.200054  -6.677107  -0.764200  -4.677290   4.998465
     8  C   -0.200054  15.027106  -2.039776  -2.428690   3.336451  -2.461795
     9  C   -6.677107  -2.039776  13.402801   1.692560  -1.644528   1.641868
    10  C   -0.764200  -2.428690   1.692560  14.113206  -2.779826  -4.568055
    11  C   -4.677290   3.336451  -1.644528  -2.779826  19.560731  -8.846158
    12  C    4.998465  -2.461795   1.641868  -4.568055  -8.846158  39.232413
    13  H    0.083866  -0.035504   0.022061   0.001902   0.003525   0.005174
    14  H    0.010655  -0.000318  -0.000078  -0.000077  -0.001063   0.024076
    15  H    0.019918  -0.052406   0.431316  -0.013094  -0.124172   0.083175
    16  H   -0.053924  -0.009081  -0.034585   0.407110  -0.057101   0.070896
    17  Cl -14.238761  -3.302305   3.117112   2.097890   7.727557 -35.770223
    18  Cl   5.249298   1.298760  -1.057803  -0.382784  -3.529650  19.674799
    19  Cl   0.200530   0.235127  -0.158225  -1.213511  -0.697766   2.089572
    20  Cl  -0.026476  -0.016683  -0.002970   0.000346  -0.002102  -0.007293
    21  Cl  -0.246281  -0.017161  -0.001653  -0.000770  -0.011729  -0.047294
    22  Cl   0.019841  -0.376212  -0.107966  -0.146911   0.227053  -0.039999
              13         14         15         16         17         18
     1  C   -0.010988  -0.058192   0.001122  -0.005907   3.510622  -7.719466
     2  C    0.276804  -0.014459  -0.001091  -0.000289  -0.726890   0.585606
     3  C   -0.084186   0.128393  -0.001093  -0.000079  -2.699463   3.994681
     4  C    0.051741  -0.097006   0.000367   0.000101   3.641364  -6.210859
     5  C   -0.029286   0.375941   0.000031  -0.000051  -2.019072   2.523316
     6  C    0.041166  -0.122438  -0.000330   0.001796  11.387298  -7.850281
     7  C    0.083866   0.010655   0.019918  -0.053924 -14.238761   5.249298
     8  C   -0.035504  -0.000318  -0.052406  -0.009081  -3.302305   1.298760
     9  C    0.022061  -0.000078   0.431316  -0.034585   3.117112  -1.057803
    10  C    0.001902  -0.000077  -0.013094   0.407110   2.097890  -0.382784
    11  C    0.003525  -0.001063  -0.124172  -0.057101   7.727557  -3.529650
    12  C    0.005174   0.024076   0.083175   0.070896 -35.770223  19.674799
    13  H    0.542471   0.000059   0.000038  -0.000002  -0.004787   0.007296
    14  H    0.000059   0.500618  -0.000000  -0.000000  -0.070066   0.145865
    15  H    0.000038  -0.000000   0.516936  -0.004656   0.018699  -0.003329
    16  H   -0.000002  -0.000000  -0.004656   0.519337   0.041577  -0.005440
    17  Cl  -0.004787  -0.070066   0.018699   0.041577  95.196596 -50.259431
    18  Cl   0.007296   0.145865  -0.003329  -0.005440 -50.259431  58.782628
    19  Cl   0.000089   0.000057  -0.004045  -0.018479  -1.821124   0.301043
    20  Cl   0.001184  -0.000104  -0.000000  -0.000000  -0.025818   0.016245
    21  Cl  -0.018930   0.000658  -0.000022  -0.000001  -0.030625   0.058022
    22  Cl  -0.018024   0.000028  -0.015962   0.001785  -0.078731   0.037591
              19         20         21         22
     1  C   -0.036505   0.087825  -1.333606   0.306591
     2  C   -0.011578   0.085757   0.044100  -0.394756
     3  C    0.015201   0.824637  -0.605035  -0.494295
     4  C   -0.017728  -1.472052  -0.168193   0.055294
     5  C   -0.021393   0.009022   0.479609   0.068496
     6  C   -0.143888  -0.246593   0.967148  -0.082556
     7  C    0.200530  -0.026476  -0.246281   0.019841
     8  C    0.235127  -0.016683  -0.017161  -0.376212
     9  C   -0.158225  -0.002970  -0.001653  -0.107966
    10  C   -1.213511   0.000346  -0.000770  -0.146911
    11  C   -0.697766  -0.002102  -0.011729   0.227053
    12  C    2.089572  -0.007293  -0.047294  -0.039999
    13  H    0.000089   0.001184  -0.018930  -0.018024
    14  H    0.000057  -0.000104   0.000658   0.000028
    15  H   -0.004045  -0.000000  -0.000022  -0.015962
    16  H   -0.018479  -0.000000  -0.000001   0.001785
    17  Cl  -1.821124  -0.025818  -0.030625  -0.078731
    18  Cl   0.301043   0.016245   0.058022   0.037591
    19  Cl  17.914240  -0.000064   0.000102  -0.000238
    20  Cl  -0.000064  17.450322  -0.219333  -0.000800
    21  Cl   0.000102  -0.219333  17.659967  -0.031154
    22  Cl  -0.000238  -0.000800  -0.031154  17.511224
 Mulliken charges:
               1
     1  C   -0.983288
     2  C   -1.176419
     3  C    1.008690
     4  C    0.220025
     5  C   -0.625397
     6  C   -0.876535
     7  C   -0.726159
     8  C   -0.250245
     9  C   -0.168097
    10  C   -0.519771
    11  C    0.460534
    12  C   -1.668602
    13  H    0.164330
    14  H    0.177453
    15  H    0.148601
    16  H    0.146993
    17  Cl   1.308583
    18  Cl   1.343894
    19  Cl   0.388583
    20  Cl   0.544948
    21  Cl   0.522177
    22  Cl   0.559702
 Sum of Mulliken charges =  -0.00000
 Mulliken charges with hydrogens summed into heavy atoms:
               1
     1  C   -0.983288
     2  C   -1.012088
     3  C    1.008690
     4  C    0.220025
     5  C   -0.447944
     6  C   -0.876535
     7  C   -0.726159
     8  C   -0.250245
     9  C   -0.019497
    10  C   -0.372778
    11  C    0.460534
    12  C   -1.668602
    17  Cl   1.308583
    18  Cl   1.343894
    19  Cl   0.388583
    20  Cl   0.544948
    21  Cl   0.522177
    22  Cl   0.559702
 Electronic spatial extent (au):  <R**2>=           8650.6818
 Charge=             -0.0000 electrons
 Dipole moment (field-independent basis, Debye):
    X=             -1.1054    Y=             -0.9035    Z=              0.0000  Tot=              1.4277
 Quadrupole moment (field-independent basis, Debye-Ang):
   XX=           -153.8776   YY=           -138.9349   ZZ=           -147.5497
   XY=             -5.5005   XZ=             -0.0000   YZ=             -0.0000
 Traceless Quadrupole moment (field-independent basis, Debye-Ang):
   XX=             -7.0902   YY=              7.8525   ZZ=             -0.7623
   XY=             -5.5005   XZ=             -0.0000   YZ=             -0.0000
 Octapole moment (field-independent basis, Debye-Ang**2):
  XXX=             -2.9959  YYY=            -14.3123  ZZZ=             -0.0001  XYY=            -14.0254
  XXY=             25.6843  XXZ=              0.0000  XZZ=              4.6976  YZZ=             -8.5207
  YYZ=             -0.0001  XYZ=              0.0000
 Hexadecapole moment (field-independent basis, Debye-Ang**3):
 XXXX=          -8520.4183 YYYY=          -2897.0155 ZZZZ=           -173.3405 XXXY=            -91.2750
 XXXZ=             -0.0001 YYYX=             40.2212 YYYZ=              0.0002 ZZZX=             -0.0000
 ZZZY=             -0.0000 XXYY=          -1772.8679 XXZZ=          -1465.2406 YYZZ=           -533.3214
 XXYZ=             -0.0002 YYXZ=             -0.0001 ZZXY=             30.6249
 N-N= 2.040488699491D+03 E-N=-1.170923725947D+04  KE= 3.213980566151D+03
 Calling FoFJK, ICntrl=      2127 FMM=F ISym2X=0 I1Cent= 0 IOpClX= 0 NMat=1 NMatS=1 NMatT=0.
 ***** Axes restored to original set *****
 -------------------------------------------------------------------
 Center     Atomic                   Forces (Hartrees/Bohr)
 Number     Number              X              Y              Z
 -------------------------------------------------------------------
      1        6          -0.019076670   -0.030478321    0.000561096
      2        6          -0.007772855    0.021647953    0.006626520
      3        6          -0.001921309   -0.000001214    0.000632805
      4        6           0.001102738   -0.002462082   -0.000825866
      5        6          -0.004842202   -0.002944034    0.001042520
      6        6           0.033917635   -0.017208267   -0.014405971
      7        6          -0.009581472    0.023310971    0.007534530
      8        6          -0.018998106    0.015669864    0.009202102
      9        6          -0.008423100    0.011861833    0.005002758
     10        6           0.005885873    0.009848267   -0.000089556
     11        6           0.029503785    0.007291483   -0.008350939
     12        6           0.027592861   -0.128552186   -0.033233682
     13        1           0.002962296    0.005153524   -0.000008114
     14        1          -0.000234287    0.007610087    0.001506455
     15        1           0.004462163   -0.008083846   -0.002988324
     16        1          -0.004177598   -0.010117099   -0.000523725
     17       17          -0.233133750   -0.384067946    0.004679383
     18       17           0.224280222    0.520480731    0.023856598
     19       17          -0.007864573   -0.006623504    0.001347057
     20       17          -0.007860528   -0.003219022    0.001985106
     21       17          -0.006222671   -0.003981319    0.001302380
     22       17           0.000401549   -0.025135872   -0.004853130
 -------------------------------------------------------------------
 Cartesian Forces:  Max     0.520480731 RMS     0.091250522

 GradGradGradGradGradGradGradGradGradGradGradGradGradGradGradGradGradGrad
 Berny optimization.
 FormGI is forming the generalized inverse of G from B-inverse, IUseBI=4.
 Internal  Forces:  Max     0.535023136 RMS     0.057424253
 Search for a local minimum.
 Step number   1 out of a maximum of  112
 All quantities printed in internal units (Hartrees-Bohrs-Radians)
 Mixed Optimization -- RFO/linear search
 Second derivative matrix not updated -- first step.
 ITU=  0
     Eigenvalues ---    0.00238   0.00238   0.01655   0.01655   0.02070
     Eigenvalues ---    0.02070   0.02070   0.02070   0.02070   0.02070
     Eigenvalues ---    0.02070   0.02070   0.02070   0.02070   0.02070
     Eigenvalues ---    0.02070   0.02070   0.02070   0.04244   0.16000
     Eigenvalues ---    0.16000   0.16000   0.16000   0.22472   0.22929
     Eigenvalues ---    0.23918   0.24476   0.25000   0.25000   0.25000
     Eigenvalues ---    0.25000   0.25000   0.25000   0.25000   0.25000
     Eigenvalues ---    0.25000   0.25000   0.29539   0.29539   0.29539
     Eigenvalues ---    0.29539   0.29539   0.29539   0.37230   0.37230
     Eigenvalues ---    0.37230   0.37230   0.41523   0.41658   0.42024
     Eigenvalues ---    0.42162   0.45389   0.45389   0.45389   0.45389
     Eigenvalues ---    0.45389   0.45389   0.45389   0.45389   1.29765
 RFO step:  Lambda=-2.74650408D-01 EMin= 2.37798998D-03
 Linear search not attempted -- first point.
 Maximum step size (   0.300) exceeded in Quadratic search.
    -- Step size scaled by   0.559
 Iteration  1 RMS(Cart)=  0.20683951 RMS(Int)=  0.00434204
 Iteration  2 RMS(Cart)=  0.00771804 RMS(Int)=  0.00002733
 Iteration  3 RMS(Cart)=  0.00005311 RMS(Int)=  0.00002258
 Iteration  4 RMS(Cart)=  0.00000000 RMS(Int)=  0.00002258
 Variable       Old X    -DE/DX   Delta X   Delta X   Delta X     New X
                                 (Linear)    (Quad)   (Total)
    R1        2.64826  -0.00414   0.00000  -0.00309  -0.00306   2.64520
    R2        2.64826  -0.00185   0.00000  -0.00127  -0.00123   2.64703
    R3        2.64826  -0.00599   0.00000  -0.00466  -0.00467   2.64360
    R4        2.02201  -0.00302   0.00000  -0.00261  -0.00261   2.01940
    R5        2.64826  -0.00876   0.00000  -0.00688  -0.00692   2.64134
    R6        3.32592  -0.00640   0.00000  -0.00628  -0.00628   3.31963
    R7        2.64826  -0.01724   0.00000  -0.01333  -0.01336   2.63490
    R8        3.32592  -0.00676   0.00000  -0.00663  -0.00663   3.31929
    R9        2.64826  -0.00844   0.00000  -0.00642  -0.00641   2.64185
   R10        2.02201   0.00697   0.00000   0.00603   0.00603   2.02803
   R11        3.32592  -0.00952   0.00000  -0.00935  -0.00935   3.31657
   R12        2.64826   0.01314   0.00000   0.01050   0.01052   2.65878
   R13        2.64826  -0.00741   0.00000  -0.00531  -0.00527   2.64299
   R14        2.64826  -0.00797   0.00000  -0.00609  -0.00611   2.64215
   R15        3.32592   0.00135   0.00000   0.00132   0.00132   3.32724
   R16        2.64826  -0.02706   0.00000  -0.02117  -0.02120   2.62706
   R17        2.02201   0.00970   0.00000   0.00839   0.00839   2.03040
   R18        2.64826  -0.01917   0.00000  -0.01513  -0.01515   2.63312
   R19        2.02201   0.01084   0.00000   0.00937   0.00937   2.03138
   R20        2.64826  -0.00545   0.00000  -0.00421  -0.00420   2.64407
   R21        3.32592   0.00803   0.00000   0.00788   0.00788   3.33380
   R22        3.32592   0.10963   0.00000   0.10758   0.10758   3.43350
   R23        3.16945   0.53502   0.00000   0.19035   0.19035   3.35980
    A1        2.09440  -0.03405   0.00000  -0.03597  -0.03587   2.05853
    A2        2.09440   0.01492   0.00000   0.01679   0.01680   2.11120
    A3        2.09440  -0.00228   0.00000  -0.00173  -0.00174   2.09266
    A4        2.09440  -0.01264   0.00000  -0.01506  -0.01507   2.07933
    A5        2.09440   0.00405   0.00000   0.00390   0.00384   2.09824
    A6        2.09440  -0.00852   0.00000  -0.00887  -0.00885   2.08555
    A7        2.09440   0.00447   0.00000   0.00498   0.00500   2.09940
    A8        2.09440  -0.00630   0.00000  -0.00718  -0.00726   2.08714
    A9        2.09440   0.01232   0.00000   0.01337   0.01341   2.10781
   A10        2.09440  -0.00603   0.00000  -0.00619  -0.00615   2.08824
   A11        2.09440  -0.00508   0.00000  -0.00592  -0.00595   2.08844
   A12        2.09440  -0.00091   0.00000  -0.00148  -0.00147   2.09293
   A13        2.09440   0.00599   0.00000   0.00741   0.00742   2.10181
   A14        2.09440   0.02646   0.00000   0.02839   0.02843   2.12283
   A15        2.09440  -0.00732   0.00000  -0.00789  -0.00791   2.08648
   A16        2.09440  -0.01914   0.00000  -0.02050  -0.02052   2.07387
   A17        2.09440  -0.02982   0.00000  -0.03012  -0.03005   2.06435
   A18        2.09440   0.01467   0.00000   0.01624   0.01624   2.11063
   A19        2.09440   0.03518   0.00000   0.03721   0.03721   2.13161
   A20        2.09440  -0.04985   0.00000  -0.05345  -0.05345   2.04094
   A21        2.09440   0.00463   0.00000   0.00468   0.00463   2.09903
   A22        2.09440  -0.00248   0.00000  -0.00256  -0.00253   2.09187
   A23        2.09440  -0.00215   0.00000  -0.00213  -0.00210   2.09229
   A24        2.09440  -0.01046   0.00000  -0.01303  -0.01309   2.08131
   A25        2.09440   0.00360   0.00000   0.00442   0.00445   2.09884
   A26        2.09440   0.00686   0.00000   0.00861   0.00864   2.10303
   A27        2.09440   0.01313   0.00000   0.01337   0.01337   2.10776
   A28        2.09440  -0.01747   0.00000  -0.01831  -0.01831   2.07609
   A29        2.09440   0.00434   0.00000   0.00494   0.00494   2.09934
   A30        2.09440   0.00784   0.00000   0.00886   0.00890   2.10330
   A31        2.09440   0.00910   0.00000   0.00945   0.00943   2.10382
   A32        2.09440  -0.01694   0.00000  -0.01831  -0.01833   2.07606
   A33        2.09440   0.14493   0.00000   0.15453   0.15453   2.24892
   A34        2.09440  -0.07494   0.00000  -0.07990  -0.07990   2.01449
    D1        0.00000   0.00000   0.00000   0.00000   0.00000   0.00000
    D2        3.14159   0.00000   0.00000   0.00000   0.00000   3.14159
    D3       -0.00000  -0.00000   0.00000  -0.00000  -0.00000  -0.00000
    D4        3.14159   0.00000   0.00000   0.00000   0.00000   3.14159
    D5        0.00000  -0.00000   0.00000   0.00000   0.00000   0.00000
    D6        3.14159  -0.00000   0.00000  -0.00000  -0.00000   3.14159
    D7       -3.14159  -0.00000   0.00000  -0.00000  -0.00000  -3.14159
    D8        0.00000  -0.00000   0.00000  -0.00000  -0.00000   0.00000
    D9       -0.00000   0.00000   0.00000   0.00000   0.00000  -0.00000
   D10        3.14159  -0.00000   0.00000  -0.00000  -0.00000   3.14159
   D11        3.14159   0.00000   0.00000   0.00000   0.00000   3.14159
   D12        0.00000   0.00000   0.00000   0.00000   0.00000   0.00000
   D13        0.00000  -0.00000   0.00000  -0.00000  -0.00000   0.00000
   D14       -3.14159  -0.00000   0.00000  -0.00000  -0.00000  -3.14159
   D15       -3.14159  -0.00000   0.00000  -0.00000  -0.00000  -3.14159
   D16        0.00000  -0.00000   0.00000  -0.00000  -0.00000   0.00000
   D17       -0.00000   0.00000   0.00000   0.00000   0.00000  -0.00000
   D18        3.14159  -0.00000   0.00000  -0.00000  -0.00000   3.14159
   D19        3.14159   0.00000   0.00000   0.00000   0.00000   3.14159
   D20       -0.00000  -0.00000   0.00000  -0.00000  -0.00000  -0.00000
   D21        0.00001  -0.00000   0.00000  -0.00000  -0.00000   0.00001
   D22       -3.14159  -0.00000   0.00000  -0.00000  -0.00000  -3.14159
   D23        0.00000   0.00000   0.00000   0.00000   0.00000   0.00000
   D24       -3.14159  -0.00000   0.00000  -0.00000  -0.00000  -3.14159
   D25       -0.00000  -0.00000   0.00000  -0.00000  -0.00000  -0.00000
   D26        3.14159   0.00000   0.00000   0.00000   0.00000   3.14159
   D27       -0.00000  -0.00000   0.00000  -0.00000  -0.00000  -0.00000
   D28        3.14159  -0.00000   0.00000  -0.00000  -0.00000   3.14159
   D29        3.14159   0.00000   0.00000   0.00000   0.00000   3.14159
   D30       -0.00000   0.00000   0.00000   0.00000   0.00000  -0.00000
   D31       -0.00000   0.00000   0.00000   0.00000   0.00000  -0.00000
   D32       -3.14159  -0.00000   0.00000  -0.00000  -0.00000  -3.14159
   D33        3.14159   0.00000   0.00000   0.00000   0.00000   3.14159
   D34        0.00000  -0.00000   0.00000  -0.00000  -0.00000   0.00000
   D35        0.00000  -0.00000   0.00000  -0.00000  -0.00000  -0.00000
   D36       -3.14159  -0.00000   0.00000  -0.00000  -0.00000  -3.14159
   D37        3.14159   0.00000   0.00000   0.00000   0.00000   3.14159
   D38        0.00000  -0.00000   0.00000  -0.00000  -0.00000   0.00000
   D39        0.00000   0.00000   0.00000   0.00000   0.00000   0.00000
   D40       -3.14159  -0.00000   0.00000  -0.00000  -0.00000  -3.14159
   D41        3.14159   0.00000   0.00000   0.00000   0.00000   3.14159
   D42       -0.00000  -0.00000   0.00000  -0.00000  -0.00000  -0.00000
   D43        0.00001  -0.00000   0.00000  -0.00000  -0.00000   0.00001
   D44       -3.14159   0.00000   0.00000   0.00000   0.00000  -3.14159
   D45       -0.00001  -0.00000   0.00000  -0.00000  -0.00000  -0.00001
         Item               Value     Threshold  Converged?
 Maximum Force            0.535023     0.000450     NO 
 RMS     Force            0.057424     0.000300     NO 
 Maximum Displacement     1.037736     0.001800     NO 
 RMS     Displacement     0.210805     0.001200     NO 
 Predicted change in Energy=-1.230235D-01
 GradGradGradGradGradGradGradGradGradGradGradGradGradGradGradGradGradGrad

                          Input orientation:                          
 ---------------------------------------------------------------------
 Center     Atomic      Atomic             Coordinates (Angstroms)
 Number     Number       Type             X           Y           Z
 ---------------------------------------------------------------------
      1          6           0        1.148538   -0.144644    0.000533
      2          6           0        2.480241   -0.060227   -0.422348
      3          6           0        3.160956    1.161905   -0.417085
      4          6           0        2.515904    2.324627    0.013799
      5          6           0        1.189442    2.258887    0.438458
      6          6           0        0.519911    1.031674    0.428557
      7          6           0        0.122202   -2.285359   -0.063387
      8          6           0        0.624958   -3.536856   -0.464067
      9          6           0       -0.175713   -4.682031   -0.415352
     10          6           0       -1.489142   -4.600107    0.032756
     11          6           0       -1.996589   -3.365302    0.431847
     12          6           0       -1.200567   -2.215561    0.385522
     13          1           0        2.990129   -0.938372   -0.755253
     14          1           0        0.689007    3.148343    0.770374
     15          1           0        0.225932   -5.629071   -0.725540
     16          1           0       -2.104577   -5.480664    0.070142
     17         17           0       -1.912540   -0.630910    0.917701
     18         17           0       -1.149298    0.974080    0.967667
     19         17           0       -3.664364   -3.270391    0.999141
     20         17           0        3.356827    3.866687    0.026366
     21         17           0        4.831796    1.223542   -0.955972
     22         17           0        2.274226   -3.740879   -1.045747
 ---------------------------------------------------------------------
                    Distance matrix (angstroms):
                    1          2          3          4          5
     1  C    0.000000
     2  C    1.399781   0.000000
     3  C    2.435427   1.398931   0.000000
     4  C    2.822617   2.424670   1.397739   0.000000
     5  C    2.443443   2.790240   2.412922   1.394331   0.000000
     6  C    1.400751   2.399830   2.776183   2.414071   1.398006
     7  C    2.374892   3.261965   4.608987   5.194972   4.694787
     8  C    3.463682   3.940909   5.339649   6.177460   5.892693
     9  C    4.744942   5.330592   6.729410   7.518126   7.125235
    10  C    5.177794   6.047614   7.417989   7.999543   7.374633
    11  C    4.522222   5.629847   6.914953   7.274108   6.463926
    12  C    3.155187   4.341252   5.574436   5.879084   5.073029
    13  H    2.143052   1.068620   2.134175   3.385777   3.858741
    14  H    3.412856   3.863422   3.386226   2.142071   1.073189
    15  H    5.608683   6.015468   7.404517   8.309748   8.031384
    16  H    6.249857   7.116477   8.490404   9.070534   8.419434
    17  Cl   3.232314   4.627952   5.544025   5.400311   4.266485
    18  Cl   2.732571   4.021877   4.531127   4.020889   2.720385
    19  Cl   5.825079   7.076861   8.260506   8.394691   7.378802
    20  Cl   4.579082   4.048506   2.747883   1.756491   2.729909
    21  Cl   4.043912   2.731782   1.756674   2.741569   4.035235
    22  Cl   3.910854   3.738752   5.021833   6.162094   6.275095
                    6          7          8          9         10
     6  C    0.000000
     7  C    3.376817   0.000000
     8  C    4.656101   1.406966   0.000000
     9  C    5.817430   2.440628   1.398167   0.000000
    10  C    5.992488   2.822008   2.418006   1.390183   0.000000
    11  C    5.066180   2.429158   2.775717   2.401481   1.393385
    12  C    3.675109   1.398609   2.408353   2.788404   2.427711
    13  H    3.374087   3.243156   3.525755   4.914578   5.838933
    14  H    2.150749   5.526440   6.798517   7.966708   8.082505
    15  H    6.766379   3.410222   2.145916   1.074440   2.138986
    16  H    7.030430   3.896966   3.393248   2.143370   1.074960
    17  Cl   2.986681   2.799984   4.097890   4.604908   4.088633
    18  Cl   1.755054   3.647428   5.054344   5.903575   5.662253
    19  Cl   6.028390   4.054299   4.539853   4.020473   2.726470
    20  Cl   4.030776   6.951153   7.906712   9.260374   9.755515
    21  Cl   4.532780   5.940487   6.371880   7.761650   8.651401
    22  Cl   5.294191   2.777549   1.760699   2.699142   4.008040
                   11         12         13         14         15
    11  C    0.000000
    12  C    1.399179   0.000000
    13  H    5.671557   4.527087   0.000000
    14  H    7.053693   5.700005   4.931930   0.000000
    15  H    3.376951   3.862825   5.444661   8.916008   0.000000
    16  H    2.148779   3.402587   6.875298   9.096933   2.467065
    17  Cl   2.778492   1.816931   5.189362   4.590480   5.679342
    18  Cl   4.453677   3.242735   4.874503   2.854069   6.954122
    19  Cl   1.764172   2.749453   7.266257   7.759144   4.865419
    20  Cl   9.006950   7.608717   4.882006   2.861264  10.026829
    21  Cl   8.343284   7.072231   2.847086   4.883424   8.259867
    22  Cl   4.534778   4.055775   2.907052   7.298808   2.804159
                   16         17         18         19         20
    16  H    0.000000
    17  Cl   4.927002   0.000000
    18  Cl   6.586488   1.777928   0.000000
    19  Cl   2.860294   3.168972   4.933769   0.000000
    20  Cl  10.825979   6.984919   5.436763  10.058892   0.000000
    21  Cl   9.701163   7.241251   6.287775   9.808295   3.182254
    22  Cl   4.842105   5.572795   6.164835   6.298395   7.758642
                   21         22
    21  Cl   0.000000
    22  Cl   5.585222   0.000000
 Stoichiometry    C12H4Cl6
 Framework group  C1[X(C12H4Cl6)]
 Deg. of freedom    60
 Full point group                 C1      NOp   1
 Largest Abelian subgroup         C1      NOp   1
 Largest concise Abelian subgroup C1      NOp   1
                         Standard orientation:                         
 ---------------------------------------------------------------------
 Center     Atomic      Atomic             Coordinates (Angstroms)
 Number     Number       Type             X           Y           Z
 ---------------------------------------------------------------------
      1          6           0        0.767653    0.037508    0.000000
      2          6           0        1.775614    1.008797   -0.000003
      3          6           0        3.126251    0.644399   -0.000003
      4          6           0        3.490873   -0.704944   -0.000001
      5          6           0        2.499879   -1.685805    0.000005
      6          6           0        1.153604   -1.309023    0.000005
      7          6           0       -1.479952    0.804570    0.000006
      8          6           0       -2.008790    2.108366    0.000006
      9          6           0       -3.390303    2.323525    0.000003
     10          6           0       -4.267388    1.244947   -0.000001
     11          6           0       -3.753717   -0.050299   -0.000002
     12          6           0       -2.372278   -0.272399    0.000001
     13          1           0        1.516404    2.045503   -0.000007
     14          1           0        2.773834   -2.723439    0.000009
     15          1           0       -3.775398    3.326582    0.000003
     16          1           0       -5.329513    1.410562   -0.000005
     17         17           0       -1.756330   -1.981740   -0.000001
     18         17           0       -0.075648   -2.561682    0.000010
     19         17           0       -4.873886   -1.413210   -0.000011
     20         17           0        5.182272   -1.178687   -0.000001
     21         17           0        4.359529    1.895371   -0.000008
     22         17           0       -0.979114    3.536591    0.000007
 ---------------------------------------------------------------------
 Rotational constants (GHZ):           0.3900211           0.1367160           0.1012310
 Standard basis: 6-311+G(d,p) (5D, 7F)
 There are   486 symmetry adapted cartesian basis functions of A   symmetry.
 There are   468 symmetry adapted basis functions of A   symmetry.
   468 basis functions,   782 primitive gaussians,   486 cartesian basis functions
    89 alpha electrons       89 beta electrons
       nuclear repulsion energy      1991.4348860606 Hartrees.
 NAtoms=   22 NActive=   22 NUniq=   22 SFac= 1.00D+00 NAtFMM=   60 NAOKFM=F Big=F
 Integral buffers will be    131072 words long.
 Raffenetti 2 integral format.
 Two-electron integral symmetry is turned on.
 One-electron integrals computed using PRISM.
 NBasis=   468 RedAO= T EigKep=  1.05D-06  NBF=   468
 NBsUse=   464 1.00D-06 EigRej=  5.60D-07 NBFU=   464
 Initial guess from the checkpoint file:  "./Gau-391807.chk"
 B after Tr=    -0.000000   -0.000000   -0.000000
         Rot=    0.999255    0.000000    0.000000   -0.038592 Ang=   4.42 deg.
 ExpMin= 4.38D-02 ExpMax= 1.06D+05 ExpMxC= 3.62D+03 IAcc=3 IRadAn=         5 AccDes= 0.00D+00
 Harris functional with IExCor=  402 and IRadAn=       5 diagonalized for initial guess.
 HarFok:  IExCor=  402 AccDes= 0.00D+00 IRadAn=         5 IDoV= 1 UseB2=F ITyADJ=14
 ICtDFT=  3500011 ScaDFX=  1.000000  1.000000  1.000000  1.000000
 FoFCou: FMM=F IPFlag=           0 FMFlag=      100000 FMFlg1=           0
         NFxFlg=           0 DoJE=T BraDBF=F KetDBF=T FulRan=T
         wScrn=  0.000000 ICntrl=       500 IOpCl=  0 I1Cent=   200000004 NGrid=           0
         NMat0=    1 NMatS0=      1 NMatT0=    0 NMatD0=    1 NMtDS0=    0 NMtDT0=    0
 Petite list used in FoFCou.
 Requested convergence on RMS density matrix=1.00D-08 within  32 cycles.
 Requested convergence on MAX density matrix=1.00D-06.
 Requested convergence on             energy=1.00D-06.
 No special actions if energy rises.
 SCF Done:  E(RB3LYP) =  -3220.68034517     A.U. after   20 cycles
            NFock= 20  Conv=0.53D-08     -V/T= 2.0023
 QCSCF skips out because SCF is already converged.
 Calling FoFJK, ICntrl=      2127 FMM=F ISym2X=0 I1Cent= 0 IOpClX= 0 NMat=1 NMatS=1 NMatT=0.
 ***** Axes restored to original set *****
 -------------------------------------------------------------------
 Center     Atomic                   Forces (Hartrees/Bohr)
 Number     Number              X              Y              Z
 -------------------------------------------------------------------
      1        6          -0.006351360   -0.020014125   -0.001666490
      2        6          -0.012659730    0.006995904    0.005484766
      3        6           0.002744019   -0.001293626   -0.001146842
      4        6           0.001427184   -0.000531830   -0.000570306
      5        6          -0.007621747    0.000034505    0.002517584
      6        6           0.019777100   -0.028263797   -0.011823517
      7        6          -0.035833447    0.005154417    0.012773919
      8        6          -0.003881653    0.022550388    0.005514185
      9        6          -0.005189996    0.006813331    0.002989392
     10        6           0.003422068    0.003998426   -0.000376453
     11        6           0.012188622    0.005995341   -0.002889702
     12        6           0.025850357   -0.088134760   -0.025069060
     13        1           0.004477792   -0.007945226   -0.002967473
     14        1          -0.000368167    0.005749596    0.001201171
     15        1           0.003287294   -0.004901843   -0.002003637
     16        1          -0.003250249   -0.004865316    0.000157054
     17       17          -0.094637866   -0.275105995   -0.020486019
     18       17           0.108116032    0.381156568    0.035962338
     19       17          -0.003675377   -0.003361267    0.000579563
     20       17          -0.006382926   -0.003979603    0.001355471
     21       17          -0.004869414   -0.002805238    0.001077400
     22       17           0.003431466    0.002754148   -0.000613346
 -------------------------------------------------------------------
 Cartesian Forces:  Max     0.381156568 RMS     0.062418833

 GradGradGradGradGradGradGradGradGradGradGradGradGradGradGradGradGradGrad
 Berny optimization.
 Using GEDIIS/GDIIS optimizer.
 FormGI is forming the generalized inverse of G from B-inverse, IUseBI=4.
 Internal  Forces:  Max     0.340112403 RMS     0.043551097
 Search for a local minimum.
 Step number   2 out of a maximum of  112
 All quantities printed in internal units (Hartrees-Bohrs-Radians)
 Mixed Optimization -- RFO/linear search
 Update second derivatives using D2CorX and points    1    2
 DE= -1.10D-01 DEPred=-1.23D-01 R= 8.90D-01
 TightC=F SS=  1.41D+00  RLast= 3.00D-01 DXNew= 5.0454D-01 9.0000D-01
 Trust test= 8.90D-01 RLast= 3.00D-01 DXMaxT set to 5.05D-01
 ITU=  1  0
 Use linear search instead of GDIIS.
 Linear search step of   0.600 exceeds DXMaxT=   0.505 but not scaled.
 Quartic linear search produced a step of  2.00000.
 Iteration  1 RMS(Cart)=  0.21666362 RMS(Int)=  0.02243599
 Iteration  2 RMS(Cart)=  0.19443140 RMS(Int)=  0.00263686
 Iteration  3 RMS(Cart)=  0.00664977 RMS(Int)=  0.00013354
 Iteration  4 RMS(Cart)=  0.00000341 RMS(Int)=  0.00013353
 Iteration  5 RMS(Cart)=  0.00000000 RMS(Int)=  0.00013353
 Variable       Old X    -DE/DX   Delta X   Delta X   Delta X     New X
                                 (Linear)    (Quad)   (Total)
    R1        2.64520  -0.01265  -0.00612   0.00000  -0.00596   2.63925
    R2        2.64703   0.00663  -0.00245   0.00000  -0.00223   2.64481
    R3        2.64360   0.00015  -0.00933   0.00000  -0.00939   2.63420
    R4        2.01940   0.00959  -0.00521   0.00000  -0.00521   2.01418
    R5        2.64134   0.00668  -0.01384   0.00000  -0.01407   2.62728
    R6        3.31963  -0.00506  -0.01257   0.00000  -0.01257   3.30706
    R7        2.63490  -0.00328  -0.02672   0.00000  -0.02689   2.60802
    R8        3.31929  -0.00654  -0.01326   0.00000  -0.01326   3.30603
    R9        2.64185  -0.00986  -0.01283   0.00000  -0.01276   2.62909
   R10        2.02803   0.00531   0.01205   0.00000   0.01205   2.04009
   R11        3.31657  -0.00905  -0.01869   0.00000  -0.01869   3.29788
   R12        2.65878  -0.02744   0.02104   0.00000   0.02113   2.67991
   R13        2.64299  -0.04658  -0.01055   0.00000  -0.01036   2.63263
   R14        2.64215   0.00165  -0.01222   0.00000  -0.01231   2.62985
   R15        3.32724   0.00310   0.00264   0.00000   0.00264   3.32988
   R16        2.62706   0.00285  -0.04240   0.00000  -0.04259   2.58448
   R17        2.03040   0.00613   0.01678   0.00000   0.01678   2.04718
   R18        2.63312   0.00162  -0.03029   0.00000  -0.03039   2.60272
   R19        2.03138   0.00585   0.01874   0.00000   0.01874   2.05012
   R20        2.64407  -0.00856  -0.00839   0.00000  -0.00831   2.63576
   R21        3.33380   0.00348   0.01577   0.00000   0.01577   3.34957
   R22        3.43350   0.04828   0.21517   0.00000   0.21517   3.64867
   R23        3.35980   0.34011   0.38070   0.00000   0.38070   3.74049
    A1        2.05853  -0.00830  -0.07174   0.00000  -0.07115   1.98738
    A2        2.11120  -0.00180   0.03361   0.00000   0.03368   2.14488
    A3        2.09266   0.00078  -0.00347   0.00000  -0.00351   2.08915
    A4        2.07933   0.00102  -0.03013   0.00000  -0.03017   2.04915
    A5        2.09824   0.00365   0.00769   0.00000   0.00735   2.10559
    A6        2.08555  -0.00626  -0.01769   0.00000  -0.01753   2.06802
    A7        2.09940   0.00261   0.01001   0.00000   0.01017   2.10957
    A8        2.08714   0.00221  -0.01452   0.00000  -0.01496   2.07217
    A9        2.10781   0.00546   0.02682   0.00000   0.02705   2.13485
   A10        2.08824  -0.00767  -0.01231   0.00000  -0.01208   2.07616
   A11        2.08844  -0.01437  -0.01190   0.00000  -0.01205   2.07640
   A12        2.09293   0.00461  -0.00294   0.00000  -0.00286   2.09006
   A13        2.10181   0.00976   0.01484   0.00000   0.01491   2.11673
   A14        2.12283   0.01861   0.05686   0.00000   0.05712   2.17995
   A15        2.08648  -0.04051  -0.01582   0.00000  -0.01595   2.07053
   A16        2.07387   0.02190  -0.04104   0.00000  -0.04117   2.03270
   A17        2.06435   0.01034  -0.06010   0.00000  -0.05967   2.00468
   A18        2.11063  -0.00603   0.03248   0.00000   0.03247   2.14310
   A19        2.13161  -0.00228   0.07443   0.00000   0.07443   2.20604
   A20        2.04094   0.00831  -0.10690   0.00000  -0.10690   1.93404
   A21        2.09903  -0.00167   0.00926   0.00000   0.00895   2.10798
   A22        2.09187  -0.00032  -0.00506   0.00000  -0.00490   2.08696
   A23        2.09229   0.00199  -0.00420   0.00000  -0.00405   2.08825
   A24        2.08131  -0.00386  -0.02618   0.00000  -0.02650   2.05480
   A25        2.09884   0.00180   0.00890   0.00000   0.00906   2.10790
   A26        2.10303   0.00206   0.01728   0.00000   0.01744   2.12048
   A27        2.10776  -0.01267   0.02673   0.00000   0.02669   2.13445
   A28        2.07609   0.00032  -0.03662   0.00000  -0.03660   2.03949
   A29        2.09934   0.01235   0.00988   0.00000   0.00990   2.10924
   A30        2.10330   0.01389   0.01780   0.00000   0.01806   2.12136
   A31        2.10382  -0.07567   0.01886   0.00000   0.01873   2.12255
   A32        2.07606   0.06177  -0.03666   0.00000  -0.03679   2.03927
   A33        2.24892  -0.04804   0.30906   0.00000   0.30906   2.55798
   A34        2.01449  -0.23687  -0.15980   0.00000  -0.15980   1.85469
    D1        0.00000  -0.00000   0.00000   0.00000   0.00000   0.00000
    D2        3.14159   0.00000   0.00000   0.00000   0.00000   3.14159
    D3       -0.00000   0.00000  -0.00000   0.00000  -0.00000  -0.00000
    D4        3.14159  -0.00000   0.00000   0.00000   0.00000   3.14159
    D5        0.00000  -0.00000   0.00000   0.00000   0.00000   0.00000
    D6        3.14159   0.00000  -0.00000   0.00000  -0.00000   3.14159
    D7       -3.14159  -0.00000  -0.00000   0.00000  -0.00000  -3.14159
    D8        0.00000  -0.00000  -0.00000   0.00000  -0.00000   0.00000
    D9       -0.00000   0.00000   0.00000   0.00000   0.00000  -0.00000
   D10        3.14159   0.00000  -0.00000   0.00000  -0.00000   3.14159
   D11        3.14159   0.00000   0.00000   0.00000   0.00000   3.14159
   D12        0.00000  -0.00000   0.00000   0.00000   0.00000   0.00000
   D13        0.00000  -0.00000  -0.00000   0.00000  -0.00000   0.00000
   D14       -3.14159  -0.00000  -0.00000   0.00000  -0.00000  -3.14159
   D15       -3.14159  -0.00000  -0.00000   0.00000  -0.00000  -3.14159
   D16        0.00000   0.00000  -0.00000   0.00000  -0.00000   0.00000
   D17       -0.00000   0.00000   0.00000   0.00000   0.00000   0.00000
   D18        3.14159   0.00000  -0.00000   0.00000  -0.00000   3.14159
   D19        3.14159  -0.00000   0.00000   0.00000   0.00000   3.14159
   D20       -0.00000   0.00000  -0.00000   0.00000  -0.00000  -0.00000
   D21        0.00001   0.00000  -0.00000   0.00000  -0.00000   0.00001
   D22       -3.14159   0.00000  -0.00000   0.00000  -0.00000  -3.14159
   D23        0.00000   0.00000   0.00000   0.00000   0.00000   0.00000
   D24       -3.14159  -0.00000  -0.00000   0.00000  -0.00000  -3.14159
   D25       -0.00000   0.00000  -0.00000   0.00000  -0.00000  -0.00000
   D26        3.14159   0.00000   0.00000   0.00000   0.00000   3.14159
   D27       -0.00000  -0.00000  -0.00000   0.00000  -0.00000  -0.00000
   D28        3.14159  -0.00000  -0.00000   0.00000  -0.00000   3.14159
   D29        3.14159   0.00000   0.00000   0.00000   0.00000   3.14159
   D30       -0.00000   0.00000   0.00000   0.00000   0.00000  -0.00000
   D31       -0.00000   0.00000   0.00000   0.00000   0.00000   0.00000
   D32       -3.14159  -0.00000  -0.00000   0.00000  -0.00000  -3.14159
   D33        3.14159   0.00000   0.00000   0.00000   0.00000  -3.14159
   D34        0.00000  -0.00000  -0.00000   0.00000  -0.00000   0.00000
   D35       -0.00000   0.00000  -0.00000   0.00000  -0.00000  -0.00000
   D36       -3.14159  -0.00000  -0.00000   0.00000  -0.00000  -3.14159
   D37        3.14159   0.00000   0.00000   0.00000   0.00000   3.14159
   D38        0.00000  -0.00000  -0.00000   0.00000  -0.00000   0.00000
   D39        0.00000  -0.00000   0.00000   0.00000   0.00000   0.00000
   D40       -3.14159  -0.00000  -0.00000   0.00000  -0.00000   3.14159
   D41        3.14159   0.00000   0.00000   0.00000   0.00000   3.14159
   D42       -0.00000   0.00000  -0.00000   0.00000  -0.00000  -0.00000
   D43        0.00001   0.00000  -0.00000   0.00000  -0.00000   0.00001
   D44       -3.14159   0.00000   0.00000   0.00000   0.00000  -3.14159
   D45       -0.00001   0.00000  -0.00001   0.00000  -0.00001  -0.00002
         Item               Value     Threshold  Converged?
 Maximum Force            0.340112     0.000450     NO 
 RMS     Force            0.043551     0.000300     NO 
 Maximum Displacement     1.961772     0.001800     NO 
 RMS     Displacement     0.393911     0.001200     NO 
 Predicted change in Energy=-1.277091D-02
 GradGradGradGradGradGradGradGradGradGradGradGradGradGradGradGradGradGrad

                          Input orientation:                          
 ---------------------------------------------------------------------
 Center     Atomic      Atomic             Coordinates (Angstroms)
 Number     Number       Type             X           Y           Z
 ---------------------------------------------------------------------
      1          6           0        1.275289    0.119337    0.008353
      2          6           0        2.599326    0.313530   -0.391382
      3          6           0        3.223647    1.559542   -0.363054
      4          6           0        2.536993    2.686360    0.074790
      5          6           0        1.225298    2.547679    0.480882
      6          6           0        0.636338    1.287954    0.438330
      7          6           0        0.277429   -2.755756   -0.202880
      8          6           0        0.522432   -4.111719   -0.538261
      9          6           0       -0.441861   -5.106564   -0.407401
     10          6           0       -1.692790   -4.811543    0.060143
     11          6           0       -1.959920   -3.502300    0.394039
     12          6           0       -1.006329   -2.492053    0.269598
     13          1           0        3.173795   -0.515366   -0.736312
     14          1           0        0.676492    3.411725    0.823959
     15          1           0       -0.198130   -6.126502   -0.679255
     16          1           0       -2.444463   -5.587138    0.162130
     17         17           0       -1.550019   -0.711958    0.783042
     18         17           0       -1.023960    1.187407    0.966433
     19         17           0       -3.588078   -3.146057    0.997369
     20         17           0        3.277243    4.270597    0.128446
     21         17           0        4.888529    1.671195   -0.890581
     22         17           0        2.030019   -4.779004   -1.160275
 ---------------------------------------------------------------------
                    Distance matrix (angstroms):
                    1          2          3          4          5
     1  C    0.000000
     2  C    1.396629   0.000000
     3  C    2.451170   1.393961   0.000000
     4  C    2.861104   2.418992   1.390295   0.000000
     5  C    2.474394   2.764095   2.383703   1.380104   0.000000
     6  C    1.399573   2.343341   2.722159   2.387507   1.391256
     7  C    3.050656   3.853213   5.227586   5.899098   5.430691
     8  C    4.332138   4.890592   6.284144   7.116752   6.773497
     9  C    5.516475   6.215022   7.607555   8.356778   7.883902
    10  C    5.755498   6.700187   8.058609   8.608707   7.927825
    11  C    4.871507   5.997013   7.284559   7.656609   6.837792
    12  C    3.477555   4.616160   5.891381   6.277662   5.515768
    13  H    2.135813   1.065861   2.108803   3.363696   3.828896
    14  H    3.444355   3.843586   3.365647   2.132808   1.079567
    15  H    6.454012   7.027278   8.419253   9.258294   8.866424
[...]
                 (A) (A) (A) (A) (A) (A) (A) (A) (A) (A) (A) (A)
                 (A) (A) (A) (A) (A) (A) (A) (A) (A) (A) (A) (A)
                 (A) (A) (A) (A) (A) (A) (A) (A) (A) (A) (A) (A)
                 (A) (A) (A) (A) (A) (A) (A) (A) (A) (A) (A) (A)
                 (A) (A) (A) (A) (A) (A) (A) (A) (A) (A) (A) (A)
                 (A) (A) (A) (A) (A) (A) (A) (A) (A) (A) (A) (A)
                 (A) (A) (A) (A) (A) (A) (A) (A) (A) (A) (A) (A)
                 (A) (A) (A) (A) (A) (A) (A) (A) (A) (A) (A) (A)
                 (A) (A) (A) (A) (A) (A) (A) (A) (A) (A) (A) (A)
                 (A) (A) (A) (A) (A) (A) (A) (A) (A) (A) (A) (A)
                 (A) (A) (A) (A) (A) (A) (A) (A) (A) (A) (A) (A)
                 (A) (A) (A) (A) (A) (A) (A) (A) (A) (A) (A) (A)
                 (A) (A) (A) (A) (A) (A) (A) (A) (A) (A) (A) (A)
                 (A) (A) (A) (A) (A) (A) (A) (A) (A) (A) (A) (A)
                 (A) (A) (A) (A) (A) (A) (A) (A) (A) (A) (A) (A)
                 (A) (A) (A) (A) (A) (A) (A) (A) (A) (A) (A) (A)
                 (A) (A) (A) (A) (A) (A) (A) (A) (A) (A) (A) (A)
                 (A) (A) (A) (A) (A) (A) (A) (A) (A) (A) (A) (A)
                 (A) (A) (A) (A) (A) (A) (A) (A) (A) (A) (A) (A)
                 (A) (A) (A) (A) (A) (A) (A) (A) (A) (A) (A) (A)
                 (A) (A) (A) (A) (A) (A) (A) (A) (A) (A) (A) (A)
                 (A) (A) (A) (A) (A) (A) (A) (A) (A) (A) (A) (A)
                 (A) (A) (A)
 The electronic state is 1-A.
 Alpha  occ. eigenvalues -- -101.57695-101.57584-101.57557-101.57495-101.57408
 Alpha  occ. eigenvalues -- -101.57346 -10.27723 -10.27262 -10.27110 -10.27066
 Alpha  occ. eigenvalues --  -10.26899 -10.26852 -10.23954 -10.23251 -10.22104
 Alpha  occ. eigenvalues --  -10.22018 -10.21999 -10.21784  -9.49169  -9.49042
 Alpha  occ. eigenvalues --   -9.49013  -9.48964  -9.48864  -9.48816  -7.25656
 Alpha  occ. eigenvalues --   -7.25528  -7.25501  -7.25436  -7.25351  -7.25287
 Alpha  occ. eigenvalues --   -7.24653  -7.24578  -7.24520  -7.24493  -7.24463
 Alpha  occ. eigenvalues --   -7.24445  -7.24433  -7.24395  -7.24341  -7.24293
 Alpha  occ. eigenvalues --   -7.24287  -7.24251  -0.95418  -0.94128  -0.90967
 Alpha  occ. eigenvalues --   -0.90241  -0.88315  -0.87884  -0.84736  -0.84389
 Alpha  occ. eigenvalues --   -0.80488  -0.76752  -0.74930  -0.74023  -0.67003
 Alpha  occ. eigenvalues --   -0.65077  -0.62993  -0.60979  -0.55163  -0.53499
 Alpha  occ. eigenvalues --   -0.53455  -0.52795  -0.49828  -0.48427  -0.46818
 Alpha  occ. eigenvalues --   -0.46536  -0.46428  -0.44799  -0.44690  -0.43268
 Alpha  occ. eigenvalues --   -0.41598  -0.41266  -0.40645  -0.39730  -0.38879
 Alpha  occ. eigenvalues --   -0.36830  -0.36656  -0.35091  -0.34739  -0.33997
 Alpha  occ. eigenvalues --   -0.33626  -0.33571  -0.33288  -0.32690  -0.32520
 Alpha  occ. eigenvalues --   -0.28664  -0.28308  -0.26649  -0.26404
 Alpha virt. eigenvalues --   -0.06033  -0.05864  -0.05422  -0.04855  -0.03511
 Alpha virt. eigenvalues --   -0.02471  -0.00622  -0.00112   0.00283   0.01037
 Alpha virt. eigenvalues --    0.01711   0.02214   0.02514   0.02523   0.03395
 Alpha virt. eigenvalues --    0.04263   0.04815   0.05187   0.05501   0.05697
 Alpha virt. eigenvalues --    0.05988   0.06472   0.06629   0.07410   0.08084
 Alpha virt. eigenvalues --    0.08326   0.08742   0.09304   0.09586   0.09701
 Alpha virt. eigenvalues --    0.10179   0.10609   0.10872   0.11084   0.11610
 Alpha virt. eigenvalues --    0.11909   0.12029   0.12613   0.12691   0.12960
 Alpha virt. eigenvalues --    0.13272   0.13769   0.14088   0.14561   0.14975
 Alpha virt. eigenvalues --    0.15411   0.15729   0.16051   0.16411   0.16846
 Alpha virt. eigenvalues --    0.17105   0.17361   0.17587   0.17908   0.18532
 Alpha virt. eigenvalues --    0.19282   0.19671   0.19842   0.20305   0.20510
 Alpha virt. eigenvalues --    0.20711   0.21037   0.21450   0.21872   0.21989
 Alpha virt. eigenvalues --    0.22468   0.22762   0.22945   0.23288   0.23878
 Alpha virt. eigenvalues --    0.24174   0.24829   0.24964   0.25418   0.25524
 Alpha virt. eigenvalues --    0.26277   0.26861   0.27061   0.27369   0.27534
 Alpha virt. eigenvalues --    0.27878   0.28816   0.29068   0.29313   0.29723
 Alpha virt. eigenvalues --    0.29870   0.30641   0.31494   0.32201   0.32633
 Alpha virt. eigenvalues --    0.32729   0.34065   0.36006   0.40453   0.40881
 Alpha virt. eigenvalues --    0.41855   0.43383   0.43707   0.43827   0.44459
 Alpha virt. eigenvalues --    0.45025   0.45807   0.45965   0.46530   0.46858
 Alpha virt. eigenvalues --    0.47260   0.47734   0.48302   0.48949   0.49323
 Alpha virt. eigenvalues --    0.50175   0.50756   0.50892   0.51949   0.53153
 Alpha virt. eigenvalues --    0.53811   0.54479   0.56517   0.56776   0.57379
 Alpha virt. eigenvalues --    0.57575   0.58282   0.59098   0.59452   0.60037
 Alpha virt. eigenvalues --    0.60676   0.61184   0.62416   0.63037   0.63309
 Alpha virt. eigenvalues --    0.63803   0.64241   0.65259   0.65743   0.66376
 Alpha virt. eigenvalues --    0.67726   0.68087   0.68545   0.68906   0.69523
 Alpha virt. eigenvalues --    0.69640   0.70982   0.71840   0.75725   0.78453
 Alpha virt. eigenvalues --    0.79816   0.79938   0.80867   0.81737   0.82437
 Alpha virt. eigenvalues --    0.83365   0.83678   0.83939   0.84123   0.84557
 Alpha virt. eigenvalues --    0.84655   0.84683   0.84883   0.85375   0.85550
 Alpha virt. eigenvalues --    0.86112   0.86278   0.86808   0.88080   0.88548
 Alpha virt. eigenvalues --    0.89174   0.89963   0.90183   0.90407   0.91372
 Alpha virt. eigenvalues --    0.91801   0.92539   0.93850   0.94026   0.94667
 Alpha virt. eigenvalues --    0.95043   0.95133   0.95859   0.95974   0.96649
 Alpha virt. eigenvalues --    0.97224   0.98112   0.98969   1.00033   1.00909
 Alpha virt. eigenvalues --    1.01617   1.02498   1.03166   1.04194   1.05121
 Alpha virt. eigenvalues --    1.06524   1.08921   1.11002   1.14706   1.17276
 Alpha virt. eigenvalues --    1.19742   1.20587   1.21374   1.22133   1.22781
 Alpha virt. eigenvalues --    1.23600   1.25659   1.25721   1.26947   1.27729
 Alpha virt. eigenvalues --    1.28753   1.29801   1.30212   1.32573   1.33223
 Alpha virt. eigenvalues --    1.34457   1.34935   1.36491   1.41516   1.42307
 Alpha virt. eigenvalues --    1.46652   1.47891   1.48289   1.49391   1.55149
 Alpha virt. eigenvalues --    1.56096   1.56429   1.56855   1.58597   1.62018
 Alpha virt. eigenvalues --    1.62639   1.64992   1.66099   1.67789   1.69995
 Alpha virt. eigenvalues --    1.71725   1.74405   1.75106   1.75547   1.80314
 Alpha virt. eigenvalues --    1.81003   1.81945   1.84145   1.84977   1.85705
 Alpha virt. eigenvalues --    1.86299   1.91748   1.92352   1.92904   1.95044
 Alpha virt. eigenvalues --    1.95480   1.97383   1.98831   2.00333   2.01819
 Alpha virt. eigenvalues --    2.03913   2.07579   2.08571   2.11409   2.12704
 Alpha virt. eigenvalues --    2.14966   2.18614   2.22913   2.23532   2.24295
 Alpha virt. eigenvalues --    2.24854   2.25489   2.26593   2.27331   2.28849
 Alpha virt. eigenvalues --    2.31239   2.31746   2.34290   2.34817   2.35943
 Alpha virt. eigenvalues --    2.38632   2.40227   2.42545   2.43188   2.44154
 Alpha virt. eigenvalues --    2.46290   2.49059   2.50558   2.51663   2.53175
 Alpha virt. eigenvalues --    2.53992   2.54849   2.56995   2.60038   2.60798
 Alpha virt. eigenvalues --    2.62369   2.63375   2.67802   2.68257   2.69299
 Alpha virt. eigenvalues --    2.70063   2.71431   2.74162   2.74531   2.75191
 Alpha virt. eigenvalues --    2.75462   2.77265   2.78609   2.82249   2.82946
 Alpha virt. eigenvalues --    2.83335   2.85328   2.89050   2.96655   2.97787
 Alpha virt. eigenvalues --    3.06288   3.07853   3.09182   3.09746   3.12168
 Alpha virt. eigenvalues --    3.12425   3.15132   3.19774   3.22519   3.25695
 Alpha virt. eigenvalues --    3.28256   3.35276   3.37202   3.41317   3.50499
 Alpha virt. eigenvalues --    3.54120   3.61303   3.64822   3.75817   3.81057
 Alpha virt. eigenvalues --    3.84394   3.91101   4.00189   4.04131   4.11520
 Alpha virt. eigenvalues --    4.32733   4.80431   4.81099   9.76144   9.77517
 Alpha virt. eigenvalues --    9.79683   9.80323   9.83247   9.85220  23.35588
 Alpha virt. eigenvalues --   23.50593  23.81962  23.83220  23.87798  23.89747
 Alpha virt. eigenvalues --   23.93792  23.97858  24.01918  24.06011  24.11283
 Alpha virt. eigenvalues --   24.13291  25.78122  25.79354  25.83693  25.86404
 Alpha virt. eigenvalues --   25.93934  25.97113  26.07568  26.13208  26.14926
 Alpha virt. eigenvalues --   26.24786  26.30492  26.35220  26.51360  26.56336
 Alpha virt. eigenvalues --   26.67424  26.72504  26.78416  26.98624 215.75272
 Alpha virt. eigenvalues --  215.76848 215.79213 215.80110 215.83665 215.86370
          Condensed to atoms (all electrons):
               1          2          3          4          5          6
     1  C   42.436401   0.864828 -14.108682  -4.925732  -5.788819  -4.107380
     2  C    0.864828  26.842561  -1.172935  -9.753930   1.270645 -11.473665
     3  C  -14.108682  -1.172935  36.130244  -5.458244 -12.093430  -0.345792
     4  C   -4.925732  -9.753930  -5.458244  32.032864   4.766847  -9.825508
     5  C   -5.788819   1.270645 -12.093430   4.766847  29.530705  -2.856257
     6  C   -4.107380 -11.473665  -0.345792  -9.825508  -2.856257  61.256849
     7  C    7.190536  -3.301647   1.494308   0.674841  -4.389568  -5.060653
     8  C   -2.938091   1.339571   0.737066   0.139823  -1.680060  -9.243298
     9  C   -4.274764   0.524504  -0.213260   0.024152   0.176755  -2.405693
    10  C   -1.176055   0.078419  -0.206456   0.037521   0.172167   0.236901
    11  C   -4.113800   0.354225   0.698609  -0.069575  -0.688433  -3.483166
    12  C   -1.899515   0.647583   0.236122   0.064277  -1.337803  -6.400366
    13  H   -0.046169   0.233587  -0.000700   0.070402  -0.064593  -0.134997
    14  H    0.109267  -0.040334   0.034503   0.004421   0.231505  -0.007776
    15  H    0.009659  -0.002702  -0.000635   0.000100  -0.000057   0.002097
    16  H    0.008651  -0.002185  -0.000321   0.000023   0.000204   0.003222
    17  Cl  -0.078728   0.023412   0.168898   0.027557  -0.128574   0.105493
    18  Cl  -0.821000  -0.392211   0.700009  -0.531591  -0.988002   0.562390
    19  Cl  -0.165315   0.040648   0.025401  -0.001323  -0.016148  -0.144388
    20  Cl   0.056045   0.349591   0.069979  -1.037434   0.304786  -0.363978
    21  Cl  -0.586429   0.432851  -1.083614  -0.348572   0.246566   0.755142
    22  Cl   0.453063  -0.050707   0.293681   0.014890  -0.252447   0.127901
               7          8          9         10         11         12
     1  C    7.190536  -2.938091  -4.274764  -1.176055  -4.113800  -1.899515
     2  C   -3.301647   1.339571   0.524504   0.078419   0.354225   0.647583
     3  C    1.494308   0.737066  -0.213260  -0.206456   0.698609   0.236122
     4  C    0.674841   0.139823   0.024152   0.037521  -0.069575   0.064277
     5  C   -4.389568  -1.680060   0.176755   0.172167  -0.688433  -1.337803
     6  C   -5.060653  -9.243298  -2.405693   0.236901  -3.483166  -6.400366
     7  C   23.736720  -4.953187  -4.838990  -1.558417  -5.605421   3.074452
     8  C   -4.953187  27.017154  -4.256515   0.018329   4.331829  -4.176040
     9  C   -4.838990  -4.256515  16.319900   3.356354  -1.063953   3.419339
    10  C   -1.558417   0.018329   3.356354  16.190917  -2.490895  -8.341664
    11  C   -5.605421   4.331829  -1.063953  -2.490895  20.146047  -3.012286
    12  C    3.074452  -4.176040   3.419339  -8.341664  -3.012286  26.630253
    13  H    0.108779   0.081437   0.023173   0.004761   0.012374   0.087423
    14  H    0.021978   0.001212  -0.000228   0.000131  -0.000503   0.002478
    15  H    0.057851   0.054703   0.309473  -0.029257  -0.032839  -0.012870
    16  H    0.040227   0.006407  -0.087337   0.325902   0.003990   0.051357
    17  Cl  -0.096231  -0.452528   0.393203   0.744747  -0.072424  -1.961210
    18  Cl   0.151911   0.200139  -0.231615  -0.154619   0.159292   0.008260
    19  Cl  -0.670417   0.114462   0.127706  -0.437929  -0.438467   0.982246
    20  Cl  -0.034312  -0.038383  -0.004541  -0.001036  -0.000430  -0.034604
    21  Cl  -0.202646  -0.041101   0.002605  -0.000928   0.008457  -0.047402
    22  Cl   0.146086  -0.208806  -0.936262  -0.197584   0.209624  -0.630756
              13         14         15         16         17         18
     1  C   -0.046169   0.109267   0.009659   0.008651  -0.078728  -0.821000
     2  C    0.233587  -0.040334  -0.002702  -0.002185   0.023412  -0.392211
     3  C   -0.000700   0.034503  -0.000635  -0.000321   0.168898   0.700009
     4  C    0.070402   0.004421   0.000100   0.000023   0.027557  -0.531591
     5  C   -0.064593   0.231505  -0.000057   0.000204  -0.128574  -0.988002
     6  C   -0.134997  -0.007776   0.002097   0.003222   0.105493   0.562390
     7  C    0.108779   0.021978   0.057851   0.040227  -0.096231   0.151911
     8  C    0.081437   0.001212   0.054703   0.006407  -0.452528   0.200139
     9  C    0.023173  -0.000228   0.309473  -0.087337   0.393203  -0.231615
    10  C    0.004761   0.000131  -0.029257   0.325902   0.744747  -0.154619
    11  C    0.012374  -0.000503  -0.032839   0.003990  -0.072424   0.159292
    12  C    0.087423   0.002478  -0.012870   0.051357  -1.961210   0.008260
    13  H    0.513477   0.000045   0.000006  -0.000004  -0.011872  -0.001176
    14  H    0.000045   0.490119   0.000000  -0.000000  -0.000843  -0.009045
    15  H    0.000006   0.000000   0.503157  -0.007503   0.000643  -0.000846
    16  H   -0.000004  -0.000000  -0.007503   0.501049  -0.001354  -0.000387
    17  Cl  -0.011872  -0.000843   0.000643  -0.001354  18.019976   0.072081
    18  Cl  -0.001176  -0.009045  -0.000846  -0.000387   0.072081  17.866363
    19  Cl   0.000610  -0.000003  -0.000315  -0.002351  -0.230172   0.001460
    20  Cl  -0.001438  -0.008080  -0.000001   0.000000   0.007546  -0.039961
    21  Cl  -0.015479   0.000049  -0.000010  -0.000001  -0.004311  -0.002056
    22  Cl  -0.010635  -0.000736  -0.007756   0.000728  -0.074798   0.070723
              19         20         21         22
     1  C   -0.165315   0.056045  -0.586429   0.453063
     2  C    0.040648   0.349591   0.432851  -0.050707
     3  C    0.025401   0.069979  -1.083614   0.293681
     4  C   -0.001323  -1.037434  -0.348572   0.014890
     5  C   -0.016148   0.304786   0.246566  -0.252447
     6  C   -0.144388  -0.363978   0.755142   0.127901
     7  C   -0.670417  -0.034312  -0.202646   0.146086
     8  C    0.114462  -0.038383  -0.041101  -0.208806
     9  C    0.127706  -0.004541   0.002605  -0.936262
    10  C   -0.437929  -0.001036  -0.000928  -0.197584
    11  C   -0.438467  -0.000430   0.008457   0.209624
    12  C    0.982246  -0.034604  -0.047402  -0.630756
    13  H    0.000610  -0.001438  -0.015479  -0.010635
    14  H   -0.000003  -0.008080   0.000049  -0.000736
    15  H   -0.000315  -0.000001  -0.000010  -0.007756
    16  H   -0.002351   0.000000  -0.000001   0.000728
    17  Cl  -0.230172   0.007546  -0.004311  -0.074798
    18  Cl   0.001460  -0.039961  -0.002056   0.070723
    19  Cl  17.343451  -0.000005   0.000242  -0.009220
    20  Cl  -0.000005  17.442282  -0.175615   0.007372
    21  Cl   0.000242  -0.175615  17.521862  -0.000706
    22  Cl  -0.009220   0.007372  -0.000706  17.637589
 Mulliken charges:
               1
     1  C   -0.097972
     2  C   -0.812110
     3  C    0.095249
     4  C    0.094191
     5  C   -0.415989
     6  C   -1.197079
     7  C    0.013802
     8  C   -0.054122
     9  C   -0.364005
    10  C   -0.571308
    11  C    1.147744
    12  C   -1.349275
    13  H    0.150989
    14  H    0.171840
    15  H    0.157102
    16  H    0.159682
    17  Cl   0.549487
    18  Cl   0.379881
    19  Cl   0.479827
    20  Cl   0.502218
    21  Cl   0.541094
    22  Cl   0.418757
 Sum of Mulliken charges =  -0.00000
 Mulliken charges with hydrogens summed into heavy atoms:
               1
     1  C   -0.097972
     2  C   -0.661122
     3  C    0.095249
     4  C    0.094191
     5  C   -0.244149
     6  C   -1.197079
     7  C    0.013802
     8  C   -0.054122
     9  C   -0.206904
    10  C   -0.411626
    11  C    1.147744
    12  C   -1.349275
    17  Cl   0.549487
    18  Cl   0.379881
    19  Cl   0.479827
    20  Cl   0.502218
    21  Cl   0.541094
    22  Cl   0.418757
 Electronic spatial extent (au):  <R**2>=           7801.6200
 Charge=              0.0000 electrons
 Dipole moment (field-independent basis, Debye):
    X=             -1.7128    Y=              1.2319    Z=             -0.5317  Tot=              2.1758
 Quadrupole moment (field-independent basis, Debye-Ang):
   XX=           -141.4173   YY=           -145.9646   ZZ=           -143.5180
   XY=             -5.6572   XZ=              5.9592   YZ=             -1.1008
 Traceless Quadrupole moment (field-independent basis, Debye-Ang):
   XX=              2.2160   YY=             -2.3313   ZZ=              0.1153
   XY=             -5.6572   XZ=              5.9592   YZ=             -1.1008
 Octapole moment (field-independent basis, Debye-Ang**2):
  XXX=            -41.3706  YYY=             -7.7728  ZZZ=              6.0289  XYY=             -5.6942
  XXY=             28.8874  XXZ=             -0.2858  XZZ=              9.6091  YZZ=             -3.1912
  YYZ=             -0.5157  XYZ=              7.1572
 Hexadecapole moment (field-independent basis, Debye-Ang**3):
 XXXX=          -6772.5239 YYYY=          -1845.8838 ZZZZ=          -1438.9255 XXXY=            -81.3607
 XXXZ=             62.4708 YYYX=             16.6288 YYYZ=            -19.3804 ZZZX=            -30.2567
 ZZZY=             21.3263 XXYY=          -1430.9329 XXZZ=          -1380.0280 YYZZ=           -562.4824
 XXYZ=            -24.0678 YYXZ=              0.1798 ZZXY=             -3.1466
 N-N= 2.045309484511D+03 E-N=-1.171976766495D+04  KE= 3.212690118865D+03
 1\1\GINC-CN059\FOpt\RB3LYP\6-311+G(d,p)\C12H4Cl6\20CY91R06\25-Apr-2022
 \0\\# opt b3lyp/6-311+g(d,p) scf=xqc\\Title Card Required\\0,1\C,0.929
 3940024,-0.5110717535,0.0113103765\C,2.1821687144,-0.5097199739,0.6250
 357725\C,2.9536725968,0.6453746149,0.7006814132\C,2.4678167031,1.83522
 19623,0.1506973803\C,1.2202074727,1.8531866403,-0.4659310777\C,0.46364
 26828,0.6899582447,-0.5323265561\C,0.1396690836,-1.7749628684,-0.05242
 68605\C,0.2804808504,-2.6655833512,-1.1229494425\C,-0.4406435582,-3.85
 29606069,-1.1871786\C,-1.3246888666,-4.1714607585,-0.1670438825\C,-1.4
 896767586,-3.3099874771,0.9135532602\C,-0.7609734068,-2.1174248444,0.9
 715688184\H,2.5666119439,-1.426227023,1.0536816493\H,0.8442573913,2.77
 31682223,-0.8915852348\H,-0.3102020386,-4.5198617152,-2.0288954889\H,-
 1.8931169798,-5.0916702881,-0.2031019522\Cl,-0.963841127,-1.0302670389
 ,2.3198993934\Cl,-1.1004237057,0.7593632431,-1.3171972572\Cl,-2.612228
 4001,-3.7551275429,2.1735515337\Cl,3.3882377152,3.3146591619,0.2141559
 444\Cl,4.5105310701,0.5682246815,1.4839171073\Cl,1.3863850446,-2.29346
 21791,-2.4313025266\\Version=EM64L-G16RevB.01\State=1-A\HF=-3221.13480
 33\RMSD=4.675e-09\RMSF=8.807e-06\Dipole=-0.2327874,-0.7328462,-0.37617
 61\Quadrupole=-4.2665455,6.5873597,-2.3208142,0.400436,1.859797,1.9344
 296\PG=C01 [X(C12H4Cl6)]\\@


 THE UNDERLYING PHYSICAL LAWS NECESSARY FOR THE 
 MATHEMATICAL THEORY OF A LARGE PART OF PHYSICS AND THE
 WHOLE OF CHEMISTRY ARE THUS COMPLETELY KNOWN, AND THE
 DIFFICULTY IS ONLY THAT THE EXACT APPLICATION OF THESE
 LAWS LEADS TO EQUATIONS MUCH TOO COMPLICATED 
 TO BE SOLUBLE.

                                        -- P. A. M. DIRAC, 1929
 Job cpu time:       3 days 17 hours 47 minutes 58.5 seconds.
 Elapsed time:       0 days 22 hours 28 minutes  3.1 seconds.
 File lengths (MBytes):  RWF=    147 Int=      0 D2E=      0 Chk=     21 Scr=      1
 Normal termination of Gaussian 16 at Mon Apr 25 13:27:50 2022.
