 Entering Gaussian System, Link 0=g16
 Input=2,2prime,3,3prime,6-Pentachlorobiphenyl.gjf
 Output=2,2prime,3,3prime,6-Pentachlorobiphenyl.log
 Initial command:
 /home/apps/g16/l1.exe "./Gau-145751.inp" -scrdir="./"
 Entering Link 1 = /home/apps/g16/l1.exe PID=    145752.
  
 Copyright (c) 1988-2017, Gaussian, Inc.  All Rights Reserved.
  
 This is part of the Gaussian(R) 16 program.  It is based on
 the Gaussian(R) 09 system (copyright 2009, Gaussian, Inc.),
 the Gaussian(R) 03 system (copyright 2003, Gaussian, Inc.),
 the Gaussian(R) 98 system (copyright 1998, Gaussian, Inc.),
 the Gaussian(R) 94 system (copyright 1995, Gaussian, Inc.),
 the Gaussian 92(TM) system (copyright 1992, Gaussian, Inc.),
 the Gaussian 90(TM) system (copyright 1990, Gaussian, Inc.),
 the Gaussian 88(TM) system (copyright 1988, Gaussian, Inc.),
 the Gaussian 86(TM) system (copyright 1986, Carnegie Mellon
 University), and the Gaussian 82(TM) system (copyright 1983,
 Carnegie Mellon University). Gaussian is a federally registered
 trademark of Gaussian, Inc.
  
 This software contains proprietary and confidential information,
 including trade secrets, belonging to Gaussian, Inc.
  
 This software is provided under written license and may be
 used, copied, transmitted, or stored only in accord with that
 written license.
  
 The following legend is applicable only to US Government
 contracts under FAR:
  
                    RESTRICTED RIGHTS LEGEND
  
 Use, reproduction and disclosure by the US Government is
 subject to restrictions as set forth in subparagraphs (a)
 and (c) of the Commercial Computer Software - Restricted
 Rights clause in FAR 52.227-19.
  
 Gaussian, Inc.
 340 Quinnipiac St., Bldg. 40, Wallingford CT 06492
  
  
 ---------------------------------------------------------------
 Warning -- This program may not be used in any manner that
 competes with the business of Gaussian, Inc. or will provide
 assistance to any competitor of Gaussian, Inc.  The licensee
 of this program is prohibited from giving any competitor of
 Gaussian, Inc. access to this program.  By using this program,
 the user acknowledges that Gaussian, Inc. is engaged in the
 business of creating and licensing software in the field of
 computational chemistry and represents and warrants to the
 licensee that it is not a competitor of Gaussian, Inc. and that
 it will not use this program in any manner prohibited above.
 ---------------------------------------------------------------
  

 Cite this work as:
 Gaussian 16, Revision B.01,
 M. J. Frisch, G. W. Trucks, H. B. Schlegel, G. E. Scuseria, 
 M. A. Robb, J. R. Cheeseman, G. Scalmani, V. Barone, 
 G. A. Petersson, H. Nakatsuji, X. Li, M. Caricato, A. V. Marenich, 
 J. Bloino, B. G. Janesko, R. Gomperts, B. Mennucci, H. P. Hratchian, 
 J. V. Ortiz, A. F. Izmaylov, J. L. Sonnenberg, D. Williams-Young, 
 F. Ding, F. Lipparini, F. Egidi, J. Goings, B. Peng, A. Petrone, 
 T. Henderson, D. Ranasinghe, V. G. Zakrzewski, J. Gao, N. Rega, 
 G. Zheng, W. Liang, M. Hada, M. Ehara, K. Toyota, R. Fukuda, 
 J. Hasegawa, M. Ishida, T. Nakajima, Y. Honda, O. Kitao, H. Nakai, 
 T. Vreven, K. Throssell, J. A. Montgomery, Jr., J. E. Peralta, 
 F. Ogliaro, M. J. Bearpark, J. J. Heyd, E. N. Brothers, K. N. Kudin, 
 V. N. Staroverov, T. A. Keith, R. Kobayashi, J. Normand, 
 K. Raghavachari, A. P. Rendell, J. C. Burant, S. S. Iyengar, 
 J. Tomasi, M. Cossi, J. M. Millam, M. Klene, C. Adamo, R. Cammi, 
 J. W. Ochterski, R. L. Martin, K. Morokuma, O. Farkas, 
 J. B. Foresman, and D. J. Fox, Gaussian, Inc., Wallingford CT, 2016.
 
 ******************************************
 Gaussian 16:  EM64L-G16RevB.01 20-Dec-2017
                 3-Apr-2022 
 ******************************************
 %mem=32GB
 %nprocshared=16
 Will use up to   16 processors via shared memory.
 --------------------------------
 # opt b3lyp/6-311+g(d,p) scf=xqc
 --------------------------------
 1/18=20,19=15,26=3,38=1/1,3;
 2/9=110,12=2,17=6,18=5,40=1/2;
 3/5=4,6=6,7=111,11=2,25=1,30=1,71=1,74=-5/1,2,3;
 4//1;
 5/5=2,8=3,13=1,38=5/2,8;
 6/7=2,8=2,9=2,10=2,28=1/1;
 7//1,2,3,16;
 1/18=20,19=15,26=3/3(2);
 2/9=110/2;
 99//99;
 2/9=110/2;
 3/5=4,6=6,7=111,11=2,25=1,30=1,71=1,74=-5/1,2,3;
 4/5=5,16=3,69=1/1;
 5/5=2,8=3,13=1,38=5/2,8;
 7//1,2,3,16;
 1/18=20,19=15,26=3/3(-5);
 2/9=110/2;
 6/7=2,8=2,9=2,10=2,19=2,28=1/1;
 99/9=1/99;
 -------------------
 Title Card Required
 -------------------
 Symbolic Z-matrix:
 Charge =  0 Multiplicity = 1
 C                    -0.6752    5.20324  -0.05685 
 C                     0.65718   5.23312  -0.4902 
 C                     1.36507   6.44257  -0.49627 
 C                     0.74058   7.62214  -0.069 
 C                    -0.5918    7.59225   0.36435 
 C                    -1.29969   6.3828    0.37042 
 C                    -1.70138   3.44999  -0.04805 
 C                    -1.07689   2.27042  -0.47532 
 C                    -1.78479   1.06097  -0.46925 
 C                    -3.11717   1.03109  -0.0359 
 C                    -3.74165   2.21065   0.39138 
 C                    -3.03376   3.4201    0.3853 
 H                     1.28108   8.54558  -0.07363 
 H                    -1.06861   8.49288   0.69058 
 H                    -2.31699   6.35998   0.70129 
 H                    -3.65766   0.10764  -0.03126 
 H                    -4.75895   2.18783   0.72225 
 Cl                    0.59643   2.30796  -1.01956 
 Cl                    1.44147   3.75172  -1.02681 
 Cl                   -1.0005   -0.42043  -1.00586 
 Cl                    3.03839   6.48011  -1.04051 
 Cl                   -3.81804   4.9015    0.92191 
 

 GradGradGradGradGradGradGradGradGradGradGradGradGradGradGradGradGradGrad
 Berny optimization.
 Initialization pass.
                           ----------------------------
                           !    Initial Parameters    !
                           ! (Angstroms and Degrees)  !
 --------------------------                            --------------------------
 ! Name  Definition              Value          Derivative Info.                !
 --------------------------------------------------------------------------------
 ! R1    R(1,2)                  1.4014         estimate D2E/DX2                !
 ! R2    R(1,6)                  1.4014         estimate D2E/DX2                !
 ! R3    R(2,3)                  1.4014         estimate D2E/DX2                !
 ! R4    R(2,19)                 1.76           estimate D2E/DX2                !
 ! R5    R(3,4)                  1.4014         estimate D2E/DX2                !
 ! R6    R(3,21)                 1.76           estimate D2E/DX2                !
 ! R7    R(4,5)                  1.4014         estimate D2E/DX2                !
 ! R8    R(4,13)                 1.07           estimate D2E/DX2                !
 ! R9    R(5,6)                  1.4014         estimate D2E/DX2                !
 ! R10   R(5,14)                 1.07           estimate D2E/DX2                !
 ! R11   R(6,15)                 1.07           estimate D2E/DX2                !
 ! R12   R(7,8)                  1.4014         estimate D2E/DX2                !
 ! R13   R(7,12)                 1.4014         estimate D2E/DX2                !
 ! R14   R(8,9)                  1.4014         estimate D2E/DX2                !
 ! R15   R(8,18)                 1.76           estimate D2E/DX2                !
 ! R16   R(9,10)                 1.4014         estimate D2E/DX2                !
 ! R17   R(9,20)                 1.76           estimate D2E/DX2                !
 ! R18   R(10,11)                1.4014         estimate D2E/DX2                !
 ! R19   R(10,16)                1.07           estimate D2E/DX2                !
 ! R20   R(11,12)                1.4014         estimate D2E/DX2                !
 ! R21   R(11,17)                1.07           estimate D2E/DX2                !
 ! R22   R(12,22)                1.76           estimate D2E/DX2                !
 ! R23   R(18,19)                1.6729         estimate D2E/DX2                !
 ! A1    A(2,1,6)              120.0            estimate D2E/DX2                !
 ! A2    A(1,2,3)              120.0            estimate D2E/DX2                !
 ! A3    A(1,2,19)             120.0            estimate D2E/DX2                !
 ! A4    A(3,2,19)             120.0            estimate D2E/DX2                !
 ! A5    A(2,3,4)              120.0            estimate D2E/DX2                !
 ! A6    A(2,3,21)             120.0            estimate D2E/DX2                !
 ! A7    A(4,3,21)             120.0            estimate D2E/DX2                !
 ! A8    A(3,4,5)              120.0            estimate D2E/DX2                !
 ! A9    A(3,4,13)             120.0            estimate D2E/DX2                !
 ! A10   A(5,4,13)             120.0            estimate D2E/DX2                !
 ! A11   A(4,5,6)              120.0            estimate D2E/DX2                !
 ! A12   A(4,5,14)             120.0            estimate D2E/DX2                !
 ! A13   A(6,5,14)             120.0            estimate D2E/DX2                !
 ! A14   A(1,6,5)              120.0            estimate D2E/DX2                !
 ! A15   A(1,6,15)             120.0            estimate D2E/DX2                !
 ! A16   A(5,6,15)             120.0            estimate D2E/DX2                !
 ! A17   A(8,7,12)             120.0            estimate D2E/DX2                !
 ! A18   A(7,8,9)              120.0            estimate D2E/DX2                !
 ! A19   A(7,8,18)             120.0            estimate D2E/DX2                !
 ! A20   A(9,8,18)             120.0            estimate D2E/DX2                !
 ! A21   A(8,9,10)             120.0            estimate D2E/DX2                !
 ! A22   A(8,9,20)             120.0            estimate D2E/DX2                !
 ! A23   A(10,9,20)            120.0            estimate D2E/DX2                !
 ! A24   A(9,10,11)            120.0            estimate D2E/DX2                !
 ! A25   A(9,10,16)            120.0            estimate D2E/DX2                !
 ! A26   A(11,10,16)           120.0            estimate D2E/DX2                !
 ! A27   A(10,11,12)           120.0            estimate D2E/DX2                !
 ! A28   A(10,11,17)           120.0            estimate D2E/DX2                !
 ! A29   A(12,11,17)           120.0            estimate D2E/DX2                !
 ! A30   A(7,12,11)            120.0            estimate D2E/DX2                !
 ! A31   A(7,12,22)            120.0            estimate D2E/DX2                !
 ! A32   A(11,12,22)           120.0            estimate D2E/DX2                !
 ! A33   A(8,18,19)            120.0            estimate D2E/DX2                !
 ! A34   A(2,19,18)            120.0            estimate D2E/DX2                !
 ! D1    D(6,1,2,3)              0.0001         estimate D2E/DX2                !
 ! D2    D(6,1,2,19)           180.0            estimate D2E/DX2                !
 ! D3    D(2,1,6,5)             -0.0001         estimate D2E/DX2                !
 ! D4    D(2,1,6,15)           180.0            estimate D2E/DX2                !
 ! D5    D(1,2,3,4)              0.0            estimate D2E/DX2                !
 ! D6    D(1,2,3,21)           180.0            estimate D2E/DX2                !
 ! D7    D(19,2,3,4)          -179.9999         estimate D2E/DX2                !
 ! D8    D(19,2,3,21)            0.0001         estimate D2E/DX2                !
 ! D9    D(1,2,19,18)            0.0002         estimate D2E/DX2                !
 ! D10   D(3,2,19,18)         -179.9999         estimate D2E/DX2                !
 ! D11   D(2,3,4,5)             -0.0001         estimate D2E/DX2                !
 ! D12   D(2,3,4,13)           180.0            estimate D2E/DX2                !
 ! D13   D(21,3,4,5)           179.9999         estimate D2E/DX2                !
 ! D14   D(21,3,4,13)            0.0            estimate D2E/DX2                !
 ! D15   D(3,4,5,6)              0.0001         estimate D2E/DX2                !
 ! D16   D(3,4,5,14)          -179.9999         estimate D2E/DX2                !
 ! D17   D(13,4,5,6)          -180.0            estimate D2E/DX2                !
 ! D18   D(13,4,5,14)            0.0            estimate D2E/DX2                !
 ! D19   D(4,5,6,1)              0.0            estimate D2E/DX2                !
 ! D20   D(4,5,6,15)           179.9999         estimate D2E/DX2                !
 ! D21   D(14,5,6,1)           180.0            estimate D2E/DX2                !
 ! D22   D(14,5,6,15)           -0.0001         estimate D2E/DX2                !
 ! D23   D(12,7,8,9)             0.0001         estimate D2E/DX2                !
 ! D24   D(12,7,8,18)         -179.9998         estimate D2E/DX2                !
 ! D25   D(8,7,12,11)           -0.0001         estimate D2E/DX2                !
 ! D26   D(8,7,12,22)          179.9999         estimate D2E/DX2                !
 ! D27   D(7,8,9,10)             0.0            estimate D2E/DX2                !
 ! D28   D(7,8,9,20)           180.0            estimate D2E/DX2                !
 ! D29   D(18,8,9,10)          179.9998         estimate D2E/DX2                !
 ! D30   D(18,8,9,20)           -0.0002         estimate D2E/DX2                !
 ! D31   D(7,8,18,19)            0.0            estimate D2E/DX2                !
 ! D32   D(9,8,18,19)         -179.9998         estimate D2E/DX2                !
 ! D33   D(8,9,10,11)            0.0            estimate D2E/DX2                !
 ! D34   D(8,9,10,16)         -179.9999         estimate D2E/DX2                !
 ! D35   D(20,9,10,11)         180.0            estimate D2E/DX2                !
 ! D36   D(20,9,10,16)           0.0001         estimate D2E/DX2                !
 ! D37   D(9,10,11,12)           0.0            estimate D2E/DX2                !
 ! D38   D(9,10,11,17)        -179.9998         estimate D2E/DX2                !
 ! D39   D(16,10,11,12)        179.9999         estimate D2E/DX2                !
 ! D40   D(16,10,11,17)          0.0001         estimate D2E/DX2                !
 ! D41   D(10,11,12,7)           0.0            estimate D2E/DX2                !
 ! D42   D(10,11,12,22)       -179.9999         estimate D2E/DX2                !
 ! D43   D(17,11,12,7)         179.9999         estimate D2E/DX2                !
 ! D44   D(17,11,12,22)         -0.0001         estimate D2E/DX2                !
 ! D45   D(8,18,19,2)           -0.0002         estimate D2E/DX2                !
 --------------------------------------------------------------------------------
 Trust Radius=3.00D-01 FncErr=1.00D-07 GrdErr=1.00D-06 EigMax=2.50D+02 EigMin=1.00D-04
 Number of steps in this run=    112 maximum allowed number of steps=    132.
 GradGradGradGradGradGradGradGradGradGradGradGradGradGradGradGradGradGrad

                          Input orientation:                          
 ---------------------------------------------------------------------
 Center     Atomic      Atomic             Coordinates (Angstroms)
 Number     Number       Type             X           Y           Z
 ---------------------------------------------------------------------
      1          6           0       -0.675203    5.203235   -0.056853
      2          6           0        0.657178    5.233121   -0.490200
      3          6           0        1.365072    6.442572   -0.496272
      4          6           0        0.740585    7.622137   -0.068997
      5          6           0       -0.591797    7.592252    0.364347
      6          6           0       -1.299691    6.382801    0.370420
      7          6           0       -1.701380    3.449989   -0.048049
      8          6           0       -1.076893    2.270423   -0.475324
      9          6           0       -1.784786    1.060972   -0.469250
     10          6           0       -3.117166    1.031086   -0.035900
     11          6           0       -3.741653    2.210651    0.391375
     12          6           0       -3.033760    3.420102    0.385301
     13          1           0        1.281077    8.545580   -0.073633
     14          1           0       -1.068608    8.492876    0.690579
     15          1           0       -2.316993    6.359982    0.701289
     16          1           0       -3.657658    0.107642   -0.031261
     17          1           0       -4.758954    2.187831    0.722250
     18         17           0        0.596427    2.307957   -1.019558
     19         17           0        1.441465    3.751720   -1.026805
     20         17           0       -1.000501   -0.420428   -1.005859
     21         17           0        3.038392    6.480105   -1.040506
     22         17           0       -3.818045    4.901502    0.921912
 ---------------------------------------------------------------------
                    Distance matrix (angstroms):
                    1          2          3          4          5
     1  C    0.000000
     2  C    1.401400   0.000000
     3  C    2.427296   1.401400   0.000000
     4  C    2.802800   2.427296   1.401400   0.000000
     5  C    2.427296   2.802800   2.427296   1.401400   0.000000
     6  C    1.401400   2.427296   2.802800   2.427296   1.401400
     7  C    2.031500   2.989625   4.308084   4.834300   4.308084
     8  C    2.989625   3.432900   4.834300   5.666495   5.409457
     9  C    4.308084   4.834300   6.235700   7.041774   6.691466
    10  C    4.834300   5.666495   7.041774   7.637100   7.041774
    11  C    4.308084   5.409457   6.691466   7.041774   6.235700
    12  C    2.989625   4.204351   5.409457   5.666495   4.834300
    13  H    3.872800   3.396345   2.146700   1.070000   2.146700
    14  H    3.396345   3.872800   3.396345   2.146700   1.070000
    15  H    2.146700   3.396345   3.872800   3.396345   2.146700
    16  H    5.904300   6.715576   8.097863   8.707100   8.097863
    17  H    5.135824   6.330744   7.555879   7.771916   6.833817
    18  Cl   3.305523   2.973298   4.237887   5.400450   5.590246
    19  Cl   2.743718   1.760000   2.743718   4.048303   4.562800
    20  Cl   5.712445   5.914087   7.277114   8.282026   8.139259
    21  Cl   4.048303   2.743718   1.760000   2.743718   4.048303
    22  Cl   3.305523   4.704429   5.590246   5.400450   4.237887
                    6          7          8          9         10
     6  C    0.000000
     7  C    2.989625   0.000000
     8  C    4.204351   1.401400   0.000000
     9  C    5.409457   2.427296   1.401400   0.000000
    10  C    5.666495   2.802800   2.427296   1.401400   0.000000
    11  C    4.834300   2.427296   2.802800   2.427296   1.401400
    12  C    3.432900   1.401400   2.427296   2.802800   2.427296
    13  H    3.396345   5.904300   6.715576   8.097863   8.707100
    14  H    2.146700   5.135824   6.330744   7.555879   7.771916
    15  H    1.070000   3.067336   4.432466   5.452790   5.438829
    16  H    6.715576   3.872800   3.396345   2.146700   1.070000
    17  H    5.448675   3.396345   3.872800   3.396345   2.146700
    18  Cl   4.704429   2.743718   1.760000   2.743718   4.048303
    19  Cl   4.048303   3.305523   2.973298   4.237887   5.400450
    20  Cl   6.947487   4.048303   2.743718   1.760000   2.743718
    21  Cl   4.562800   5.712445   5.914087   7.277114   8.282026
    22  Cl   2.973298   2.743718   4.048303   4.562800   4.048303
                   11         12         13         14         15
    11  C    0.000000
    12  C    1.401400   0.000000
    13  H    8.097863   6.715576   0.000000
    14  H    6.833817   5.448675   2.471400   0.000000
    15  H    4.398029   3.042450   4.280590   2.471400   0.000000
    16  H    2.146700   3.396345   9.777100   8.805474   6.436285
    17  H    1.070000   2.146700   8.805474   7.305700   4.834300
    18  Cl   4.562800   4.048303   6.345980   6.629490   5.279038
    19  Cl   5.590246   4.704429   4.890332   5.632800   4.890332
    20  Cl   4.048303   4.562800   9.298599   9.073563   7.114877
    21  Cl   8.139259   6.947487   2.879094   4.890332   5.632800
    22  Cl   2.743718   1.760000   6.345980   4.528895   2.104518
                   16         17         18         19         20
    16  H    0.000000
    17  H    2.471400   0.000000
    18  Cl   4.890332   5.632800   0.000000
    19  Cl   6.345980   6.629490   1.672900   0.000000
    20  Cl   2.879094   4.890332   3.161400   4.834300   0.000000
    21  Cl   9.298599   9.073563   4.834300   3.161400   7.995700
    22  Cl   4.890332   2.879094   5.475705   5.725552   6.322800
                   21         22
    21  Cl   0.000000
    22  Cl   7.304369   0.000000
 Stoichiometry    C12H5Cl5
 Framework group  C1[X(C12H5Cl5)]
 Deg. of freedom    60
 Full point group                 C1      NOp   1
 Largest Abelian subgroup         C1      NOp   1
 Largest concise Abelian subgroup C1      NOp   1
                         Standard orientation:                         
 ---------------------------------------------------------------------
 Center     Atomic      Atomic             Coordinates (Angstroms)
 Number     Number       Type             X           Y           Z
 ---------------------------------------------------------------------
      1          6           0       -1.020210    0.914902    0.000002
      2          6           0       -1.824252   -0.232895    0.000001
      3          6           0       -3.220294   -0.110472    0.000000
      4          6           0       -3.812295    1.159747    0.000000
      5          6           0       -3.008252    2.307544    0.000004
      6          6           0       -1.612210    2.185122    0.000005
      7          6           0        1.003524    0.737435    0.000002
      8          6           0        1.595524   -0.532784    0.000002
      9          6           0        2.991567   -0.655207    0.000001
     10          6           0        3.795609    0.492590   -0.000001
     11          6           0        3.203609    1.762810   -0.000002
     12          6           0        1.807566    1.885232   -0.000000
     13          1           0       -4.878204    1.253220   -0.000000
     14          1           0       -3.460257    3.277385    0.000006
     15          1           0       -0.998306    3.061490    0.000006
     16          1           0        4.861519    0.399118   -0.000004
     17          1           0        3.817513    2.639178   -0.000006
     18         17           0        0.585738   -1.974287    0.000001
     19         17           0       -1.080767   -1.828147   -0.000002
     20         17           0        3.735052   -2.250459    0.000001
     21         17           0       -4.230081   -1.551976   -0.000002
     22         17           0        1.064081    3.480485   -0.000003
 ---------------------------------------------------------------------
 Rotational constants (GHZ):           0.4168139           0.2238174           0.1456223
 Standard basis: 6-311+G(d,p) (5D, 7F)
 There are   461 symmetry adapted cartesian basis functions of A   symmetry.
 There are   444 symmetry adapted basis functions of A   symmetry.
   444 basis functions,   737 primitive gaussians,   461 cartesian basis functions
    81 alpha electrons       81 beta electrons
       nuclear repulsion energy      1794.3590783308 Hartrees.
 NAtoms=   22 NActive=   22 NUniq=   22 SFac= 1.00D+00 NAtFMM=   60 NAOKFM=F Big=F
 Integral buffers will be    131072 words long.
 Raffenetti 2 integral format.
 Two-electron integral symmetry is turned on.
 One-electron integrals computed using PRISM.
 NBasis=   444 RedAO= T EigKep=  2.23D-06  NBF=   444
 NBsUse=   438 1.00D-06 EigRej=  7.77D-07 NBFU=   438
 ExpMin= 4.38D-02 ExpMax= 1.06D+05 ExpMxC= 3.62D+03 IAcc=3 IRadAn=         5 AccDes= 0.00D+00
 Harris functional with IExCor=  402 and IRadAn=       5 diagonalized for initial guess.
 HarFok:  IExCor=  402 AccDes= 0.00D+00 IRadAn=         5 IDoV= 1 UseB2=F ITyADJ=14
 ICtDFT=  3500011 ScaDFX=  1.000000  1.000000  1.000000  1.000000
 FoFCou: FMM=F IPFlag=           0 FMFlag=      100000 FMFlg1=           0
         NFxFlg=           0 DoJE=T BraDBF=F KetDBF=T FulRan=T
         wScrn=  0.000000 ICntrl=       500 IOpCl=  0 I1Cent=   200000004 NGrid=           0
         NMat0=    1 NMatS0=      1 NMatT0=    0 NMatD0=    1 NMtDS0=    0 NMtDT0=    0
 Petite list used in FoFCou.
 Requested convergence on RMS density matrix=1.00D-08 within  32 cycles.
 Requested convergence on MAX density matrix=1.00D-06.
 Requested convergence on             energy=1.00D-06.
 No special actions if energy rises.
 EnCoef did     4 forward-backward iterations
 EnCoef did     4 forward-backward iterations
 EnCoef did    12 forward-backward iterations
 Restarting incremental Fock formation.
 SCF Done:  E(RB3LYP) =  -2760.94508411     A.U. after   28 cycles
            NFock= 28  Conv=0.41D-08     -V/T= 2.0019
 QCSCF skips out because SCF is already converged.

 **********************************************************************

            Population analysis using the SCF Density.

 **********************************************************************

 Orbital symmetries:
       Occupied  (A) (A) (A) (A) (A) (A) (A) (A) (A) (A) (A) (A)
                 (A) (A) (A) (A) (A) (A) (A) (A) (A) (A) (A) (A)
                 (A) (A) (A) (A) (A) (A) (A) (A) (A) (A) (A) (A)
                 (A) (A) (A) (A) (A) (A) (A) (A) (A) (A) (A) (A)
                 (A) (A) (A) (A) (A) (A) (A) (A) (A) (A) (A) (A)
                 (A) (A) (A) (A) (A) (A) (A) (A) (A) (A) (A) (A)
                 (A) (A) (A) (A) (A) (A) (A) (A) (A)
       Virtual   (A) (A) (A) (A) (A) (A) (A) (A) (A) (A) (A) (A)
                 (A) (A) (A) (A) (A) (A) (A) (A) (A) (A) (A) (A)
                 (A) (A) (A) (A) (A) (A) (A) (A) (A) (A) (A) (A)
                 (A) (A) (A) (A) (A) (A) (A) (A) (A) (A) (A) (A)
                 (A) (A) (A) (A) (A) (A) (A) (A) (A) (A) (A) (A)
                 (A) (A) (A) (A) (A) (A) (A) (A) (A) (A) (A) (A)
                 (A) (A) (A) (A) (A) (A) (A) (A) (A) (A) (A) (A)
                 (A) (A) (A) (A) (A) (A) (A) (A) (A) (A) (A) (A)
                 (A) (A) (A) (A) (A) (A) (A) (A) (A) (A) (A) (A)
                 (A) (A) (A) (A) (A) (A) (A) (A) (A) (A) (A) (A)
                 (A) (A) (A) (A) (A) (A) (A) (A) (A) (A) (A) (A)
                 (A) (A) (A) (A) (A) (A) (A) (A) (A) (A) (A) (A)
                 (A) (A) (A) (A) (A) (A) (A) (A) (A) (A) (A) (A)
                 (A) (A) (A) (A) (A) (A) (A) (A) (A) (A) (A) (A)
                 (A) (A) (A) (A) (A) (A) (A) (A) (A) (A) (A) (A)
                 (A) (A) (A) (A) (A) (A) (A) (A) (A) (A) (A) (A)
                 (A) (A) (A) (A) (A) (A) (A) (A) (A) (A) (A) (A)
                 (A) (A) (A) (A) (A) (A) (A) (A) (A) (A) (A) (A)
                 (A) (A) (A) (A) (A) (A) (A) (A) (A) (A) (A) (A)
                 (A) (A) (A) (A) (A) (A) (A) (A) (A) (A) (A) (A)
                 (A) (A) (A) (A) (A) (A) (A) (A) (A) (A) (A) (A)
                 (A) (A) (A) (A) (A) (A) (A) (A) (A) (A) (A) (A)
                 (A) (A) (A) (A) (A) (A) (A) (A) (A) (A) (A) (A)
                 (A) (A) (A) (A) (A) (A) (A) (A) (A) (A) (A) (A)
                 (A) (A) (A) (A) (A) (A) (A) (A) (A) (A) (A) (A)
                 (A) (A) (A) (A) (A) (A) (A) (A) (A) (A) (A) (A)
                 (A) (A) (A) (A) (A) (A) (A) (A) (A) (A) (A) (A)
                 (A) (A) (A) (A) (A) (A) (A) (A) (A) (A) (A) (A)
                 (A) (A) (A) (A) (A) (A) (A) (A) (A) (A) (A) (A)
                 (A) (A) (A) (A) (A) (A) (A) (A) (A)
 The electronic state is 1-A.
 Alpha  occ. eigenvalues -- -101.61971-101.61378-101.56465-101.56399-101.56160
 Alpha  occ. eigenvalues --  -10.26956 -10.26820 -10.26384 -10.26145 -10.25057
 Alpha  occ. eigenvalues --  -10.23140 -10.22623 -10.20913 -10.20829 -10.20582
 Alpha  occ. eigenvalues --  -10.20186 -10.19443  -9.54646  -9.54139  -9.48025
 Alpha  occ. eigenvalues --   -9.47885  -9.47664  -7.31256  -7.30861  -7.30037
 Alpha  occ. eigenvalues --   -7.29658  -7.29438  -7.29056  -7.24467  -7.24352
 Alpha  occ. eigenvalues --   -7.24112  -7.23503  -7.23465  -7.23366  -7.23316
 Alpha  occ. eigenvalues --   -7.23147  -7.23108  -1.11038  -0.92465  -0.91697
 Alpha  occ. eigenvalues --   -0.89024  -0.85790  -0.85063  -0.83451  -0.79308
 Alpha  occ. eigenvalues --   -0.75399  -0.74732  -0.73515  -0.67340  -0.63285
 Alpha  occ. eigenvalues --   -0.61596  -0.61070  -0.58230  -0.53788  -0.52411
 Alpha  occ. eigenvalues --   -0.51564  -0.51104  -0.49806  -0.48446  -0.47149
 Alpha  occ. eigenvalues --   -0.45884  -0.44445  -0.43766  -0.42802  -0.41948
 Alpha  occ. eigenvalues --   -0.41623  -0.40413  -0.39390  -0.38053  -0.34971
 Alpha  occ. eigenvalues --   -0.34718  -0.34439  -0.32995  -0.32791  -0.32420
 Alpha  occ. eigenvalues --   -0.31426  -0.29533  -0.26638  -0.25895  -0.25404
 Alpha  occ. eigenvalues --   -0.11735
 Alpha virt. eigenvalues --   -0.08259  -0.05946  -0.04807  -0.04648  -0.03870
 Alpha virt. eigenvalues --   -0.02243  -0.00888   0.00136   0.00565   0.00952
 Alpha virt. eigenvalues --    0.01719   0.02069   0.03022   0.03812   0.04127
 Alpha virt. eigenvalues --    0.04165   0.04654   0.05569   0.05764   0.06131
 Alpha virt. eigenvalues --    0.06839   0.07131   0.07451   0.07535   0.08191
 Alpha virt. eigenvalues --    0.08523   0.09474   0.09570   0.10150   0.10151
 Alpha virt. eigenvalues --    0.10765   0.11142   0.11229   0.11648   0.12194
 Alpha virt. eigenvalues --    0.12929   0.13369   0.13514   0.14120   0.14348
 Alpha virt. eigenvalues --    0.14692   0.15227   0.15312   0.15635   0.15998
 Alpha virt. eigenvalues --    0.16208   0.16231   0.17307   0.17500   0.17772
 Alpha virt. eigenvalues --    0.18213   0.18500   0.18966   0.19582   0.20247
 Alpha virt. eigenvalues --    0.20266   0.20747   0.21275   0.21606   0.21880
 Alpha virt. eigenvalues --    0.22424   0.22834   0.23740   0.24000   0.24384
 Alpha virt. eigenvalues --    0.24703   0.24762   0.25062   0.25427   0.26188
 Alpha virt. eigenvalues --    0.26349   0.27166   0.27313   0.27725   0.28576
 Alpha virt. eigenvalues --    0.29352   0.29461   0.29887   0.30828   0.31357
 Alpha virt. eigenvalues --    0.32560   0.33027   0.34238   0.34622   0.34908
 Alpha virt. eigenvalues --    0.35541   0.38276   0.39339   0.40728   0.41157
 Alpha virt. eigenvalues --    0.42129   0.42846   0.43466   0.43858   0.44131
 Alpha virt. eigenvalues --    0.44927   0.45082   0.46603   0.47174   0.47445
 Alpha virt. eigenvalues --    0.49222   0.49967   0.49970   0.50228   0.51037
 Alpha virt. eigenvalues --    0.52035   0.53006   0.53198   0.53292   0.53442
 Alpha virt. eigenvalues --    0.54595   0.56335   0.57221   0.57277   0.58013
 Alpha virt. eigenvalues --    0.58425   0.59187   0.59386   0.60414   0.60428
 Alpha virt. eigenvalues --    0.61412   0.62107   0.62122   0.62338   0.64348
 Alpha virt. eigenvalues --    0.64384   0.65264   0.66237   0.66607   0.68653
 Alpha virt. eigenvalues --    0.69514   0.70067   0.70834   0.71409   0.73406
 Alpha virt. eigenvalues --    0.76385   0.76769   0.78413   0.78883   0.80093
 Alpha virt. eigenvalues --    0.81008   0.82057   0.82106   0.83310   0.83328
 Alpha virt. eigenvalues --    0.84141   0.85351   0.85481   0.85707   0.86212
 Alpha virt. eigenvalues --    0.86571   0.87449   0.87534   0.88410   0.88741
 Alpha virt. eigenvalues --    0.89116   0.89302   0.90687   0.91383   0.91802
 Alpha virt. eigenvalues --    0.93526   0.94298   0.95625   0.95909   0.96013
 Alpha virt. eigenvalues --    0.96180   0.96490   0.97189   0.97700   0.98234
 Alpha virt. eigenvalues --    0.99921   1.00767   1.00775   1.02141   1.03134
 Alpha virt. eigenvalues --    1.03584   1.05924   1.06150   1.08267   1.09088
 Alpha virt. eigenvalues --    1.10546   1.11804   1.14193   1.17124   1.20973
 Alpha virt. eigenvalues --    1.21101   1.22728   1.23161   1.24915   1.25028
 Alpha virt. eigenvalues --    1.26422   1.26681   1.27791   1.27980   1.28612
 Alpha virt. eigenvalues --    1.30147   1.32113   1.32743   1.33131   1.37116
 Alpha virt. eigenvalues --    1.43563   1.47187   1.48648   1.49718   1.50500
 Alpha virt. eigenvalues --    1.51079   1.52032   1.55349   1.56508   1.57965
 Alpha virt. eigenvalues --    1.60378   1.60950   1.63536   1.65933   1.66394
 Alpha virt. eigenvalues --    1.68233   1.71208   1.71492   1.72530   1.75467
 Alpha virt. eigenvalues --    1.76700   1.80970   1.82953   1.83686   1.85241
 Alpha virt. eigenvalues --    1.86110   1.87226   1.87552   1.87755   1.88295
 Alpha virt. eigenvalues --    1.88626   1.90292   1.91735   1.94405   1.95645
 Alpha virt. eigenvalues --    1.97223   1.97299   2.00684   2.02178   2.03897
 Alpha virt. eigenvalues --    2.10248   2.13526   2.13575   2.17712   2.20239
 Alpha virt. eigenvalues --    2.20447   2.21287   2.23849   2.24445   2.27058
 Alpha virt. eigenvalues --    2.28168   2.28327   2.29884   2.30595   2.32555
 Alpha virt. eigenvalues --    2.32647   2.33345   2.37967   2.39390   2.40221
 Alpha virt. eigenvalues --    2.43222   2.43933   2.44856   2.45458   2.53204
 Alpha virt. eigenvalues --    2.54512   2.55724   2.57990   2.58684   2.60681
 Alpha virt. eigenvalues --    2.60825   2.62528   2.62549   2.63359   2.67687
 Alpha virt. eigenvalues --    2.68861   2.70738   2.71369   2.73609   2.74202
 Alpha virt. eigenvalues --    2.75132   2.75714   2.75847   2.77453   2.78813
 Alpha virt. eigenvalues --    2.78899   2.81271   2.81930   2.85018   2.86753
 Alpha virt. eigenvalues --    2.87373   2.89018   3.01756   3.05551   3.07232
 Alpha virt. eigenvalues --    3.09112   3.11051   3.15466   3.17060   3.19867
 Alpha virt. eigenvalues --    3.24384   3.27655   3.32812   3.34265   3.38214
 Alpha virt. eigenvalues --    3.39740   3.41489   3.51760   3.60986   3.67031
 Alpha virt. eigenvalues --    3.71875   3.73981   3.85871   3.98014   4.03213
 Alpha virt. eigenvalues --    4.06861   4.08226   4.14914   4.80746   4.81305
 Alpha virt. eigenvalues --    9.69476   9.79147   9.79808   9.83602   9.99269
 Alpha virt. eigenvalues --   23.35457  23.42462  23.81969  23.86664  23.88075
 Alpha virt. eigenvalues --   23.89540  23.96930  23.97741  23.99264  24.02969
 Alpha virt. eigenvalues --   24.09709  24.12824  25.75048  25.80134  25.83965
 Alpha virt. eigenvalues --   25.84725  25.99313  26.09787  26.18862  26.22536
 Alpha virt. eigenvalues --   26.33505  26.49563  26.65930  26.70721  26.91771
 Alpha virt. eigenvalues --   26.94763  27.01297 215.70470 215.78867 215.80591
 Alpha virt. eigenvalues --  215.83975 216.05659
          Condensed to atoms (all electrons):
               1          2          3          4          5          6
     1  C   21.074878   1.526336  -2.350875   1.903378  -3.763885  -0.474228
     2  C    1.526336  23.589937  -1.814378  -4.937079   2.497442  -4.101308
     3  C   -2.350875  -1.814378  14.142998  -4.079740  -1.384818   0.331189
     4  C    1.903378  -4.937079  -4.079740  12.644098   0.159531   0.622715
     5  C   -3.763885   2.497442  -1.384818   0.159531  11.123492  -2.320796
     6  C   -0.474228  -4.101308   0.331189   0.622715  -2.320796  13.189120
     7  C    4.479816  -2.668893  -0.758895   0.779941  -1.702804  -0.794278
     8  C   -3.771464  -4.647432   0.280454  -0.331788   0.258659  -1.331162
     9  C   -2.362206   0.009210   0.022030   0.213905  -0.154685   0.279070
    10  C    0.728587  -0.171925   0.101492   0.019111   0.108128   0.333672
    11  C   -3.841939   0.333469  -0.255534   0.067110   0.312518   0.220750
    12  C   -1.763324  -1.097195   0.003129   0.362762  -0.026169   0.953155
    13  H   -0.007742   0.041452  -0.001104   0.356892  -0.041284  -0.018894
    14  H   -0.003913   0.038793  -0.062085  -0.030841   0.423494  -0.026590
    15  H   -0.011110   0.088917  -0.006013  -0.026898   0.012122   0.248764
    16  H   -0.005589   0.001535  -0.000121   0.000017  -0.000065  -0.000115
    17  H   -0.003877  -0.001059  -0.000026   0.000167  -0.001085   0.002526
    18  Cl   4.839528  14.828936  -3.935848   1.369313  -1.229990   1.996943
    19  Cl  -9.469791 -16.901816   5.622726  -1.628480   2.354410  -2.601628
    20  Cl  -0.120998  -0.060104  -0.004483   0.000961   0.002997  -0.025111
    21  Cl  -0.562473   0.815889  -0.160705  -1.002910  -0.043503   0.178254
    22  Cl   0.375544  -0.104484   0.011953  -0.026835  -0.498392  -0.207775
               7          8          9         10         11         12
     1  C    4.479816  -3.771464  -2.362206   0.728587  -3.841939  -1.763324
     2  C   -2.668893  -4.647432   0.009210  -0.171925   0.333469  -1.097195
     3  C   -0.758895   0.280454   0.022030   0.101492  -0.255534   0.003129
     4  C    0.779941  -0.331788   0.213905   0.019111   0.067110   0.362762
     5  C   -1.702804   0.258659  -0.154685   0.108128   0.312518  -0.026169
     6  C   -0.794278  -1.331162   0.279070   0.333672   0.220750   0.953155
     7  C   20.071433   2.434238  -4.476687   2.315155  -6.007120   0.571072
     8  C    2.434238  30.637908  -4.111199  -3.614538   2.914564  -3.541277
     9  C   -4.476687  -4.111199  15.851337  -3.540402  -0.878245   2.347222
    10  C    2.315155  -3.614538  -3.540402  12.695534   0.342683  -2.234231
    11  C   -6.007120   2.914564  -0.878245   0.342683  14.093696  -3.385092
    12  C    0.571072  -3.541277   2.347222  -2.234231  -3.385092  16.004928
    13  H    0.000134   0.001592  -0.000059  -0.000010   0.000002  -0.000034
    14  H   -0.004773  -0.000199   0.000200   0.000057  -0.001224   0.002363
    15  H    0.015079  -0.002502  -0.000364   0.006305   0.025167  -0.018843
    16  H   -0.056783   0.078037  -0.012221   0.340094  -0.024120  -0.007907
    17  H    0.007510   0.077349  -0.095991  -0.042680   0.442713  -0.051223
    18  Cl -13.034570 -28.743150   6.213245  -0.397504   3.474151  -2.458721
    19  Cl   5.716546  20.151862  -3.712027   0.540617  -1.519664   1.133884
    20  Cl  -0.498267   0.663017  -0.021147  -0.781718  -0.020700   0.244390
    21  Cl  -0.121943   0.011609  -0.037729   0.002832  -0.004815  -0.053399
    22  Cl   0.111154   0.120894   0.149083  -0.241518  -0.063108  -0.658703
              13         14         15         16         17         18
     1  C   -0.007742  -0.003913  -0.011110  -0.005589  -0.003877   4.839528
     2  C    0.041452   0.038793   0.088917   0.001535  -0.001059  14.828936
     3  C   -0.001104  -0.062085  -0.006013  -0.000121  -0.000026  -3.935848
     4  C    0.356892  -0.030841  -0.026898   0.000017   0.000167   1.369313
     5  C   -0.041284   0.423494   0.012122  -0.000065  -0.001085  -1.229990
     6  C   -0.018894  -0.026590   0.248764  -0.000115   0.002526   1.996943
     7  C    0.000134  -0.004773   0.015079  -0.056783   0.007510 -13.034570
     8  C    0.001592  -0.000199  -0.002502   0.078037   0.077349 -28.743150
     9  C   -0.000059   0.000200  -0.000364  -0.012221  -0.095991   6.213245
    10  C   -0.000010   0.000057   0.006305   0.340094  -0.042680  -0.397504
    11  C    0.000002  -0.001224   0.025167  -0.024120   0.442713   3.474151
    12  C   -0.000034   0.002363  -0.018843  -0.007907  -0.051223  -2.458721
    13  H    0.511539  -0.005102  -0.000341  -0.000000  -0.000000  -0.004850
    14  H   -0.005102   0.535752  -0.008507  -0.000000  -0.000000  -0.004185
    15  H   -0.000341  -0.008507   0.586375  -0.000002   0.000006  -0.017500
    16  H   -0.000000  -0.000000  -0.000002   0.516685  -0.004629   0.034584
    17  H   -0.000000  -0.000000   0.000006  -0.004629   0.520075   0.018988
    18  Cl  -0.004850  -0.004185  -0.017500   0.034584   0.018988  97.051767
    19  Cl   0.018555   0.013612   0.024743  -0.006623  -0.004605 -63.498287
    20  Cl   0.000000  -0.000001   0.000070  -0.004619  -0.001594  -0.284757
    21  Cl  -0.000291  -0.000608   0.000863  -0.000001  -0.000002  -0.702378
    22  Cl   0.000201  -0.000273  -0.056496   0.003231  -0.010284   0.077643
              19         20         21         22
     1  C   -9.469791  -0.120998  -0.562473   0.375544
     2  C  -16.901816  -0.060104   0.815889  -0.104484
     3  C    5.622726  -0.004483  -0.160705   0.011953
     4  C   -1.628480   0.000961  -1.002910  -0.026835
     5  C    2.354410   0.002997  -0.043503  -0.498392
     6  C   -2.601628  -0.025111   0.178254  -0.207775
     7  C    5.716546  -0.498267  -0.121943   0.111154
     8  C   20.151862   0.663017   0.011609   0.120894
     9  C   -3.712027  -0.021147  -0.037729   0.149083
    10  C    0.540617  -0.781718   0.002832  -0.241518
    11  C   -1.519664  -0.020700  -0.004815  -0.063108
    12  C    1.133884   0.244390  -0.053399  -0.658703
    13  H    0.018555   0.000000  -0.000291   0.000201
    14  H    0.013612  -0.000001  -0.000608  -0.000273
    15  H    0.024743   0.000070   0.000863  -0.056496
    16  H   -0.006623  -0.004619  -0.000001   0.003231
    17  H   -0.004605  -0.001594  -0.000002  -0.010284
    18  Cl -63.498287  -0.284757  -0.702378   0.077643
    19  Cl  79.502935  -0.304756   0.296428  -0.057916
    20  Cl  -0.304756  17.748821  -0.002767  -0.004024
    21  Cl   0.296428  -0.002767  17.839925   0.000239
    22  Cl  -0.057916  -0.004024   0.000239  17.544102
 Mulliken charges:
               1
     1  C   -0.414653
     2  C   -1.266244
     3  C    0.298650
     4  C   -0.435328
     5  C   -0.085319
     6  C   -0.454274
     7  C   -0.377066
     8  C   -1.535471
     9  C    0.317660
    10  C   -0.509742
    11  C   -0.225260
    12  C   -0.326786
    13  H    0.149346
    14  H    0.134032
    15  H    0.140165
    16  H    0.148610
    17  H    0.147719
    18  Cl   1.406643
    19  Cl   1.329275
    20  Cl   0.474791
    21  Cl   0.547485
    22  Cl   0.535767
 Sum of Mulliken charges =  -0.00000
 Mulliken charges with hydrogens summed into heavy atoms:
               1
     1  C   -0.414653
     2  C   -1.266244
     3  C    0.298650
     4  C   -0.285982
     5  C    0.048713
     6  C   -0.314109
     7  C   -0.377066
     8  C   -1.535471
     9  C    0.317660
    10  C   -0.361132
    11  C   -0.077541
    12  C   -0.326786
    18  Cl   1.406643
    19  Cl   1.329275
    20  Cl   0.474791
    21  Cl   0.547485
    22  Cl   0.535767
 Electronic spatial extent (au):  <R**2>=           6569.1701
 Charge=             -0.0000 electrons
 Dipole moment (field-independent basis, Debye):
    X=             -0.1964    Y=              1.0963    Z=             -0.0000  Tot=              1.1138
 Quadrupole moment (field-independent basis, Debye-Ang):
   XX=           -129.5801   YY=           -129.2794   ZZ=           -135.9880
   XY=             -1.6146   XZ=             -0.0000   YZ=              0.0000
 Traceless Quadrupole moment (field-independent basis, Debye-Ang):
   XX=              2.0358   YY=              2.3364   ZZ=             -4.3722
   XY=             -1.6146   XZ=             -0.0000   YZ=              0.0000
 Octapole moment (field-independent basis, Debye-Ang**2):
  XXX=             16.8504  YYY=            -20.4032  ZZZ=             -0.0001  XYY=            -21.1204
  XXY=             52.2563  XXZ=             -0.0001  XZZ=              0.0580  YZZ=            -15.0650
  YYZ=              0.0000  XYZ=             -0.0000
 Hexadecapole moment (field-independent basis, Debye-Ang**3):
 XXXX=          -5527.8248 YYYY=          -2884.2217 ZZZZ=           -160.8446 XXXY=              9.0767
 XXXZ=             -0.0005 YYYX=            -33.4545 YYYZ=              0.0001 ZZZX=              0.0001
 ZZZY=             -0.0001 XXYY=          -1407.4882 XXZZ=          -1031.9831 YYZZ=           -539.9490
 XXYZ=             -0.0001 YYXZ=             -0.0002 ZZXY=              9.4217
 N-N= 1.794359078331D+03 E-N=-1.012519992160D+04  KE= 2.755583966747D+03
 Calling FoFJK, ICntrl=      2127 FMM=F ISym2X=0 I1Cent= 0 IOpClX= 0 NMat=1 NMatS=1 NMatT=0.
 ***** Axes restored to original set *****
 -------------------------------------------------------------------
 Center     Atomic                   Forces (Hartrees/Bohr)
 Number     Number              X              Y              Z
 -------------------------------------------------------------------
      1        6          -0.002173101   -0.022242830   -0.003461695
      2        6          -0.025360942    0.048701276    0.017501922
      3        6          -0.007241510   -0.008369571    0.000813971
      4        6          -0.008972799   -0.008672995    0.001327027
      5        6           0.014540453   -0.016830742   -0.007951313
      6        6           0.019244982    0.001278730   -0.006100186
      7        6           0.022513863    0.004012880   -0.006663489
      8        6          -0.103875955   -0.024426746    0.029634802
      9        6          -0.002121996    0.022599494    0.004943548
     10        6           0.005583264    0.012208334    0.000453483
     11        6           0.014025779   -0.001440277   -0.004891258
     12        6           0.023332144   -0.011453274   -0.009838041
     13        1           0.006113221    0.007361188   -0.000631506
     14        1          -0.003901196    0.008754999    0.002929575
     15        1           0.004117556    0.004726701   -0.000468924
     16        1          -0.006035832   -0.008510399    0.000390165
     17        1          -0.009452447   -0.000326983    0.003052722
     18       17          -0.233842128   -0.445596940   -0.006647908
     19       17           0.316876907    0.452227866   -0.019462908
     20       17          -0.003934544   -0.010207442   -0.000620827
     21       17           0.003431839    0.009314508    0.000618699
     22       17          -0.022867559   -0.013107776    0.005072140
 -------------------------------------------------------------------
 Cartesian Forces:  Max     0.452227866 RMS     0.093710559

 GradGradGradGradGradGradGradGradGradGradGradGradGradGradGradGradGradGrad
 Berny optimization.
 FormGI is forming the generalized inverse of G from B-inverse, IUseBI=4.
 Internal  Forces:  Max     0.571045349 RMS     0.060496577
 Search for a local minimum.
 Step number   1 out of a maximum of  112
 All quantities printed in internal units (Hartrees-Bohrs-Radians)
 Mixed Optimization -- RFO/linear search
 Second derivative matrix not updated -- first step.
 ITU=  0
     Eigenvalues ---    0.00238   0.00238   0.01655   0.01655   0.02070
     Eigenvalues ---    0.02070   0.02070   0.02070   0.02070   0.02070
     Eigenvalues ---    0.02070   0.02070   0.02070   0.02070   0.02070
     Eigenvalues ---    0.02070   0.02070   0.02070   0.04301   0.16000
     Eigenvalues ---    0.16000   0.16000   0.16000   0.16000   0.22076
     Eigenvalues ---    0.22472   0.23331   0.24476   0.24905   0.25000
     Eigenvalues ---    0.25000   0.25000   0.25000   0.25000   0.25000
     Eigenvalues ---    0.25000   0.25000   0.29539   0.29539   0.29539
     Eigenvalues ---    0.29539   0.29539   0.37230   0.37230   0.37230
     Eigenvalues ---    0.37230   0.37230   0.41539   0.41658   0.41990
     Eigenvalues ---    0.42024   0.45389   0.45389   0.45389   0.45389
     Eigenvalues ---    0.45389   0.45389   0.45389   0.45389   1.32680
 RFO step:  Lambda=-2.87348375D-01 EMin= 2.37799066D-03
 Linear search not attempted -- first point.
 Maximum step size (   0.300) exceeded in Quadratic search.
    -- Step size scaled by   0.567
 Iteration  1 RMS(Cart)=  0.35990448 RMS(Int)=  0.00980711
 Iteration  2 RMS(Cart)=  0.05722886 RMS(Int)=  0.00030316
 Iteration  3 RMS(Cart)=  0.00078432 RMS(Int)=  0.00001940
 Iteration  4 RMS(Cart)=  0.00000010 RMS(Int)=  0.00001940
 Variable       Old X    -DE/DX   Delta X   Delta X   Delta X     New X
                                 (Linear)    (Quad)   (Total)
    R1        2.64826  -0.01402   0.00000  -0.01056  -0.01054   2.63772
    R2        2.64826  -0.00346   0.00000  -0.00262  -0.00260   2.64566
    R3        2.64826  -0.00028   0.00000  -0.00009  -0.00008   2.64818
    R4        3.32592   0.02171   0.00000   0.02112   0.02112   3.34703
    R5        2.64826  -0.01658   0.00000  -0.01271  -0.01273   2.63554
    R6        3.32592   0.00327   0.00000   0.00318   0.00318   3.32910
    R7        2.64826  -0.02038   0.00000  -0.01574  -0.01576   2.63250
    R8        2.02201   0.00944   0.00000   0.00811   0.00811   2.03012
    R9        2.64826  -0.00499   0.00000  -0.00394  -0.00395   2.64432
   R10        2.02201   0.01000   0.00000   0.00859   0.00859   2.03060
   R11        2.02201  -0.00416   0.00000  -0.00357  -0.00357   2.01843
   R12        2.64826  -0.00582   0.00000  -0.00398  -0.00394   2.64432
   R13        2.64826   0.01487   0.00000   0.01181   0.01184   2.66010
   R14        2.64826  -0.00243   0.00000  -0.00183  -0.00181   2.64645
   R15        3.32592   0.08606   0.00000   0.08371   0.08371   3.40963
   R16        2.64826  -0.02053   0.00000  -0.01614  -0.01616   2.63210
   R17        3.32592   0.00703   0.00000   0.00684   0.00684   3.33275
   R18        2.64826  -0.02929   0.00000  -0.02287  -0.02291   2.62536
   R19        2.02201   0.01040   0.00000   0.00893   0.00893   2.03094
   R20        2.64826  -0.00894   0.00000  -0.00687  -0.00688   2.64138
   R21        2.02201   0.00994   0.00000   0.00854   0.00854   2.03055
   R22        3.32592   0.00070   0.00000   0.00068   0.00068   3.32660
   R23        3.16132   0.57105   0.00000   0.20053   0.20053   3.36185
    A1        2.09440  -0.02655   0.00000  -0.02775  -0.02770   2.06669
    A2        2.09440   0.01587   0.00000   0.01703   0.01706   2.11145
    A3        2.09440  -0.00427   0.00000  -0.00465  -0.00466   2.08973
    A4        2.09440  -0.01160   0.00000  -0.01238  -0.01239   2.08200
    A5        2.09440   0.00118   0.00000   0.00128   0.00126   2.09566
    A6        2.09440   0.01503   0.00000   0.01584   0.01585   2.11024
    A7        2.09440  -0.01621   0.00000  -0.01712  -0.01711   2.07729
    A8        2.09440  -0.00813   0.00000  -0.00948  -0.00951   2.08488
    A9        2.09440   0.00238   0.00000   0.00261   0.00262   2.09702
   A10        2.09440   0.00575   0.00000   0.00687   0.00689   2.10128
   A11        2.09440   0.00411   0.00000   0.00406   0.00404   2.09843
   A12        2.09440  -0.00272   0.00000  -0.00288  -0.00286   2.09153
   A13        2.09440  -0.00139   0.00000  -0.00119  -0.00117   2.09322
   A14        2.09440   0.01352   0.00000   0.01486   0.01486   2.10926
   A15        2.09440  -0.00199   0.00000  -0.00139  -0.00140   2.09300
   A16        2.09440  -0.01152   0.00000  -0.01346  -0.01347   2.08093
   A17        2.09440  -0.03321   0.00000  -0.03317  -0.03307   2.06132
   A18        2.09440   0.00897   0.00000   0.01014   0.01019   2.10458
   A19        2.09440   0.02454   0.00000   0.02555   0.02553   2.11992
   A20        2.09440  -0.03351   0.00000  -0.03569  -0.03571   2.05868
   A21        2.09440   0.01219   0.00000   0.01225   0.01223   2.10663
   A22        2.09440   0.00789   0.00000   0.00862   0.00863   2.10302
   A23        2.09440  -0.02007   0.00000  -0.02087  -0.02086   2.07353
   A24        2.09440  -0.00934   0.00000  -0.01183  -0.01190   2.08250
   A25        2.09440   0.00566   0.00000   0.00716   0.00720   2.10159
   A26        2.09440   0.00369   0.00000   0.00467   0.00470   2.09910
   A27        2.09440   0.00448   0.00000   0.00422   0.00416   2.09856
   A28        2.09440  -0.00236   0.00000  -0.00226  -0.00223   2.09216
   A29        2.09440  -0.00212   0.00000  -0.00196  -0.00193   2.09246
   A30        2.09440   0.01692   0.00000   0.01839   0.01839   2.11279
   A31        2.09440   0.03616   0.00000   0.03788   0.03787   2.13227
   A32        2.09440  -0.05308   0.00000  -0.05626  -0.05627   2.03813
   A33        2.09440   0.15544   0.00000   0.16397   0.16397   2.25836
   A34        2.09440   0.04479   0.00000   0.04725   0.04725   2.14165
    D1        0.00000  -0.00000   0.00000  -0.00000  -0.00000   0.00000
    D2        3.14159   0.00000   0.00000   0.00000   0.00000   3.14159
    D3       -0.00000   0.00000   0.00000   0.00000   0.00000  -0.00000
    D4        3.14159  -0.00000   0.00000  -0.00000  -0.00000   3.14159
    D5        0.00000   0.00000   0.00000   0.00000   0.00000   0.00000
    D6        3.14159   0.00000   0.00000   0.00000   0.00000   3.14159
    D7       -3.14159  -0.00000   0.00000  -0.00000  -0.00000  -3.14159
    D8        0.00000  -0.00000   0.00000  -0.00000  -0.00000   0.00000
    D9        0.00000  -0.00000   0.00000  -0.00000  -0.00000   0.00000
   D10       -3.14159  -0.00000   0.00000  -0.00000  -0.00000  -3.14159
   D11       -0.00000   0.00000   0.00000   0.00000   0.00000  -0.00000
   D12        3.14159  -0.00000   0.00000  -0.00000  -0.00000   3.14159
   D13        3.14159  -0.00000   0.00000  -0.00000  -0.00000   3.14159
   D14        0.00000  -0.00000   0.00000  -0.00000  -0.00000   0.00000
   D15        0.00000  -0.00000   0.00000  -0.00000  -0.00000   0.00000
   D16       -3.14159  -0.00000   0.00000  -0.00000  -0.00000  -3.14159
   D17       -3.14159  -0.00000   0.00000  -0.00000  -0.00000  -3.14159
   D18        0.00000  -0.00000   0.00000  -0.00000  -0.00000   0.00000
   D19       -0.00000   0.00000   0.00000   0.00000   0.00000  -0.00000
   D20        3.14159   0.00000   0.00000   0.00000   0.00000   3.14159
   D21        3.14159   0.00000   0.00000   0.00000   0.00000   3.14159
   D22       -0.00000   0.00000   0.00000   0.00000   0.00000  -0.00000
   D23        0.00000  -0.00000   0.00000  -0.00000  -0.00000   0.00000
   D24       -3.14159   0.00000   0.00000   0.00000   0.00000  -3.14159
   D25       -0.00000   0.00000   0.00000   0.00000   0.00000  -0.00000
   D26        3.14159   0.00000   0.00000   0.00000   0.00000   3.14159
   D27       -0.00000   0.00000   0.00000   0.00000   0.00000  -0.00000
   D28        3.14159   0.00000   0.00000   0.00000   0.00000   3.14159
   D29        3.14159  -0.00000   0.00000  -0.00000  -0.00000   3.14159
   D30       -0.00000  -0.00000   0.00000  -0.00000  -0.00000  -0.00000
   D31        0.00000  -0.00000   0.00000  -0.00000  -0.00000  -0.00000
   D32       -3.14159  -0.00000   0.00000  -0.00000  -0.00000  -3.14159
   D33       -0.00000  -0.00000   0.00000  -0.00000  -0.00000  -0.00000
   D34       -3.14159  -0.00000   0.00000  -0.00000  -0.00000  -3.14159
   D35        3.14159   0.00000   0.00000   0.00000   0.00000   3.14159
   D36        0.00000  -0.00000   0.00000  -0.00000  -0.00000   0.00000
   D37        0.00000  -0.00000   0.00000  -0.00000  -0.00000   0.00000
   D38       -3.14159  -0.00000   0.00000  -0.00000  -0.00000  -3.14159
   D39        3.14159   0.00000   0.00000   0.00000   0.00000   3.14159
   D40        0.00000  -0.00000   0.00000  -0.00000  -0.00000   0.00000
   D41        0.00000  -0.00000   0.00000  -0.00000  -0.00000   0.00000
   D42       -3.14159  -0.00000   0.00000  -0.00000  -0.00000  -3.14159
   D43        3.14159   0.00000   0.00000   0.00000   0.00000   3.14159
   D44       -0.00000   0.00000   0.00000   0.00000   0.00000  -0.00000
   D45       -0.00000  -0.00000   0.00000  -0.00000  -0.00000  -0.00001
         Item               Value     Threshold  Converged?
 Maximum Force            0.571045     0.000450     NO 
 RMS     Force            0.060497     0.000300     NO 
 Maximum Displacement     1.305890     0.001800     NO 
 RMS     Displacement     0.413797     0.001200     NO 
 Predicted change in Energy=-1.296455D-01
 GradGradGradGradGradGradGradGradGradGradGradGradGradGradGradGradGradGrad

                          Input orientation:                          
 ---------------------------------------------------------------------
 Center     Atomic      Atomic             Coordinates (Angstroms)
 Number     Number       Type             X           Y           Z
 ---------------------------------------------------------------------
      1          6           0       -0.595516    5.593290   -0.009854
      2          6           0        0.720300    5.486936   -0.463327
      3          6           0        1.554375    6.611245   -0.526960
      4          6           0        1.074548    7.860502   -0.134256
      5          6           0       -0.237039    7.978680    0.320042
      6          6           0       -1.065512    6.852657    0.381507
      7          6           0       -2.113363    3.269255    0.053740
      8          6           0       -1.339400    2.196542   -0.402715
      9          6           0       -1.878530    0.905662   -0.467535
     10          6           0       -3.194234    0.664191   -0.079416
     11          6           0       -3.973914    1.720124    0.375772
     12          6           0       -3.441289    3.010692    0.442677
     13          1           0        1.712873    8.723241   -0.182523
     14          1           0       -0.613063    8.938255    0.624139
     15          1           0       -2.068445    6.961590    0.732384
     16          1           0       -3.603259   -0.328316   -0.131061
     17          1           0       -4.990048    1.543914    0.677454
     18         17           0        0.372796    2.425188   -0.923865
     19         17           0        1.351062    3.910453   -0.967209
     20         17           0       -0.900948   -0.444628   -1.043207
     21         17           0        3.214807    6.474924   -1.099594
     22         17           0       -4.509092    4.279712    1.032811
 ---------------------------------------------------------------------
                    Distance matrix (angstroms):
                    1          2          3          4          5
     1  C    0.000000
     2  C    1.395822   0.000000
     3  C    2.434268   1.401357   0.000000
     4  C    2.818659   2.422311   1.394666   0.000000
     5  C    2.434630   2.781897   2.407583   1.393059   0.000000
     6  C    1.400023   2.401679   2.783415   2.421078   1.399312
     7  C    2.776516   3.635260   4.995839   5.592644   5.076435
     8  C    3.499372   3.882362   5.280055   6.162764   5.930489
     9  C    4.881543   5.267069   6.658983   7.563170   7.303585
    10  C    5.572629   6.223331   7.623453   8.367341   7.899767
    11  C    5.153998   6.076891   7.436395   7.965634   7.289503
    12  C    3.869499   4.926607   6.233847   6.651789   5.912966
    13  H    3.892951   3.396722   2.145760   1.074294   2.146882
    14  H    3.404562   3.856428   3.381980   2.141202   1.074548
    15  H    2.143054   3.373637   3.851430   3.381939   2.135075
    16  H    6.642788   7.254014   8.655370   9.430728   8.974470
    17  H    6.015127   7.032559   8.364086   8.794173   8.007812
    18  Cl   3.436555   3.115631   4.367693   5.537019   5.723677
    19  Cl   2.745475   1.771174   2.743981   4.046375   4.552972
    20  Cl   6.133315   6.176420   7.488689   8.585101   8.558699
    21  Cl   4.059972   2.757448   1.761683   2.726245   4.023915
    22  Cl   4.257783   5.571568   6.680911   6.735068   5.695686
                    6          7          8          9         10
     6  C    0.000000
     7  C    3.747825   0.000000
     8  C    4.729633   1.399315   0.000000
     9  C    6.062064   2.431758   1.400441   0.000000
    10  C    6.560566   2.823539   2.427556   1.392846   0.000000
    11  C    5.899299   2.442368   2.788131   2.401072   1.389278
    12  C    4.517605   1.407663   2.407377   2.775221   2.416544
    13  H    3.396563   6.666473   7.208513   8.607785   9.436028
    14  H    2.147859   5.891843   6.858038   8.204615   8.695836
    15  H    1.068108   3.754452   4.952336   6.176579   6.448539
    16  H    7.633430   3.898264   3.402023   2.147232   1.074727
    17  H    6.608504   3.411912   3.862631   3.376375   2.138157
    18  Cl   4.834791   2.801632   1.804298   2.754209   4.066682
    19  Cl   4.039236   3.668203   3.239558   4.439450   5.655627
    20  Cl   7.436885   4.057852   2.752862   1.763618   2.723514
    21  Cl   4.545049   6.324230   6.287369   7.573524   8.710982
    22  Cl   4.347699   2.778331   4.055524   4.533774   4.004734
                   11         12         13         14         15
    11  C    0.000000
    12  C    1.397759   0.000000
    13  H    9.038522   7.719423   0.000000
    14  H    7.966079   6.570220   2.471217   0.000000
    15  H    5.588465   4.192639   4.270695   2.457043   0.000000
    16  H    2.142516   3.391811  10.497361   9.766316   7.499594
    17  H    1.074519   2.145976   9.859587   8.592853   6.155485
    18  Cl   4.591302   4.093592   6.481579   6.766703   5.411262
    19  Cl   5.912403   5.075823   4.889741   5.627518   4.887850
    20  Cl   4.017807   4.538768   9.571973   9.534223   7.705052
    21  Cl   8.744286   7.660491   2.855128   4.867427   5.612997
    22  Cl   2.696220   1.760362   7.741759   6.086713   3.638610
                   16         17         18         19         20
    16  H    0.000000
    17  H    2.466197   0.000000
    18  Cl   4.900952   5.665771   0.000000
    19  Cl   6.573553   6.965278   1.779016   0.000000
    20  Cl   2.854474   4.861657   3.142055   4.903474   0.000000
    21  Cl   9.680298   9.736140   4.950583   3.172946   8.051262
    22  Cl   4.838291   2.800391   5.576797   6.203051   6.296661
                   21         22
    21  Cl   0.000000
    22  Cl   8.308112   0.000000
 Stoichiometry    C12H5Cl5
 Framework group  C1[X(C12H5Cl5)]
 Deg. of freedom    60
 Full point group                 C1      NOp   1
 Largest Abelian subgroup         C1      NOp   1
 Largest concise Abelian subgroup C1      NOp   1
                         Standard orientation:                         
 ---------------------------------------------------------------------
 Center     Atomic      Atomic             Coordinates (Angstroms)
 Number     Number       Type             X           Y           Z
 ---------------------------------------------------------------------
      1          6           0       -1.360441    1.154045    0.000007
      2          6           0       -2.145675    0.000040    0.000002
      3          6           0       -3.544770    0.079629    0.000000
      4          6           0       -4.173953    1.324306    0.000002
      5          6           0       -3.400445    2.482882    0.000009
      6          6           0       -2.003739    2.397521    0.000011
      7          6           0        1.395906    0.819990    0.000001
      8          6           0        1.698052   -0.546315    0.000002
      9          6           0        3.029087   -0.981723    0.000002
     10          6           0        4.077321   -0.064539   -0.000000
     11          6           0        3.791628    1.295047   -0.000002
     12          6           0        2.465109    1.735589   -0.000002
     13          1           0       -5.246429    1.386779    0.000000
     14          1           0       -3.878823    3.445071    0.000013
     15          1           0       -1.426301    3.296087    0.000016
     16          1           0        5.097089   -0.403819   -0.000002
     17          1           0        4.593416    2.010397   -0.000007
     18         17           0        0.398666   -1.798150    0.000000
     19         17           0       -1.368297   -1.591419   -0.000003
     20         17           0        3.407212   -2.704328    0.000005
     21         17           0       -4.534061   -1.378051   -0.000007
     22         17           0        2.207806    3.477045   -0.000007
 ---------------------------------------------------------------------
 Rotational constants (GHZ):           0.4094572           0.1874293           0.1285743
 Standard basis: 6-311+G(d,p) (5D, 7F)
 There are   461 symmetry adapted cartesian basis functions of A   symmetry.
 There are   444 symmetry adapted basis functions of A   symmetry.
   444 basis functions,   737 primitive gaussians,   461 cartesian basis functions
    81 alpha electrons       81 beta electrons
       nuclear repulsion energy      1724.0974519583 Hartrees.
 NAtoms=   22 NActive=   22 NUniq=   22 SFac= 1.00D+00 NAtFMM=   60 NAOKFM=F Big=F
 Integral buffers will be    131072 words long.
 Raffenetti 2 integral format.
 Two-electron integral symmetry is turned on.
 One-electron integrals computed using PRISM.
 NBasis=   444 RedAO= T EigKep=  1.94D-06  NBF=   444
 NBsUse=   439 1.00D-06 EigRej=  8.12D-07 NBFU=   439
 Initial guess from the checkpoint file:  "./Gau-145752.chk"
 B after Tr=    -0.000000    0.000000    0.000000
         Rot=    0.998534    0.000000    0.000000    0.054135 Ang=   6.21 deg.
 ExpMin= 4.38D-02 ExpMax= 1.06D+05 ExpMxC= 3.62D+03 IAcc=3 IRadAn=         5 AccDes= 0.00D+00
 Harris functional with IExCor=  402 and IRadAn=       5 diagonalized for initial guess.
 HarFok:  IExCor=  402 AccDes= 0.00D+00 IRadAn=         5 IDoV= 1 UseB2=F ITyADJ=14
 ICtDFT=  3500011 ScaDFX=  1.000000  1.000000  1.000000  1.000000
 FoFCou: FMM=F IPFlag=           0 FMFlag=      100000 FMFlg1=           0
         NFxFlg=           0 DoJE=T BraDBF=F KetDBF=T FulRan=T
         wScrn=  0.000000 ICntrl=       500 IOpCl=  0 I1Cent=   200000004 NGrid=           0
         NMat0=    1 NMatS0=      1 NMatT0=    0 NMatD0=    1 NMtDS0=    0 NMtDT0=    0
 Petite list used in FoFCou.
 Requested convergence on RMS density matrix=1.00D-08 within  32 cycles.
 Requested convergence on MAX density matrix=1.00D-06.
 Requested convergence on             energy=1.00D-06.
 No special actions if energy rises.
 Restarting incremental Fock formation.
 SCF Done:  E(RB3LYP) =  -2761.03846054     A.U. after   21 cycles
            NFock= 21  Conv=0.44D-08     -V/T= 2.0023
 QCSCF skips out because SCF is already converged.
 Calling FoFJK, ICntrl=      2127 FMM=F ISym2X=0 I1Cent= 0 IOpClX= 0 NMat=1 NMatS=1 NMatT=0.
 ***** Axes restored to original set *****
 -------------------------------------------------------------------
 Center     Atomic                   Forces (Hartrees/Bohr)
 Number     Number              X              Y              Z
 -------------------------------------------------------------------
      1        6           0.018674709    0.000311039   -0.006094035
      2        6          -0.045321910    0.035107262    0.021524854
      3        6           0.002874019   -0.009674868   -0.002763793
      4        6          -0.007111995   -0.006089282    0.001199247
      5        6           0.003907887   -0.010410522   -0.003242620
      6        6           0.009308392   -0.010819592   -0.005098630
      7        6           0.013013375   -0.039186292   -0.011646941
      8        6          -0.091380434    0.008093861    0.031626103
      9        6           0.008870114    0.006973767   -0.001612576
     10        6           0.001838117    0.008244206    0.000942811
     11        6           0.006394470    0.000032003   -0.002100527
     12        6           0.023522722    0.003572106   -0.007078967
     13        1           0.005048589    0.002962146   -0.001106944
     14        1          -0.002180915    0.006390883    0.001918822
     15        1          -0.011223943   -0.000024853    0.003693068
     16        1          -0.001027652   -0.005330237   -0.000662570
     17        1          -0.006138863   -0.000654810    0.001899447
     18       17          -0.155674676   -0.241868539    0.005861643
     19       17           0.222486409    0.249721314   -0.026398256
     20       17          -0.000739870   -0.006302735   -0.000939957
     21       17           0.003621387    0.004105996   -0.000421938
     22       17           0.001240069    0.004847147    0.000501758
 -------------------------------------------------------------------
 Cartesian Forces:  Max     0.249721314 RMS     0.056747505

 GradGradGradGradGradGradGradGradGradGradGradGradGradGradGradGradGradGrad
 Berny optimization.
 Using GEDIIS/GDIIS optimizer.
 FormGI is forming the generalized inverse of G from B-inverse, IUseBI=4.
 Internal  Forces:  Max     0.328820480 RMS     0.035288480
 Search for a local minimum.
 Step number   2 out of a maximum of  112
 All quantities printed in internal units (Hartrees-Bohrs-Radians)
 Mixed Optimization -- RFO/linear search
 Update second derivatives using D2CorX and points    1    2
 DE= -9.34D-02 DEPred=-1.30D-01 R= 7.20D-01
 TightC=F SS=  1.41D+00  RLast= 3.00D-01 DXNew= 5.0454D-01 9.0000D-01
 Trust test= 7.20D-01 RLast= 3.00D-01 DXMaxT set to 5.05D-01
 ITU=  1  0
 Use linear search instead of GDIIS.
     Eigenvalues ---    0.00238   0.00238   0.01656   0.01663   0.02070
     Eigenvalues ---    0.02070   0.02070   0.02070   0.02070   0.02070
     Eigenvalues ---    0.02070   0.02070   0.02070   0.02070   0.02070
     Eigenvalues ---    0.02070   0.02070   0.02070   0.04301   0.15995
     Eigenvalues ---    0.16000   0.16000   0.16000   0.16007   0.21929
     Eigenvalues ---    0.22183   0.22485   0.23363   0.24486   0.24913
     Eigenvalues ---    0.25000   0.25000   0.25000   0.25000   0.25000
     Eigenvalues ---    0.25000   0.28071   0.29527   0.29539   0.29539
     Eigenvalues ---    0.29539   0.36976   0.37131   0.37230   0.37230
     Eigenvalues ---    0.37230   0.39369   0.41432   0.41556   0.42046
     Eigenvalues ---    0.43335   0.45257   0.45389   0.45389   0.45389
     Eigenvalues ---    0.45389   0.45389   0.45389   0.49692   1.35376
 RFO step:  Lambda=-2.40636736D-01 EMin= 2.37799066D-03
 Quartic linear search produced a step of  1.29060.
 Maximum step size (   0.505) exceeded in Quadratic search.
    -- Step size scaled by   0.762
 Iteration  1 RMS(Cart)=  0.15649971 RMS(Int)=  0.03098137
 Iteration  2 RMS(Cart)=  0.05799043 RMS(Int)=  0.00948715
 Iteration  3 RMS(Cart)=  0.02144495 RMS(Int)=  0.00012089
 Iteration  4 RMS(Cart)=  0.00000304 RMS(Int)=  0.00012089
 Iteration  5 RMS(Cart)=  0.00000000 RMS(Int)=  0.00012089
 Variable       Old X    -DE/DX   Delta X   Delta X   Delta X     New X
                                 (Linear)    (Quad)   (Total)
    R1        2.63772  -0.02237  -0.01360  -0.05206  -0.06553   2.57219
    R2        2.64566  -0.01331  -0.00336  -0.03170  -0.03512   2.61054
    R3        2.64818  -0.00589  -0.00011  -0.01457  -0.01448   2.63370
    R4        3.34703   0.02127   0.02725   0.06310   0.09036   3.43739
    R5        2.63554  -0.00281  -0.01642  -0.00326  -0.01962   2.61592
    R6        3.32910   0.00323   0.00410   0.00960   0.01370   3.34280
    R7        2.63250   0.00095  -0.02034   0.00697  -0.01351   2.61899
    R8        2.03012   0.00543   0.01047   0.01320   0.02368   2.05380
    R9        2.64432  -0.00046  -0.00509   0.00033  -0.00496   2.63936
   R10        2.03060   0.00701   0.01109   0.01740   0.02849   2.05909
   R11        2.01843   0.01175  -0.00461   0.03241   0.02779   2.04623
   R12        2.64432  -0.05180  -0.00509  -0.12523  -0.13016   2.51416
   R13        2.66010  -0.02806   0.01528  -0.07129  -0.05609   2.60401
   R14        2.64645  -0.00619  -0.00234  -0.01520  -0.01731   2.62914
   R15        3.40963   0.04779   0.10804   0.13730   0.24534   3.65497
   R16        2.63210  -0.00004  -0.02086   0.00527  -0.01551   2.61659
   R17        3.33275   0.00472   0.00882   0.01374   0.02257   3.35532
   R18        2.62536   0.00070  -0.02956   0.00945  -0.02026   2.60509
   R19        2.03094   0.00535   0.01153   0.01283   0.02436   2.05530
   R20        2.64138   0.00004  -0.00888   0.00252  -0.00658   2.63480
   R21        2.03055   0.00645   0.01102   0.01588   0.02690   2.05744
   R22        3.32660   0.00291   0.00088   0.00891   0.00979   3.33639
   R23        3.36185   0.32882   0.25880   0.26300   0.52181   3.88366
    A1        2.06669   0.00341  -0.03575   0.01046  -0.02520   2.04149
    A2        2.11145   0.01169   0.02201   0.03591   0.05823   2.16968
    A3        2.08973  -0.02278  -0.00602  -0.07547  -0.08164   2.00809
    A4        2.08200   0.01109  -0.01600   0.03956   0.02341   2.10541
    A5        2.09566  -0.01097   0.00163  -0.03685  -0.03497   2.06069
    A6        2.11024   0.01287   0.02045   0.04201   0.06234   2.17258
    A7        2.07729  -0.00191  -0.02208  -0.00516  -0.02737   2.04992
    A8        2.08488   0.00046  -0.01228   0.00498  -0.00737   2.07751
    A9        2.09702  -0.00272   0.00339  -0.01285  -0.00943   2.08759
   A10        2.10128   0.00226   0.00889   0.00787   0.01680   2.11808
   A11        2.09843   0.00105   0.00521   0.00634   0.01122   2.10965
   A12        2.09153  -0.00084  -0.00370  -0.00449  -0.00802   2.08351
   A13        2.09322  -0.00021  -0.00151  -0.00185  -0.00320   2.09002
   A14        2.10926  -0.00564   0.01918  -0.02084  -0.00191   2.10734
   A15        2.09300   0.00156  -0.00180   0.00538   0.00370   2.09670
   A16        2.08093   0.00408  -0.01738   0.01546  -0.00179   2.07914
   A17        2.06132   0.00998  -0.04269   0.02795  -0.01462   2.04670
   A18        2.10458   0.01240   0.01315   0.03673   0.05023   2.15481
   A19        2.11992  -0.03340   0.03294  -0.11275  -0.07999   2.03993
   A20        2.05868   0.02100  -0.04609   0.07602   0.02976   2.08844
   A21        2.10663  -0.01196   0.01579  -0.03950  -0.02342   2.08320
   A22        2.10302   0.01322   0.01114   0.04296   0.05395   2.15698
   A23        2.07353  -0.00125  -0.02692  -0.00346  -0.03053   2.04300
   A24        2.08250  -0.00274  -0.01536  -0.00190  -0.01734   2.06516
   A25        2.10159   0.00020   0.00929  -0.00386   0.00546   2.10705
   A26        2.09910   0.00254   0.00607   0.00576   0.01188   2.11097
   A27        2.09856  -0.00486   0.00537  -0.01168  -0.00669   2.09187
   A28        2.09216   0.00285  -0.00288   0.00758   0.00489   2.09705
   A29        2.09246   0.00201  -0.00249   0.00411   0.00181   2.09427
   A30        2.11279  -0.00282   0.02374  -0.01159   0.01185   2.12463
   A31        2.13227  -0.00541   0.04888  -0.02113   0.02790   2.16017
   A32        2.03813   0.00823  -0.07262   0.03272  -0.03974   1.99839
   A33        2.25836  -0.00671   0.21162  -0.03624   0.17538   2.43374
   A34        2.14165  -0.09014   0.06098  -0.30830  -0.24732   1.89433
    D1        0.00000  -0.00000  -0.00000  -0.00000  -0.00000   0.00000
    D2        3.14159  -0.00000   0.00000  -0.00000   0.00000  -3.14159
    D3       -0.00000   0.00000   0.00000   0.00000   0.00000  -0.00000
    D4        3.14159   0.00000  -0.00000   0.00000   0.00000   3.14159
    D5        0.00000  -0.00000   0.00000  -0.00000   0.00000   0.00000
    D6        3.14159   0.00000   0.00000   0.00000   0.00000   3.14159
    D7       -3.14159  -0.00000  -0.00000  -0.00000  -0.00000  -3.14159
    D8        0.00000   0.00000  -0.00000   0.00000  -0.00000   0.00000
    D9        0.00000   0.00000  -0.00000   0.00000  -0.00000   0.00000
   D10       -3.14159   0.00000  -0.00000   0.00000   0.00000  -3.14159
   D11       -0.00000   0.00000   0.00000   0.00000   0.00000  -0.00000
   D12        3.14159   0.00000  -0.00000   0.00000   0.00000   3.14159
   D13        3.14159   0.00000  -0.00000   0.00000   0.00000   3.14159
   D14        0.00000  -0.00000  -0.00000  -0.00000  -0.00000   0.00000
   D15        0.00000  -0.00000  -0.00000  -0.00000  -0.00000   0.00000
   D16       -3.14159  -0.00000  -0.00000  -0.00000  -0.00000  -3.14159
   D17       -3.14159  -0.00000  -0.00000  -0.00000  -0.00000  -3.14159
   D18        0.00000  -0.00000  -0.00000  -0.00000  -0.00000   0.00000
   D19       -0.00000   0.00000   0.00000   0.00000   0.00000  -0.00000
   D20        3.14159   0.00000   0.00000   0.00000   0.00000   3.14159
   D21        3.14159   0.00000   0.00000   0.00000   0.00000   3.14159
   D22       -0.00000   0.00000   0.00000   0.00000   0.00000  -0.00000
   D23        0.00000   0.00000  -0.00000  -0.00000  -0.00000   0.00000
   D24       -3.14159  -0.00000   0.00000  -0.00000  -0.00000  -3.14159
   D25       -0.00000   0.00000   0.00000   0.00000   0.00000  -0.00000
   D26        3.14159   0.00000   0.00000   0.00000   0.00000   3.14159
   D27       -0.00000  -0.00000   0.00000  -0.00000   0.00000  -0.00000
   D28        3.14159  -0.00000   0.00000  -0.00000  -0.00000   3.14159
   D29        3.14159   0.00000  -0.00000   0.00000   0.00000   3.14159
   D30       -0.00000   0.00000  -0.00000   0.00000  -0.00000  -0.00000
   D31       -0.00000   0.00000  -0.00000   0.00000   0.00000   0.00000
   D32       -3.14159   0.00000  -0.00000   0.00000  -0.00000  -3.14159
   D33       -0.00000   0.00000  -0.00000   0.00000  -0.00000  -0.00000
   D34       -3.14159  -0.00000  -0.00000  -0.00000  -0.00000  -3.14159
   D35        3.14159   0.00000   0.00000   0.00000   0.00000   3.14159
   D36        0.00000  -0.00000  -0.00000  -0.00000  -0.00000   0.00000
   D37        0.00000   0.00000  -0.00000   0.00000   0.00000   0.00000
   D38       -3.14159  -0.00000  -0.00000  -0.00000  -0.00000  -3.14159
   D39        3.14159   0.00000   0.00000   0.00000   0.00000   3.14159
   D40        0.00000  -0.00000  -0.00000  -0.00000  -0.00000   0.00000
   D41        0.00000  -0.00000  -0.00000  -0.00000  -0.00000   0.00000
   D42       -3.14159  -0.00000  -0.00000  -0.00000  -0.00000  -3.14159
   D43        3.14159   0.00000   0.00000   0.00000   0.00000   3.14159
   D44       -0.00000   0.00000   0.00000   0.00000   0.00000  -0.00000
   D45       -0.00001   0.00000  -0.00000   0.00000  -0.00000  -0.00001
         Item               Value     Threshold  Converged?
 Maximum Force            0.328820     0.000450     NO 
 RMS     Force            0.035288     0.000300     NO 
 Maximum Displacement     0.850356     0.001800     NO 
 RMS     Displacement     0.213011     0.001200     NO 
 Predicted change in Energy=-1.154748D-01
 GradGradGradGradGradGradGradGradGradGradGradGradGradGradGradGradGradGrad

                          Input orientation:                          
 ---------------------------------------------------------------------
 Center     Atomic      Atomic             Coordinates (Angstroms)
 Number     Number       Type             X           Y           Z
 ---------------------------------------------------------------------
      1          6           0       -0.337609    5.418208   -0.127704
      2          6           0        0.956346    5.548135   -0.529598
      3          6           0        1.660165    6.751041   -0.535556
      4          6           0        1.004255    7.891596   -0.105259
      5          6           0       -0.314120    7.792877    0.310539
      6          6           0       -0.979227    6.564774    0.299011
      7          6           0       -2.117825    3.258400    0.053176
      8          6           0       -1.443944    2.191826   -0.369157
      9          6           0       -1.990114    0.913645   -0.429276
     10          6           0       -3.302427    0.716878   -0.033878
     11          6           0       -4.022733    1.806063    0.407996
     12          6           0       -3.424002    3.064632    0.447115
     13          1           0        1.529330    8.843146   -0.099536
     14          1           0       -0.835798    8.687115    0.650351
     15          1           0       -2.009258    6.520117    0.629969
     16          1           0       -3.751744   -0.272865   -0.071733
     17          1           0       -5.056962    1.685242    0.726043
     18         17           0        0.388294    2.476539   -0.919326
     19         17           0        1.750283    4.007096   -1.080580
     20         17           0       -1.093870   -0.511964   -0.992300
     21         17           0        3.341578    6.924914   -1.056845
     22         17           0       -4.473509    4.356693    1.035553
 ---------------------------------------------------------------------
                    Distance matrix (angstroms):
                    1          2          3          4          5
     1  C    0.000000
     2  C    1.361146   0.000000
     3  C    2.435958   1.393693   0.000000
     4  C    2.814028   2.382051   1.384283   0.000000
     5  C    2.414883   2.712707   2.387279   1.385910   0.000000
     6  C    1.381439   2.338074   2.774453   2.420350   1.396688
     7  C    2.804756   3.877246   5.178644   5.589185   4.886825
     8  C    3.419329   4.129400   5.518118   6.208921   5.754151
[...]
                 (A) (A) (A) (A) (A) (A) (A) (A) (A) (A) (A) (A)
                 (A) (A) (A) (A) (A) (A) (A) (A) (A) (A) (A) (A)
                 (A) (A) (A) (A) (A) (A) (A) (A) (A) (A) (A) (A)
                 (A) (A) (A) (A) (A) (A) (A) (A) (A) (A) (A) (A)
                 (A) (A) (A) (A) (A) (A) (A) (A) (A) (A) (A) (A)
                 (A) (A) (A) (A) (A) (A) (A) (A) (A) (A) (A) (A)
                 (A) (A) (A) (A) (A) (A) (A) (A) (A) (A) (A) (A)
                 (A) (A) (A) (A) (A) (A) (A) (A) (A) (A) (A) (A)
                 (A) (A) (A) (A) (A) (A) (A) (A) (A) (A) (A) (A)
                 (A) (A) (A) (A) (A) (A) (A) (A) (A) (A) (A) (A)
                 (A) (A) (A) (A) (A) (A) (A) (A) (A) (A) (A) (A)
                 (A) (A) (A) (A) (A) (A) (A) (A) (A) (A) (A) (A)
                 (A) (A) (A) (A) (A) (A) (A) (A) (A) (A) (A) (A)
                 (A) (A) (A) (A) (A) (A) (A) (A) (A) (A) (A) (A)
                 (A) (A) (A) (A) (A) (A) (A) (A) (A) (A) (A) (A)
                 (A) (A) (A) (A) (A) (A) (A) (A) (A) (A) (A) (A)
                 (A) (A) (A) (A) (A) (A) (A) (A) (A) (A) (A) (A)
                 (A) (A) (A) (A) (A) (A) (A) (A) (A) (A) (A) (A)
                 (A) (A) (A) (A) (A) (A) (A) (A) (A) (A) (A) (A)
                 (A) (A) (A) (A) (A) (A) (A) (A) (A) (A) (A) (A)
                 (A) (A) (A) (A) (A) (A) (A) (A) (A) (A) (A) (A)
                 (A) (A) (A) (A) (A) (A) (A) (A) (A) (A) (A) (A)
                 (A) (A) (A) (A) (A) (A) (A) (A) (A) (A) (A) (A)
                 (A) (A) (A) (A) (A) (A) (A) (A) (A) (A) (A) (A)
                 (A) (A) (A) (A) (A) (A) (A) (A) (A) (A) (A)
 The electronic state is 1-A.
 Alpha  occ. eigenvalues -- -101.57269-101.57255-101.57070-101.56771-101.56696
 Alpha  occ. eigenvalues --  -10.27276 -10.26721 -10.26614 -10.26408 -10.26155
 Alpha  occ. eigenvalues --  -10.23461 -10.22506 -10.21702 -10.21391 -10.20772
 Alpha  occ. eigenvalues --  -10.20469 -10.20350  -9.48745  -9.48713  -9.48541
 Alpha  occ. eigenvalues --   -9.48247  -9.48157  -7.25231  -7.25198  -7.25012
 Alpha  occ. eigenvalues --   -7.24726  -7.24638  -7.24229  -7.24192  -7.24153
 Alpha  occ. eigenvalues --   -7.24135  -7.24022  -7.23972  -7.23730  -7.23665
 Alpha  occ. eigenvalues --   -7.23639  -7.23581  -0.94838  -0.92964  -0.90258
 Alpha  occ. eigenvalues --   -0.88094  -0.87043  -0.85786  -0.84082  -0.80171
 Alpha  occ. eigenvalues --   -0.75615  -0.75055  -0.74154  -0.66959  -0.62839
 Alpha  occ. eigenvalues --   -0.62520  -0.61378  -0.54782  -0.53064  -0.52806
 Alpha  occ. eigenvalues --   -0.51322  -0.49360  -0.47626  -0.46213  -0.45907
 Alpha  occ. eigenvalues --   -0.45540  -0.44303  -0.43337  -0.42158  -0.40996
 Alpha  occ. eigenvalues --   -0.39745  -0.39274  -0.38987  -0.36528  -0.35812
 Alpha  occ. eigenvalues --   -0.35123  -0.34673  -0.33964  -0.33268  -0.33201
 Alpha  occ. eigenvalues --   -0.32369  -0.31911  -0.28147  -0.27492  -0.26443
 Alpha  occ. eigenvalues --   -0.26212
 Alpha virt. eigenvalues --   -0.05435  -0.05218  -0.04736  -0.03964  -0.03085
 Alpha virt. eigenvalues --   -0.01553  -0.00460   0.00241   0.00887   0.02026
 Alpha virt. eigenvalues --    0.02480   0.02603   0.02720   0.03097   0.04416
 Alpha virt. eigenvalues --    0.05010   0.05271   0.05521   0.06247   0.06456
 Alpha virt. eigenvalues --    0.06563   0.06750   0.07737   0.08238   0.08536
 Alpha virt. eigenvalues --    0.08914   0.09372   0.09583   0.10232   0.10703
 Alpha virt. eigenvalues --    0.11110   0.11528   0.11789   0.12299   0.12518
 Alpha virt. eigenvalues --    0.12889   0.13339   0.13406   0.13967   0.14321
 Alpha virt. eigenvalues --    0.14378   0.15100   0.15663   0.15792   0.16093
 Alpha virt. eigenvalues --    0.16591   0.17142   0.17264   0.17523   0.17835
 Alpha virt. eigenvalues --    0.18157   0.18903   0.19157   0.19243   0.19704
 Alpha virt. eigenvalues --    0.19826   0.20254   0.20935   0.21412   0.21578
 Alpha virt. eigenvalues --    0.21943   0.22134   0.22513   0.22575   0.23023
 Alpha virt. eigenvalues --    0.23762   0.24414   0.24618   0.24900   0.25726
 Alpha virt. eigenvalues --    0.25990   0.26266   0.26670   0.26931   0.27107
 Alpha virt. eigenvalues --    0.27891   0.28178   0.28689   0.29057   0.29801
 Alpha virt. eigenvalues --    0.30007   0.30252   0.31057   0.31653   0.32253
 Alpha virt. eigenvalues --    0.32531   0.33297   0.34315   0.35019   0.41040
 Alpha virt. eigenvalues --    0.41806   0.43032   0.43445   0.44250   0.44880
 Alpha virt. eigenvalues --    0.45945   0.46285   0.46579   0.46936   0.47384
 Alpha virt. eigenvalues --    0.48496   0.49140   0.49617   0.50743   0.51153
 Alpha virt. eigenvalues --    0.51493   0.51575   0.52517   0.53286   0.54068
 Alpha virt. eigenvalues --    0.55060   0.56746   0.57208   0.57510   0.57962
 Alpha virt. eigenvalues --    0.58204   0.58816   0.59607   0.60152   0.60901
 Alpha virt. eigenvalues --    0.60993   0.62812   0.63559   0.64143   0.64326
 Alpha virt. eigenvalues --    0.64802   0.65584   0.66198   0.67364   0.68053
 Alpha virt. eigenvalues --    0.68605   0.69076   0.69557   0.69928   0.70764
 Alpha virt. eigenvalues --    0.72290   0.73329   0.76290   0.78596   0.80158
 Alpha virt. eigenvalues --    0.80615   0.81515   0.81959   0.82298   0.82684
 Alpha virt. eigenvalues --    0.83523   0.84179   0.84460   0.84914   0.84943
 Alpha virt. eigenvalues --    0.85428   0.85740   0.86446   0.86715   0.87499
 Alpha virt. eigenvalues --    0.87688   0.88831   0.89471   0.89650   0.90030
 Alpha virt. eigenvalues --    0.90528   0.92084   0.92952   0.94430   0.95035
 Alpha virt. eigenvalues --    0.95254   0.95817   0.96038   0.96750   0.96971
 Alpha virt. eigenvalues --    0.97306   0.99062   0.99255   0.99878   1.00647
 Alpha virt. eigenvalues --    1.01902   1.02126   1.04351   1.04947   1.05385
 Alpha virt. eigenvalues --    1.05860   1.06846   1.11138   1.12083   1.16631
 Alpha virt. eigenvalues --    1.17909   1.21049   1.22216   1.22767   1.24599
 Alpha virt. eigenvalues --    1.25702   1.26429   1.27047   1.28032   1.28956
 Alpha virt. eigenvalues --    1.30336   1.30750   1.33929   1.34956   1.36164
 Alpha virt. eigenvalues --    1.37718   1.40558   1.42695   1.45069   1.48194
 Alpha virt. eigenvalues --    1.49147   1.49198   1.51130   1.55269   1.56407
 Alpha virt. eigenvalues --    1.57117   1.57945   1.60084   1.62250   1.64577
 Alpha virt. eigenvalues --    1.65246   1.65459   1.68491   1.68803   1.71572
 Alpha virt. eigenvalues --    1.72395   1.76541   1.77328   1.79613   1.81330
 Alpha virt. eigenvalues --    1.82134   1.83583   1.85387   1.86750   1.87907
 Alpha virt. eigenvalues --    1.88496   1.90982   1.91619   1.93793   1.93943
 Alpha virt. eigenvalues --    1.94995   1.97041   1.97978   1.99678   2.02197
 Alpha virt. eigenvalues --    2.03946   2.05245   2.08858   2.13134   2.17093
 Alpha virt. eigenvalues --    2.18282   2.20100   2.24393   2.25424   2.25874
 Alpha virt. eigenvalues --    2.26229   2.28268   2.28664   2.30701   2.32173
 Alpha virt. eigenvalues --    2.32939   2.35497   2.35715   2.38251   2.39585
 Alpha virt. eigenvalues --    2.40562   2.42743   2.44088   2.46422   2.47809
 Alpha virt. eigenvalues --    2.49789   2.50968   2.52801   2.53568   2.55164
 Alpha virt. eigenvalues --    2.56470   2.58645   2.63206   2.63715   2.67717
 Alpha virt. eigenvalues --    2.68631   2.69152   2.70145   2.70446   2.72301
 Alpha virt. eigenvalues --    2.74337   2.74842   2.75627   2.77024   2.77493
 Alpha virt. eigenvalues --    2.78155   2.79201   2.82973   2.83882   2.84077
 Alpha virt. eigenvalues --    2.86790   2.90147   2.96991   2.98231   3.08213
 Alpha virt. eigenvalues --    3.09647   3.10014   3.12738   3.13843   3.17897
 Alpha virt. eigenvalues --    3.20306   3.21685   3.24379   3.27977   3.35532
 Alpha virt. eigenvalues --    3.37446   3.39459   3.42271   3.52130   3.57843
 Alpha virt. eigenvalues --    3.63966   3.71118   3.74290   3.84822   3.92817
 Alpha virt. eigenvalues --    4.00873   4.04532   4.04804   4.10026   4.34078
 Alpha virt. eigenvalues --    4.80865   4.82008   9.77803   9.78463   9.80852
 Alpha virt. eigenvalues --    9.83766   9.85435  23.37788  23.53236  23.82439
 Alpha virt. eigenvalues --   23.87946  23.89429  23.90828  23.95406  23.98348
 Alpha virt. eigenvalues --   24.02200  24.08582  24.12515  24.15775  25.79286
 Alpha virt. eigenvalues --   25.81148  25.86326  25.94508  25.98902  26.13792
 Alpha virt. eigenvalues --   26.16382  26.20242  26.31375  26.34179  26.55287
 Alpha virt. eigenvalues --   26.59818  26.67589  26.80155  27.01040 215.77106
 Alpha virt. eigenvalues --  215.77867 215.80675 215.84650 215.86018
          Condensed to atoms (all electrons):
               1          2          3          4          5          6
     1  C   28.188199   1.310907   1.170321  -6.911523  -2.202727  -5.412934
     2  C    1.310907  44.269292  -4.958314   1.197157  -4.520672  -3.385226
     3  C    1.170321  -4.958314  20.794734 -10.344070   0.644897  -2.082561
     4  C   -6.911523   1.197157 -10.344070  26.763911  -2.462920   4.346128
     5  C   -2.202727  -4.520672   0.644897  -2.462920  11.783699  -1.786121
     6  C   -5.412934  -3.385226  -2.082561   4.346128  -1.786121  18.207356
     7  C    5.769302 -16.248564   0.945565  -7.457324   4.245926  -1.604517
     8  C   -1.900537  -2.785688  -0.780907  -0.019099   0.104827  -1.066821
     9  C   -4.357765  -3.384669   0.129272  -0.285761   0.380417  -0.315802
    10  C   -0.687927   0.775846   0.014594   0.076338  -0.098693  -0.138146
    11  C   -3.305839   0.686493  -0.047073   0.415174  -0.334350  -0.693259
    12  C   -3.876867  -4.069208  -0.475440   0.539879  -0.049669  -0.861612
    13  H    0.078217   0.007232   0.117243   0.219062  -0.029498  -0.064410
    14  H    0.009182  -0.002305  -0.041164   0.030116   0.338567   0.023104
    15  H   -0.026053  -0.108958  -0.005430  -0.030653  -0.038894   0.290715
    16  H    0.006760   0.000638   0.000094   0.000012  -0.000140  -0.000181
    17  H    0.011448   0.001355  -0.000295  -0.000015  -0.000271  -0.000681
    18  Cl  -0.172384  -0.815126   0.127131  -0.351542   0.279461   0.282135
    19  Cl  -1.256568   0.037443   0.484193   1.723108  -0.088733   0.129860
    20  Cl  -0.205814  -0.119793   0.001737  -0.005540   0.011598   0.006078
    21  Cl  -0.280645   1.018800  -0.801844  -0.535736   0.033640   0.128430
    22  Cl   0.265740  -1.176252   0.111057  -0.424643   0.350399   0.310795
               7          8          9         10         11         12
     1  C    5.769302  -1.900537  -4.357765  -0.687927  -3.305839  -3.876867
     2  C  -16.248564  -2.785688  -3.384669   0.775846   0.686493  -4.069208
     3  C    0.945565  -0.780907   0.129272   0.014594  -0.047073  -0.475440
     4  C   -7.457324  -0.019099  -0.285761   0.076338   0.415174   0.539879
     5  C    4.245926   0.104827   0.380417  -0.098693  -0.334350  -0.049669
     6  C   -1.604517  -1.066821  -0.315802  -0.138146  -0.693259  -0.861612
     7  C   31.215724   3.260421  -3.410972  -1.215583  -5.510161  -3.852327
     8  C    3.260421  24.490756  -2.546071  -7.632961   2.420678  -4.486157
     9  C   -3.410972  -2.546071  19.315530  -2.805847  -1.017837   3.453791
    10  C   -1.215583  -7.632961  -2.805847  15.361796   3.311974  -0.565423
    11  C   -5.510161   2.420678  -1.017837   3.311974  15.981745  -4.906487
    12  C   -3.852327  -4.486157   3.453791  -0.565423  -4.906487  25.729521
    13  H    0.022661   0.001303   0.000228   0.000003  -0.000109  -0.000063
    14  H   -0.011476   0.001252  -0.000363   0.000067   0.000471   0.002148
    15  H    0.116434   0.075138   0.012831   0.002341   0.018719   0.054538
    16  H    0.026311   0.042406   0.001718   0.347868  -0.085265   0.009006
    17  H    0.052958  -0.014274  -0.031044  -0.026460   0.313291   0.049655
    18  Cl   0.479887  -1.915805  -0.018987   0.715286   0.312231  -0.328908
    19  Cl  -1.573178  -0.385280  -0.104410  -0.214696  -0.182391  -0.262600
    20  Cl  -0.616632   0.952975  -0.399755  -0.428851   0.102795   0.121212
    21  Cl   0.028961  -0.052540   0.002609   0.000633  -0.011467  -0.053309
    22  Cl   1.041507  -0.455664   0.244155  -0.234750  -1.007760  -0.139706
              13         14         15         16         17         18
     1  C    0.078217   0.009182  -0.026053   0.006760   0.011448  -0.172384
     2  C    0.007232  -0.002305  -0.108958   0.000638   0.001355  -0.815126
     3  C    0.117243  -0.041164  -0.005430   0.000094  -0.000295   0.127131
     4  C    0.219062   0.030116  -0.030653   0.000012  -0.000015  -0.351542
     5  C   -0.029498   0.338567  -0.038894  -0.000140  -0.000271   0.279461
     6  C   -0.064410   0.023104   0.290715  -0.000181  -0.000681   0.282135
     7  C    0.022661  -0.011476   0.116434   0.026311   0.052958   0.479887
     8  C    0.001303   0.001252   0.075138   0.042406  -0.014274  -1.915805
     9  C    0.000228  -0.000363   0.012831   0.001718  -0.031044  -0.018987
    10  C    0.000003   0.000067   0.002341   0.347868  -0.026460   0.715286
    11  C   -0.000109   0.000471   0.018719  -0.085265   0.313291   0.312231
    12  C   -0.000063   0.002148   0.054538   0.009006   0.049655  -0.328908
    13  H    0.508853  -0.007589  -0.000231  -0.000000  -0.000000  -0.000131
    14  H   -0.007589   0.526637  -0.006959  -0.000000   0.000000  -0.000866
    15  H   -0.000231  -0.006959   0.533733  -0.000003   0.000001  -0.007843
    16  H   -0.000000  -0.000000  -0.000003   0.501967  -0.007535  -0.001440
    17  H   -0.000000   0.000000   0.000001  -0.007535   0.504701   0.000674
    18  Cl  -0.000131  -0.000866  -0.007843  -0.001440   0.000674  18.046908
    19  Cl  -0.003603   0.001178  -0.004511  -0.000205  -0.000815   0.076819
    20  Cl   0.000001   0.000000   0.000503  -0.001331  -0.000356  -0.221659
    21  Cl  -0.003264  -0.000273  -0.000061  -0.000000  -0.000004   0.004054
    22  Cl   0.000041  -0.000909  -0.006118   0.000539  -0.008198  -0.060961
              19         20         21         22
     1  C   -1.256568  -0.205814  -0.280645   0.265740
     2  C    0.037443  -0.119793   1.018800  -1.176252
     3  C    0.484193   0.001737  -0.801844   0.111057
     4  C    1.723108  -0.005540  -0.535736  -0.424643
     5  C   -0.088733   0.011598   0.033640   0.350399
     6  C    0.129860   0.006078   0.128430   0.310795
     7  C   -1.573178  -0.616632   0.028961   1.041507
     8  C   -0.385280   0.952975  -0.052540  -0.455664
     9  C   -0.104410  -0.399755   0.002609   0.244155
    10  C   -0.214696  -0.428851   0.000633  -0.234750
    11  C   -0.182391   0.102795  -0.011467  -1.007760
    12  C   -0.262600   0.121212  -0.053309  -0.139706
    13  H   -0.003603   0.000001  -0.003264   0.000041
    14  H    0.001178   0.000000  -0.000273  -0.000909
    15  H   -0.004511   0.000503  -0.000061  -0.006118
    16  H   -0.000205  -0.001331  -0.000000   0.000539
    17  H   -0.000815  -0.000356  -0.000004  -0.008198
    18  Cl   0.076819  -0.221659   0.004054  -0.060961
    19  Cl  18.362016  -0.006839  -0.309584   0.044756
    20  Cl  -0.006839  17.340715   0.000106  -0.006065
    21  Cl  -0.309584   0.000106  17.362444   0.004586
    22  Cl   0.044756  -0.006065   0.004586  17.703731
 Mulliken charges:
               1
     1  C   -0.212494
     2  C   -1.730386
     3  C    0.996264
     4  C   -0.482058
     5  C   -0.560744
     6  C   -0.312329
     7  C    0.295079
     8  C   -1.307953
     9  C    1.138731
    10  C   -0.557408
    11  C   -0.461574
    12  C   -0.031974
    13  H    0.154054
    14  H    0.139182
    15  H    0.130761
    16  H    0.158780
    17  H    0.155864
    18  Cl   0.571067
    19  Cl   0.534040
    20  Cl   0.474913
    21  Cl   0.464464
    22  Cl   0.443721
 Sum of Mulliken charges =  -0.00000
 Mulliken charges with hydrogens summed into heavy atoms:
               1
     1  C   -0.212494
     2  C   -1.730386
     3  C    0.996264
     4  C   -0.328004
     5  C   -0.421562
     6  C   -0.181568
     7  C    0.295079
     8  C   -1.307953
     9  C    1.138731
    10  C   -0.398628
    11  C   -0.305710
    12  C   -0.031974
    18  Cl   0.571067
    19  Cl   0.534040
    20  Cl   0.474913
    21  Cl   0.464464
    22  Cl   0.443721
 Electronic spatial extent (au):  <R**2>=           6110.1434
 Charge=              0.0000 electrons
 Dipole moment (field-independent basis, Debye):
    X=              0.7818    Y=              1.4471    Z=              2.0647  Tot=              2.6398
 Quadrupole moment (field-independent basis, Debye-Ang):
   XX=           -126.3307   YY=           -133.5787   ZZ=           -127.2540
   XY=              6.9683   XZ=             -8.1789   YZ=             -1.2463
 Traceless Quadrupole moment (field-independent basis, Debye-Ang):
   XX=              2.7238   YY=             -4.5242   ZZ=              1.8005
   XY=              6.9683   XZ=             -8.1789   YZ=             -1.2463
 Octapole moment (field-independent basis, Debye-Ang**2):
  XXX=              7.2547  YYY=             -7.4961  ZZZ=              4.9018  XYY=             13.2309
  XXY=             18.2707  XXZ=              7.6880  XZZ=            -16.0847  YZZ=             -3.2986
  YYZ=            -10.4602  XYZ=             -1.9060
 Hexadecapole moment (field-independent basis, Debye-Ang**3):
 XXXX=          -5101.3544 YYYY=          -1782.1310 ZZZZ=           -973.6877 XXXY=             63.2843
 XXXZ=            -75.6915 YYYX=            -16.7001 YYYZ=            -14.5373 ZZZX=             -5.8659
 ZZZY=             12.0657 XXYY=          -1141.5469 XXZZ=          -1012.3145 YYZZ=           -497.8211
 XXYZ=            -22.5351 YYXZ=              3.0203 ZZXY=             -1.0760
 N-N= 1.787676266119D+03 E-N=-1.011251882437D+04  KE= 2.754120786591D+03
 1\1\GINC-CN064\FOpt\RB3LYP\6-311+G(d,p)\C12H5Cl5\20CY91R06\03-Apr-2022
 \0\\# opt b3lyp/6-311+g(d,p) scf=xqc\\Title Card Required\\0,1\C,-0.78
 52617958,4.9620191833,-0.1382302653\C,0.5138872235,5.133882479,0.35970
 54803\C,1.1534176153,6.3717619526,0.2286684714\C,0.5040630247,7.434142
 2793,-0.3943731918\C,-0.783999886,7.2650227659,-0.888051676\C,-1.42284
 26779,6.0369793267,-0.7598819657\C,-1.500529235,3.6574472605,-0.010305
 6603\C,-1.406030431,2.6783360308,-1.014982083\C,-2.0968712237,1.467415
 5437,-0.9016927086\C,-2.8899275436,1.2227758105,0.215444341\C,-2.99756
 95678,2.1753536491,1.2177315142\C,-2.3078310712,3.3770477968,1.0979861
 721\H,1.0159188757,8.3834314984,-0.4856888064\H,-1.2873392497,8.093063
 5684,-1.372259225\H,-2.4268469686,5.9002545065,-1.1430539584\H,-3.4202
 115978,0.2826914787,0.2941340227\H,-3.6119102892,1.9891979508,2.088498
 1402\Cl,-0.4058619387,2.9893680303,-2.4095838734\Cl,1.3195139568,3.795
 9211603,1.1386570257\Cl,-1.9943157879,0.2390560157,-2.1382086623\Cl,2.
 7722303062,6.6240754408,0.8370260564\Cl,-2.4645728481,4.5548642718,2.3
 874652422\\Version=EM64L-G16RevB.01\State=1-A\HF=-2761.5141514\RMSD=3.
 594e-09\RMSF=8.849e-06\Dipole=-0.9885939,0.3116465,-0.0645571\Quadrupo
 le=-1.4177139,5.7949321,-4.3772182,2.0580032,-1.8521411,-6.1836772\PG=
 C01 [X(C12H5Cl5)]\\@


 FROM WHENCE IT HAPPENS, THAT THEY WHICH TRUST TO BOOKS, DO AS THEY THAT CAST UP MANY LITTLE SUMMS INTO GREATER,
 WITHOUT CONSIDERING WETHER THOSE LITTLE SUMMES WERE RIGHTLY CAST UP OR NOT...
 AND AT LAST FINDING THE ERROUR VISIBLE, AND NOT MISTRUSTING THEIR FIRST GROUNDS,
 KNOW NOT WHICH WAY TO CLEERE THEMSELVES...
 BUT SPEND TIME IN FLUTTERING OVER THEIR BOOKES....
 AS BIRDS THAT ENTERING BY THE CHIMNEY, AND FINDING THEMSELVES INCLOSED IN A CHAMBER,
 FLUTTER AT THE FALSE LIGHT OF A GLASSE WINDOW,
 FOR WANT OF WIT TO CONSIDER WHICH WAY THEY CAME IN....
           LEVIATHAN
 Job cpu time:       1 days  9 hours  1 minutes  3.9 seconds.
 Elapsed time:       0 days  2 hours 22 minutes 18.4 seconds.
 File lengths (MBytes):  RWF=    133 Int=      0 D2E=      0 Chk=     20 Scr=      1
 Normal termination of Gaussian 16 at Sun Apr  3 03:04:07 2022.
