 Entering Gaussian System, Link 0=g16
 Input=2,2prime,3,4,4prime,5,5prime-Heptachlorobiphenyl.gjf
 Output=2,2prime,3,4,4prime,5,5prime-Heptachlorobiphenyl.log
 Initial command:
 /home/apps/g16/l1.exe "./Gau-414873.inp" -scrdir="./"
 Entering Link 1 = /home/apps/g16/l1.exe PID=    414874.
  
 Copyright (c) 1988-2017, Gaussian, Inc.  All Rights Reserved.
  
 This is part of the Gaussian(R) 16 program.  It is based on
 the Gaussian(R) 09 system (copyright 2009, Gaussian, Inc.),
 the Gaussian(R) 03 system (copyright 2003, Gaussian, Inc.),
 the Gaussian(R) 98 system (copyright 1998, Gaussian, Inc.),
 the Gaussian(R) 94 system (copyright 1995, Gaussian, Inc.),
 the Gaussian 92(TM) system (copyright 1992, Gaussian, Inc.),
 the Gaussian 90(TM) system (copyright 1990, Gaussian, Inc.),
 the Gaussian 88(TM) system (copyright 1988, Gaussian, Inc.),
 the Gaussian 86(TM) system (copyright 1986, Carnegie Mellon
 University), and the Gaussian 82(TM) system (copyright 1983,
 Carnegie Mellon University). Gaussian is a federally registered
 trademark of Gaussian, Inc.
  
 This software contains proprietary and confidential information,
 including trade secrets, belonging to Gaussian, Inc.
  
 This software is provided under written license and may be
 used, copied, transmitted, or stored only in accord with that
 written license.
  
 The following legend is applicable only to US Government
 contracts under FAR:
  
                    RESTRICTED RIGHTS LEGEND
  
 Use, reproduction and disclosure by the US Government is
 subject to restrictions as set forth in subparagraphs (a)
 and (c) of the Commercial Computer Software - Restricted
 Rights clause in FAR 52.227-19.
  
 Gaussian, Inc.
 340 Quinnipiac St., Bldg. 40, Wallingford CT 06492
  
  
 ---------------------------------------------------------------
 Warning -- This program may not be used in any manner that
 competes with the business of Gaussian, Inc. or will provide
 assistance to any competitor of Gaussian, Inc.  The licensee
 of this program is prohibited from giving any competitor of
 Gaussian, Inc. access to this program.  By using this program,
 the user acknowledges that Gaussian, Inc. is engaged in the
 business of creating and licensing software in the field of
 computational chemistry and represents and warrants to the
 licensee that it is not a competitor of Gaussian, Inc. and that
 it will not use this program in any manner prohibited above.
 ---------------------------------------------------------------
  

 Cite this work as:
 Gaussian 16, Revision B.01,
 M. J. Frisch, G. W. Trucks, H. B. Schlegel, G. E. Scuseria, 
 M. A. Robb, J. R. Cheeseman, G. Scalmani, V. Barone, 
 G. A. Petersson, H. Nakatsuji, X. Li, M. Caricato, A. V. Marenich, 
 J. Bloino, B. G. Janesko, R. Gomperts, B. Mennucci, H. P. Hratchian, 
 J. V. Ortiz, A. F. Izmaylov, J. L. Sonnenberg, D. Williams-Young, 
 F. Ding, F. Lipparini, F. Egidi, J. Goings, B. Peng, A. Petrone, 
 T. Henderson, D. Ranasinghe, V. G. Zakrzewski, J. Gao, N. Rega, 
 G. Zheng, W. Liang, M. Hada, M. Ehara, K. Toyota, R. Fukuda, 
 J. Hasegawa, M. Ishida, T. Nakajima, Y. Honda, O. Kitao, H. Nakai, 
 T. Vreven, K. Throssell, J. A. Montgomery, Jr., J. E. Peralta, 
 F. Ogliaro, M. J. Bearpark, J. J. Heyd, E. N. Brothers, K. N. Kudin, 
 V. N. Staroverov, T. A. Keith, R. Kobayashi, J. Normand, 
 K. Raghavachari, A. P. Rendell, J. C. Burant, S. S. Iyengar, 
 J. Tomasi, M. Cossi, J. M. Millam, M. Klene, C. Adamo, R. Cammi, 
 J. W. Ochterski, R. L. Martin, K. Morokuma, O. Farkas, 
 J. B. Foresman, and D. J. Fox, Gaussian, Inc., Wallingford CT, 2016.
 
 ******************************************
 Gaussian 16:  EM64L-G16RevB.01 20-Dec-2017
                25-Mar-2022 
 ******************************************
 %mem=10GB
 %nprocshared=4
 Will use up to    4 processors via shared memory.
 --------------------------------
 # opt b3lyp/6-311+g(d,p) scf=xqc
 --------------------------------
 1/18=20,19=15,26=3,38=1/1,3;
 2/9=110,12=2,17=6,18=5,40=1/2;
 3/5=4,6=6,7=111,11=2,25=1,30=1,71=1,74=-5/1,2,3;
 4//1;
 5/5=2,8=3,13=1,38=5/2,8;
 6/7=2,8=2,9=2,10=2,28=1/1;
 7//1,2,3,16;
 1/18=20,19=15,26=3/3(2);
 2/9=110/2;
 99//99;
 2/9=110/2;
 3/5=4,6=6,7=111,11=2,25=1,30=1,71=1,74=-5/1,2,3;
 4/5=5,16=3,69=1/1;
 5/5=2,8=3,13=1,38=5/2,8;
 7//1,2,3,16;
 1/18=20,19=15,26=3/3(-5);
 2/9=110/2;
 6/7=2,8=2,9=2,10=2,19=2,28=1/1;
 99/9=1/99;
 -------------------
 Title Card Required
 -------------------
 Symbolic Z-matrix:
 Charge =  0 Multiplicity = 1
 C                     1.53206  -0.91487  -0.69982 
 C                     2.86444  -0.88499  -1.13316 
 C                     3.57233   0.32447  -1.13924 
 C                     2.94785   1.50403  -0.71196 
 C                     1.61547   1.47414  -0.27862 
 C                     0.90757   0.26469  -0.27254 
 C                     0.75416  -2.24394  -0.69314 
 C                     1.37864  -3.4235   -1.12042 
 C                     0.67075  -4.63296  -1.11434 
 C                    -0.66163  -4.66284  -0.68099 
 C                    -1.28612  -3.48328  -0.25372 
 C                    -0.57822  -2.27383  -0.25979 
 H                     3.34125  -1.78561  -1.4594 
 H                     1.13865   2.37477   0.04762 
 H                     2.39595  -3.40069  -1.45129 
 Cl                   -1.36251  -0.79243   0.27682 
 Cl                   -0.76575   0.22716   0.27169 
 Cl                   -2.95944  -3.52081   0.29052 
 Cl                   -1.55066  -6.18178  -0.67336 
 Cl                    3.83688   3.02296  -0.71959 
 Cl                    1.45503  -6.11436  -1.65095 
 Cl                    5.24565   0.362    -1.68347 
 

 GradGradGradGradGradGradGradGradGradGradGradGradGradGradGradGradGradGrad
 Berny optimization.
 Initialization pass.
                           ----------------------------
                           !    Initial Parameters    !
                           ! (Angstroms and Degrees)  !
 --------------------------                            --------------------------
 ! Name  Definition              Value          Derivative Info.                !
 --------------------------------------------------------------------------------
 ! R1    R(1,2)                  1.4014         estimate D2E/DX2                !
 ! R2    R(1,6)                  1.4014         estimate D2E/DX2                !
 ! R3    R(1,7)                  1.54           estimate D2E/DX2                !
 ! R4    R(2,3)                  1.4014         estimate D2E/DX2                !
 ! R5    R(2,13)                 1.07           estimate D2E/DX2                !
 ! R6    R(3,4)                  1.4014         estimate D2E/DX2                !
 ! R7    R(3,22)                 1.76           estimate D2E/DX2                !
 ! R8    R(4,5)                  1.4014         estimate D2E/DX2                !
 ! R9    R(4,20)                 1.76           estimate D2E/DX2                !
 ! R10   R(5,6)                  1.4014         estimate D2E/DX2                !
 ! R11   R(5,14)                 1.07           estimate D2E/DX2                !
 ! R12   R(6,17)                 1.76           estimate D2E/DX2                !
 ! R13   R(7,8)                  1.4014         estimate D2E/DX2                !
 ! R14   R(7,12)                 1.4014         estimate D2E/DX2                !
 ! R15   R(8,9)                  1.4014         estimate D2E/DX2                !
 ! R16   R(8,15)                 1.07           estimate D2E/DX2                !
 ! R17   R(9,10)                 1.4014         estimate D2E/DX2                !
 ! R18   R(9,21)                 1.76           estimate D2E/DX2                !
 ! R19   R(10,11)                1.4014         estimate D2E/DX2                !
 ! R20   R(10,19)                1.76           estimate D2E/DX2                !
 ! R21   R(11,12)                1.4014         estimate D2E/DX2                !
 ! R22   R(11,18)                1.76           estimate D2E/DX2                !
 ! R23   R(12,16)                1.76           estimate D2E/DX2                !
 ! R24   R(16,17)                1.1814         estimate D2E/DX2                !
 ! A1    A(2,1,6)              120.0            estimate D2E/DX2                !
 ! A2    A(2,1,7)              120.0            estimate D2E/DX2                !
 ! A3    A(6,1,7)              120.0            estimate D2E/DX2                !
 ! A4    A(1,2,3)              120.0            estimate D2E/DX2                !
 ! A5    A(1,2,13)             120.0            estimate D2E/DX2                !
 ! A6    A(3,2,13)             120.0            estimate D2E/DX2                !
 ! A7    A(2,3,4)              120.0            estimate D2E/DX2                !
 ! A8    A(2,3,22)             120.0            estimate D2E/DX2                !
 ! A9    A(4,3,22)             120.0            estimate D2E/DX2                !
 ! A10   A(3,4,5)              120.0            estimate D2E/DX2                !
 ! A11   A(3,4,20)             120.0            estimate D2E/DX2                !
 ! A12   A(5,4,20)             120.0            estimate D2E/DX2                !
 ! A13   A(4,5,6)              120.0            estimate D2E/DX2                !
 ! A14   A(4,5,14)             120.0            estimate D2E/DX2                !
 ! A15   A(6,5,14)             120.0            estimate D2E/DX2                !
 ! A16   A(1,6,5)              120.0            estimate D2E/DX2                !
 ! A17   A(1,6,17)             120.0            estimate D2E/DX2                !
 ! A18   A(5,6,17)             120.0            estimate D2E/DX2                !
 ! A19   A(1,7,8)              120.0            estimate D2E/DX2                !
 ! A20   A(1,7,12)             120.0            estimate D2E/DX2                !
 ! A21   A(8,7,12)             120.0            estimate D2E/DX2                !
 ! A22   A(7,8,9)              120.0            estimate D2E/DX2                !
 ! A23   A(7,8,15)             120.0            estimate D2E/DX2                !
 ! A24   A(9,8,15)             120.0            estimate D2E/DX2                !
 ! A25   A(8,9,10)             120.0            estimate D2E/DX2                !
 ! A26   A(8,9,21)             120.0            estimate D2E/DX2                !
 ! A27   A(10,9,21)            120.0            estimate D2E/DX2                !
 ! A28   A(9,10,11)            120.0            estimate D2E/DX2                !
 ! A29   A(9,10,19)            120.0            estimate D2E/DX2                !
 ! A30   A(11,10,19)           120.0            estimate D2E/DX2                !
 ! A31   A(10,11,12)           120.0            estimate D2E/DX2                !
 ! A32   A(10,11,18)           120.0            estimate D2E/DX2                !
 ! A33   A(12,11,18)           120.0            estimate D2E/DX2                !
 ! A34   A(7,12,11)            120.0            estimate D2E/DX2                !
 ! A35   A(7,12,16)            120.0            estimate D2E/DX2                !
 ! A36   A(11,12,16)           120.0            estimate D2E/DX2                !
 ! A37   A(12,16,17)           120.0            estimate D2E/DX2                !
 ! A38   A(6,17,16)            120.0            estimate D2E/DX2                !
 ! D1    D(6,1,2,3)              0.0001         estimate D2E/DX2                !
 ! D2    D(6,1,2,13)           180.0            estimate D2E/DX2                !
 ! D3    D(7,1,2,3)           -180.0            estimate D2E/DX2                !
 ! D4    D(7,1,2,13)            -0.0001         estimate D2E/DX2                !
 ! D5    D(2,1,6,5)             -0.0001         estimate D2E/DX2                !
 ! D6    D(2,1,6,17)           180.0            estimate D2E/DX2                !
 ! D7    D(7,1,6,5)            180.0            estimate D2E/DX2                !
 ! D8    D(7,1,6,17)             0.0            estimate D2E/DX2                !
 ! D9    D(2,1,7,8)             -0.0001         estimate D2E/DX2                !
 ! D10   D(2,1,7,12)           179.9998         estimate D2E/DX2                !
 ! D11   D(6,1,7,8)            179.9999         estimate D2E/DX2                !
 ! D12   D(6,1,7,12)            -0.0002         estimate D2E/DX2                !
 ! D13   D(1,2,3,4)              0.0            estimate D2E/DX2                !
 ! D14   D(1,2,3,22)           180.0            estimate D2E/DX2                !
 ! D15   D(13,2,3,4)          -179.9999         estimate D2E/DX2                !
 ! D16   D(13,2,3,22)            0.0001         estimate D2E/DX2                !
 ! D17   D(2,3,4,5)             -0.0001         estimate D2E/DX2                !
 ! D18   D(2,3,4,20)           180.0            estimate D2E/DX2                !
 ! D19   D(22,3,4,5)           179.9999         estimate D2E/DX2                !
 ! D20   D(22,3,4,20)            0.0            estimate D2E/DX2                !
 ! D21   D(3,4,5,6)              0.0001         estimate D2E/DX2                !
 ! D22   D(3,4,5,14)          -179.9999         estimate D2E/DX2                !
 ! D23   D(20,4,5,6)          -180.0            estimate D2E/DX2                !
 ! D24   D(20,4,5,14)            0.0            estimate D2E/DX2                !
 ! D25   D(4,5,6,1)              0.0            estimate D2E/DX2                !
 ! D26   D(4,5,6,17)           179.9999         estimate D2E/DX2                !
 ! D27   D(14,5,6,1)           180.0            estimate D2E/DX2                !
 ! D28   D(14,5,6,17)           -0.0001         estimate D2E/DX2                !
 ! D29   D(1,6,17,16)            0.0006         estimate D2E/DX2                !
 ! D30   D(5,6,17,16)         -179.9994         estimate D2E/DX2                !
 ! D31   D(1,7,8,9)            179.9999         estimate D2E/DX2                !
 ! D32   D(1,7,8,15)             0.0001         estimate D2E/DX2                !
 ! D33   D(12,7,8,9)             0.0001         estimate D2E/DX2                !
 ! D34   D(12,7,8,15)         -179.9998         estimate D2E/DX2                !
 ! D35   D(1,7,12,11)         -179.9999         estimate D2E/DX2                !
 ! D36   D(1,7,12,16)            0.0            estimate D2E/DX2                !
 ! D37   D(8,7,12,11)           -0.0001         estimate D2E/DX2                !
 ! D38   D(8,7,12,16)          179.9999         estimate D2E/DX2                !
 ! D39   D(7,8,9,10)             0.0            estimate D2E/DX2                !
 ! D40   D(7,8,9,21)           180.0            estimate D2E/DX2                !
 ! D41   D(15,8,9,10)          179.9998         estimate D2E/DX2                !
 ! D42   D(15,8,9,21)           -0.0002         estimate D2E/DX2                !
 ! D43   D(8,9,10,11)            0.0            estimate D2E/DX2                !
 ! D44   D(8,9,10,19)         -179.9999         estimate D2E/DX2                !
 ! D45   D(21,9,10,11)         180.0            estimate D2E/DX2                !
 ! D46   D(21,9,10,19)           0.0001         estimate D2E/DX2                !
 ! D47   D(9,10,11,12)           0.0            estimate D2E/DX2                !
 ! D48   D(9,10,11,18)        -179.9998         estimate D2E/DX2                !
 ! D49   D(19,10,11,12)        179.9999         estimate D2E/DX2                !
 ! D50   D(19,10,11,18)          0.0001         estimate D2E/DX2                !
 ! D51   D(10,11,12,7)           0.0            estimate D2E/DX2                !
 ! D52   D(10,11,12,16)       -179.9999         estimate D2E/DX2                !
 ! D53   D(18,11,12,7)         179.9999         estimate D2E/DX2                !
 ! D54   D(18,11,12,16)         -0.0001         estimate D2E/DX2                !
 ! D55   D(7,12,16,17)           0.0005         estimate D2E/DX2                !
 ! D56   D(11,12,16,17)       -179.9995         estimate D2E/DX2                !
 ! D57   D(12,16,17,6)          -0.0008         estimate D2E/DX2                !
 --------------------------------------------------------------------------------
 Trust Radius=3.00D-01 FncErr=1.00D-07 GrdErr=1.00D-06 EigMax=2.50D+02 EigMin=1.00D-04
 Number of steps in this run=    129 maximum allowed number of steps=    132.
 GradGradGradGradGradGradGradGradGradGradGradGradGradGradGradGradGradGrad

                          Input orientation:                          
 ---------------------------------------------------------------------
 Center     Atomic      Atomic             Coordinates (Angstroms)
 Number     Number       Type             X           Y           Z
 ---------------------------------------------------------------------
      1          6           0        1.532060   -0.914872   -0.699817
      2          6           0        2.864441   -0.884986   -1.133164
      3          6           0        3.572335    0.324465   -1.139236
      4          6           0        2.947847    1.504030   -0.711961
      5          6           0        1.615465    1.474145   -0.278617
      6          6           0        0.907572    0.264694   -0.272544
      7          6           0        0.754155   -2.243939   -0.693143
      8          6           0        1.378642   -3.423504   -1.120418
      9          6           0        0.670749   -4.632955   -1.114344
     10          6           0       -0.661631   -4.662842   -0.680994
     11          6           0       -1.286118   -3.483277   -0.253719
     12          6           0       -0.578225   -2.273826   -0.259793
     13          1           0        3.341252   -1.785610   -1.459395
     14          1           0        1.138655    2.374769    0.047615
     15          1           0        2.395945   -3.400686   -1.451288
     16         17           0       -1.362510   -0.792426    0.276819
     17         17           0       -0.765749    0.227161    0.271690
     18         17           0       -2.959435   -3.520812    0.290524
     19         17           0       -1.550663   -6.181777   -0.673363
     20         17           0        3.836882    3.022964   -0.719587
     21         17           0        1.455035   -6.114356   -1.650953
     22         17           0        5.245655    0.361998   -1.683469
 ---------------------------------------------------------------------
                    Distance matrix (angstroms):
                    1          2          3          4          5
     1  C    0.000000
     2  C    1.401400   0.000000
     3  C    2.427296   1.401400   0.000000
     4  C    2.802800   2.427296   1.401400   0.000000
     5  C    2.427296   2.802800   2.427296   1.401400   0.000000
     6  C    1.401400   2.427296   2.802800   2.427296   1.401400
     7  C    1.540000   2.548270   3.838989   4.342800   3.838989
     8  C    2.548270   2.941400   4.342800   5.187469   4.975106
     9  C    3.838989   4.342800   5.744200   6.558176   6.235992
    10  C    4.342800   5.187469   6.558176   7.145600   6.558176
    11  C    3.838989   4.975106   6.235992   6.558176   5.744200
    12  C    2.548270   3.813607   4.975106   5.187469   4.342800
    13  H    2.146700   1.070000   2.146700   3.396345   3.872800
    14  H    3.396345   3.872800   3.396345   2.146700   1.070000
    15  H    2.736837   2.578650   3.918930   4.990735   5.074276
    16  Cl   3.057342   4.456874   5.254079   4.983028   3.783409
    17  Cl   2.743718   4.048303   4.562800   4.048303   2.743718
    18  Cl   5.286324   6.549198   7.713260   7.819846   6.797295
    19  Cl   6.102800   6.910901   8.294174   8.905600   8.294174
    20  Cl   4.562800   4.048303   2.743718   1.760000   2.743718
    21  Cl   5.286324   5.440665   6.797295   7.819846   7.713260
    22  Cl   4.048303   2.743718   1.760000   2.743718   4.048303
                    6          7          8          9         10
     6  C    0.000000
     7  C    2.548270   0.000000
     8  C    3.813607   1.401400   0.000000
     9  C    4.975106   2.427296   1.401400   0.000000
    10  C    5.187469   2.802800   2.427296   1.401400   0.000000
    11  C    4.342800   2.427296   2.802800   2.427296   1.401400
    12  C    2.941400   1.401400   2.427296   2.802800   2.427296
    13  H    3.396345   2.736837   2.578650   3.918930   4.990735
    14  H    2.146700   4.693509   5.919617   7.118798   7.300676
    15  H    4.127917   2.146700   1.070000   2.146700   3.396345
    16  Cl   2.563702   2.743718   4.048303   4.562800   4.048303
    17  Cl   1.760000   3.057342   4.456874   5.254079   4.983028
    18  Cl   5.440665   4.048303   4.562800   4.048303   2.743718
    19  Cl   6.910901   4.562800   4.048303   2.743718   1.760000
    20  Cl   4.048303   6.102800   6.910901   8.294174   8.905600
    21  Cl   6.549198   4.048303   2.743718   1.760000   2.743718
    22  Cl   4.562800   5.286324   5.440665   6.797295   7.819846
                   11         12         13         14         15
    11  C    0.000000
    12  C    1.401400   0.000000
    13  H    5.074276   4.127917   0.000000
    14  H    6.347206   4.965039   4.942800   0.000000
    15  H    3.872800   3.396345   1.871400   6.097816   0.000000
    16  Cl   2.743718   1.760000   5.111382   4.042212   4.890332
    17  Cl   3.783409   2.563702   4.890332   2.879094   5.111382
    18  Cl   1.760000   2.743718   6.765486   7.184095   5.632800
    19  Cl   2.743718   4.048303   6.623817   8.998151   4.890332
    20  Cl   8.294174   6.910901   4.890332   2.879094   6.623817
    21  Cl   4.048303   4.562800   4.725732   8.663168   2.879094
    22  Cl   7.713260   6.549198   2.879094   4.890332   4.725732
                   16         17         18         19         20
    16  Cl   0.000000
    17  Cl   1.181400   0.000000
    18  Cl   3.161400   4.342800   0.000000
    19  Cl   5.475705   6.525618   3.161400   0.000000
    20  Cl   6.525618   5.475705   9.488480  10.665600   0.000000
    21  Cl   6.322800   6.988795   5.475705   3.161400   9.488480
    22  Cl   6.988795   6.322800   9.289584   9.488480   3.161400
                   21         22
    21  Cl   0.000000
    22  Cl   7.504200   0.000000
 Stoichiometry    C12H3Cl7
 Framework group  C1[X(C12H3Cl7)]
 Deg. of freedom    60
 Full point group                 C1      NOp   1
 Largest Abelian subgroup         C1      NOp   1
 Largest concise Abelian subgroup C1      NOp   1
                         Standard orientation:                         
 ---------------------------------------------------------------------
 Center     Atomic      Atomic             Coordinates (Angstroms)
 Number     Number       Type             X           Y           Z
 ---------------------------------------------------------------------
      1          6           0        1.099679    0.110237    0.000003
      2          6           0        1.927903    1.240709    0.000001
      3          6           0        3.321032    1.088682   -0.000001
      4          6           0        3.885938   -0.193817   -0.000001
      5          6           0        3.057713   -1.324289    0.000003
      6          6           0        1.664584   -1.172262    0.000004
      7          6           0       -0.431233    0.277300    0.000003
      8          6           0       -0.996138    1.559799    0.000003
      9          6           0       -2.389268    1.711826    0.000003
     10          6           0       -3.217492    0.581355    0.000001
     11          6           0       -2.652586   -0.701145    0.000000
     12          6           0       -1.259457   -0.853172    0.000001
     13          1           0        1.496585    2.219926   -0.000001
     14          1           0        3.489031   -2.303505    0.000005
     15          1           0       -0.363771    2.422940    0.000002
     16         17           0       -0.550000   -2.463846   -0.000002
     17         17           0        0.624428   -2.592007    0.000007
     18         17           0       -3.692742   -2.120889   -0.000006
     19         17           0       -4.967105    0.772284   -0.000003
     20         17           0        5.635551   -0.384746   -0.000003
     21         17           0       -3.098725    3.322500    0.000003
     22         17           0        4.361188    2.508427   -0.000004
 ---------------------------------------------------------------------
 Rotational constants (GHZ):           0.3590405           0.1170313           0.0882619
 Standard basis: 6-311+G(d,p) (5D, 7F)
 There are   511 symmetry adapted cartesian basis functions of A   symmetry.
 There are   492 symmetry adapted basis functions of A   symmetry.
   492 basis functions,   827 primitive gaussians,   511 cartesian basis functions
    97 alpha electrons       97 beta electrons
       nuclear repulsion energy      2396.8796045151 Hartrees.
 NAtoms=   22 NActive=   22 NUniq=   22 SFac= 1.00D+00 NAtFMM=   60 NAOKFM=F Big=F
 Integral buffers will be    131072 words long.
 Raffenetti 2 integral format.
 Two-electron integral symmetry is turned on.
 One-electron integrals computed using PRISM.
 NBasis=   492 RedAO= T EigKep=  1.06D-06  NBF=   492
 NBsUse=   485 1.00D-06 EigRej=  6.22D-07 NBFU=   485
 ExpMin= 4.38D-02 ExpMax= 1.06D+05 ExpMxC= 3.62D+03 IAcc=3 IRadAn=         5 AccDes= 0.00D+00
 Harris functional with IExCor=  402 and IRadAn=       5 diagonalized for initial guess.
 HarFok:  IExCor=  402 AccDes= 0.00D+00 IRadAn=         5 IDoV= 1 UseB2=F ITyADJ=14
 ICtDFT=  3500011 ScaDFX=  1.000000  1.000000  1.000000  1.000000
 FoFCou: FMM=F IPFlag=           0 FMFlag=      100000 FMFlg1=           0
         NFxFlg=           0 DoJE=T BraDBF=F KetDBF=T FulRan=T
         wScrn=  0.000000 ICntrl=       500 IOpCl=  0 I1Cent=   200000004 NGrid=           0
         NMat0=    1 NMatS0=      1 NMatT0=    0 NMatD0=    1 NMtDS0=    0 NMtDT0=    0
 Petite list used in FoFCou.
 Requested convergence on RMS density matrix=1.00D-08 within  32 cycles.
 Requested convergence on MAX density matrix=1.00D-06.
 Requested convergence on             energy=1.00D-06.
 No special actions if energy rises.
 Restarting incremental Fock formation.
 SCF Done:  E(RB3LYP) =  -3679.13283617     A.U. after   24 cycles
            NFock= 24  Conv=0.69D-09     -V/T= 2.0005
 QCSCF skips out because SCF is already converged.

 **********************************************************************

            Population analysis using the SCF Density.

 **********************************************************************

 Orbital symmetries:
       Occupied  (A) (A) (A) (A) (A) (A) (A) (A) (A) (A) (A) (A)
                 (A) (A) (A) (A) (A) (A) (A) (A) (A) (A) (A) (A)
                 (A) (A) (A) (A) (A) (A) (A) (A) (A) (A) (A) (A)
                 (A) (A) (A) (A) (A) (A) (A) (A) (A) (A) (A) (A)
                 (A) (A) (A) (A) (A) (A) (A) (A) (A) (A) (A) (A)
                 (A) (A) (A) (A) (A) (A) (A) (A) (A) (A) (A) (A)
                 (A) (A) (A) (A) (A) (A) (A) (A) (A) (A) (A) (A)
                 (A) (A) (A) (A) (A) (A) (A) (A) (A) (A) (A) (A)
                 (A)
       Virtual   (A) (A) (A) (A) (A) (A) (A) (A) (A) (A) (A) (A)
                 (A) (A) (A) (A) (A) (A) (A) (A) (A) (A) (A) (A)
                 (A) (A) (A) (A) (A) (A) (A) (A) (A) (A) (A) (A)
                 (A) (A) (A) (A) (A) (A) (A) (A) (A) (A) (A) (A)
                 (A) (A) (A) (A) (A) (A) (A) (A) (A) (A) (A) (A)
                 (A) (A) (A) (A) (A) (A) (A) (A) (A) (A) (A) (A)
                 (A) (A) (A) (A) (A) (A) (A) (A) (A) (A) (A) (A)
                 (A) (A) (A) (A) (A) (A) (A) (A) (A) (A) (A) (A)
                 (A) (A) (A) (A) (A) (A) (A) (A) (A) (A) (A) (A)
                 (A) (A) (A) (A) (A) (A) (A) (A) (A) (A) (A) (A)
                 (A) (A) (A) (A) (A) (A) (A) (A) (A) (A) (A) (A)
                 (A) (A) (A) (A) (A) (A) (A) (A) (A) (A) (A) (A)
                 (A) (A) (A) (A) (A) (A) (A) (A) (A) (A) (A) (A)
                 (A) (A) (A) (A) (A) (A) (A) (A) (A) (A) (A) (A)
                 (A) (A) (A) (A) (A) (A) (A) (A) (A) (A) (A) (A)
                 (A) (A) (A) (A) (A) (A) (A) (A) (A) (A) (A) (A)
                 (A) (A) (A) (A) (A) (A) (A) (A) (A) (A) (A) (A)
                 (A) (A) (A) (A) (A) (A) (A) (A) (A) (A) (A) (A)
                 (A) (A) (A) (A) (A) (A) (A) (A) (A) (A) (A) (A)
                 (A) (A) (A) (A) (A) (A) (A) (A) (A) (A) (A) (A)
                 (A) (A) (A) (A) (A) (A) (A) (A) (A) (A) (A) (A)
                 (A) (A) (A) (A) (A) (A) (A) (A) (A) (A) (A) (A)
                 (A) (A) (A) (A) (A) (A) (A) (A) (A) (A) (A) (A)
                 (A) (A) (A) (A) (A) (A) (A) (A) (A) (A) (A) (A)
                 (A) (A) (A) (A) (A) (A) (A) (A) (A) (A) (A) (A)
                 (A) (A) (A) (A) (A) (A) (A) (A) (A) (A) (A) (A)
                 (A) (A) (A) (A) (A) (A) (A) (A) (A) (A) (A) (A)
                 (A) (A) (A) (A) (A) (A) (A) (A) (A) (A) (A) (A)
                 (A) (A) (A) (A) (A) (A) (A) (A) (A) (A) (A) (A)
                 (A) (A) (A) (A) (A) (A) (A) (A) (A) (A) (A) (A)
                 (A) (A) (A) (A) (A) (A) (A) (A) (A) (A) (A) (A)
                 (A) (A) (A) (A) (A) (A) (A) (A) (A) (A) (A) (A)
                 (A) (A) (A) (A)
 The electronic state is 1-A.
 Alpha  occ. eigenvalues -- -101.67449-101.67049-101.57308-101.56998-101.56887
 Alpha  occ. eigenvalues -- -101.56875-101.56698 -10.26931 -10.26739 -10.26714
 Alpha  occ. eigenvalues --  -10.26712 -10.26502 -10.22664 -10.22395 -10.21457
 Alpha  occ. eigenvalues --  -10.21232 -10.21101 -10.19146 -10.19130  -9.66102
 Alpha  occ. eigenvalues --   -9.63950  -9.48766  -9.48423  -9.48319  -9.48311
 Alpha  occ. eigenvalues --   -9.48137  -7.44486  -7.39571  -7.39472  -7.39088
 Alpha  occ. eigenvalues --   -7.38858  -7.38394  -7.25226  -7.24917  -7.24806
 Alpha  occ. eigenvalues --   -7.24791  -7.24628  -7.24256  -7.24202  -7.23902
 Alpha  occ. eigenvalues --   -7.23845  -7.23800  -7.23798  -7.23745  -7.23737
 Alpha  occ. eigenvalues --   -7.23628  -7.23544  -1.40543  -0.94199  -0.93051
 Alpha  occ. eigenvalues --   -0.89459  -0.88544  -0.87021  -0.86623  -0.85028
 Alpha  occ. eigenvalues --   -0.81447  -0.81086  -0.78263  -0.74701  -0.73692
 Alpha  occ. eigenvalues --   -0.72827  -0.71223  -0.66882  -0.64642  -0.62316
 Alpha  occ. eigenvalues --   -0.59924  -0.58081  -0.53005  -0.52086  -0.50304
 Alpha  occ. eigenvalues --   -0.49819  -0.49082  -0.46748  -0.45794  -0.44661
 Alpha  occ. eigenvalues --   -0.43843  -0.43419  -0.43124  -0.41681  -0.39399
 Alpha  occ. eigenvalues --   -0.38252  -0.37845  -0.37172  -0.36041  -0.35439
 Alpha  occ. eigenvalues --   -0.34772  -0.34334  -0.34148  -0.33713  -0.31883
 Alpha  occ. eigenvalues --   -0.31224  -0.30117  -0.28813  -0.27806  -0.25764
 Alpha  occ. eigenvalues --   -0.22212  -0.17615
 Alpha virt. eigenvalues --   -0.07888  -0.06807  -0.03989  -0.03353  -0.03067
 Alpha virt. eigenvalues --   -0.02158  -0.00920  -0.00089   0.00513   0.01061
 Alpha virt. eigenvalues --    0.01365   0.01648   0.02024   0.02578   0.03230
 Alpha virt. eigenvalues --    0.03642   0.04287   0.04863   0.05530   0.05743
 Alpha virt. eigenvalues --    0.05778   0.06370   0.06741   0.07609   0.07853
 Alpha virt. eigenvalues --    0.07896   0.09001   0.09038   0.09342   0.09355
 Alpha virt. eigenvalues --    0.09540   0.09960   0.10267   0.10929   0.11010
 Alpha virt. eigenvalues --    0.11444   0.12073   0.12477   0.12692   0.12733
 Alpha virt. eigenvalues --    0.12980   0.13713   0.14341   0.14373   0.14732
 Alpha virt. eigenvalues --    0.14856   0.15071   0.15586   0.16105   0.16300
 Alpha virt. eigenvalues --    0.16725   0.16800   0.17445   0.17862   0.17947
 Alpha virt. eigenvalues --    0.18134   0.18704   0.19127   0.19149   0.19814
 Alpha virt. eigenvalues --    0.20372   0.20688   0.21099   0.21218   0.21779
 Alpha virt. eigenvalues --    0.22101   0.22698   0.22852   0.23417   0.24296
 Alpha virt. eigenvalues --    0.24743   0.24909   0.24923   0.25189   0.25834
 Alpha virt. eigenvalues --    0.25868   0.26596   0.26982   0.27453   0.27491
 Alpha virt. eigenvalues --    0.27942   0.28998   0.29164   0.29857   0.30198
 Alpha virt. eigenvalues --    0.31199   0.31580   0.31724   0.32442   0.32792
 Alpha virt. eigenvalues --    0.33612   0.34143   0.35357   0.35998   0.37985
 Alpha virt. eigenvalues --    0.39496   0.40267   0.42273   0.42463   0.43557
 Alpha virt. eigenvalues --    0.43749   0.43787   0.44031   0.44892   0.45155
 Alpha virt. eigenvalues --    0.45441   0.45877   0.46722   0.46865   0.47106
 Alpha virt. eigenvalues --    0.47780   0.48244   0.48826   0.49091   0.49516
 Alpha virt. eigenvalues --    0.50218   0.50408   0.50873   0.51429   0.53632
 Alpha virt. eigenvalues --    0.54142   0.54371   0.54891   0.56335   0.56582
 Alpha virt. eigenvalues --    0.58315   0.58407   0.58696   0.59662   0.60079
 Alpha virt. eigenvalues --    0.60717   0.61353   0.62055   0.62191   0.63464
 Alpha virt. eigenvalues --    0.64353   0.64559   0.65390   0.66371   0.66651
 Alpha virt. eigenvalues --    0.66962   0.68763   0.69673   0.69928   0.70345
 Alpha virt. eigenvalues --    0.70369   0.71988   0.76074   0.77508   0.78378
 Alpha virt. eigenvalues --    0.78589   0.80245   0.81767   0.82925   0.83186
 Alpha virt. eigenvalues --    0.84467   0.84516   0.84867   0.85121   0.85129
 Alpha virt. eigenvalues --    0.85363   0.85511   0.85663   0.85905   0.86443
 Alpha virt. eigenvalues --    0.86794   0.87537   0.87899   0.88976   0.89401
 Alpha virt. eigenvalues --    0.89978   0.90563   0.90933   0.91489   0.91988
 Alpha virt. eigenvalues --    0.92132   0.93315   0.93924   0.94291   0.94426
 Alpha virt. eigenvalues --    0.95198   0.95253   0.95692   0.96956   0.97269
 Alpha virt. eigenvalues --    0.97741   0.98788   0.98925   0.99676   1.00454
 Alpha virt. eigenvalues --    1.02036   1.04504   1.05891   1.06821   1.07609
 Alpha virt. eigenvalues --    1.08456   1.10990   1.11607   1.13537   1.16367
 Alpha virt. eigenvalues --    1.17592   1.18035   1.20503   1.23144   1.23806
 Alpha virt. eigenvalues --    1.24566   1.24950   1.26653   1.26901   1.26904
 Alpha virt. eigenvalues --    1.28299   1.28416   1.29275   1.30400   1.30606
 Alpha virt. eigenvalues --    1.31801   1.34455   1.35339   1.38204   1.39143
 Alpha virt. eigenvalues --    1.42876   1.42976   1.46223   1.47761   1.49510
 Alpha virt. eigenvalues --    1.49597   1.51626   1.55242   1.56910   1.57561
 Alpha virt. eigenvalues --    1.59702   1.60274   1.65385   1.66578   1.66885
 Alpha virt. eigenvalues --    1.70300   1.71106   1.72565   1.73032   1.76955
 Alpha virt. eigenvalues --    1.79295   1.81530   1.82932   1.83845   1.85836
 Alpha virt. eigenvalues --    1.86782   1.87217   1.88347   1.88925   1.92438
 Alpha virt. eigenvalues --    1.92532   1.96110   1.97152   1.97776   1.99793
 Alpha virt. eigenvalues --    2.01308   2.02548   2.06101   2.08580   2.09257
 Alpha virt. eigenvalues --    2.11389   2.16949   2.17740   2.19291   2.22133
 Alpha virt. eigenvalues --    2.22593   2.23985   2.24412   2.25057   2.26653
 Alpha virt. eigenvalues --    2.26813   2.27575   2.27945   2.29662   2.32245
 Alpha virt. eigenvalues --    2.32529   2.33930   2.34523   2.35622   2.38245
 Alpha virt. eigenvalues --    2.40424   2.41293   2.42583   2.43948   2.45598
 Alpha virt. eigenvalues --    2.46432   2.48652   2.51497   2.52503   2.54641
 Alpha virt. eigenvalues --    2.56323   2.58243   2.60189   2.60301   2.62326
 Alpha virt. eigenvalues --    2.62549   2.64172   2.69042   2.71079   2.72184
 Alpha virt. eigenvalues --    2.73769   2.74894   2.75280   2.77165   2.78816
 Alpha virt. eigenvalues --    2.81447   2.83365   2.84310   2.85664   2.89675
 Alpha virt. eigenvalues --    2.91733   2.94849   2.97897   3.00942   3.06024
 Alpha virt. eigenvalues --    3.07852   3.10159   3.13019   3.14739   3.16028
 Alpha virt. eigenvalues --    3.17720   3.19172   3.21439   3.24180   3.34379
 Alpha virt. eigenvalues --    3.36117   3.39893   3.50239   3.51844   3.54666
 Alpha virt. eigenvalues --    3.67888   3.68511   3.73889   3.84571   3.90271
 Alpha virt. eigenvalues --    3.94079   4.06775   4.18565   4.45099   4.80015
 Alpha virt. eigenvalues --    4.83927   9.71719   9.75951   9.78098   9.80155
 Alpha virt. eigenvalues --    9.80460   9.81777  10.54340  23.31912  23.48842
 Alpha virt. eigenvalues --   23.81857  23.82640  23.84655  23.88898  23.95150
 Alpha virt. eigenvalues --   23.98128  24.00173  24.03512  24.07786  24.09233
 Alpha virt. eigenvalues --   25.39980  25.76851  25.78089  25.81643  25.86518
 Alpha virt. eigenvalues --   25.89108  25.96928  26.10720  26.12525  26.14119
 Alpha virt. eigenvalues --   26.17382  26.20200  26.25070  26.48184  26.52131
 Alpha virt. eigenvalues --   26.63652  26.78066  26.86293  27.12194  27.42371
 Alpha virt. eigenvalues --   28.45367 215.71395 215.74978 215.78408 215.79779
 Alpha virt. eigenvalues --  215.80786 215.90149 216.86338
          Condensed to atoms (all electrons):
               1          2          3          4          5          6
     1  C   24.094544   3.121076  -6.659203  -0.648977  -8.073870   4.618959
     2  C    3.121076  20.689399  -5.166366  -3.867549   5.304623  -6.642737
     3  C   -6.659203  -5.166366  40.502839 -11.810774 -13.663975  11.626994
     4  C   -0.648977  -3.867549 -11.810774  27.939136  10.426652 -18.169589
     5  C   -8.073870   5.304623 -13.663975  10.426652  48.700300 -45.652587
     6  C    4.618959  -6.642737  11.626994 -18.169589 -45.652587  84.178171
     7  C    4.833444  -2.913582   1.134120  -0.141664  -4.010143   0.087365
     8  C   -2.657484  -1.558933  -5.667687   0.259252   3.382853  -4.319076
     9  C   -1.033997   0.126466   2.145115  -0.331885  -2.588191  -2.156431
    10  C   -4.164386  -1.123590  -2.415678   0.373856   2.133925  -0.160603
    11  C   -2.506677  -0.691448   0.259539  -0.143880   0.847720  -1.036426
    12  C    7.468555  -0.950915   0.721836  -1.881367 -13.491669  10.590875
    13  H    0.179635   0.315509  -0.449878   0.094882   0.035591  -0.074037
    14  H    0.154540  -0.051957   0.000537   0.044899   0.079110   0.168846
    15  H    0.134320   0.070976  -0.082592   0.002699   0.024706   0.057784
    16  Cl  -1.451292  -0.477378   0.053278  -0.095116  -1.891408   3.939921
    17  Cl -10.237157   0.655500  -5.959355   4.731282  25.792066 -30.585798
    18  Cl   1.168915   0.102913   0.190990  -0.089022  -0.686785   0.065287
    19  Cl  -0.231304  -0.096802  -0.042318   0.005004   0.052461   0.029624
    20  Cl   0.031615   0.284059   0.123959  -0.154700   0.351686  -1.395131
    21  Cl  -0.234492  -0.008102   0.128558  -0.003996  -0.059454  -0.157686
    22  Cl  -1.201675  -0.392218   0.484819  -0.452528   0.020658   1.055858
               7          8          9         10         11         12
     1  C    4.833444  -2.657484  -1.033997  -4.164386  -2.506677   7.468555
     2  C   -2.913582  -1.558933   0.126466  -1.123590  -0.691448  -0.950915
     3  C    1.134120  -5.667687   2.145115  -2.415678   0.259539   0.721836
     4  C   -0.141664   0.259252  -0.331885   0.373856  -0.143880  -1.881367
     5  C   -4.010143   3.382853  -2.588191   2.133925   0.847720 -13.491669
     6  C    0.087365  -4.319076  -2.156431  -0.160603  -1.036426  10.590875
     7  C   21.015564  -2.679710  -3.559570  -0.749114   0.486198  -3.021344
     8  C   -2.679710  15.756230  -0.446177  -0.993673   2.095376  -0.347931
     9  C   -3.559570  -0.446177  27.177113 -15.770012  -0.373494   7.888733
    10  C   -0.749114  -0.993673 -15.770012  37.350286  -3.193093  -9.429207
    11  C    0.486198   2.095376  -0.373494  -3.193093  19.937839 -11.576222
    12  C   -3.021344  -0.347931   7.888733  -9.429207 -11.576222  50.988225
    13  H    0.003605   0.164105  -0.028925   0.041267  -0.021437   0.042947
    14  H    0.025055  -0.000732   0.001362  -0.000905   0.000105   0.023018
    15  H    0.073339   0.296339  -0.303231   0.096321  -0.044481  -0.020839
    16  Cl  -1.363323   0.654063  -3.484525   2.612539   3.299836 -11.372973
    17  Cl  -1.198853   3.452821  -3.224412   3.935705   3.705007 -25.660562
    18  Cl  -0.418989  -0.373115   2.763356  -2.918735  -5.082042   7.441369
    19  Cl  -0.019507  -0.209853  -1.842216   1.543939   0.839674  -1.095259
    20  Cl  -0.060010  -0.017141  -0.006442   0.001639  -0.002963  -0.067064
    21  Cl  -0.823083   0.176385   1.045887  -1.192990   0.061412   0.269312
    22  Cl  -0.108584  -0.205392   0.011289  -0.032257   0.000089  -0.073589
              13         14         15         16         17         18
     1  C    0.179635   0.154540   0.134320  -1.451292 -10.237157   1.168915
     2  C    0.315509  -0.051957   0.070976  -0.477378   0.655500   0.102913
     3  C   -0.449878   0.000537  -0.082592   0.053278  -5.959355   0.190990
     4  C    0.094882   0.044899   0.002699  -0.095116   4.731282  -0.089022
     5  C    0.035591   0.079110   0.024706  -1.891408  25.792066  -0.686785
     6  C   -0.074037   0.168846   0.057784   3.939921 -30.585798   0.065287
     7  C    0.003605   0.025055   0.073339  -1.363323  -1.198853  -0.418989
     8  C    0.164105  -0.000732   0.296339   0.654063   3.452821  -0.373115
     9  C   -0.028925   0.001362  -0.303231  -3.484525  -3.224412   2.763356
    10  C    0.041267  -0.000905   0.096321   2.612539   3.935705  -2.918735
    11  C   -0.021437   0.000105  -0.044481   3.299836   3.705007  -5.082042
    12  C    0.042947   0.023018  -0.020839 -11.372973 -25.660562   7.441369
    13  H    0.555490   0.000039   0.006328   0.004115   0.030772  -0.000941
    14  H    0.000039   0.509958  -0.000004   0.041542  -0.134771   0.000265
    15  H    0.006328  -0.000004   0.555493   0.023708   0.012055  -0.002238
    16  Cl   0.004115   0.041542   0.023708  29.455478  -1.567148  -2.768546
    17  Cl   0.030772  -0.134771   0.012055  -1.567148  56.425272  -3.533999
    18  Cl  -0.000941   0.000265  -0.002238  -2.768546  -3.533999  21.393034
    19  Cl   0.000599  -0.000006   0.001554   0.379173   0.252591  -1.101751
    20  Cl   0.000611  -0.012172   0.000287  -0.020295   0.092552  -0.000579
    21  Cl  -0.002243   0.000007  -0.036832  -0.094231  -0.051490   0.103276
    22  Cl  -0.035394   0.001101  -0.000673   0.011077  -0.078795   0.000689
              19         20         21         22
     1  C   -0.231304   0.031615  -0.234492  -1.201675
     2  C   -0.096802   0.284059  -0.008102  -0.392218
     3  C   -0.042318   0.123959   0.128558   0.484819
     4  C    0.005004  -0.154700  -0.003996  -0.452528
     5  C    0.052461   0.351686  -0.059454   0.020658
     6  C    0.029624  -1.395131  -0.157686   1.055858
     7  C   -0.019507  -0.060010  -0.823083  -0.108584
     8  C   -0.209853  -0.017141   0.176385  -0.205392
     9  C   -1.842216  -0.006442   1.045887   0.011289
    10  C    1.543939   0.001639  -1.192990  -0.032257
    11  C    0.839674  -0.002963   0.061412   0.000089
    12  C   -1.095259  -0.067064   0.269312  -0.073589
    13  H    0.000599   0.000611  -0.002243  -0.035394
    14  H   -0.000006  -0.012172   0.000007   0.001101
    15  H    0.001554   0.000287  -0.036832  -0.000673
    16  Cl   0.379173  -0.020295  -0.094231   0.011077
    17  Cl   0.252591   0.092552  -0.051490  -0.078795
    18  Cl  -1.101751  -0.000579   0.103276   0.000689
    19  Cl  18.259573   0.000023  -0.359231  -0.000164
    20  Cl   0.000023  17.546237  -0.000091  -0.224288
    21  Cl  -0.359231  -0.000091  17.681067   0.000536
    22  Cl  -0.000164  -0.224288   0.000536  17.674098
 Mulliken charges:
               1
     1  C   -0.705090
     2  C   -0.728946
     3  C    0.545243
     4  C   -0.086616
     5  C   -1.034268
     6  C   -0.069583
     7  C   -0.591216
     8  C   -0.760518
     9  C   -0.009812
    10  C    0.054767
    11  C   -0.860633
    12  C   -0.445930
    13  H    0.137359
    14  H    0.150163
    15  H    0.134981
    16  Cl   1.111505
    17  Cl   0.146716
    18  Cl   0.746648
    19  Cl   0.634197
    20  Cl   0.528208
    21  Cl   0.557480
    22  Cl   0.545345
 Sum of Mulliken charges =  -0.00000
 Mulliken charges with hydrogens summed into heavy atoms:
               1
     1  C   -0.705090
     2  C   -0.591587
     3  C    0.545243
     4  C   -0.086616
     5  C   -0.884105
     6  C   -0.069583
     7  C   -0.591216
     8  C   -0.625537
     9  C   -0.009812
    10  C    0.054767
    11  C   -0.860633
    12  C   -0.445930
    16  Cl   1.111505
    17  Cl   0.146716
    18  Cl   0.746648
    19  Cl   0.634197
    20  Cl   0.528208
    21  Cl   0.557480
    22  Cl   0.545345
 Electronic spatial extent (au):  <R**2>=          10405.3835
 Charge=             -0.0000 electrons
 Dipole moment (field-independent basis, Debye):
    X=              0.6852    Y=             -3.5356    Z=              0.0000  Tot=              3.6014
 Quadrupole moment (field-independent basis, Debye-Ang):
   XX=           -180.9141   YY=           -145.7207   ZZ=           -157.8055
   XY=             -1.7899   XZ=              0.0000   YZ=             -0.0000
 Traceless Quadrupole moment (field-independent basis, Debye-Ang):
   XX=            -19.4340   YY=             15.7594   ZZ=              3.6746
   XY=             -1.7899   XZ=              0.0000   YZ=             -0.0000
 Octapole moment (field-independent basis, Debye-Ang**2):
  XXX=            -31.0942  YYY=            -54.3695  ZZZ=             -0.0000  XYY=              5.8321
  XXY=            -19.6984  XXZ=             -0.0000  XZZ=             -5.4076  YZZ=             -9.4508
  YYZ=              0.0000  XYZ=             -0.0000
 Hexadecapole moment (field-independent basis, Debye-Ang**3):
 XXXX=         -10415.8043 YYYY=          -3130.8324 ZZZZ=           -185.7862 XXXY=            -18.1024
 XXXZ=              0.0004 YYYX=             25.1065 YYYZ=             -0.0002 ZZZX=             -0.0000
 ZZZY=             -0.0001 XXYY=          -2247.9504 XXZZ=          -1753.0454 YYZZ=           -589.7677
 XXYZ=             -0.0001 YYXZ=              0.0001 ZZXY=              6.5455
 N-N= 2.396879604515D+03 E-N=-1.351477918561D+04  KE= 3.677381795105D+03
 Calling FoFJK, ICntrl=      2127 FMM=F ISym2X=0 I1Cent= 0 IOpClX= 0 NMat=1 NMatS=1 NMatT=0.
 ***** Axes restored to original set *****
 -------------------------------------------------------------------
 Center     Atomic                   Forces (Hartrees/Bohr)
 Number     Number              X              Y              Z
 -------------------------------------------------------------------
      1        6           0.003939233   -0.028198691   -0.006593754
      2        6          -0.004919845    0.015740512    0.004577296
      3        6           0.000346318   -0.001820530   -0.000455911
      4        6          -0.002749698    0.000917419    0.001078012
      5        6           0.004380347   -0.020944358   -0.005376544
      6        6           0.107090687   -0.004706949   -0.036166174
      7        6           0.023709275    0.006987956   -0.006498787
      8        6          -0.014417408   -0.003428015    0.004106097
      9        6           0.001798858    0.003927345    0.000144907
     10        6          -0.006524669   -0.008333161    0.000584588
     11        6           0.020491241    0.009885499   -0.004894356
     12        6           0.051722063   -0.102221958   -0.036237965
     13        1           0.007772864   -0.003329547   -0.003186192
     14        1          -0.004779956    0.011145671    0.003668060
     15        1           0.006667871   -0.005287597   -0.003189925
     16       17          -1.718619602   -2.708895784    0.057481454
     17       17           1.534113788    2.829973132    0.026044575
     18       17          -0.001838839    0.002713025    0.001115334
     19       17           0.002533880    0.004055284   -0.000073250
     20       17          -0.005104802   -0.001657176    0.001370573
     21       17           0.000099416    0.007767839    0.001426132
     22       17          -0.005711022   -0.004289914    0.001075830
 -------------------------------------------------------------------
 Cartesian Forces:  Max     2.829973132 RMS     0.559883046

 GradGradGradGradGradGradGradGradGradGradGradGradGradGradGradGradGradGrad
 Berny optimization.
 FormGI is forming the generalized inverse of G from B-inverse, IUseBI=4.
 Internal  Forces:  Max     3.118413604 RMS     0.292655784
 Search for a local minimum.
 Step number   1 out of a maximum of  129
 All quantities printed in internal units (Hartrees-Bohrs-Radians)
 Mixed Optimization -- RFO/linear search
 Second derivative matrix not updated -- first step.
 ITU=  0
     Eigenvalues ---    0.01035   0.01214   0.01489   0.01712   0.01738
     Eigenvalues ---    0.01829   0.02070   0.02070   0.02070   0.02070
     Eigenvalues ---    0.02070   0.02070   0.02070   0.02070   0.02070
     Eigenvalues ---    0.02070   0.02070   0.02070   0.03966   0.16000
     Eigenvalues ---    0.16000   0.16000   0.23082   0.23534   0.23991
     Eigenvalues ---    0.25000   0.25000   0.25000   0.25000   0.25000
     Eigenvalues ---    0.25000   0.25000   0.25000   0.25000   0.25000
     Eigenvalues ---    0.25000   0.28335   0.29045   0.29447   0.29539
     Eigenvalues ---    0.29539   0.29539   0.29539   0.29539   0.37230
     Eigenvalues ---    0.37230   0.37230   0.40141   0.40986   0.41469
     Eigenvalues ---    0.41635   0.44587   0.45131   0.45389   0.45389
     Eigenvalues ---    0.45389   0.45389   0.45389   0.45389  16.61567
 RFO step:  Lambda=-6.28894076D-01 EMin= 1.03510892D-02
 Linear search not attempted -- first point.
 Iteration  1 RMS(Cart)=  0.03448350 RMS(Int)=  0.00053230
 Iteration  2 RMS(Cart)=  0.00135567 RMS(Int)=  0.00023983
 Iteration  3 RMS(Cart)=  0.00000071 RMS(Int)=  0.00023983
 Variable       Old X    -DE/DX   Delta X   Delta X   Delta X     New X
                                 (Linear)    (Quad)   (Total)
    R1        2.64826   0.01578   0.00000  -0.00002  -0.00009   2.64817
    R2        2.64826   0.10162   0.00000   0.01632   0.01600   2.66426
    R3        2.91018   0.11752   0.00000  -0.01491  -0.01544   2.89474
    R4        2.64826  -0.01191   0.00000  -0.00866  -0.00865   2.63962
    R5        2.02201   0.00724   0.00000   0.00723   0.00723   2.02924
    R6        2.64826  -0.02258   0.00000  -0.00391  -0.00384   2.64442
    R7        3.32592  -0.00585   0.00000  -0.00633  -0.00633   3.31958
    R8        2.64826  -0.02690   0.00000  -0.01024  -0.01018   2.63808
    R9        3.32592  -0.00401   0.00000  -0.00434  -0.00434   3.32157
   R10        2.64826  -0.00934   0.00000  -0.01097  -0.01098   2.63728
   R11        2.02201   0.01263   0.00000   0.01261   0.01261   2.03462
   R12        3.32592   0.04796   0.00000   0.12281   0.12306   3.44898
   R13        2.64826   0.01493   0.00000  -0.00092  -0.00099   2.64727
   R14        2.64826   0.10072   0.00000   0.01550   0.01513   2.66339
   R15        2.64826  -0.01358   0.00000  -0.01027  -0.01026   2.63801
   R16        2.02201   0.00721   0.00000   0.00720   0.00720   2.02921
   R17        2.64826  -0.02334   0.00000  -0.00457  -0.00449   2.64377
   R18        3.32592  -0.00693   0.00000  -0.00750  -0.00750   3.31842
   R19        2.64826  -0.01914   0.00000  -0.00297  -0.00290   2.64537
   R20        3.32592  -0.00478   0.00000  -0.00517  -0.00517   3.32075
   R21        2.64826  -0.01206   0.00000  -0.01342  -0.01343   2.63483
   R22        3.32592   0.00204   0.00000   0.00220   0.00220   3.32812
   R23        3.32592   0.06288   0.00000   0.13901   0.13924   3.46516
   R24        2.23252   3.11841   0.00000   0.18084   0.18137   2.41389
    A1        2.09440  -0.07989   0.00000  -0.01024  -0.00996   2.08444
    A2        2.09440  -0.16825   0.00000  -0.00375  -0.00309   2.09130
    A3        2.09440   0.24814   0.00000   0.01400   0.01305   2.10744
    A4        2.09440   0.04695   0.00000   0.00651   0.00635   2.10074
    A5        2.09440  -0.01800   0.00000   0.00368   0.00376   2.09815
    A6        2.09440  -0.02894   0.00000  -0.01019  -0.01011   2.08429
    A7        2.09440   0.00679   0.00000   0.00020   0.00018   2.09457
    A8        2.09440  -0.01043   0.00000  -0.00811  -0.00809   2.08630
    A9        2.09440   0.00364   0.00000   0.00790   0.00792   2.10231
   A10        2.09440  -0.00869   0.00000  -0.00202  -0.00199   2.09241
   A11        2.09440   0.01069   0.00000   0.00823   0.00822   2.10261
   A12        2.09440  -0.00200   0.00000  -0.00621  -0.00623   2.08817
   A13        2.09440   0.02087   0.00000   0.00766   0.00760   2.10200
   A14        2.09440  -0.01145   0.00000  -0.00512  -0.00509   2.08930
   A15        2.09440  -0.00941   0.00000  -0.00254  -0.00251   2.09189
   A16        2.09440   0.01398   0.00000  -0.00212  -0.00218   2.09221
   A17        2.09440   0.07048   0.00000   0.03230   0.03213   2.12653
   A18        2.09440  -0.08445   0.00000  -0.03018  -0.02995   2.06444
   A19        2.09440  -0.17016   0.00000  -0.00590  -0.00520   2.08919
   A20        2.09440   0.24685   0.00000   0.01266   0.01169   2.10609
   A21        2.09440  -0.07669   0.00000  -0.00677  -0.00649   2.08791
   A22        2.09440   0.04645   0.00000   0.00576   0.00558   2.09997
   A23        2.09440  -0.01763   0.00000   0.00421   0.00430   2.09869
   A24        2.09440  -0.02881   0.00000  -0.00996  -0.00987   2.08452
   A25        2.09440   0.00903   0.00000   0.00278   0.00276   2.09715
   A26        2.09440  -0.01082   0.00000  -0.00857  -0.00855   2.08584
   A27        2.09440   0.00179   0.00000   0.00578   0.00580   2.10019
   A28        2.09440  -0.01397   0.00000  -0.00777  -0.00773   2.08667
   A29        2.09440   0.00674   0.00000   0.00360   0.00358   2.09798
   A30        2.09440   0.00723   0.00000   0.00416   0.00414   2.09854
   A31        2.09440   0.02529   0.00000   0.01272   0.01266   2.10705
   A32        2.09440  -0.00799   0.00000  -0.00106  -0.00103   2.09336
   A33        2.09440  -0.01730   0.00000  -0.01166  -0.01163   2.08277
   A34        2.09440   0.00990   0.00000  -0.00673  -0.00678   2.08762
   A35        2.09440   0.06637   0.00000   0.02770   0.02748   2.12187
   A36        2.09440  -0.07627   0.00000  -0.02097  -0.02070   2.07370
   A37        2.09440  -0.31541   0.00000  -0.04271  -0.04158   2.05281
   A38        2.09440  -0.31643   0.00000  -0.04395  -0.04277   2.05162
    D1        0.00000   0.00000   0.00000   0.00000   0.00000   0.00000
    D2        3.14159   0.00000   0.00000   0.00000   0.00000   3.14159
    D3       -3.14159   0.00000   0.00000   0.00000   0.00000  -3.14159
    D4       -0.00000   0.00000   0.00000   0.00000   0.00000  -0.00000
    D5       -0.00000  -0.00000   0.00000  -0.00000  -0.00000  -0.00000
    D6        3.14159  -0.00000   0.00000   0.00000   0.00000   3.14159
    D7        3.14159  -0.00000   0.00000  -0.00000  -0.00000   3.14159
    D8        0.00000  -0.00000   0.00000   0.00000   0.00000   0.00000
    D9       -0.00000  -0.00000   0.00000  -0.00000  -0.00000  -0.00000
   D10        3.14159  -0.00000   0.00000  -0.00000  -0.00000   3.14159
   D11        3.14159  -0.00000   0.00000  -0.00000  -0.00000   3.14159
   D12       -0.00000  -0.00000   0.00000  -0.00000  -0.00000  -0.00000
   D13        0.00000  -0.00000   0.00000   0.00000   0.00000   0.00000
   D14        3.14159  -0.00000   0.00000   0.00000   0.00000   3.14159
   D15       -3.14159   0.00000   0.00000  -0.00000  -0.00000  -3.14159
   D16        0.00000   0.00000   0.00000  -0.00000  -0.00000   0.00000
   D17       -0.00000  -0.00000   0.00000   0.00000   0.00000  -0.00000
   D18        3.14159   0.00000   0.00000  -0.00000  -0.00000   3.14159
   D19        3.14159  -0.00000   0.00000   0.00000   0.00000   3.14159
   D20        0.00000   0.00000   0.00000  -0.00000  -0.00000   0.00000
   D21        0.00000   0.00000   0.00000  -0.00000  -0.00000   0.00000
   D22       -3.14159   0.00000   0.00000  -0.00000  -0.00000  -3.14159
   D23       -3.14159  -0.00000   0.00000  -0.00000  -0.00000  -3.14159
   D24        0.00000   0.00000   0.00000   0.00000   0.00000   0.00000
   D25       -0.00000   0.00000   0.00000   0.00000   0.00000  -0.00000
   D26        3.14159   0.00000   0.00000   0.00000   0.00000   3.14159
   D27        3.14159  -0.00000   0.00000   0.00000   0.00000   3.14159
   D28       -0.00000   0.00000   0.00000  -0.00000  -0.00000  -0.00000
   D29        0.00001  -0.00000   0.00000  -0.00000  -0.00000   0.00001
   D30       -3.14158  -0.00000   0.00000  -0.00000  -0.00000  -3.14158
   D31        3.14159   0.00000   0.00000   0.00000   0.00000   3.14159
   D32        0.00000   0.00000   0.00000   0.00000   0.00000   0.00000
   D33        0.00000   0.00000   0.00000   0.00000   0.00000   0.00000
   D34       -3.14159   0.00000   0.00000  -0.00000  -0.00000  -3.14159
   D35       -3.14159  -0.00000   0.00000  -0.00000  -0.00000  -3.14159
   D36        0.00000  -0.00000   0.00000   0.00000   0.00000   0.00000
   D37       -0.00000  -0.00000   0.00000  -0.00000  -0.00000  -0.00000
   D38        3.14159  -0.00000   0.00000   0.00000   0.00000   3.14159
   D39       -0.00000  -0.00000   0.00000  -0.00000   0.00000  -0.00000
   D40        3.14159  -0.00000   0.00000  -0.00000  -0.00000   3.14159
   D41        3.14159   0.00000   0.00000   0.00000   0.00000   3.14159
   D42       -0.00000   0.00000   0.00000   0.00000   0.00000  -0.00000
   D43       -0.00000  -0.00000   0.00000  -0.00000  -0.00000  -0.00000
   D44       -3.14159  -0.00000   0.00000  -0.00000  -0.00000  -3.14159
   D45        3.14159  -0.00000   0.00000   0.00000   0.00000   3.14159
   D46        0.00000   0.00000   0.00000  -0.00000  -0.00000   0.00000
   D47        0.00000   0.00000   0.00000  -0.00000  -0.00000   0.00000
   D48       -3.14159   0.00000   0.00000  -0.00000  -0.00000  -3.14159
   D49        3.14159  -0.00000   0.00000   0.00000   0.00000   3.14159
   D50        0.00000   0.00000   0.00000   0.00000   0.00000   0.00000
   D51        0.00000   0.00000   0.00000   0.00000   0.00000   0.00000
   D52       -3.14159   0.00000   0.00000  -0.00000  -0.00000  -3.14159
   D53        3.14159   0.00000   0.00000   0.00000   0.00000   3.14159
   D54       -0.00000   0.00000   0.00000  -0.00000  -0.00000  -0.00000
   D55        0.00001  -0.00000   0.00000  -0.00000  -0.00000   0.00001
   D56       -3.14158  -0.00000   0.00000  -0.00000  -0.00000  -3.14158
   D57       -0.00001   0.00000   0.00000   0.00000   0.00000  -0.00001
         Item               Value     Threshold  Converged?
 Maximum Force            3.118414     0.000450     NO 
 RMS     Force            0.292656     0.000300     NO 
 Maximum Displacement     0.197730     0.001800     NO 
 RMS     Displacement     0.033684     0.001200     NO 
 Predicted change in Energy=-3.371550D-01
 GradGradGradGradGradGradGradGradGradGradGradGradGradGradGradGradGradGrad

                          Input orientation:                          
 ---------------------------------------------------------------------
 Center     Atomic      Atomic             Coordinates (Angstroms)
 Number     Number       Type             X           Y           Z
 ---------------------------------------------------------------------
      1          6           0        1.523721   -0.917067   -0.697482
      2          6           0        2.855863   -0.892488   -1.131747
      3          6           0        3.572890    0.306207   -1.142848
      4          6           0        2.961541    1.491410   -0.718843
      5          6           0        1.634729    1.473160   -0.285148
      6          6           0        0.911877    0.279445   -0.271192
      7          6           0        0.749010   -2.238536   -0.690434
      8          6           0        1.378497   -3.414468   -1.118673
      9          6           0        0.684662   -4.625802   -1.117584
     10          6           0       -0.645965   -4.673238   -0.688108
     11          6           0       -1.275712   -3.498593   -0.260023
     12          6           0       -0.591432   -2.283764   -0.257308
     13          1           0        3.334300   -1.796380   -1.459128
     14          1           0        1.167183    2.386730    0.040462
     15          1           0        2.399430   -3.391408   -1.450693
     16         17           0       -1.467144   -0.777442    0.314105
     17         17           0       -0.818647    0.323053    0.307126
     18         17           0       -2.950474   -3.546705    0.282709
     19         17           0       -1.520542   -6.197405   -0.686222
     20         17           0        3.852467    3.006561   -0.727802
     21         17           0        1.494466   -6.086952   -1.658797
     22         17           0        5.241640    0.312042   -1.691529
 ---------------------------------------------------------------------
                    Distance matrix (angstroms):
                    1          2          3          4          5
     1  C    0.000000
     2  C    1.401353   0.000000
     3  C    2.427723   1.396825   0.000000
     4  C    2.805092   2.421699   1.399369   0.000000
     5  C    2.428071   2.793599   2.419483   1.396013   0.000000
     6  C    1.409864   2.427563   2.800265   2.422884   1.395588
     7  C    1.531831   2.538785   3.828145   4.336888   3.837375
     8  C    2.536829   2.922869   4.319649   5.170447   4.964809
     9  C    3.825601   4.318790   5.715524   6.539377   6.228397
    10  C    4.337793   5.172396   6.542201   7.142683   6.568269
    11  C    3.833076   4.962015   6.226139   6.562389   5.761044
    12  C    2.556460   3.818918   4.983343   5.204668   4.367041
    13  H    2.152090   1.073825   2.139587   3.390654   3.867385
    14  H    3.403933   3.870270   3.393556   2.144262   1.076676
    15  H    2.730669   2.560207   3.891547   4.969254   5.060365
    16  Cl   3.160392   4.559837   5.357139   5.082117   3.878908
    17  Cl   2.834401   4.129156   4.624749   4.087480   2.773552
    18  Cl   5.281496   6.539045   7.709178   7.831834   6.822434
    19  Cl   6.095050   6.891557   8.273362   8.899888   8.303865
    20  Cl   4.562766   4.044623   2.746332   1.757701   2.732329
    21  Cl   5.258583   5.395706   6.742294   7.776078   7.685173
    22  Cl   4.040020   2.730601   1.756648   2.745156   4.041771
                    6          7          8          9         10
     6  C    0.000000
     7  C    2.557835   0.000000
     8  C    3.818501   1.400877   0.000000
     9  C    4.982916   2.426033   1.395973   0.000000
    10  C    5.208623   2.806017   2.422464   1.399024   0.000000
    11  C    4.365689   2.423323   2.790910   2.418486   1.399867
    12  C    2.971560   1.409408   2.429210   2.802434   2.428611
    13  H    3.404170   2.733151   2.561110   3.891383   4.971246
    14  H    2.145451   4.701294   5.919641   7.123869   7.325399
    15  H    4.132698   2.151974   1.073813   2.138953   3.391025
    16  Cl   2.668206   2.838174   4.135750   4.635717   4.105605
    17  Cl   1.825122   3.164557   4.563925   5.364784   5.097375
    18  Cl   5.464796   4.042833   4.552071   4.042213   2.742686
    19  Cl   6.930981   4.563280   4.041804   2.742067   1.757263
    20  Cl   4.036425   6.094579   6.892237   8.272841   8.900381
    21  Cl   6.541855   4.037788   2.728984   1.756033   2.742676
    22  Cl   4.556892   5.262259   5.398048   6.743721   7.779702
                   11         12         13         14         15
    11  C    0.000000
    12  C    1.394294   0.000000
    13  H    5.058417   4.134403   0.000000
    14  H    6.379267   4.999491   4.944045   0.000000
    15  H    3.864692   3.405334   1.848829   6.093345   0.000000
    16  Cl   2.787639   1.833681   5.218855   4.126324   4.989762
    17  Cl   3.890442   2.676884   4.985842   2.876351   5.219499
    18  Cl   1.761165   2.729784   6.752483   7.226302   5.625857
    19  Cl   2.743205   4.045219   6.598174   9.024373   4.881005
    20  Cl   8.296630   6.925110   4.885855   2.860973   6.600599
    21  Cl   4.041046   4.558441   4.672672   8.648577   2.851004
    22  Cl   7.684141   6.543694   2.852613   4.889307   4.674581
                   16         17         18         19         20
    16  Cl   0.000000
    17  Cl   1.277375   0.000000
    18  Cl   3.141667   4.418180   0.000000
    19  Cl   5.511760   6.632931   3.163817   0.000000
    20  Cl   6.610788   5.485581   9.499813  10.657577   0.000000
    21  Cl   6.391742   7.092497   5.475380   3.169917   9.440281
    22  Cl   7.086418   6.381366   9.268133   9.439844   3.181038
                   21         22
    21  Cl   0.000000
    22  Cl   7.415492   0.000000
 Stoichiometry    C12H3Cl7
 Framework group  C1[X(C12H3Cl7)]
 Deg. of freedom    60
 Full point group                 C1      NOp   1
 Largest Abelian subgroup         C1      NOp   1
 Largest concise Abelian subgroup C1      NOp   1
                         Standard orientation:                         
 ---------------------------------------------------------------------
 Center     Atomic      Atomic             Coordinates (Angstroms)
 Number     Number       Type             X           Y           Z
 ---------------------------------------------------------------------
      1          6           0        1.094468    0.108817    0.000002
      2          6           0        1.918708    1.242140    0.000001
      3          6           0        3.308714    1.104284   -0.000001
      4          6           0        3.885605   -0.170639   -0.000001
      5          6           0        3.069637   -1.303357    0.000003
      6          6           0        1.680088   -1.173667    0.000005
      7          6           0       -0.428390    0.274379    0.000003
      8          6           0       -0.986925    1.559095    0.000003
      9          6           0       -2.373013    1.724924    0.000003
     10          6           0       -3.214585    0.607326    0.000001
     11          6           0       -2.657234   -0.676804    0.000000
     12          6           0       -1.274128   -0.853077    0.000001
     13          1           0        1.486108    2.224971   -0.000001
     14          1           0        3.516541   -2.282902    0.000005
     15          1           0       -0.351869    2.424992    0.000002
     16         17           0       -0.600564   -2.558568   -0.000003
     17         17           0        0.669657   -2.693568    0.000008
     18         17           0       -3.707206   -2.090756   -0.000006
     19         17           0       -4.959577    0.814637   -0.000003
     20         17           0        5.633274   -0.358165   -0.000003
     21         17           0       -3.050325    3.345078    0.000003
     22         17           0        4.321304    2.539720   -0.000004
 ---------------------------------------------------------------------
 Rotational constants (GHZ):           0.3482673           0.1175426           0.0878819
 Standard basis: 6-311+G(d,p) (5D, 7F)
 There are   511 symmetry adapted cartesian basis functions of A   symmetry.
 There are   492 symmetry adapted basis functions of A   symmetry.
   492 basis functions,   827 primitive gaussians,   511 cartesian basis functions
    97 alpha electrons       97 beta electrons
       nuclear repulsion energy      2376.2137372082 Hartrees.
 NAtoms=   22 NActive=   22 NUniq=   22 SFac= 1.00D+00 NAtFMM=   60 NAOKFM=F Big=F
 Integral buffers will be    131072 words long.
 Raffenetti 2 integral format.
 Two-electron integral symmetry is turned on.
 One-electron integrals computed using PRISM.
 NBasis=   492 RedAO= T EigKep=  1.21D-06  NBF=   492
 NBsUse=   485 1.00D-06 EigRej=  6.59D-07 NBFU=   485
 Initial guess from the checkpoint file:  "./Gau-414874.chk"
 B after Tr=     0.000000   -0.000000    0.000000
         Rot=    1.000000   -0.000000   -0.000000    0.000618 Ang=  -0.07 deg.
 ExpMin= 4.38D-02 ExpMax= 1.06D+05 ExpMxC= 3.62D+03 IAcc=3 IRadAn=         5 AccDes= 0.00D+00
 Harris functional with IExCor=  402 and IRadAn=       5 diagonalized for initial guess.
 HarFok:  IExCor=  402 AccDes= 0.00D+00 IRadAn=         5 IDoV= 1 UseB2=F ITyADJ=14
 ICtDFT=  3500011 ScaDFX=  1.000000  1.000000  1.000000  1.000000
 FoFCou: FMM=F IPFlag=           0 FMFlag=      100000 FMFlg1=           0
         NFxFlg=           0 DoJE=T BraDBF=F KetDBF=T FulRan=T
         wScrn=  0.000000 ICntrl=       500 IOpCl=  0 I1Cent=   200000004 NGrid=           0
         NMat0=    1 NMatS0=      1 NMatT0=    0 NMatD0=    1 NMtDS0=    0 NMtDT0=    0
 Petite list used in FoFCou.
 Requested convergence on RMS density matrix=1.00D-08 within  32 cycles.
 Requested convergence on MAX density matrix=1.00D-06.
 Requested convergence on             energy=1.00D-06.
 No special actions if energy rises.
 SCF Done:  E(RB3LYP) =  -3679.64275639     A.U. after   17 cycles
            NFock= 17  Conv=0.24D-08     -V/T= 2.0011
 QCSCF skips out because SCF is already converged.
 Calling FoFJK, ICntrl=      2127 FMM=F ISym2X=0 I1Cent= 0 IOpClX= 0 NMat=1 NMatS=1 NMatT=0.
 ***** Axes restored to original set *****
 -------------------------------------------------------------------
 Center     Atomic                   Forces (Hartrees/Bohr)
 Number     Number              X              Y              Z
 -------------------------------------------------------------------
      1        6          -0.000859499   -0.022903033   -0.004018261
      2        6          -0.003619384    0.011406651    0.003334883
      3        6           0.001003974   -0.001035852   -0.000525208
      4        6           0.000580991    0.001944368    0.000173571
      5        6          -0.002389368   -0.014799214   -0.001992141
      6        6           0.087724960   -0.016900043   -0.032075833
      7        6           0.017183030    0.009135798   -0.003945235
      8        6          -0.009606864   -0.002009577    0.002787654
      9        6           0.001391233    0.002401449   -0.000007381
     10        6          -0.006373142   -0.008668032    0.000471779
     11        6           0.017451586    0.010780223   -0.003724858
     12        6           0.053921207   -0.080012035   -0.032791434
     13        1           0.005937592   -0.001315217   -0.002203236
     14        1          -0.002558732    0.007595686    0.002269558
     15        1           0.004036473   -0.004731799   -0.002218620
     16       17          -1.107725897   -1.686817831    0.048164162
     17       17           0.953081713    1.789799874    0.022125307
     18       17          -0.003794122    0.001676032    0.001564753
     19       17           0.002094812    0.003120293   -0.000104191
     20       17          -0.003419628   -0.001201894    0.000900892
     21       17           0.000048360    0.005283802    0.000976431
     22       17          -0.004109293   -0.002749651    0.000837411
 -------------------------------------------------------------------
 Cartesian Forces:  Max     1.789799874 RMS     0.352665345

 GradGradGradGradGradGradGradGradGradGradGradGradGradGradGradGradGradGrad
 Berny optimization.
 Using GEDIIS/GDIIS optimizer.
 FormGI is forming the generalized inverse of G from B-inverse, IUseBI=4.
 Internal  Forces:  Max     1.970079313 RMS     0.184884186
 Search for a local minimum.
 Step number   2 out of a maximum of  129
 All quantities printed in internal units (Hartrees-Bohrs-Radians)
 Mixed Optimization -- RFO/linear search
 Update second derivatives using D2CorX and points    1    2
 DE= -5.10D-01 DEPred=-3.37D-01 R= 1.51D+00
 TightC=F SS=  1.41D+00  RLast= 2.78D-01 DXNew= 5.0454D-01 8.3531D-01
 Trust test= 1.51D+00 RLast= 2.78D-01 DXMaxT set to 5.05D-01
 ITU=  1  0
 Use linear search instead of GDIIS.
 Linear search step of   0.557 exceeds DXMaxT=   0.505 but not scaled.
 Quartic linear search produced a step of  2.00000.
 Iteration  1 RMS(Cart)=  0.04273640 RMS(Int)=  0.01669272
 Iteration  2 RMS(Cart)=  0.02472845 RMS(Int)=  0.00132832
 Iteration  3 RMS(Cart)=  0.00025848 RMS(Int)=  0.00132151
 Iteration  4 RMS(Cart)=  0.00000015 RMS(Int)=  0.00132151
 Variable       Old X    -DE/DX   Delta X   Delta X   Delta X     New X
                                 (Linear)    (Quad)   (Total)
    R1        2.64817   0.01113  -0.00018   0.00000  -0.00052   2.64765
    R2        2.66426   0.06006   0.03199   0.00000   0.03022   2.69448
    R3        2.89474   0.06113  -0.03087   0.00000  -0.03358   2.86116
    R4        2.63962  -0.00743  -0.01729   0.00000  -0.01722   2.62240
    R5        2.02924   0.00442   0.01446   0.00000   0.01446   2.04369
    R6        2.64442  -0.01487  -0.00768   0.00000  -0.00725   2.63717
    R7        3.31958  -0.00417  -0.01267   0.00000  -0.01267   3.30692
    R8        2.63808  -0.01529  -0.02036   0.00000  -0.02001   2.61807
    R9        3.32157  -0.00277  -0.00869   0.00000  -0.00869   3.31289
   R10        2.63728  -0.00708  -0.02197   0.00000  -0.02203   2.61525
   R11        2.03462   0.00824   0.02523   0.00000   0.02523   2.05985
   R12        3.44898   0.05740   0.24613   0.00000   0.24726   3.69624
   R13        2.64727   0.01043  -0.00198   0.00000  -0.00238   2.64490
   R14        2.66339   0.05952   0.03026   0.00000   0.02828   2.69167
   R15        2.63801  -0.00846  -0.02051   0.00000  -0.02044   2.61757
   R16        2.02921   0.00442   0.01441   0.00000   0.01441   2.04362
   R17        2.64377  -0.01466  -0.00898   0.00000  -0.00850   2.63527
   R18        3.31842  -0.00467  -0.01499   0.00000  -0.01499   3.30343
   R19        2.64537  -0.01094  -0.00579   0.00000  -0.00539   2.63997
   R20        3.32075  -0.00375  -0.01034   0.00000  -0.01034   3.31040
   R21        2.63483  -0.00967  -0.02686   0.00000  -0.02692   2.60791
   R22        3.32812   0.00404   0.00440   0.00000   0.00440   3.33252
   R23        3.46516   0.07149   0.27848   0.00000   0.27947   3.74462
   R24        2.41389   1.97008   0.36273   0.00000   0.36544   2.77933
    A1        2.08444  -0.04919  -0.01991   0.00000  -0.01839   2.06605
    A2        2.09130  -0.09884  -0.00618   0.00000  -0.00253   2.08878
    A3        2.10744   0.14803   0.02609   0.00000   0.02092   2.12836
    A4        2.10074   0.02971   0.01270   0.00000   0.01179   2.11253
    A5        2.09815  -0.01007   0.00752   0.00000   0.00797   2.10613
    A6        2.08429  -0.01964  -0.02022   0.00000  -0.01976   2.06452
    A7        2.09457   0.00361   0.00035   0.00000   0.00023   2.09480
    A8        2.08630  -0.00642  -0.01619   0.00000  -0.01613   2.07017
    A9        2.10231   0.00281   0.01584   0.00000   0.01590   2.11821
   A10        2.09241  -0.00658  -0.00397   0.00000  -0.00382   2.08859
   A11        2.10261   0.00744   0.01643   0.00000   0.01635   2.11896
   A12        2.08817  -0.00086  -0.01246   0.00000  -0.01254   2.07563
   A13        2.10200   0.01453   0.01520   0.00000   0.01485   2.11685
   A14        2.08930  -0.00849  -0.01019   0.00000  -0.01001   2.07929
   A15        2.09189  -0.00604  -0.00501   0.00000  -0.00484   2.08705
   A16        2.09221   0.00792  -0.00436   0.00000  -0.00467   2.08755
   A17        2.12653   0.05544   0.06427   0.00000   0.06318   2.18971
   A18        2.06444  -0.06337  -0.05990   0.00000  -0.05851   2.00593
   A19        2.08919  -0.10048  -0.01041   0.00000  -0.00658   2.08262
   A20        2.10609   0.14703   0.02339   0.00000   0.01809   2.12418
   A21        2.08791  -0.04655  -0.01298   0.00000  -0.01152   2.07639
   A22        2.09997   0.02883   0.01115   0.00000   0.01014   2.11011
   A23        2.09869  -0.00944   0.00859   0.00000   0.00910   2.10779
   A24        2.08452  -0.01939  -0.01975   0.00000  -0.01924   2.06528
   A25        2.09715   0.00533   0.00552   0.00000   0.00540   2.10256
   A26        2.08584  -0.00706  -0.01711   0.00000  -0.01705   2.06879
   A27        2.10019   0.00173   0.01159   0.00000   0.01165   2.11184
   A28        2.08667  -0.01073  -0.01545   0.00000  -0.01523   2.07144
   A29        2.09798   0.00489   0.00716   0.00000   0.00705   2.10503
   A30        2.09854   0.00583   0.00829   0.00000   0.00818   2.10672
   A31        2.10705   0.01861   0.02532   0.00000   0.02497   2.13203
   A32        2.09336  -0.00629  -0.00206   0.00000  -0.00189   2.09147
   A33        2.08277  -0.01233  -0.02326   0.00000  -0.02308   2.05968
   A34        2.08762   0.00449  -0.01356   0.00000  -0.01377   2.07385
   A35        2.12187   0.05152   0.05496   0.00000   0.05353   2.17540
   A36        2.07370  -0.05601  -0.04140   0.00000  -0.03976   2.03394
   A37        2.05281  -0.20118  -0.08316   0.00000  -0.07678   1.97603
   A38        2.05162  -0.20084  -0.08554   0.00000  -0.07894   1.97268
    D1        0.00000   0.00000   0.00000   0.00000   0.00000   0.00000
    D2        3.14159   0.00000   0.00000   0.00000   0.00000   3.14159
    D3       -3.14159   0.00000   0.00000   0.00000   0.00000  -3.14159
    D4       -0.00000   0.00000   0.00000   0.00000   0.00000  -0.00000
    D5       -0.00000  -0.00000  -0.00000   0.00000  -0.00000  -0.00000
    D6        3.14159  -0.00000   0.00000   0.00000   0.00000   3.14159
    D7        3.14159  -0.00000  -0.00000   0.00000  -0.00000   3.14159
    D8        0.00000  -0.00000   0.00000   0.00000   0.00000   0.00000
    D9       -0.00000  -0.00000  -0.00000   0.00000  -0.00000  -0.00000
   D10        3.14159  -0.00000  -0.00000   0.00000  -0.00000   3.14159
   D11        3.14159  -0.00000  -0.00000   0.00000  -0.00000   3.14159
   D12       -0.00000  -0.00000  -0.00000   0.00000  -0.00000  -0.00000
   D13        0.00000  -0.00000   0.00000   0.00000   0.00000   0.00000
   D14        3.14159  -0.00000   0.00000   0.00000   0.00000   3.14159
   D15       -3.14159   0.00000  -0.00000   0.00000  -0.00000  -3.14159
   D16        0.00000   0.00000  -0.00000   0.00000  -0.00000   0.00000
   D17       -0.00000  -0.00000   0.00000   0.00000   0.00000  -0.00000
   D18        3.14159   0.00000  -0.00000   0.00000  -0.00000   3.14159
   D19        3.14159  -0.00000   0.00000   0.00000   0.00000   3.14159
   D20        0.00000   0.00000  -0.00000   0.00000  -0.00000   0.00000
   D21        0.00000   0.00000  -0.00000   0.00000  -0.00000   0.00000
   D22       -3.14159   0.00000  -0.00000   0.00000  -0.00000  -3.14159
   D23       -3.14159  -0.00000  -0.00000   0.00000  -0.00000  -3.14159
   D24        0.00000   0.00000   0.00000   0.00000   0.00000   0.00000
   D25       -0.00000   0.00000   0.00000   0.00000   0.00000  -0.00000
   D26        3.14159   0.00000   0.00000   0.00000  -0.00000   3.14159
   D27        3.14159  -0.00000   0.00000   0.00000   0.00000   3.14159
   D28       -0.00000   0.00000  -0.00000   0.00000  -0.00000  -0.00000
   D29        0.00001  -0.00000  -0.00000   0.00000  -0.00000   0.00001
   D30       -3.14158  -0.00000  -0.00000   0.00000  -0.00000  -3.14158
   D31        3.14159   0.00000   0.00000   0.00000   0.00000   3.14159
   D32        0.00000   0.00000   0.00000   0.00000   0.00000   0.00000
   D33        0.00000   0.00000   0.00000   0.00000   0.00000   0.00000
   D34       -3.14159   0.00000  -0.00000   0.00000  -0.00000  -3.14159
   D35       -3.14159  -0.00000  -0.00000   0.00000  -0.00000  -3.14159
   D36        0.00000  -0.00000   0.00000   0.00000   0.00000   0.00000
   D37       -0.00000  -0.00000  -0.00000   0.00000  -0.00000  -0.00000
   D38        3.14159  -0.00000   0.00000   0.00000   0.00000   3.14159
   D39       -0.00000  -0.00000  -0.00000   0.00000   0.00000  -0.00000
   D40        3.14159  -0.00000  -0.00000   0.00000  -0.00000   3.14159
   D41        3.14159   0.00000   0.00000   0.00000   0.00000   3.14159
   D42       -0.00000   0.00000   0.00000   0.00000   0.00000  -0.00000
   D43       -0.00000  -0.00000  -0.00000   0.00000  -0.00000  -0.00000
   D44       -3.14159  -0.00000  -0.00000   0.00000  -0.00000  -3.14159
   D45        3.14159  -0.00000   0.00000   0.00000   0.00000   3.14159
   D46        0.00000   0.00000  -0.00000   0.00000  -0.00000   0.00000
   D47        0.00000   0.00000  -0.00000   0.00000  -0.00000   0.00000
   D48       -3.14159   0.00000  -0.00000   0.00000  -0.00000  -3.14159
[...]
                 (A) (A) (A) (A) (A) (A) (A) (A) (A) (A) (A) (A)
                 (A) (A) (A) (A) (A) (A) (A) (A) (A) (A) (A) (A)
                 (A) (A) (A) (A) (A) (A) (A) (A) (A) (A) (A) (A)
                 (A) (A) (A) (A) (A) (A) (A) (A) (A) (A) (A) (A)
                 (A) (A) (A) (A) (A) (A) (A) (A) (A) (A) (A) (A)
                 (A) (A) (A) (A) (A) (A) (A) (A) (A) (A) (A) (A)
                 (A) (A) (A) (A) (A) (A) (A) (A) (A) (A) (A) (A)
                 (A) (A) (A) (A) (A) (A) (A) (A) (A) (A) (A) (A)
                 (A) (A) (A) (A) (A) (A) (A) (A) (A) (A) (A) (A)
                 (A) (A) (A) (A) (A) (A) (A) (A) (A) (A) (A) (A)
                 (A) (A) (A) (A) (A) (A) (A) (A) (A) (A) (A) (A)
                 (A) (A) (A) (A) (A) (A) (A) (A) (A) (A) (A) (A)
                 (A) (A) (A) (A) (A) (A) (A) (A) (A) (A) (A) (A)
                 (A) (A) (A) (A) (A) (A) (A) (A) (A) (A) (A) (A)
                 (A) (A) (A) (A) (A) (A) (A) (A) (A) (A) (A) (A)
                 (A) (A) (A) (A) (A) (A) (A) (A) (A) (A) (A) (A)
                 (A) (A) (A) (A) (A) (A) (A) (A) (A) (A) (A) (A)
                 (A) (A) (A) (A) (A) (A) (A) (A) (A) (A) (A) (A)
                 (A) (A) (A) (A) (A) (A) (A) (A) (A) (A) (A) (A)
                 (A) (A) (A) (A) (A) (A) (A) (A) (A) (A) (A) (A)
                 (A) (A) (A) (A) (A) (A)
 The electronic state is 1-A.
 Alpha  occ. eigenvalues -- -101.58249-101.58209-101.58089-101.58042-101.57978
 Alpha  occ. eigenvalues -- -101.57862-101.57793 -10.28499 -10.28421 -10.28016
 Alpha  occ. eigenvalues --  -10.27813 -10.27735 -10.27406 -10.27365 -10.24031
 Alpha  occ. eigenvalues --  -10.23727 -10.22543 -10.22529 -10.22503  -9.49712
 Alpha  occ. eigenvalues --   -9.49676  -9.49544  -9.49516  -9.49433  -9.49316
 Alpha  occ. eigenvalues --   -9.49261  -7.26217  -7.26181  -7.26037  -7.26006
 Alpha  occ. eigenvalues --   -7.25921  -7.25804  -7.25734  -7.25193  -7.25157
 Alpha  occ. eigenvalues --   -7.25106  -7.25069  -7.25021  -7.24997  -7.24961
 Alpha  occ. eigenvalues --   -7.24925  -7.24912  -7.24852  -7.24793  -7.24739
 Alpha  occ. eigenvalues --   -7.24738  -7.24695  -0.96611  -0.94999  -0.92054
 Alpha  occ. eigenvalues --   -0.91173  -0.89782  -0.88440  -0.87121  -0.85904
 Alpha  occ. eigenvalues --   -0.84482  -0.80012  -0.76764  -0.75612  -0.74068
 Alpha  occ. eigenvalues --   -0.66978  -0.65225  -0.64145  -0.61131  -0.55500
 Alpha  occ. eigenvalues --   -0.55028  -0.53867  -0.52889  -0.50201  -0.48945
 Alpha  occ. eigenvalues --   -0.47352  -0.47249  -0.46910  -0.46402  -0.45229
 Alpha  occ. eigenvalues --   -0.44416  -0.42759  -0.41912  -0.41411  -0.40548
 Alpha  occ. eigenvalues --   -0.39592  -0.38268  -0.37125  -0.35944  -0.35782
 Alpha  occ. eigenvalues --   -0.35457  -0.35188  -0.34216  -0.33889  -0.33827
 Alpha  occ. eigenvalues --   -0.33617  -0.33095  -0.32028  -0.28894  -0.28084
 Alpha  occ. eigenvalues --   -0.27130  -0.26864
 Alpha virt. eigenvalues --   -0.06843  -0.06524  -0.05681  -0.05347  -0.05098
 Alpha virt. eigenvalues --   -0.03149  -0.00991  -0.00535  -0.00151   0.00835
 Alpha virt. eigenvalues --    0.01729   0.01815   0.02131   0.02151   0.02398
 Alpha virt. eigenvalues --    0.03578   0.04060   0.04523   0.04887   0.05326
 Alpha virt. eigenvalues --    0.05618   0.06169   0.06791   0.07070   0.07569
 Alpha virt. eigenvalues --    0.07755   0.08251   0.08432   0.08546   0.08786
 Alpha virt. eigenvalues --    0.09264   0.09569   0.10094   0.10321   0.10611
 Alpha virt. eigenvalues --    0.10932   0.11110   0.11591   0.11771   0.12177
 Alpha virt. eigenvalues --    0.12473   0.12741   0.13121   0.13415   0.13985
 Alpha virt. eigenvalues --    0.14131   0.14418   0.14687   0.15604   0.15897
 Alpha virt. eigenvalues --    0.16058   0.16417   0.16631   0.17284   0.17686
 Alpha virt. eigenvalues --    0.18138   0.18349   0.18764   0.18843   0.19229
 Alpha virt. eigenvalues --    0.19639   0.20114   0.20308   0.20476   0.21107
 Alpha virt. eigenvalues --    0.21308   0.21539   0.21998   0.22642   0.22753
 Alpha virt. eigenvalues --    0.23037   0.23712   0.23865   0.24350   0.24652
 Alpha virt. eigenvalues --    0.25011   0.25645   0.26031   0.26134   0.26516
 Alpha virt. eigenvalues --    0.26935   0.27339   0.27607   0.27704   0.28174
 Alpha virt. eigenvalues --    0.28551   0.28970   0.29088   0.29538   0.30142
 Alpha virt. eigenvalues --    0.30722   0.31176   0.31910   0.32560   0.34129
 Alpha virt. eigenvalues --    0.35483   0.39634   0.40533   0.41572   0.42743
 Alpha virt. eigenvalues --    0.43022   0.43473   0.44019   0.44212   0.44653
 Alpha virt. eigenvalues --    0.44785   0.45147   0.45471   0.46017   0.46398
 Alpha virt. eigenvalues --    0.47021   0.47274   0.47734   0.48063   0.48402
 Alpha virt. eigenvalues --    0.49505   0.49624   0.50235   0.50529   0.53044
 Alpha virt. eigenvalues --    0.53526   0.54044   0.55439   0.56231   0.56894
 Alpha virt. eigenvalues --    0.57096   0.57565   0.58750   0.59142   0.59447
 Alpha virt. eigenvalues --    0.60708   0.60880   0.61405   0.62470   0.62815
 Alpha virt. eigenvalues --    0.63247   0.63921   0.64835   0.65239   0.65611
 Alpha virt. eigenvalues --    0.66257   0.67342   0.67487   0.68070   0.68750
 Alpha virt. eigenvalues --    0.69445   0.69528   0.70516   0.74491   0.76683
 Alpha virt. eigenvalues --    0.77950   0.78209   0.79885   0.80684   0.81034
 Alpha virt. eigenvalues --    0.82516   0.83164   0.83357   0.83753   0.83836
 Alpha virt. eigenvalues --    0.83948   0.84002   0.84218   0.84266   0.84876
 Alpha virt. eigenvalues --    0.85028   0.85412   0.85454   0.85843   0.86888
 Alpha virt. eigenvalues --    0.87455   0.87967   0.88798   0.89305   0.89764
 Alpha virt. eigenvalues --    0.90096   0.90536   0.90572   0.91367   0.92049
 Alpha virt. eigenvalues --    0.92419   0.92881   0.93494   0.93973   0.94291
 Alpha virt. eigenvalues --    0.94583   0.94785   0.95480   0.95849   0.96852
 Alpha virt. eigenvalues --    0.97926   0.98513   0.99208   0.99986   1.01423
 Alpha virt. eigenvalues --    1.02159   1.04145   1.04313   1.05783   1.08817
 Alpha virt. eigenvalues --    1.09725   1.13487   1.13866   1.17685   1.18527
 Alpha virt. eigenvalues --    1.19186   1.20864   1.21577   1.21694   1.23027
 Alpha virt. eigenvalues --    1.24168   1.25479   1.26445   1.26529   1.27666
 Alpha virt. eigenvalues --    1.27809   1.28443   1.28937   1.30132   1.31923
 Alpha virt. eigenvalues --    1.32603   1.33550   1.36244   1.37954   1.39986
 Alpha virt. eigenvalues --    1.42591   1.45343   1.47074   1.48625   1.53901
 Alpha virt. eigenvalues --    1.55221   1.55746   1.56213   1.59378   1.61962
 Alpha virt. eigenvalues --    1.63007   1.64823   1.65951   1.67676   1.71654
 Alpha virt. eigenvalues --    1.72385   1.73866   1.74352   1.78618   1.79770
 Alpha virt. eigenvalues --    1.80786   1.82316   1.83398   1.84247   1.84938
 Alpha virt. eigenvalues --    1.86069   1.90440   1.90533   1.91177   1.94843
 Alpha virt. eigenvalues --    1.97998   1.98917   2.00346   2.03695   2.04268
 Alpha virt. eigenvalues --    2.06530   2.07419   2.09931   2.12573   2.13342
 Alpha virt. eigenvalues --    2.20367   2.22097   2.22306   2.23015   2.23672
 Alpha virt. eigenvalues --    2.23926   2.24916   2.26830   2.27886   2.28277
 Alpha virt. eigenvalues --    2.29104   2.29918   2.31822   2.33881   2.34625
 Alpha virt. eigenvalues --    2.35751   2.38689   2.41311   2.41803   2.42037
 Alpha virt. eigenvalues --    2.43588   2.45551   2.47225   2.48988   2.50876
 Alpha virt. eigenvalues --    2.51864   2.53480   2.54169   2.56293   2.58845
 Alpha virt. eigenvalues --    2.59288   2.62024   2.62264   2.66049   2.66792
 Alpha virt. eigenvalues --    2.68107   2.69041   2.71356   2.72254   2.74298
 Alpha virt. eigenvalues --    2.74679   2.75569   2.76742   2.82185   2.82482
 Alpha virt. eigenvalues --    2.83416   2.87435   2.89329   2.96729   2.97482
 Alpha virt. eigenvalues --    3.03695   3.07097   3.07336   3.08679   3.10658
 Alpha virt. eigenvalues --    3.12192   3.13857   3.14590   3.17813   3.22299
 Alpha virt. eigenvalues --    3.24483   3.27460   3.34403   3.36703   3.47590
 Alpha virt. eigenvalues --    3.52430   3.55370   3.65868   3.67857   3.77105
 Alpha virt. eigenvalues --    3.80783   3.89152   3.93155   4.02551   4.10847
 Alpha virt. eigenvalues --    4.30105   4.79850   4.80698   9.73770   9.75396
 Alpha virt. eigenvalues --    9.78382   9.79252   9.80378   9.81217   9.83219
 Alpha virt. eigenvalues --   23.30984  23.47875  23.79095  23.82408  23.84548
 Alpha virt. eigenvalues --   23.88167  23.92539  23.94032  23.99396  24.03660
 Alpha virt. eigenvalues --   24.07647  24.13484  25.76538  25.77462  25.80013
 Alpha virt. eigenvalues --   25.85207  25.85856  25.89308  25.96228  26.06861
 Alpha virt. eigenvalues --   26.08121  26.10108  26.13327  26.17596  26.28355
 Alpha virt. eigenvalues --   26.34809  26.47856  26.50361  26.59275  26.69795
 Alpha virt. eigenvalues --   26.76369  26.80275  26.98031 215.72755 215.74449
 Alpha virt. eigenvalues --  215.77857 215.78790 215.80178 215.81562 215.83572
          Condensed to atoms (all electrons):
               1          2          3          4          5          6
     1  C   38.390514   2.041554 -13.066504  -4.805055  -3.944665  -8.784176
     2  C    2.041554  26.683712  -0.479893 -10.483833   1.871062 -12.923569
     3  C  -13.066504  -0.479893  34.341852  -5.801856 -11.966893   0.465650
     4  C   -4.805055 -10.483833  -5.801856  32.421326   3.676618  -7.734269
     5  C   -3.944665   1.871062 -11.966893   3.676618  30.009937  -6.762394
     6  C   -8.784176 -12.923569   0.465650  -7.734269  -6.762394  59.256058
     7  C    4.145267  -1.799692   0.917653   0.319666  -3.420707  -6.737226
     8  C   -2.675967  -0.807372   0.073884  -0.220723  -0.121807   0.260244
     9  C    0.262274   0.406483   0.455735   0.105703  -0.217222  -0.758886
    10  C   -0.866811  -0.002749  -0.120348  -0.040022   0.226681   0.388598
    11  C   -3.016088  -0.222893  -0.034142  -0.018654  -0.034785  -0.875229
    12  C   -0.588715   1.934469   0.699700   0.270247  -1.913577  -9.132779
    13  H   -0.004100   0.265455  -0.011915   0.060486  -0.053644  -0.118887
    14  H    0.120740  -0.045917   0.037675  -0.002389   0.199479   0.022916
    15  H    0.095283  -0.011579  -0.038433   0.004681   0.031625   0.113246
    16  Cl   0.047764   0.186170   0.299859   0.026645  -0.278707  -0.148881
    17  Cl  -0.760566  -0.289649   0.785831  -0.684855  -1.154928   0.131823
    18  Cl  -0.122726  -0.005075   0.002055   0.001685  -0.002880  -0.051827
    19  Cl  -0.041408   0.011861   0.013208  -0.002711  -0.008517  -0.064579
    20  Cl   0.066861   0.373366   0.070106  -1.050334   0.322233  -0.435626
    21  Cl  -0.080945   0.079118   0.012990   0.009096  -0.000184  -0.109012
    22  Cl  -0.617923   0.165729  -0.917573  -0.165313   0.169951   0.738452
               7          8          9         10         11         12
     1  C    4.145267  -2.675967   0.262274  -0.866811  -3.016088  -0.588715
     2  C   -1.799692  -0.807372   0.406483  -0.002749  -0.222893   1.934469
     3  C    0.917653   0.073884   0.455735  -0.120348  -0.034142   0.699700
     4  C    0.319666  -0.220723   0.105703  -0.040022  -0.018654   0.270247
     5  C   -3.420707  -0.121807  -0.217222   0.226681  -0.034785  -1.913577
     6  C   -6.737226   0.260244  -0.758886   0.388598  -0.875229  -9.132779
     7  C   24.016338  -2.029888  -8.436395   5.725229  -2.739339  -1.997574
     8  C   -2.029888  10.171411   1.023293  -3.727226   2.563271   1.593480
     9  C   -8.436395   1.023293  22.632462  -9.321167  -4.487916   4.576770
    10  C    5.725229  -3.727226  -9.321167  23.601584   0.346248  -8.262265
    11  C   -2.739339   2.563271  -4.487916   0.346248  14.927734  -0.487922
    12  C   -1.997574   1.593480   4.576770  -8.262265  -0.487922  20.598516
    13  H    0.134795   0.009669  -0.026592   0.012282   0.014253   0.086234
    14  H    0.020133  -0.002320  -0.000846   0.000207  -0.000132   0.005647
    15  H    0.043550   0.356319  -0.098702  -0.022285  -0.037965  -0.069972
    16  Cl  -0.654297  -0.108168   0.976122  -1.037151  -0.225201  -0.855417
    17  Cl   0.084219   0.133316   0.173459  -0.108850  -0.037545   0.171195
    18  Cl  -0.472085   0.179799  -0.093434  -0.252872  -0.232245   0.521749
    19  Cl   0.192551  -0.125445  -0.962256   0.296010   0.743261  -0.716016
    20  Cl  -0.029592  -0.004418   0.006912  -0.002465  -0.001986  -0.034683
    21  Cl  -0.860434   0.200859   0.287608  -0.628377  -0.130777   0.415663
    22  Cl  -0.167196   0.036544   0.004571   0.001791  -0.001519  -0.070289
              13         14         15         16         17         18
     1  C   -0.004100   0.120740   0.095283   0.047764  -0.760566  -0.122726
     2  C    0.265455  -0.045917  -0.011579   0.186170  -0.289649  -0.005075
     3  C   -0.011915   0.037675  -0.038433   0.299859   0.785831   0.002055
     4  C    0.060486  -0.002389   0.004681   0.026645  -0.684855   0.001685
     5  C   -0.053644   0.199479   0.031625  -0.278707  -1.154928  -0.002880
     6  C   -0.118887   0.022916   0.113246  -0.148881   0.131823  -0.051827
     7  C    0.134795   0.020133   0.043550  -0.654297   0.084219  -0.472085
     8  C    0.009669  -0.002320   0.356319  -0.108168   0.133316   0.179799
     9  C   -0.026592  -0.000846  -0.098702   0.976122   0.173459  -0.093434
    10  C    0.012282   0.000207  -0.022285  -1.037151  -0.108850  -0.252872
    11  C    0.014253  -0.000132  -0.037965  -0.225201  -0.037545  -0.232245
    12  C    0.086234   0.005647  -0.069972  -0.855417   0.171195   0.521749
    13  H    0.510497   0.000042  -0.000792  -0.015274  -0.000043   0.000549
    14  H    0.000042   0.488509   0.000001  -0.001560  -0.007945  -0.000005
    15  H   -0.000792   0.000001   0.506537  -0.002278  -0.012034   0.000578
    16  Cl  -0.015274  -0.001560  -0.002278  18.355662   0.144812  -0.250303
    17  Cl  -0.000043  -0.007945  -0.012034   0.144812  18.103469  -0.007569
    18  Cl   0.000549  -0.000005   0.000578  -0.250303  -0.007569  17.362173
    19  Cl   0.000140  -0.000000  -0.001265  -0.037817   0.012649  -0.195420
    20  Cl  -0.001025  -0.008943   0.000096   0.010521  -0.040763   0.000003
    21  Cl  -0.000149  -0.000012  -0.008078   0.010413  -0.007987   0.007472
    22  Cl  -0.013496   0.000129   0.000034  -0.005670  -0.002017   0.000006
              19         20         21         22
     1  C   -0.041408   0.066861  -0.080945  -0.617923
     2  C    0.011861   0.373366   0.079118   0.165729
     3  C    0.013208   0.070106   0.012990  -0.917573
     4  C   -0.002711  -1.050334   0.009096  -0.165313
     5  C   -0.008517   0.322233  -0.000184   0.169951
     6  C   -0.064579  -0.435626  -0.109012   0.738452
     7  C    0.192551  -0.029592  -0.860434  -0.167196
     8  C   -0.125445  -0.004418   0.200859   0.036544
     9  C   -0.962256   0.006912   0.287608   0.004571
    10  C    0.296010  -0.002465  -0.628377   0.001791
    11  C    0.743261  -0.001986  -0.130777  -0.001519
    12  C   -0.716016  -0.034683   0.415663  -0.070289
    13  H    0.000140  -0.001025  -0.000149  -0.013496
    14  H   -0.000000  -0.008943  -0.000012   0.000129
    15  H   -0.001265   0.000096  -0.008078   0.000034
    16  Cl  -0.037817   0.010521   0.010413  -0.005670
    17  Cl   0.012649  -0.040763  -0.007987  -0.002017
    18  Cl  -0.195420   0.000003   0.007472   0.000006
    19  Cl  17.457131   0.000002  -0.193977   0.000125
    20  Cl   0.000002  17.427355   0.000141  -0.170321
    21  Cl  -0.193977   0.000141  17.434486   0.000136
    22  Cl   0.000125  -0.170321   0.000136  17.490363
 Mulliken charges:
               1
     1  C    0.205391
     2  C   -0.946758
     3  C    0.261358
     4  C    0.113860
     5  C   -0.626678
     6  C   -0.739645
     7  C   -0.254977
     8  C   -0.778755
     9  C   -0.507977
    10  C   -0.206039
    11  C   -0.010430
    12  C   -0.744460
    13  H    0.151517
    14  H    0.174589
    15  H    0.151433
    16  Cl   0.562755
    17  Cl   0.373977
    18  Cl   0.610370
    19  Cl   0.622471
    20  Cl   0.502560
    21  Cl   0.561949
    22  Cl   0.523486
 Sum of Mulliken charges =  -0.00000
 Mulliken charges with hydrogens summed into heavy atoms:
               1
     1  C    0.205391
     2  C   -0.795241
     3  C    0.261358
     4  C    0.113860
     5  C   -0.452089
     6  C   -0.739645
     7  C   -0.254977
     8  C   -0.627322
     9  C   -0.507977
    10  C   -0.206039
    11  C   -0.010430
    12  C   -0.744460
    16  Cl   0.562755
    17  Cl   0.373977
    18  Cl   0.610370
    19  Cl   0.622471
    20  Cl   0.502560
    21  Cl   0.561949
    22  Cl   0.523486
 Electronic spatial extent (au):  <R**2>=          10268.2607
 Charge=             -0.0000 electrons
 Dipole moment (field-independent basis, Debye):
    X=              0.5230    Y=              0.6679    Z=              0.2362  Tot=              0.8806
 Quadrupole moment (field-independent basis, Debye-Ang):
   XX=           -163.8641   YY=           -157.3872   ZZ=           -156.2794
   XY=             -0.5375   XZ=              3.1829   YZ=             -0.5680
 Traceless Quadrupole moment (field-independent basis, Debye-Ang):
   XX=             -4.6872   YY=              1.7897   ZZ=              2.8975
   XY=             -0.5375   XZ=              3.1829   YZ=             -0.5680
 Octapole moment (field-independent basis, Debye-Ang**2):
  XXX=            -24.5084  YYY=             -7.4089  ZZZ=             -2.6106  XYY=             -4.2302
  XXY=            -14.7085  XXZ=             14.4636  XZZ=              3.3717  YZZ=             -2.6930
  YYZ=             -0.5157  XYZ=             -2.7991
 Hexadecapole moment (field-independent basis, Debye-Ang**3):
 XXXX=          -9792.0486 YYYY=          -2046.3257 ZZZZ=          -1450.7075 XXXY=             -8.8669
 XXXZ=             57.6162 YYYX=             -0.0559 YYYZ=             26.3226 ZZZX=            -17.3834
 ZZZY=            -20.8500 XXYY=          -1986.8656 XXZZ=          -1860.4518 YYZZ=           -597.5329
 XXYZ=             -6.5469 YYXZ=             -4.6841 ZZXY=              6.4795
 N-N= 2.304673882578D+03 E-N=-1.333042125832D+04  KE= 3.671258599464D+03
 1\1\GINC-CN319\FOpt\RB3LYP\6-311+G(d,p)\C12H3Cl7\20CY91R06\25-Mar-2022
 \0\\# opt b3lyp/6-311+g(d,p) scf=xqc\\Title Card Required\\0,1\C,1.476
 8203783,-0.9166053166,-0.6567694259\C,2.7875335945,-0.9252584719,-0.17
 71434947\C,3.5538540185,0.2357984958,-0.1276735678\C,3.0044581628,1.44
 23068251,-0.5705205299\C,1.7005306019,1.4704001893,-1.0574416274\C,0.9
 497180054,0.302154149,-1.0987772479\C,0.704263771,-2.1924407175,-0.711
 5727117\C,0.8827638737,-3.046887712,-1.7967213055\C,0.1941546264,-4.25
 00020884,-1.8839951583\C,-0.6973746828,-4.6296258266,-0.8750508318\C,-
 0.8840513938,-3.7795898319,0.2279890006\C,-0.1825162845,-2.5681197282,
 0.3046730373\H,3.2197719858,-1.8536521682,0.1736292942\H,1.2769695426,
 2.4027978062,-1.4041819719\H,1.5620128023,-2.7681096026,-2.5913521377\
 Cl,-0.4008580852,-1.5141516943,1.6754977831\Cl,-0.6824969775,0.3867098
 753,-1.7284688581\Cl,-1.9803010301,-4.2347844991,1.4947024232\Cl,-1.55
 88787998,-6.1317901099,-0.9835362063\Cl,3.913492244,2.9290441317,-0.53
 43154755\Cl,0.4696438137,-5.2633747099,-3.2761516128\Cl,5.1828493085,0
 .1435404473,0.4880237616\\Version=EM64L-G16RevB.01\State=1-A\HF=-3680.
 7477192\RMSD=2.019e-09\RMSF=3.195e-05\Dipole=0.2163095,0.1159343,-0.24
 45507\Quadrupole=-1.591501,0.4706577,1.1208434,-3.270933,-0.7008263,-1
 .4212503\PG=C01 [X(C12H3Cl7)]\\@


 THERE'S NOTHING SO GREAT AS THE GREAT OUTDOORS.

                                       -- ZIGGY
 Job cpu time:       0 days 20 hours 37 minutes 38.4 seconds.
 Elapsed time:       0 days  5 hours 11 minutes 42.8 seconds.
 File lengths (MBytes):  RWF=    163 Int=      0 D2E=      0 Chk=     25 Scr=      1
 Normal termination of Gaussian 16 at Fri Mar 25 05:38:46 2022.
