 Entering Gaussian System, Link 0=g16
 Input=2,2prime,3,3prime,4,6prime-Hexachlorobiphenyl.gjf
 Output=2,2prime,3,3prime,4,6prime-Hexachlorobiphenyl.log
 Initial command:
 /home/apps/g16/l1.exe "./Gau-26817.inp" -scrdir="./"
 Entering Link 1 = /home/apps/g16/l1.exe PID=     26818.
  
 Copyright (c) 1988-2017, Gaussian, Inc.  All Rights Reserved.
  
 This is part of the Gaussian(R) 16 program.  It is based on
 the Gaussian(R) 09 system (copyright 2009, Gaussian, Inc.),
 the Gaussian(R) 03 system (copyright 2003, Gaussian, Inc.),
 the Gaussian(R) 98 system (copyright 1998, Gaussian, Inc.),
 the Gaussian(R) 94 system (copyright 1995, Gaussian, Inc.),
 the Gaussian 92(TM) system (copyright 1992, Gaussian, Inc.),
 the Gaussian 90(TM) system (copyright 1990, Gaussian, Inc.),
 the Gaussian 88(TM) system (copyright 1988, Gaussian, Inc.),
 the Gaussian 86(TM) system (copyright 1986, Carnegie Mellon
 University), and the Gaussian 82(TM) system (copyright 1983,
 Carnegie Mellon University). Gaussian is a federally registered
 trademark of Gaussian, Inc.
  
 This software contains proprietary and confidential information,
 including trade secrets, belonging to Gaussian, Inc.
  
 This software is provided under written license and may be
 used, copied, transmitted, or stored only in accord with that
 written license.
  
 The following legend is applicable only to US Government
 contracts under FAR:
  
                    RESTRICTED RIGHTS LEGEND
  
 Use, reproduction and disclosure by the US Government is
 subject to restrictions as set forth in subparagraphs (a)
 and (c) of the Commercial Computer Software - Restricted
 Rights clause in FAR 52.227-19.
  
 Gaussian, Inc.
 340 Quinnipiac St., Bldg. 40, Wallingford CT 06492
  
  
 ---------------------------------------------------------------
 Warning -- This program may not be used in any manner that
 competes with the business of Gaussian, Inc. or will provide
 assistance to any competitor of Gaussian, Inc.  The licensee
 of this program is prohibited from giving any competitor of
 Gaussian, Inc. access to this program.  By using this program,
 the user acknowledges that Gaussian, Inc. is engaged in the
 business of creating and licensing software in the field of
 computational chemistry and represents and warrants to the
 licensee that it is not a competitor of Gaussian, Inc. and that
 it will not use this program in any manner prohibited above.
 ---------------------------------------------------------------
  

 Cite this work as:
 Gaussian 16, Revision B.01,
 M. J. Frisch, G. W. Trucks, H. B. Schlegel, G. E. Scuseria, 
 M. A. Robb, J. R. Cheeseman, G. Scalmani, V. Barone, 
 G. A. Petersson, H. Nakatsuji, X. Li, M. Caricato, A. V. Marenich, 
 J. Bloino, B. G. Janesko, R. Gomperts, B. Mennucci, H. P. Hratchian, 
 J. V. Ortiz, A. F. Izmaylov, J. L. Sonnenberg, D. Williams-Young, 
 F. Ding, F. Lipparini, F. Egidi, J. Goings, B. Peng, A. Petrone, 
 T. Henderson, D. Ranasinghe, V. G. Zakrzewski, J. Gao, N. Rega, 
 G. Zheng, W. Liang, M. Hada, M. Ehara, K. Toyota, R. Fukuda, 
 J. Hasegawa, M. Ishida, T. Nakajima, Y. Honda, O. Kitao, H. Nakai, 
 T. Vreven, K. Throssell, J. A. Montgomery, Jr., J. E. Peralta, 
 F. Ogliaro, M. J. Bearpark, J. J. Heyd, E. N. Brothers, K. N. Kudin, 
 V. N. Staroverov, T. A. Keith, R. Kobayashi, J. Normand, 
 K. Raghavachari, A. P. Rendell, J. C. Burant, S. S. Iyengar, 
 J. Tomasi, M. Cossi, J. M. Millam, M. Klene, C. Adamo, R. Cammi, 
 J. W. Ochterski, R. L. Martin, K. Morokuma, O. Farkas, 
 J. B. Foresman, and D. J. Fox, Gaussian, Inc., Wallingford CT, 2016.
 
 ******************************************
 Gaussian 16:  EM64L-G16RevB.01 20-Dec-2017
                 3-Apr-2022 
 ******************************************
 %mem=32GB
 %nprocshared=16
 Will use up to   16 processors via shared memory.
 --------------------------------
 # opt b3lyp/6-311+g(d,p) scf=xqc
 --------------------------------
 1/18=20,19=15,26=3,38=1/1,3;
 2/9=110,12=2,17=6,18=5,40=1/2;
 3/5=4,6=6,7=111,11=2,25=1,30=1,71=1,74=-5/1,2,3;
 4//1;
 5/5=2,8=3,13=1,38=5/2,8;
 6/7=2,8=2,9=2,10=2,28=1/1;
 7//1,2,3,16;
 1/18=20,19=15,26=3/3(2);
 2/9=110/2;
 99//99;
 2/9=110/2;
 3/5=4,6=6,7=111,11=2,25=1,30=1,71=1,74=-5/1,2,3;
 4/5=5,16=3,69=1/1;
 5/5=2,8=3,13=1,38=5/2,8;
 7//1,2,3,16;
 1/18=20,19=15,26=3/3(-5);
 2/9=110/2;
 6/7=2,8=2,9=2,10=2,19=2,28=1/1;
 99/9=1/99;
 -------------------
 Title Card Required
 -------------------
 Symbolic Z-matrix:
 Charge =  0 Multiplicity = 1
 C                     0.10934   0.82016  -0.00392 
 C                     1.44172   0.85004  -0.43726 
 C                     2.14961   2.05949  -0.44333 
 C                     1.52513   3.23906  -0.01606 
 C                     0.19274   3.20917   0.41728 
 C                    -0.51515   1.99972   0.42336 
 C                    -0.91684  -0.93309   0.00489 
 C                    -0.29235  -2.11266  -0.42239 
 C                    -1.00024  -3.32211  -0.41631 
 C                    -2.33262  -3.35199   0.01704 
 C                    -2.95711  -2.17243   0.44431 
 C                    -2.24922  -0.96298   0.43824 
 H                     3.16692   2.08231  -0.7742 
 H                     2.06562   4.1625   -0.0207 
 H                     0.72495  -2.08984  -0.75326 
 H                    -0.52343  -4.22273  -0.74255 
 Cl                   -3.0335    0.51842   0.97485 
 Cl                   -2.18847   1.96219   0.96759 
 Cl                   -4.63043  -2.20996   0.98855 
 Cl                   -0.59154   4.69057   0.95389 
 Cl                   -3.22166  -4.87093   0.02467 
 Cl                    2.22601  -0.63136  -0.97387 
 

 GradGradGradGradGradGradGradGradGradGradGradGradGradGradGradGradGradGrad
 Berny optimization.
 Initialization pass.
                           ----------------------------
                           !    Initial Parameters    !
                           ! (Angstroms and Degrees)  !
 --------------------------                            --------------------------
 ! Name  Definition              Value          Derivative Info.                !
 --------------------------------------------------------------------------------
 ! R1    R(1,2)                  1.4014         estimate D2E/DX2                !
 ! R2    R(1,6)                  1.4014         estimate D2E/DX2                !
 ! R3    R(2,3)                  1.4014         estimate D2E/DX2                !
 ! R4    R(2,22)                 1.76           estimate D2E/DX2                !
 ! R5    R(3,4)                  1.4014         estimate D2E/DX2                !
 ! R6    R(3,13)                 1.07           estimate D2E/DX2                !
 ! R7    R(4,5)                  1.4014         estimate D2E/DX2                !
 ! R8    R(4,14)                 1.07           estimate D2E/DX2                !
 ! R9    R(5,6)                  1.4014         estimate D2E/DX2                !
 ! R10   R(5,20)                 1.76           estimate D2E/DX2                !
 ! R11   R(6,18)                 1.76           estimate D2E/DX2                !
 ! R12   R(7,8)                  1.4014         estimate D2E/DX2                !
 ! R13   R(7,12)                 1.4014         estimate D2E/DX2                !
 ! R14   R(8,9)                  1.4014         estimate D2E/DX2                !
 ! R15   R(8,15)                 1.07           estimate D2E/DX2                !
 ! R16   R(9,10)                 1.4014         estimate D2E/DX2                !
 ! R17   R(9,16)                 1.07           estimate D2E/DX2                !
 ! R18   R(10,11)                1.4014         estimate D2E/DX2                !
 ! R19   R(10,21)                1.76           estimate D2E/DX2                !
 ! R20   R(11,12)                1.4014         estimate D2E/DX2                !
 ! R21   R(11,19)                1.76           estimate D2E/DX2                !
 ! R22   R(12,17)                1.76           estimate D2E/DX2                !
 ! R23   R(17,18)                1.6729         estimate D2E/DX2                !
 ! A1    A(2,1,6)              120.0            estimate D2E/DX2                !
 ! A2    A(1,2,3)              120.0            estimate D2E/DX2                !
 ! A3    A(1,2,22)             120.0            estimate D2E/DX2                !
 ! A4    A(3,2,22)             120.0            estimate D2E/DX2                !
 ! A5    A(2,3,4)              120.0            estimate D2E/DX2                !
 ! A6    A(2,3,13)             120.0            estimate D2E/DX2                !
 ! A7    A(4,3,13)             120.0            estimate D2E/DX2                !
 ! A8    A(3,4,5)              120.0            estimate D2E/DX2                !
 ! A9    A(3,4,14)             120.0            estimate D2E/DX2                !
 ! A10   A(5,4,14)             120.0            estimate D2E/DX2                !
 ! A11   A(4,5,6)              120.0            estimate D2E/DX2                !
 ! A12   A(4,5,20)             120.0            estimate D2E/DX2                !
 ! A13   A(6,5,20)             120.0            estimate D2E/DX2                !
 ! A14   A(1,6,5)              120.0            estimate D2E/DX2                !
 ! A15   A(1,6,18)             120.0            estimate D2E/DX2                !
 ! A16   A(5,6,18)             120.0            estimate D2E/DX2                !
 ! A17   A(8,7,12)             120.0            estimate D2E/DX2                !
 ! A18   A(7,8,9)              120.0            estimate D2E/DX2                !
 ! A19   A(7,8,15)             120.0            estimate D2E/DX2                !
 ! A20   A(9,8,15)             120.0            estimate D2E/DX2                !
 ! A21   A(8,9,10)             120.0            estimate D2E/DX2                !
 ! A22   A(8,9,16)             120.0            estimate D2E/DX2                !
 ! A23   A(10,9,16)            120.0            estimate D2E/DX2                !
 ! A24   A(9,10,11)            120.0            estimate D2E/DX2                !
 ! A25   A(9,10,21)            120.0            estimate D2E/DX2                !
 ! A26   A(11,10,21)           120.0            estimate D2E/DX2                !
 ! A27   A(10,11,12)           120.0            estimate D2E/DX2                !
 ! A28   A(10,11,19)           120.0            estimate D2E/DX2                !
 ! A29   A(12,11,19)           120.0            estimate D2E/DX2                !
 ! A30   A(7,12,11)            120.0            estimate D2E/DX2                !
 ! A31   A(7,12,17)            120.0            estimate D2E/DX2                !
 ! A32   A(11,12,17)           120.0            estimate D2E/DX2                !
 ! A33   A(12,17,18)           120.0            estimate D2E/DX2                !
 ! A34   A(6,18,17)            120.0            estimate D2E/DX2                !
 ! D1    D(6,1,2,3)              0.0001         estimate D2E/DX2                !
 ! D2    D(6,1,2,22)           180.0            estimate D2E/DX2                !
 ! D3    D(2,1,6,5)             -0.0001         estimate D2E/DX2                !
 ! D4    D(2,1,6,18)           180.0            estimate D2E/DX2                !
 ! D5    D(1,2,3,4)              0.0            estimate D2E/DX2                !
 ! D6    D(1,2,3,13)           180.0            estimate D2E/DX2                !
 ! D7    D(22,2,3,4)          -179.9999         estimate D2E/DX2                !
 ! D8    D(22,2,3,13)            0.0001         estimate D2E/DX2                !
 ! D9    D(2,3,4,5)             -0.0001         estimate D2E/DX2                !
 ! D10   D(2,3,4,14)           180.0            estimate D2E/DX2                !
 ! D11   D(13,3,4,5)           179.9999         estimate D2E/DX2                !
 ! D12   D(13,3,4,14)            0.0            estimate D2E/DX2                !
 ! D13   D(3,4,5,6)              0.0001         estimate D2E/DX2                !
 ! D14   D(3,4,5,20)          -179.9999         estimate D2E/DX2                !
 ! D15   D(14,4,5,6)          -180.0            estimate D2E/DX2                !
 ! D16   D(14,4,5,20)            0.0            estimate D2E/DX2                !
 ! D17   D(4,5,6,1)              0.0            estimate D2E/DX2                !
 ! D18   D(4,5,6,18)           179.9999         estimate D2E/DX2                !
 ! D19   D(20,5,6,1)           180.0            estimate D2E/DX2                !
 ! D20   D(20,5,6,18)           -0.0001         estimate D2E/DX2                !
 ! D21   D(1,6,18,17)            0.0004         estimate D2E/DX2                !
 ! D22   D(5,6,18,17)         -179.9996         estimate D2E/DX2                !
 ! D23   D(12,7,8,9)             0.0001         estimate D2E/DX2                !
 ! D24   D(12,7,8,15)         -179.9998         estimate D2E/DX2                !
 ! D25   D(8,7,12,11)           -0.0001         estimate D2E/DX2                !
 ! D26   D(8,7,12,17)          179.9999         estimate D2E/DX2                !
 ! D27   D(7,8,9,10)             0.0            estimate D2E/DX2                !
 ! D28   D(7,8,9,16)           180.0            estimate D2E/DX2                !
 ! D29   D(15,8,9,10)          179.9998         estimate D2E/DX2                !
 ! D30   D(15,8,9,16)           -0.0002         estimate D2E/DX2                !
 ! D31   D(8,9,10,11)            0.0            estimate D2E/DX2                !
 ! D32   D(8,9,10,21)         -179.9999         estimate D2E/DX2                !
 ! D33   D(16,9,10,11)         180.0            estimate D2E/DX2                !
 ! D34   D(16,9,10,21)           0.0001         estimate D2E/DX2                !
 ! D35   D(9,10,11,12)           0.0            estimate D2E/DX2                !
 ! D36   D(9,10,11,19)        -179.9998         estimate D2E/DX2                !
 ! D37   D(21,10,11,12)        179.9999         estimate D2E/DX2                !
 ! D38   D(21,10,11,19)          0.0001         estimate D2E/DX2                !
 ! D39   D(10,11,12,7)           0.0            estimate D2E/DX2                !
 ! D40   D(10,11,12,17)       -179.9999         estimate D2E/DX2                !
 ! D41   D(19,11,12,7)         179.9999         estimate D2E/DX2                !
 ! D42   D(19,11,12,17)         -0.0001         estimate D2E/DX2                !
 ! D43   D(7,12,17,18)           0.0004         estimate D2E/DX2                !
 ! D44   D(11,12,17,18)       -179.9997         estimate D2E/DX2                !
 ! D45   D(12,17,18,6)          -0.0006         estimate D2E/DX2                !
 --------------------------------------------------------------------------------
 Trust Radius=3.00D-01 FncErr=1.00D-07 GrdErr=1.00D-06 EigMax=2.50D+02 EigMin=1.00D-04
 Number of steps in this run=    112 maximum allowed number of steps=    132.
 GradGradGradGradGradGradGradGradGradGradGradGradGradGradGradGradGradGrad

                          Input orientation:                          
 ---------------------------------------------------------------------
 Center     Atomic      Atomic             Coordinates (Angstroms)
 Number     Number       Type             X           Y           Z
 ---------------------------------------------------------------------
      1          6           0        0.109339    0.820155   -0.003916
      2          6           0        1.441720    0.850041   -0.437263
      3          6           0        2.149614    2.059492   -0.443335
      4          6           0        1.525127    3.239057   -0.016060
      5          6           0        0.192745    3.209172    0.417284
      6          6           0       -0.515149    1.999721    0.423357
      7          6           0       -0.916838   -0.933092    0.004888
      8          6           0       -0.292351   -2.112657   -0.422387
      9          6           0       -1.000244   -3.322108   -0.416313
     10          6           0       -2.332624   -3.351994    0.017037
     11          6           0       -2.957111   -2.172430    0.444312
     12          6           0       -2.249218   -0.962978    0.438238
     13          1           0        3.166917    2.082310   -0.774204
     14          1           0        2.065619    4.162500   -0.020696
     15          1           0        0.724952   -2.089838   -0.753257
     16          1           0       -0.523434   -4.222732   -0.742547
     17         17           0       -3.033503    0.518422    0.974850
     18         17           0       -2.188469    1.962187    0.967590
     19         17           0       -4.630429   -2.209964    0.988555
     20         17           0       -0.591542    4.690573    0.953890
     21         17           0       -3.221657   -4.870929    0.024668
     22         17           0        2.226007   -0.631360   -0.973868
 ---------------------------------------------------------------------
                    Distance matrix (angstroms):
                    1          2          3          4          5
     1  C    0.000000
     2  C    1.401400   0.000000
     3  C    2.427296   1.401400   0.000000
     4  C    2.802800   2.427296   1.401400   0.000000
     5  C    2.427296   2.802800   2.427296   1.401400   0.000000
     6  C    1.401400   2.427296   2.802800   2.427296   1.401400
     7  C    2.031500   2.989625   4.308084   4.834300   4.308084
     8  C    2.989625   3.432900   4.834300   5.666495   5.409457
     9  C    4.308084   4.834300   6.235700   7.041774   6.691466
    10  C    4.834300   5.666495   7.041774   7.637100   7.041774
    11  C    4.308084   5.409457   6.691466   7.041774   6.235700
    12  C    2.989625   4.204351   5.409457   5.666495   4.834300
    13  H    3.396345   2.146700   1.070000   2.146700   3.396345
    14  H    3.872800   3.396345   2.146700   1.070000   2.146700
    15  H    3.067336   3.042450   4.398029   5.438829   5.452790
    16  H    5.135824   5.448675   6.833817   7.771916   7.555879
    17  Cl   3.305523   4.704429   5.590246   5.400450   4.237887
    18  Cl   2.743718   4.048303   4.562800   4.048303   2.743718
    19  Cl   5.712445   6.947487   8.139259   8.282026   7.277114
    20  Cl   4.048303   4.562800   4.048303   2.743718   1.760000
    21  Cl   6.594300   7.395266   8.780678   9.397100   8.780678
    22  Cl   2.743718   1.760000   2.743718   4.048303   4.562800
                    6          7          8          9         10
     6  C    0.000000
     7  C    2.989625   0.000000
     8  C    4.204351   1.401400   0.000000
     9  C    5.409457   2.427296   1.401400   0.000000
    10  C    5.666495   2.802800   2.427296   1.401400   0.000000
    11  C    4.834300   2.427296   2.802800   2.427296   1.401400
    12  C    3.432900   1.401400   2.427296   2.802800   2.427296
    13  H    3.872800   5.135824   5.448675   6.833817   7.771916
    14  H    3.396345   5.904300   6.715576   8.097863   8.707100
    15  H    4.432466   2.146700   1.070000   2.146700   3.396345
    16  H    6.330744   3.396345   2.146700   1.070000   2.146700
    17  Cl   2.973298   2.743718   4.048303   4.562800   4.048303
    18  Cl   1.760000   3.305523   4.704429   5.590246   5.400450
    19  Cl   5.914087   4.048303   4.562800   4.048303   2.743718
    20  Cl   2.743718   5.712445   6.947487   8.139259   8.282025
    21  Cl   7.395266   4.562800   4.048303   2.743718   1.760000
    22  Cl   4.048303   3.305523   2.973298   4.237887   5.400450
                   11         12         13         14         15
    11  C    0.000000
    12  C    1.401400   0.000000
    13  H    7.555879   6.330744   0.000000
    14  H    8.097863   6.715576   2.471400   0.000000
    15  H    3.872800   3.396345   4.834300   6.436285   0.000000
    16  H    3.396345   3.872800   7.305700   8.805474   2.471400
    17  Cl   2.743718   1.760000   6.629490   6.345980   4.890333
    18  Cl   4.237887   2.973298   5.632800   4.890332   5.279038
    19  Cl   1.760000   2.743718   9.073563   9.298599   5.632800
    20  Cl   7.277114   5.914087   4.890332   2.879094   7.114877
    21  Cl   2.743718   4.048303   9.476266  10.467100   4.890332
    22  Cl   5.590246   4.704429   2.879094   4.890332   2.104518
                   16         17         18         19         20
    16  H    0.000000
    17  Cl   5.632800   0.000000
    18  Cl   6.629490   1.672900   0.000000
    19  Cl   4.890332   3.161400   4.834300   0.000000
    20  Cl   9.073563   4.834300   3.161400   7.995700   0.000000
    21  Cl   2.879094   5.475705   6.974816   3.161400   9.960084
    22  Cl   4.528895   5.725552   5.475705   7.304369   6.322800
                   21         22
    21  Cl   0.000000
    22  Cl   6.974816   0.000000
 Stoichiometry    C12H4Cl6
 Framework group  C1[X(C12H4Cl6)]
 Deg. of freedom    60
 Full point group                 C1      NOp   1
 Largest Abelian subgroup         C1      NOp   1
 Largest concise Abelian subgroup C1      NOp   1
                         Standard orientation:                         
 ---------------------------------------------------------------------
 Center     Atomic      Atomic             Coordinates (Angstroms)
 Number     Number       Type             X           Y           Z
 ---------------------------------------------------------------------
      1          6           0        1.431617    0.778917    0.000001
      2          6           0        2.106411    2.007158   -0.000001
      3          6           0        3.507495    2.036891   -0.000003
      4          6           0        4.233786    0.838382   -0.000004
      5          6           0        3.558993   -0.389859   -0.000001
      6          6           0        2.157909   -0.419591    0.000002
      7          6           0       -0.599425    0.735817    0.000003
      8          6           0       -1.325717    1.934325    0.000005
      9          6           0       -2.726801    1.904593    0.000005
     10          6           0       -3.401595    0.676352    0.000003
     11          6           0       -2.675303   -0.522157    0.000001
     12          6           0       -1.274219   -0.492424    0.000001
     13          1           0        4.022715    2.974680   -0.000005
     14          1           0        5.303546    0.861084   -0.000007
     15          1           0       -0.810497    2.872115    0.000003
     16          1           0       -3.281341    2.819681    0.000006
     17         17           0       -0.362079   -1.997616   -0.000003
     18         17           0        1.310445   -1.962123    0.000005
     19         17           0       -3.522767   -2.064689   -0.000005
     20         17           0        4.471133   -1.895050    0.000002
     21         17           0       -5.161198    0.639011    0.000001
     22         17           0        1.194271    3.512350   -0.000003
 ---------------------------------------------------------------------
 Rotational constants (GHZ):           0.4061351           0.1558669           0.1126384
 Standard basis: 6-311+G(d,p) (5D, 7F)
 There are   486 symmetry adapted cartesian basis functions of A   symmetry.
 There are   468 symmetry adapted basis functions of A   symmetry.
   468 basis functions,   782 primitive gaussians,   486 cartesian basis functions
    89 alpha electrons       89 beta electrons
       nuclear repulsion energy      2065.5073559417 Hartrees.
 NAtoms=   22 NActive=   22 NUniq=   22 SFac= 1.00D+00 NAtFMM=   60 NAOKFM=F Big=F
 Integral buffers will be    131072 words long.
 Raffenetti 2 integral format.
 Two-electron integral symmetry is turned on.
 One-electron integrals computed using PRISM.
 NBasis=   468 RedAO= T EigKep=  1.32D-06  NBF=   468
 NBsUse=   462 1.00D-06 EigRej=  7.08D-07 NBFU=   462
 ExpMin= 4.38D-02 ExpMax= 1.06D+05 ExpMxC= 3.62D+03 IAcc=3 IRadAn=         5 AccDes= 0.00D+00
 Harris functional with IExCor=  402 and IRadAn=       5 diagonalized for initial guess.
 HarFok:  IExCor=  402 AccDes= 0.00D+00 IRadAn=         5 IDoV= 1 UseB2=F ITyADJ=14
 ICtDFT=  3500011 ScaDFX=  1.000000  1.000000  1.000000  1.000000
 FoFCou: FMM=F IPFlag=           0 FMFlag=      100000 FMFlg1=           0
         NFxFlg=           0 DoJE=T BraDBF=F KetDBF=T FulRan=T
         wScrn=  0.000000 ICntrl=       500 IOpCl=  0 I1Cent=   200000004 NGrid=           0
         NMat0=    1 NMatS0=      1 NMatT0=    0 NMatD0=    1 NMtDS0=    0 NMtDT0=    0
 Petite list used in FoFCou.
 Requested convergence on RMS density matrix=1.00D-08 within  32 cycles.
 Requested convergence on MAX density matrix=1.00D-06.
 Requested convergence on             energy=1.00D-06.
 No special actions if energy rises.
 EnCoef did     4 forward-backward iterations
 EnCoef did     4 forward-backward iterations
 EnCoef did     6 forward-backward iterations
 EnCoef did     6 forward-backward iterations
 EnCoef did     4 forward-backward iterations
 Restarting incremental Fock formation.
 SCF Done:  E(RB3LYP) =  -3220.56269449     A.U. after   27 cycles
            NFock= 27  Conv=0.61D-08     -V/T= 2.0020
 QCSCF skips out because SCF is already converged.

 **********************************************************************

            Population analysis using the SCF Density.

 **********************************************************************

 Orbital symmetries:
       Occupied  (A) (A) (A) (A) (A) (A) (A) (A) (A) (A) (A) (A)
                 (A) (A) (A) (A) (A) (A) (A) (A) (A) (A) (A) (A)
                 (A) (A) (A) (A) (A) (A) (A) (A) (A) (A) (A) (A)
                 (A) (A) (A) (A) (A) (A) (A) (A) (A) (A) (A) (A)
                 (A) (A) (A) (A) (A) (A) (A) (A) (A) (A) (A) (A)
                 (A) (A) (A) (A) (A) (A) (A) (A) (A) (A) (A) (A)
                 (A) (A) (A) (A) (A) (A) (A) (A) (A) (A) (A) (A)
                 (A) (A) (A) (A) (A)
       Virtual   (A) (A) (A) (A) (A) (A) (A) (A) (A) (A) (A) (A)
                 (A) (A) (A) (A) (A) (A) (A) (A) (A) (A) (A) (A)
                 (A) (A) (A) (A) (A) (A) (A) (A) (A) (A) (A) (A)
                 (A) (A) (A) (A) (A) (A) (A) (A) (A) (A) (A) (A)
                 (A) (A) (A) (A) (A) (A) (A) (A) (A) (A) (A) (A)
                 (A) (A) (A) (A) (A) (A) (A) (A) (A) (A) (A) (A)
                 (A) (A) (A) (A) (A) (A) (A) (A) (A) (A) (A) (A)
                 (A) (A) (A) (A) (A) (A) (A) (A) (A) (A) (A) (A)
                 (A) (A) (A) (A) (A) (A) (A) (A) (A) (A) (A) (A)
                 (A) (A) (A) (A) (A) (A) (A) (A) (A) (A) (A) (A)
                 (A) (A) (A) (A) (A) (A) (A) (A) (A) (A) (A) (A)
                 (A) (A) (A) (A) (A) (A) (A) (A) (A) (A) (A) (A)
                 (A) (A) (A) (A) (A) (A) (A) (A) (A) (A) (A) (A)
                 (A) (A) (A) (A) (A) (A) (A) (A) (A) (A) (A) (A)
                 (A) (A) (A) (A) (A) (A) (A) (A) (A) (A) (A) (A)
                 (A) (A) (A) (A) (A) (A) (A) (A) (A) (A) (A) (A)
                 (A) (A) (A) (A) (A) (A) (A) (A) (A) (A) (A) (A)
                 (A) (A) (A) (A) (A) (A) (A) (A) (A) (A) (A) (A)
                 (A) (A) (A) (A) (A) (A) (A) (A) (A) (A) (A) (A)
                 (A) (A) (A) (A) (A) (A) (A) (A) (A) (A) (A) (A)
                 (A) (A) (A) (A) (A) (A) (A) (A) (A) (A) (A) (A)
                 (A) (A) (A) (A) (A) (A) (A) (A) (A) (A) (A) (A)
                 (A) (A) (A) (A) (A) (A) (A) (A) (A) (A) (A) (A)
                 (A) (A) (A) (A) (A) (A) (A) (A) (A) (A) (A) (A)
                 (A) (A) (A) (A) (A) (A) (A) (A) (A) (A) (A) (A)
                 (A) (A) (A) (A) (A) (A) (A) (A) (A) (A) (A) (A)
                 (A) (A) (A) (A) (A) (A) (A) (A) (A) (A) (A) (A)
                 (A) (A) (A) (A) (A) (A) (A) (A) (A) (A) (A) (A)
                 (A) (A) (A) (A) (A) (A) (A) (A) (A) (A) (A) (A)
                 (A) (A) (A) (A) (A) (A) (A) (A) (A) (A) (A) (A)
                 (A) (A) (A) (A) (A) (A) (A) (A) (A) (A) (A) (A)
                 (A)
 The electronic state is 1-A.
 Alpha  occ. eigenvalues -- -101.62513-101.62039-101.57281-101.57134-101.56202
 Alpha  occ. eigenvalues -- -101.56127 -10.27718 -10.27457 -10.27073 -10.27042
 Alpha  occ. eigenvalues --  -10.26151 -10.26111 -10.23998 -10.23208 -10.21935
 Alpha  occ. eigenvalues --  -10.21881 -10.20759 -10.20159  -9.55228  -9.54783
 Alpha  occ. eigenvalues --   -9.48831  -9.48619  -9.47649  -9.47634  -7.31887
 Alpha  occ. eigenvalues --   -7.31473  -7.30581  -7.30206  -7.30102  -7.29729
 Alpha  occ. eigenvalues --   -7.25282  -7.25085  -7.24305  -7.24267  -7.24127
 Alpha  occ. eigenvalues --   -7.24100  -7.24099  -7.24051  -7.23136  -7.23121
 Alpha  occ. eigenvalues --   -7.23074  -7.23052  -1.11663  -0.93522  -0.92883
 Alpha  occ. eigenvalues --   -0.90002  -0.87663  -0.85831  -0.85028  -0.83990
 Alpha  occ. eigenvalues --   -0.79374  -0.75558  -0.74523  -0.74115  -0.68189
 Alpha  occ. eigenvalues --   -0.63749  -0.62074  -0.61560  -0.58361  -0.54662
 Alpha  occ. eigenvalues --   -0.52706  -0.52171  -0.51717  -0.50573  -0.49503
 Alpha  occ. eigenvalues --   -0.47785  -0.46324  -0.45172  -0.44500  -0.43833
 Alpha  occ. eigenvalues --   -0.43117  -0.42634  -0.41342  -0.40131  -0.39008
 Alpha  occ. eigenvalues --   -0.36466  -0.35459  -0.35067  -0.34389  -0.33950
 Alpha  occ. eigenvalues --   -0.33433  -0.33254  -0.32445  -0.31200  -0.29501
 Alpha  occ. eigenvalues --   -0.26940  -0.26232  -0.25736  -0.12417
 Alpha virt. eigenvalues --   -0.09136  -0.06667  -0.05625  -0.05260  -0.04335
 Alpha virt. eigenvalues --   -0.02801  -0.01353  -0.00702  -0.00356   0.00420
 Alpha virt. eigenvalues --    0.01369   0.01646   0.02566   0.02704   0.03702
 Alpha virt. eigenvalues --    0.03838   0.04254   0.05158   0.05514   0.05526
 Alpha virt. eigenvalues --    0.05748   0.06700   0.07077   0.07211   0.07472
 Alpha virt. eigenvalues --    0.08078   0.08249   0.08354   0.09407   0.09574
 Alpha virt. eigenvalues --    0.09598   0.10291   0.10795   0.10803   0.11405
 Alpha virt. eigenvalues --    0.11668   0.12626   0.12793   0.13005   0.13144
 Alpha virt. eigenvalues --    0.13666   0.14135   0.14184   0.14902   0.15068
 Alpha virt. eigenvalues --    0.15210   0.15659   0.15762   0.15949   0.16373
 Alpha virt. eigenvalues --    0.17341   0.17707   0.17967   0.18874   0.18960
 Alpha virt. eigenvalues --    0.19000   0.19371   0.19907   0.20458   0.20890
 Alpha virt. eigenvalues --    0.21108   0.21430   0.21906   0.22162   0.22753
 Alpha virt. eigenvalues --    0.23077   0.23684   0.24020   0.24342   0.24610
 Alpha virt. eigenvalues --    0.24767   0.25722   0.25760   0.26461   0.26882
 Alpha virt. eigenvalues --    0.27247   0.27585   0.28422   0.28593   0.28834
 Alpha virt. eigenvalues --    0.30098   0.30373   0.30843   0.32019   0.32459
 Alpha virt. eigenvalues --    0.33643   0.33720   0.34444   0.34635   0.35854
 Alpha virt. eigenvalues --    0.38178   0.39293   0.40228   0.40734   0.41833
 Alpha virt. eigenvalues --    0.42456   0.42784   0.43179   0.43408   0.44334
 Alpha virt. eigenvalues --    0.45074   0.45427   0.45744   0.46469   0.47638
 Alpha virt. eigenvalues --    0.47658   0.48068   0.49044   0.49587   0.50068
 Alpha virt. eigenvalues --    0.50219   0.51785   0.51993   0.52388   0.52799
 Alpha virt. eigenvalues --    0.53394   0.54485   0.55748   0.56606   0.57050
 Alpha virt. eigenvalues --    0.57499   0.57926   0.59100   0.59221   0.59545
 Alpha virt. eigenvalues --    0.60151   0.60420   0.61319   0.61562   0.61830
 Alpha virt. eigenvalues --    0.63258   0.63764   0.64649   0.65695   0.66427
 Alpha virt. eigenvalues --    0.67647   0.68035   0.69468   0.69630   0.70874
 Alpha virt. eigenvalues --    0.72677   0.75864   0.76137   0.77688   0.78668
 Alpha virt. eigenvalues --    0.80082   0.81332   0.81578   0.82105   0.82198
 Alpha virt. eigenvalues --    0.83115   0.83172   0.84400   0.84581   0.85421
 Alpha virt. eigenvalues --    0.85474   0.85961   0.86452   0.86603   0.86872
 Alpha virt. eigenvalues --    0.87564   0.88392   0.88771   0.88931   0.89652
 Alpha virt. eigenvalues --    0.90203   0.90832   0.91344   0.92589   0.93700
 Alpha virt. eigenvalues --    0.94597   0.95178   0.95215   0.95707   0.95719
 Alpha virt. eigenvalues --    0.96193   0.96411   0.97184   0.97383   0.98413
 Alpha virt. eigenvalues --    0.99693   1.00298   1.02183   1.02494   1.02766
 Alpha virt. eigenvalues --    1.03010   1.05412   1.05849   1.07716   1.10085
 Alpha virt. eigenvalues --    1.10752   1.12768   1.15971   1.19357   1.20614
 Alpha virt. eigenvalues --    1.21187   1.21682   1.22335   1.22945   1.24293
 Alpha virt. eigenvalues --    1.25576   1.26701   1.27067   1.27141   1.28068
 Alpha virt. eigenvalues --    1.28414   1.29591   1.30001   1.31457   1.32856
 Alpha virt. eigenvalues --    1.34221   1.40165   1.44439   1.46724   1.48963
 Alpha virt. eigenvalues --    1.49823   1.50488   1.51264   1.53893   1.55529
 Alpha virt. eigenvalues --    1.56940   1.59082   1.62212   1.64672   1.65634
 Alpha virt. eigenvalues --    1.66494   1.67914   1.68513   1.71440   1.73737
 Alpha virt. eigenvalues --    1.75215   1.79491   1.82123   1.82217   1.83712
 Alpha virt. eigenvalues --    1.85090   1.85313   1.85428   1.86549   1.86750
 Alpha virt. eigenvalues --    1.87952   1.88752   1.89585   1.91137   1.94290
 Alpha virt. eigenvalues --    1.96324   1.96846   1.99405   2.01098   2.05503
 Alpha virt. eigenvalues --    2.10108   2.12467   2.14958   2.16510   2.17504
 Alpha virt. eigenvalues --    2.19920   2.20514   2.23045   2.23539   2.25266
 Alpha virt. eigenvalues --    2.26630   2.27198   2.27641   2.28960   2.29920
 Alpha virt. eigenvalues --    2.32557   2.32920   2.33077   2.36102   2.37980
 Alpha virt. eigenvalues --    2.39210   2.41613   2.42732   2.43646   2.45196
 Alpha virt. eigenvalues --    2.45608   2.52154   2.53082   2.54993   2.56917
 Alpha virt. eigenvalues --    2.57153   2.59842   2.59938   2.60948   2.61690
 Alpha virt. eigenvalues --    2.62168   2.66976   2.67382   2.70570   2.71377
 Alpha virt. eigenvalues --    2.73392   2.73698   2.74345   2.74789   2.75991
 Alpha virt. eigenvalues --    2.77038   2.77978   2.80471   2.81178   2.84236
 Alpha virt. eigenvalues --    2.85987   2.87037   2.88340   2.95779   3.04834
 Alpha virt. eigenvalues --    3.07046   3.07286   3.10098   3.12744   3.15881
 Alpha virt. eigenvalues --    3.18833   3.20664   3.23496   3.26997   3.33217
 Alpha virt. eigenvalues --    3.34257   3.37945   3.40929   3.44053   3.59171
 Alpha virt. eigenvalues --    3.62743   3.68111   3.70910   3.82635   3.86065
 Alpha virt. eigenvalues --    4.01561   4.05842   4.06193   4.11950   4.79603
 Alpha virt. eigenvalues --    4.81360   9.68580   9.77041   9.78780   9.81354
 Alpha virt. eigenvalues --    9.83153   9.98817  23.33665  23.37251  23.80849
 Alpha virt. eigenvalues --   23.82672  23.87104  23.87533  23.95806  23.96947
 Alpha virt. eigenvalues --   23.97425  23.99165  24.08640  24.10685  25.74431
 Alpha virt. eigenvalues --   25.78316  25.81575  25.83449  25.87189  25.99151
 Alpha virt. eigenvalues --   26.09502  26.13273  26.19212  26.22253  26.34030
 Alpha virt. eigenvalues --   26.48814  26.57171  26.68399  26.74389  26.94897
 Alpha virt. eigenvalues --   26.96579  27.01305 215.69360 215.76609 215.79282
 Alpha virt. eigenvalues --  215.81511 215.83567 216.05243
          Condensed to atoms (all electrons):
               1          2          3          4          5          6
     1  C   24.531281  -0.297914  -6.564875   2.458836  -6.607479   1.926045
     2  C   -0.297914  16.001832  -2.971915  -2.350920   2.134998  -3.011467
     3  C   -6.564875  -2.971915  14.387122   0.040749  -0.136121   2.746675
     4  C    2.458836  -2.350920   0.040749  13.603994  -3.645654  -4.335411
     5  C   -6.607479   2.134998  -0.136121  -3.645654  17.420317  -3.960393
     6  C    1.926045  -3.011467   2.746675  -4.335411  -3.960393  26.574259
     7  C    4.254633  -2.485610  -3.978257   1.135044  -2.763469  -2.729446
     8  C    0.727288   1.239911  -0.056677   0.217945   0.311317  -1.510534
     9  C   -0.619960  -0.027959   0.408683   0.096800  -0.255789  -0.203521
    10  C    0.524752   0.377697   0.070436   0.007016   0.072541  -0.597303
    11  C   -2.608514   0.011519  -0.231282   0.122185   0.156123   0.193637
    12  C   -4.999331  -1.094797   0.524402  -0.002016   0.844382  -4.308987
    13  H    0.017825  -0.036565   0.444388  -0.067921  -0.086915   0.066452
    14  H   -0.043886   0.002365  -0.019623   0.345219  -0.009717   0.048860
    15  H    0.021239  -0.013853   0.023742   0.007755  -0.002861  -0.019225
    16  H   -0.010027   0.004215  -0.001023   0.000101   0.000140  -0.000218
    17  Cl   6.070000   1.283980  -1.500203   0.843980  -4.750376  16.379530
    18  Cl -11.588783  -2.012380   3.009615  -0.704155   6.859918 -20.752485
    19  Cl  -0.131095  -0.062526  -0.008129   0.005490  -0.012276  -0.073269
    20  Cl  -0.578008   0.235415   0.052300  -1.005436  -0.129452   0.888964
    21  Cl  -0.096149  -0.001325  -0.001677   0.000602  -0.003897   0.001536
    22  Cl   0.037104  -0.673952  -0.025214  -0.243442   0.214565   0.132997
               7          8          9         10         11         12
     1  C    4.254633   0.727288  -0.619960   0.524752  -2.608514  -4.999331
     2  C   -2.485610   1.239911  -0.027959   0.377697   0.011519  -1.094797
     3  C   -3.978257  -0.056677   0.408683   0.070436  -0.231282   0.524402
     4  C    1.135044   0.217945   0.096800   0.007016   0.122185  -0.002016
     5  C   -2.763469   0.311317  -0.255789   0.072541   0.156123   0.844382
     6  C   -2.729446  -1.510534  -0.203521  -0.597303   0.193637  -4.308987
     7  C   24.354856  -2.130593  -3.004434   2.950129  -2.693941   0.475200
     8  C   -2.130593  16.907439  -0.588054  -2.279867  -0.194496  -5.580035
     9  C   -3.004434  -0.588054  17.881965  -0.347544  -8.868046   1.307957
    10  C    2.950129  -2.279867  -0.347544  18.899981  -7.361194  -3.405086
    11  C   -2.693941  -0.194496  -8.868046  -7.361194  24.949849   0.267488
    12  C    0.475200  -5.580035   1.307957  -3.405086   0.267488  27.080035
    13  H   -0.002086   0.000680  -0.001409   0.000094   0.000134  -0.000142
    14  H   -0.003801  -0.000774  -0.000088   0.000013  -0.000036   0.002275
    15  H   -0.091304   0.253595   0.079012  -0.006408  -0.035035   0.102595
    16  H   -0.028149  -0.054496   0.301039   0.053523  -0.017887   0.079411
    17  Cl  -9.694820  -1.185828   1.109129  -2.947756   5.097803 -21.609258
    18  Cl   3.865516   0.541391  -0.591592   1.801039  -2.727556  17.125284
    19  Cl  -0.700744   0.495037   0.176855  -1.022607  -0.403230   0.691434
    20  Cl  -0.178964  -0.002210   0.005231   0.003542  -0.015425  -0.080996
    21  Cl  -0.378345  -0.357437  -0.030043  -0.941629   0.858177   0.035474
    22  Cl   0.373499  -0.173354  -0.633338  -0.104550   0.118113  -0.095927
              13         14         15         16         17         18
     1  C    0.017825  -0.043886   0.021239  -0.010027   6.070000 -11.588783
     2  C   -0.036565   0.002365  -0.013853   0.004215   1.283980  -2.012380
     3  C    0.444388  -0.019623   0.023742  -0.001023  -1.500203   3.009615
     4  C   -0.067921   0.345219   0.007755   0.000101   0.843980  -0.704155
     5  C   -0.086915  -0.009717  -0.002861   0.000140  -4.750376   6.859918
     6  C    0.066452   0.048860  -0.019225  -0.000218  16.379530 -20.752485
     7  C   -0.002086  -0.003801  -0.091304  -0.028149  -9.694820   3.865516
     8  C    0.000680  -0.000774   0.253595  -0.054496  -1.185828   0.541391
     9  C   -0.001409  -0.000088   0.079012   0.301039   1.109129  -0.591592
    10  C    0.000094   0.000013  -0.006408   0.053523  -2.947756   1.801039
    11  C    0.000134  -0.000036  -0.035035  -0.017887   5.097803  -2.727556
    12  C   -0.000142   0.002275   0.102595   0.079411 -21.609258  17.125284
    13  H    0.515549  -0.004951  -0.000018  -0.000000  -0.004900   0.016633
    14  H   -0.004951   0.507851  -0.000003  -0.000000  -0.006088   0.025142
    15  H   -0.000018  -0.000003   0.589658  -0.007769   0.043629  -0.027705
    16  H   -0.000000  -0.000000  -0.007769   0.523452   0.018591  -0.004730
    17  Cl  -0.004900  -0.006088   0.043629   0.018591  89.481394 -62.602708
    18  Cl   0.016633   0.025142  -0.027705  -0.004730 -62.602708  83.967837
    19  Cl  -0.000001  -0.000000   0.000874  -0.002285  -0.083447  -0.519481
    20  Cl  -0.000797  -0.000763   0.000049  -0.000001  -0.463181  -0.031793
    21  Cl  -0.000000  -0.000000   0.001268   0.000028   0.216003  -0.065420
    22  Cl  -0.007687   0.003424  -0.060199  -0.000366  -0.103040   0.119835
              19         20         21         22
     1  C   -0.131095  -0.578008  -0.096149   0.037104
     2  C   -0.062526   0.235415  -0.001325  -0.673952
     3  C   -0.008129   0.052300  -0.001677  -0.025214
     4  C    0.005490  -1.005436   0.000602  -0.243442
     5  C   -0.012276  -0.129452  -0.003897   0.214565
     6  C   -0.073269   0.888964   0.001536   0.132997
     7  C   -0.700744  -0.178964  -0.378345   0.373499
     8  C    0.495037  -0.002210  -0.357437  -0.173354
     9  C    0.176855   0.005231  -0.030043  -0.633338
    10  C   -1.022607   0.003542  -0.941629  -0.104550
    11  C   -0.403230  -0.015425   0.858177   0.118113
    12  C    0.691434  -0.080996   0.035474  -0.095927
    13  H   -0.000001  -0.000797  -0.000000  -0.007687
    14  H   -0.000000  -0.000763  -0.000000   0.003424
    15  H    0.000874   0.000049   0.001268  -0.060199
    16  H   -0.002285  -0.000001   0.000028  -0.000366
    17  Cl  -0.083447  -0.463181   0.216003  -0.103040
    18  Cl  -0.519481  -0.031793  -0.065420   0.119835
    19  Cl  18.175613  -0.003124  -0.221803   0.002654
    20  Cl  -0.003124  17.785829  -0.000092  -0.003274
    21  Cl  -0.221803  -0.000092  17.493157  -0.002607
    22  Cl   0.002654  -0.003274  -0.002607  17.566138
 Mulliken charges:
               1
     1  C   -0.422980
     2  C   -0.250749
     3  C   -0.213115
     4  C   -0.530759
     5  C    0.350099
     6  C   -1.456698
     7  C   -0.544913
     8  C   -0.580249
     9  C   -0.194894
    10  C    0.253182
    11  C   -0.618386
    12  C   -1.359363
    13  H    0.151637
    14  H    0.154582
    15  H    0.140964
    16  H    0.146451
    17  Cl   1.407564
    18  Cl   1.296579
    19  Cl   0.696062
    20  Cl   0.522187
    21  Cl   0.494181
    22  Cl   0.558619
 Sum of Mulliken charges =  -0.00000
 Mulliken charges with hydrogens summed into heavy atoms:
               1
     1  C   -0.422980
     2  C   -0.250749
     3  C   -0.061478
     4  C   -0.376177
     5  C    0.350099
     6  C   -1.456698
     7  C   -0.544913
     8  C   -0.439285
     9  C   -0.048443
    10  C    0.253182
    11  C   -0.618386
    12  C   -1.359363
    17  Cl   1.407564
    18  Cl   1.296579
    19  Cl   0.696062
    20  Cl   0.522187
    21  Cl   0.494181
    22  Cl   0.558619
 Electronic spatial extent (au):  <R**2>=           8325.3801
 Charge=             -0.0000 electrons
 Dipole moment (field-independent basis, Debye):
    X=              2.8268    Y=              0.9082    Z=             -0.0000  Tot=              2.9691
 Quadrupole moment (field-independent basis, Debye-Ang):
   XX=           -151.0770   YY=           -139.3441   ZZ=           -147.5484
   XY=              1.2808   XZ=             -0.0000   YZ=             -0.0000
 Traceless Quadrupole moment (field-independent basis, Debye-Ang):
   XX=             -5.0872   YY=              6.6458   ZZ=             -1.5586
   XY=              1.2808   XZ=             -0.0000   YZ=             -0.0000
 Octapole moment (field-independent basis, Debye-Ang**2):
  XXX=             71.0307  YYY=            -20.6204  ZZZ=             -0.0000  XYY=             -6.7914
  XXY=             42.6741  XXZ=             -0.0001  XZZ=             -5.0027  YZZ=            -13.9209
  YYZ=             -0.0000  XYZ=             -0.0000
 Hexadecapole moment (field-independent basis, Debye-Ang**3):
 XXXX=          -7881.5334 YYYY=          -2936.1518 ZZZZ=           -173.4211 XXXY=            148.1148
 XXXZ=             -0.0004 YYYX=            -52.0701 YYYZ=             -0.0000 ZZZX=              0.0002
 ZZZY=             -0.0001 XXYY=          -1771.4686 XXZZ=          -1391.2253 YYZZ=           -549.6232
 XXYZ=             -0.0001 YYXZ=             -0.0002 ZZXY=             -7.0217
 N-N= 2.065507355942D+03 E-N=-1.175965350949D+04  KE= 3.214110257599D+03
 Calling FoFJK, ICntrl=      2127 FMM=F ISym2X=0 I1Cent= 0 IOpClX= 0 NMat=1 NMatS=1 NMatT=0.
 ***** Axes restored to original set *****
 -------------------------------------------------------------------
 Center     Atomic                   Forces (Hartrees/Bohr)
 Number     Number              X              Y              Z
 -------------------------------------------------------------------
      1        6          -0.021699649   -0.015138209    0.004306233
      2        6          -0.020407396    0.011396920    0.008863807
      3        6          -0.013867304    0.001305088    0.004813855
      4        6          -0.005698009   -0.014701113   -0.000883981
      5        6          -0.002837334   -0.012153780   -0.001347578
      6        6           0.073460913    0.008880281   -0.022534327
      7        6          -0.007420488    0.023020862    0.006768017
      8        6          -0.021544257   -0.001767898    0.006766028
      9        6          -0.009617614    0.013935111    0.005785700
     10        6           0.003558227    0.003062971   -0.000597052
     11        6           0.008835769    0.011222423   -0.000803357
     12        6           0.025508631   -0.083486426   -0.024083477
     13        1           0.009334771    0.000448725   -0.002991043
     14        1           0.004982221    0.008228542   -0.000096069
     15        1          -0.003876269   -0.006009191    0.000148324
     16        1           0.003182755   -0.008580173   -0.002660031
     17       17          -0.287329008   -0.436972755    0.012598776
     18       17           0.239781411    0.481837088    0.011491901
     19       17          -0.006042908   -0.005037004    0.001044839
     20       17           0.006223769    0.007246129   -0.000689532
     21       17           0.004208988   -0.001827163   -0.001729842
     22       17           0.021262781    0.015089570   -0.004171191
 -------------------------------------------------------------------
 Cartesian Forces:  Max     0.481837088 RMS     0.093945938

 GradGradGradGradGradGradGradGradGradGradGradGradGradGradGradGradGradGrad
 Berny optimization.
 FormGI is forming the generalized inverse of G from B-inverse, IUseBI=4.
 Internal  Forces:  Max     0.571763634 RMS     0.059600672
 Search for a local minimum.
 Step number   1 out of a maximum of  112
 All quantities printed in internal units (Hartrees-Bohrs-Radians)
 Mixed Optimization -- RFO/linear search
 Second derivative matrix not updated -- first step.
 ITU=  0
     Eigenvalues ---    0.00238   0.00238   0.01655   0.01655   0.02070
     Eigenvalues ---    0.02070   0.02070   0.02070   0.02070   0.02070
     Eigenvalues ---    0.02070   0.02070   0.02070   0.02070   0.02070
     Eigenvalues ---    0.02070   0.02070   0.02070   0.04301   0.16000
     Eigenvalues ---    0.16000   0.16000   0.16000   0.22422   0.22472
     Eigenvalues ---    0.24427   0.24476   0.25000   0.25000   0.25000
     Eigenvalues ---    0.25000   0.25000   0.25000   0.25000   0.25000
     Eigenvalues ---    0.25000   0.25000   0.29539   0.29539   0.29539
     Eigenvalues ---    0.29539   0.29539   0.29539   0.37230   0.37230
     Eigenvalues ---    0.37230   0.37230   0.41541   0.41658   0.42024
     Eigenvalues ---    0.42141   0.45389   0.45389   0.45389   0.45389
     Eigenvalues ---    0.45389   0.45389   0.45389   0.45389   1.32680
 RFO step:  Lambda=-2.70419733D-01 EMin= 2.37799045D-03
 Linear search not attempted -- first point.
 Maximum step size (   0.300) exceeded in Quadratic search.
    -- Step size scaled by   0.599
 Iteration  1 RMS(Cart)=  0.35862913 RMS(Int)=  0.01011054
 Iteration  2 RMS(Cart)=  0.05794170 RMS(Int)=  0.00028311
 Iteration  3 RMS(Cart)=  0.00070626 RMS(Int)=  0.00002770
 Iteration  4 RMS(Cart)=  0.00000010 RMS(Int)=  0.00002770
 Variable       Old X    -DE/DX   Delta X   Delta X   Delta X     New X
                                 (Linear)    (Quad)   (Total)
    R1        2.64826   0.01578   0.00000   0.01360   0.01365   2.66191
    R2        2.64826   0.00303   0.00000   0.00318   0.00323   2.65150
    R3        2.64826  -0.00877   0.00000  -0.00736  -0.00737   2.64089
    R4        3.32592  -0.00195   0.00000  -0.00207  -0.00207   3.32385
    R5        2.64826  -0.02867   0.00000  -0.02437  -0.02443   2.62383
    R6        2.02201   0.00981   0.00000   0.00914   0.00914   2.03115
    R7        2.64826  -0.02120   0.00000  -0.01809  -0.01813   2.63013
    R8        2.02201   0.00962   0.00000   0.00896   0.00896   2.03097
    R9        2.64826  -0.00048   0.00000  -0.00028  -0.00027   2.64799
   R10        3.32592   0.00312   0.00000   0.00330   0.00330   3.32922
   R11        3.32592   0.05303   0.00000   0.05613   0.05613   3.38205
   R12        2.64826  -0.00354   0.00000  -0.00300  -0.00299   2.64527
   R13        2.64826  -0.02238   0.00000  -0.01844  -0.01842   2.62984
   R14        2.64826  -0.00940   0.00000  -0.00790  -0.00791   2.64035
   R15        2.02201  -0.00386   0.00000  -0.00360  -0.00360   2.01841
   R16        2.64826  -0.01972   0.00000  -0.01636  -0.01638   2.63188
   R17        2.02201   0.00945   0.00000   0.00881   0.00881   2.03081
   R18        2.64826  -0.00855   0.00000  -0.00699  -0.00700   2.64126
   R19        3.32592  -0.00056   0.00000  -0.00059  -0.00059   3.32533
   R20        2.64826  -0.00370   0.00000  -0.00293  -0.00292   2.64534
   R21        3.32592   0.00618   0.00000   0.00654   0.00654   3.33245
   R22        3.32592   0.04811   0.00000   0.05092   0.05092   3.37684
   R23        3.16132   0.57176   0.00000   0.21437   0.21437   3.37569
    A1        2.09440  -0.03747   0.00000  -0.04065  -0.04050   2.05390
    A2        2.09440   0.01770   0.00000   0.02090   0.02093   2.11533
    A3        2.09440   0.03494   0.00000   0.03994   0.03992   2.13432
    A4        2.09440  -0.05264   0.00000  -0.06084  -0.06085   2.03354
    A5        2.09440   0.00581   0.00000   0.00581   0.00574   2.10013
    A6        2.09440  -0.00266   0.00000  -0.00256  -0.00253   2.09187
    A7        2.09440  -0.00315   0.00000  -0.00325  -0.00321   2.09118
    A8        2.09440  -0.00708   0.00000  -0.01059  -0.01070   2.08369
    A9        2.09440   0.00339   0.00000   0.00508   0.00514   2.09953
   A10        2.09440   0.00370   0.00000   0.00551   0.00557   2.09996
   A11        2.09440   0.00855   0.00000   0.00912   0.00907   2.10346
   A12        2.09440  -0.01933   0.00000  -0.02189  -0.02186   2.07253
   A13        2.09440   0.01079   0.00000   0.01277   0.01279   2.10719
   A14        2.09440   0.01250   0.00000   0.01540   0.01546   2.10985
   A15        2.09440   0.02543   0.00000   0.02875   0.02872   2.12312
   A16        2.09440  -0.03793   0.00000  -0.04416  -0.04418   2.05021
   A17        2.09440  -0.02271   0.00000  -0.02640  -0.02636   2.06804
   A18        2.09440   0.01328   0.00000   0.01575   0.01575   2.11014
   A19        2.09440  -0.00055   0.00000   0.00060   0.00060   2.09499
   A20        2.09440  -0.01273   0.00000  -0.01634  -0.01634   2.07805
   A21        2.09440   0.00175   0.00000   0.00169   0.00166   2.09606
   A22        2.09440   0.00036   0.00000   0.00087   0.00089   2.09529
   A23        2.09440  -0.00211   0.00000  -0.00257  -0.00255   2.09184
   A24        2.09440  -0.00653   0.00000  -0.00765  -0.00768   2.08672
   A25        2.09440  -0.00484   0.00000  -0.00550  -0.00549   2.08891
   A26        2.09440   0.01137   0.00000   0.01315   0.01316   2.10756
   A27        2.09440  -0.00254   0.00000  -0.00279  -0.00279   2.09160
   A28        2.09440  -0.00702   0.00000  -0.00814  -0.00814   2.08625
   A29        2.09440   0.00956   0.00000   0.01094   0.01094   2.10533
   A30        2.09440   0.01676   0.00000   0.01939   0.01942   2.11382
   A31        2.09440  -0.01282   0.00000  -0.01480  -0.01482   2.07958
   A32        2.09440  -0.00394   0.00000  -0.00459  -0.00461   2.08979
   A33        2.09440   0.08864   0.00000   0.10200   0.10200   2.19639
   A34        2.09440   0.09537   0.00000   0.10974   0.10974   2.20414
    D1        0.00000   0.00000   0.00000   0.00000   0.00000   0.00000
    D2        3.14159  -0.00000   0.00000   0.00000   0.00000   3.14159
    D3       -0.00000  -0.00000   0.00000  -0.00000  -0.00000  -0.00000
    D4        3.14159   0.00000   0.00000   0.00000   0.00000   3.14159
    D5        0.00000  -0.00000   0.00000   0.00000   0.00000   0.00000
    D6        3.14159  -0.00000   0.00000  -0.00000  -0.00000   3.14159
    D7       -3.14159  -0.00000   0.00000  -0.00000  -0.00000  -3.14159
    D8        0.00000  -0.00000   0.00000  -0.00000  -0.00000   0.00000
    D9       -0.00000   0.00000   0.00000   0.00000   0.00000  -0.00000
   D10        3.14159   0.00000   0.00000   0.00000   0.00000   3.14159
   D11        3.14159   0.00000   0.00000   0.00000   0.00000   3.14159
   D12        0.00000   0.00000   0.00000   0.00000   0.00000   0.00000
   D13        0.00000  -0.00000   0.00000  -0.00000  -0.00000   0.00000
   D14       -3.14159  -0.00000   0.00000  -0.00000  -0.00000  -3.14159
   D15       -3.14159  -0.00000   0.00000  -0.00000  -0.00000  -3.14159
   D16        0.00000  -0.00000   0.00000  -0.00000  -0.00000   0.00000
   D17       -0.00000   0.00000   0.00000   0.00000   0.00000  -0.00000
   D18        3.14159  -0.00000   0.00000  -0.00000  -0.00000   3.14159
   D19        3.14159   0.00000   0.00000   0.00000   0.00000   3.14159
   D20       -0.00000  -0.00000   0.00000  -0.00000  -0.00000  -0.00000
   D21        0.00001  -0.00000   0.00000  -0.00000  -0.00000   0.00001
   D22       -3.14159  -0.00000   0.00000  -0.00000  -0.00000  -3.14159
   D23        0.00000   0.00000   0.00000   0.00000   0.00000   0.00000
   D24       -3.14159  -0.00000   0.00000  -0.00000  -0.00000  -3.14159
   D25       -0.00000  -0.00000   0.00000  -0.00000  -0.00000  -0.00000
   D26        3.14159   0.00000   0.00000   0.00000   0.00000   3.14159
   D27       -0.00000  -0.00000   0.00000  -0.00000  -0.00000  -0.00000
   D28        3.14159  -0.00000   0.00000  -0.00000  -0.00000   3.14159
   D29        3.14159   0.00000   0.00000   0.00000   0.00000   3.14159
   D30       -0.00000   0.00000   0.00000   0.00000   0.00000  -0.00000
   D31       -0.00000   0.00000   0.00000   0.00000   0.00000  -0.00000
   D32       -3.14159  -0.00000   0.00000  -0.00000  -0.00000  -3.14159
   D33        3.14159   0.00000   0.00000   0.00000   0.00000   3.14159
   D34        0.00000  -0.00000   0.00000  -0.00000  -0.00000   0.00000
   D35        0.00000  -0.00000   0.00000  -0.00000  -0.00000   0.00000
   D36       -3.14159  -0.00000   0.00000  -0.00000  -0.00000  -3.14159
   D37        3.14159   0.00000   0.00000   0.00000   0.00000   3.14159
   D38        0.00000  -0.00000   0.00000  -0.00000  -0.00000   0.00000
   D39        0.00000   0.00000   0.00000   0.00000   0.00000   0.00000
   D40       -3.14159  -0.00000   0.00000  -0.00000  -0.00000  -3.14159
   D41        3.14159   0.00000   0.00000   0.00000   0.00000   3.14159
   D42       -0.00000  -0.00000   0.00000  -0.00000  -0.00000  -0.00000
   D43        0.00001  -0.00000   0.00000  -0.00000  -0.00000   0.00001
   D44       -3.14159  -0.00000   0.00000  -0.00000  -0.00000  -3.14159
   D45       -0.00001  -0.00000   0.00000  -0.00000  -0.00000  -0.00001
         Item               Value     Threshold  Converged?
 Maximum Force            0.571764     0.000450     NO 
 RMS     Force            0.059601     0.000300     NO 
 Maximum Displacement     1.246566     0.001800     NO 
 RMS     Displacement     0.413700     0.001200     NO 
 Predicted change in Energy=-1.256176D-01
 GradGradGradGradGradGradGradGradGradGradGradGradGradGradGradGradGradGrad

                          Input orientation:                          
 ---------------------------------------------------------------------
 Center     Atomic      Atomic             Coordinates (Angstroms)
 Number     Number       Type             X           Y           Z
 ---------------------------------------------------------------------
      1          6           0        0.492085    1.009363   -0.094474
      2          6           0        1.821653    1.262231   -0.485015
      3          6           0        2.362508    2.549261   -0.421488
      4          6           0        1.592289    3.611862    0.031828
      5          6           0        0.276114    3.383555    0.422567
      6          6           0       -0.271188    2.095077    0.360892
      7          6           0       -0.975339   -1.347661   -0.053703
      8          6           0       -0.510337   -2.609043   -0.443803
      9          6           0       -1.340751   -3.730943   -0.380918
     10          6           0       -2.650972   -3.605366    0.074333
     11          6           0       -3.127370   -2.351348    0.466805
     12          6           0       -2.286255   -1.234396    0.399465
     13          1           0        3.379748    2.717752   -0.724977
     14          1           0        2.008792    4.601423    0.080457
     15          1           0        0.491595   -2.724185   -0.795522
     16          1           0       -0.969571   -4.692889   -0.683870
     17         17           0       -2.898201    0.367547    0.901939
     18         17           0       -1.971155    1.894386    0.883261
     19         17           0       -4.786469   -2.193144    1.043129
     20         17           0       -0.685915    4.743913    0.994993
     21         17           0       -3.687449   -5.025446    0.149110
     22         17           0        2.885661   -0.008403   -1.074188
 ---------------------------------------------------------------------
                    Distance matrix (angstroms):
                    1          2          3          4          5
     1  C    0.000000
     2  C    1.408622   0.000000
     3  C    2.444730   1.397500   0.000000
     4  C    2.828322   2.416714   1.388472   0.000000
     5  C    2.439419   2.777123   2.400316   1.391804   0.000000
     6  C    1.403111   2.406071   2.784737   2.425174   1.401256
     7  C    2.776789   3.849770   5.144170   5.585419   4.917049
     8  C    3.770907   4.519583   5.904391   6.583838   6.105762
     9  C    5.090368   5.911297   7.290867   7.917694   7.340022
    10  C    5.585967   6.634060   7.953632   8.372303   7.585125
    11  C    4.970901   6.201350   7.412408   7.617365   6.668940
    12  C    3.605219   4.887777   6.049878   6.218077   5.281263
    13  H    3.413902   2.145644   1.074836   2.137101   3.375307
    14  H    3.903063   3.391900   2.142063   1.074742   2.145325
    15  H    3.798795   4.213903   5.607980   6.483944   6.231746
    16  H    5.916037   6.579812   7.976235   8.720335   8.246507
    17  Cl   3.591491   5.000113   5.846913   5.607778   4.404813
    18  Cl   2.794062   4.081322   4.572949   4.046330   2.734973
    19  Cl   6.278003   7.611972   8.703067   8.683857   7.557407
    20  Cl   4.064664   4.538770   4.014449   2.720191   1.761745
    21  Cl   7.344845   8.383746   9.711012  10.123857   9.300317
    22  Cl   2.779369   1.758905   2.690976   4.000301   4.533806
                    6          7          8          9         10
     6  C    0.000000
     7  C    3.538384   0.000000
     8  C    4.778438   1.399818   0.000000
     9  C    5.969653   2.433235   1.397213   0.000000
    10  C    6.183894   2.814493   2.417322   1.392732   0.000000
    11  C    5.285800   2.430957   2.782890   2.411208   1.397695
    12  C    3.891962   1.391650   2.398883   2.781317   2.420791
    13  H    3.859556   5.995414   6.602013   7.999198   8.774413
    14  H    3.399813   6.656925   7.655827   8.992255   9.437417
    15  H    5.014421   2.144064   1.068097   2.131421   3.377700
    16  H    6.903314   3.404070   2.147310   1.074660   2.141189
    17  Cl   3.190343   2.748198   4.046357   4.568260   4.065722
    18  Cl   1.789701   3.518582   4.916906   5.799991   5.600339
    19  Cl   6.264347   4.054946   4.546344   4.033076   2.737386
    20  Cl   2.755071   6.187957   7.494460   8.610757   8.626675
    21  Cl   7.900477   4.574142   4.035417   2.731969   1.759688
    22  Cl   4.055833   4.212164   4.323600   5.674548   6.701609
                   11         12         13         14         15
    11  C    0.000000
    12  C    1.399854   0.000000
    13  H    8.334189   6.999103   0.000000
    14  H    8.652771   7.252998   2.465048   0.000000
    15  H    3.850894   3.371041   6.161257   7.532181   0.000000
    16  H    3.385700   3.855963   8.592780   9.789744   2.454235
    17  Cl   2.763015   1.786947   6.898041   6.532926   4.891922
    18  Cl   4.420014   3.181607   5.647701   4.879807   5.496785
    19  Cl   1.763459   2.754010   9.691760   9.657560   5.614321
    20  Cl   7.522128   6.217388   4.857288   2.849233   7.769489
    21  Cl   2.750531   4.049455  10.519811  11.186085   4.863388
    22  Cl   6.634802   5.515744   2.792489   4.832453   3.631071
                   16         17         18         19         20
    16  H    0.000000
    17  Cl   5.642909   0.000000
    18  Cl   6.844798   1.786338   0.000000
    19  Cl   4.878520   3.184749   4.965829   0.000000
    20  Cl   9.589175   4.904635   3.127959   8.058512   0.000000
    21  Cl   2.862047   5.502185   7.167198   3.166867  10.255004
    22  Cl   6.079438   6.123682   5.571434   8.253345   6.294615
                   21         22
    21  Cl   0.000000
    22  Cl   8.359005   0.000000
 Stoichiometry    C12H4Cl6
 Framework group  C1[X(C12H4Cl6)]
 Deg. of freedom    60
 Full point group                 C1      NOp   1
 Largest Abelian subgroup         C1      NOp   1
 Largest concise Abelian subgroup C1      NOp   1
                         Standard orientation:                         
 ---------------------------------------------------------------------
 Center     Atomic      Atomic             Coordinates (Angstroms)
 Number     Number       Type             X           Y           Z
 ---------------------------------------------------------------------
      1          6           0        1.826336    0.871343   -0.000002
      2          6           0        2.782138    1.906069   -0.000004
      3          6           0        4.151436    1.626733   -0.000004
      4          6           0        4.598863    0.312327   -0.000003
      5          6           0        3.670916   -0.724993    0.000001
      6          6           0        2.296799   -0.450544    0.000002
      7          6           0       -0.949097    0.958116    0.000010
      8          6           0       -1.732464    2.118213    0.000014
      9          6           0       -3.127596    2.041986    0.000012
     10          6           0       -3.759184    0.800697    0.000006
     11          6           0       -2.988312   -0.365196    0.000001
     12          6           0       -1.591270   -0.276512    0.000003
     13          1           0        4.862032    2.433162   -0.000006
     14          1           0        5.652045    0.098137   -0.000003
     15          1           0       -1.265310    3.078733    0.000017
     16          1           0       -3.715702    2.941444    0.000016
     17         17           0       -0.608415   -1.768884   -0.000005
     18         17           0        1.176256   -1.846041    0.000005
     19         17           0       -3.788749   -1.936529   -0.000012
     20         17           0        4.257201   -2.386322    0.000006
     21         17           0       -5.516893    0.717254    0.000001
     22         17           0        2.327396    3.605174   -0.000009
 ---------------------------------------------------------------------
 Rotational constants (GHZ):           0.3964778           0.1325743           0.0993527
 Standard basis: 6-311+G(d,p) (5D, 7F)
 There are   486 symmetry adapted cartesian basis functions of A   symmetry.
 There are   468 symmetry adapted basis functions of A   symmetry.
   468 basis functions,   782 primitive gaussians,   486 cartesian basis functions
    89 alpha electrons       89 beta electrons
       nuclear repulsion energy      1987.3752986622 Hartrees.
 NAtoms=   22 NActive=   22 NUniq=   22 SFac= 1.00D+00 NAtFMM=   60 NAOKFM=F Big=F
 Integral buffers will be    131072 words long.
 Raffenetti 2 integral format.
 Two-electron integral symmetry is turned on.
 One-electron integrals computed using PRISM.
 NBasis=   468 RedAO= T EigKep=  1.22D-06  NBF=   468
 NBsUse=   463 1.00D-06 EigRej=  7.50D-07 NBFU=   463
 Initial guess from the checkpoint file:  "./Gau-26818.chk"
 B after Tr=    -0.000000   -0.000000    0.000000
         Rot=    0.999122    0.000000    0.000000    0.041887 Ang=   4.80 deg.
 ExpMin= 4.38D-02 ExpMax= 1.06D+05 ExpMxC= 3.62D+03 IAcc=3 IRadAn=         5 AccDes= 0.00D+00
 Harris functional with IExCor=  402 and IRadAn=       5 diagonalized for initial guess.
 HarFok:  IExCor=  402 AccDes= 0.00D+00 IRadAn=         5 IDoV= 1 UseB2=F ITyADJ=14
 ICtDFT=  3500011 ScaDFX=  1.000000  1.000000  1.000000  1.000000
 FoFCou: FMM=F IPFlag=           0 FMFlag=      100000 FMFlg1=           0
         NFxFlg=           0 DoJE=T BraDBF=F KetDBF=T FulRan=T
         wScrn=  0.000000 ICntrl=       500 IOpCl=  0 I1Cent=   200000004 NGrid=           0
         NMat0=    1 NMatS0=      1 NMatT0=    0 NMatD0=    1 NMtDS0=    0 NMtDT0=    0
 Petite list used in FoFCou.
 Requested convergence on RMS density matrix=1.00D-08 within  32 cycles.
 Requested convergence on MAX density matrix=1.00D-06.
 Requested convergence on             energy=1.00D-06.
 No special actions if energy rises.
 SCF Done:  E(RB3LYP) =  -3220.65536111     A.U. after   20 cycles
            NFock= 20  Conv=0.39D-08     -V/T= 2.0023
 QCSCF skips out because SCF is already converged.
 Calling FoFJK, ICntrl=      2127 FMM=F ISym2X=0 I1Cent= 0 IOpClX= 0 NMat=1 NMatS=1 NMatT=0.
 ***** Axes restored to original set *****
 -------------------------------------------------------------------
 Center     Atomic                   Forces (Hartrees/Bohr)
 Number     Number              X              Y              Z
 -------------------------------------------------------------------
      1        6          -0.010366759    0.029028377    0.008866976
      2        6          -0.022374127   -0.000913161    0.007199769
      3        6          -0.005460039   -0.000407839    0.001722366
      4        6          -0.001912329   -0.008870649   -0.001036183
      5        6          -0.011548879   -0.003206557    0.003202764
      6        6           0.075208866   -0.016731282   -0.027919844
      7        6          -0.029848920   -0.004432766    0.009001610
      8        6          -0.009035149    0.011457264    0.005128668
      9        6          -0.000844437    0.007125319    0.001616316
     10        6           0.001728312   -0.001582114   -0.000866478
     11        6          -0.008493116    0.012183630    0.005086400
     12        6           0.047472534   -0.050041765   -0.025038923
     13        1           0.005911209    0.000690622   -0.001817731
     14        1           0.000722366    0.005173216    0.000733558
     15        1           0.011131992   -0.000831263   -0.003823747
     16        1           0.001289225   -0.005806586   -0.001515265
     17       17          -0.186974090   -0.250411437    0.014573041
     18       17           0.140380125    0.274329318    0.005269632
     19       17          -0.001186200   -0.001140954    0.000176457
     20       17           0.001582688    0.005884790    0.000583818
     21       17           0.004755973    0.003525418   -0.000904840
     22       17          -0.002139244   -0.005021583   -0.000238362
 -------------------------------------------------------------------
 Cartesian Forces:  Max     0.274329318 RMS     0.056233872

 GradGradGradGradGradGradGradGradGradGradGradGradGradGradGradGradGradGrad
 Berny optimization.
 Using GEDIIS/GDIIS optimizer.
 FormGI is forming the generalized inverse of G from B-inverse, IUseBI=4.
 Internal  Forces:  Max     0.327548543 RMS     0.034519298
 Search for a local minimum.
 Step number   2 out of a maximum of  112
 All quantities printed in internal units (Hartrees-Bohrs-Radians)
 Mixed Optimization -- RFO/linear search
 Update second derivatives using D2CorX and points    1    2
 DE= -9.27D-02 DEPred=-1.26D-01 R= 7.38D-01
 TightC=F SS=  1.41D+00  RLast= 3.00D-01 DXNew= 5.0454D-01 9.0000D-01
 Trust test= 7.38D-01 RLast= 3.00D-01 DXMaxT set to 5.05D-01
 ITU=  1  0
 Use linear search instead of GDIIS.
     Eigenvalues ---    0.00238   0.00238   0.01658   0.01665   0.02070
     Eigenvalues ---    0.02070   0.02070   0.02070   0.02070   0.02070
     Eigenvalues ---    0.02070   0.02070   0.02070   0.02070   0.02070
     Eigenvalues ---    0.02070   0.02070   0.02070   0.04301   0.15998
     Eigenvalues ---    0.16000   0.16000   0.16011   0.22414   0.22488
     Eigenvalues ---    0.23800   0.24442   0.24488   0.25000   0.25000
     Eigenvalues ---    0.25000   0.25000   0.25000   0.25000   0.25000
     Eigenvalues ---    0.25000   0.27665   0.29527   0.29539   0.29539
     Eigenvalues ---    0.29539   0.29539   0.36762   0.37122   0.37230
     Eigenvalues ---    0.37230   0.38496   0.41361   0.41538   0.41777
     Eigenvalues ---    0.42872   0.45246   0.45389   0.45389   0.45389
     Eigenvalues ---    0.45389   0.45389   0.45389   0.48080   1.27538
 RFO step:  Lambda=-2.18508014D-01 EMin= 2.37799045D-03
 Quartic linear search produced a step of  1.34191.
 Maximum step size (   0.505) exceeded in Quadratic search.
    -- Step size scaled by   0.803
 Iteration  1 RMS(Cart)=  0.19732836 RMS(Int)=  0.03828331
 Iteration  2 RMS(Cart)=  0.04329033 RMS(Int)=  0.01774134
 Iteration  3 RMS(Cart)=  0.04158514 RMS(Int)=  0.00018458
 Iteration  4 RMS(Cart)=  0.00000202 RMS(Int)=  0.00018458
 Iteration  5 RMS(Cart)=  0.00000000 RMS(Int)=  0.00018458
 Variable       Old X    -DE/DX   Delta X   Delta X   Delta X     New X
                                 (Linear)    (Quad)   (Total)
    R1        2.66191  -0.02734   0.01831  -0.07776  -0.05957   2.60234
    R2        2.65150  -0.04356   0.00434  -0.12072  -0.11614   2.53535
    R3        2.64089   0.00035  -0.00989   0.00287  -0.00735   2.63354
    R4        3.32385   0.00241  -0.00278   0.00855   0.00577   3.32962
    R5        2.62383   0.00165  -0.03278   0.01078  -0.02223   2.60161
    R6        2.03115   0.00622   0.01226   0.01831   0.03057   2.06172
    R7        2.63013   0.00008  -0.02433   0.00479  -0.01943   2.61070
    R8        2.03097   0.00508   0.01203   0.01482   0.02685   2.05781
    R9        2.64799  -0.00505  -0.00036  -0.01435  -0.01438   2.63361
   R10        3.32922   0.00387   0.00443   0.01368   0.01811   3.34732
   R11        3.38205   0.03131   0.07532   0.11061   0.18593   3.56797
   R12        2.64527  -0.01327  -0.00401  -0.03664  -0.04075   2.60452
   R13        2.62984  -0.03090  -0.02472  -0.08253  -0.10704   2.52280
   R14        2.64035  -0.00306  -0.01062  -0.00637  -0.01730   2.62305
   R15        2.01841   0.01179  -0.00482   0.03662   0.03179   2.05020
   R16        2.63188   0.00120  -0.02198   0.00779  -0.01441   2.61748
   R17        2.03081   0.00607   0.01182   0.01789   0.02971   2.06052
   R18        2.64126   0.00392  -0.00940   0.01297   0.00368   2.64494
   R19        3.32533  -0.00568  -0.00079  -0.02011  -0.02091   3.30442
   R20        2.64534  -0.00655  -0.00392  -0.01791  -0.02152   2.62382
   R21        3.33245   0.00107   0.00877   0.00377   0.01254   3.34499
   R22        3.37684   0.03543   0.06833   0.12521   0.19354   3.57039
   R23        3.37569   0.32755   0.28766   0.28949   0.57716   3.95284
    A1        2.05390   0.00640  -0.05434   0.01396  -0.04021   2.01369
    A2        2.11533  -0.00141   0.02809  -0.00495   0.02270   2.13803
    A3        2.13432  -0.00744   0.05357  -0.02605   0.02774   2.16205
    A4        2.03354   0.00885  -0.08166   0.03101  -0.05044   1.98310
    A5        2.10013  -0.00417   0.00770  -0.01100  -0.00386   2.09627
    A6        2.09187   0.00179  -0.00339   0.00416   0.00105   2.09292
    A7        2.09118   0.00238  -0.00431   0.00684   0.00281   2.09399
    A8        2.08369  -0.00155  -0.01436  -0.00042  -0.01491   2.06878
    A9        2.09953   0.00223   0.00689   0.00715   0.01411   2.11364
   A10        2.09996  -0.00068   0.00747  -0.00673   0.00080   2.10076
   A11        2.10346  -0.01365   0.01217  -0.05033  -0.03773   2.06573
   A12        2.07253  -0.00107  -0.02934  -0.00655  -0.03610   2.03644
   A13        2.10719   0.01472   0.01717   0.05688   0.07383   2.18102
   A14        2.10985   0.01438   0.02074   0.05274   0.07401   2.18387
   A15        2.12312  -0.03437   0.03855  -0.12964  -0.09136   2.03176
   A16        2.05021   0.01999  -0.05929   0.07690   0.01734   2.06756
   A17        2.06804   0.00890  -0.03537   0.02665  -0.00857   2.05947
   A18        2.11014  -0.00664   0.02113  -0.02619  -0.00548   2.10466
   A19        2.09499   0.00287   0.00080   0.01291   0.01392   2.10891
   A20        2.07805   0.00377  -0.02193   0.01329  -0.00844   2.06962
   A21        2.09606  -0.00130   0.00223  -0.00063   0.00107   2.09713
   A22        2.09529   0.00157   0.00119   0.00516   0.00662   2.10191
   A23        2.09184  -0.00028  -0.00342  -0.00453  -0.00769   2.08415
   A24        2.08672   0.00199  -0.01030   0.01243   0.00201   2.08873
   A25        2.08891  -0.00413  -0.00736  -0.01895  -0.02625   2.06266
   A26        2.10756   0.00214   0.01766   0.00652   0.02424   2.13180
   A27        2.09160  -0.01319  -0.00375  -0.04996  -0.05329   2.03831
   A28        2.08625   0.00449  -0.01092   0.01623   0.00510   2.09136
   A29        2.10533   0.00870   0.01467   0.03373   0.04819   2.15352
   A30        2.11382   0.01024   0.02606   0.03771   0.06426   2.17808
   A31        2.07958  -0.01947  -0.01988  -0.07488  -0.09500   1.98458
   A32        2.08979   0.00923  -0.00618   0.03717   0.03074   2.12053
   A33        2.19639  -0.04711   0.13687  -0.17662  -0.03975   2.15664
   A34        2.20414  -0.04704   0.14727  -0.17587  -0.02861   2.17553
    D1        0.00000  -0.00000   0.00000  -0.00000  -0.00000   0.00000
    D2        3.14159   0.00000   0.00000   0.00000   0.00000   3.14159
    D3       -0.00000   0.00000  -0.00000   0.00000  -0.00000  -0.00000
    D4        3.14159  -0.00000   0.00000  -0.00000   0.00000  -3.14159
    D5        0.00000  -0.00000   0.00000  -0.00000  -0.00000   0.00000
    D6        3.14159   0.00000  -0.00000   0.00000   0.00000   3.14159
    D7       -3.14159  -0.00000  -0.00000  -0.00000  -0.00000  -3.14159
    D8        0.00000  -0.00000  -0.00000  -0.00000  -0.00000   0.00000
    D9       -0.00000   0.00000   0.00000   0.00000   0.00000  -0.00000
   D10        3.14159   0.00000   0.00000   0.00000   0.00000   3.14159
   D11        3.14159   0.00000   0.00000   0.00000   0.00000   3.14159
   D12        0.00000  -0.00000   0.00000  -0.00000  -0.00000   0.00000
   D13        0.00000  -0.00000  -0.00000  -0.00000  -0.00000   0.00000
   D14       -3.14159  -0.00000  -0.00000  -0.00000  -0.00000  -3.14159
   D15       -3.14159  -0.00000  -0.00000  -0.00000  -0.00000   3.14159
   D16        0.00000  -0.00000  -0.00000  -0.00000  -0.00000   0.00000
   D17       -0.00000   0.00000   0.00000   0.00000   0.00000   0.00000
   D18        3.14159   0.00000  -0.00000   0.00000   0.00000   3.14159
   D19        3.14159   0.00000   0.00000   0.00000   0.00000   3.14159
   D20       -0.00000   0.00000  -0.00000   0.00000  -0.00000  -0.00000
   D21        0.00001   0.00000  -0.00000   0.00000  -0.00000   0.00001
   D22       -3.14159   0.00000  -0.00000   0.00000   0.00000  -3.14159
   D23        0.00000   0.00000   0.00000   0.00000   0.00000   0.00000
   D24       -3.14159  -0.00000  -0.00000  -0.00000  -0.00000  -3.14159
   D25       -0.00000  -0.00000  -0.00000  -0.00000  -0.00000  -0.00000
   D26        3.14159  -0.00000   0.00000   0.00000   0.00000   3.14159
   D27       -0.00000  -0.00000  -0.00000  -0.00000  -0.00000  -0.00000
   D28        3.14159  -0.00000  -0.00000  -0.00000  -0.00000   3.14159
   D29        3.14159   0.00000   0.00000   0.00000   0.00000   3.14159
   D30       -0.00000   0.00000   0.00000   0.00000   0.00000  -0.00000
   D31       -0.00000   0.00000   0.00000   0.00000   0.00000   0.00000
   D32       -3.14159  -0.00000  -0.00000  -0.00000  -0.00000  -3.14159
   D33        3.14159   0.00000   0.00000   0.00000   0.00000  -3.14159
   D34        0.00000  -0.00000  -0.00000  -0.00000  -0.00000   0.00000
   D35       -0.00000   0.00000  -0.00000  -0.00000  -0.00000  -0.00000
   D36       -3.14159  -0.00000  -0.00000  -0.00000  -0.00000  -3.14159
   D37        3.14159   0.00000   0.00000   0.00000   0.00000   3.14159
   D38        0.00000  -0.00000  -0.00000  -0.00000  -0.00000   0.00000
   D39        0.00000  -0.00000   0.00000   0.00000   0.00000   0.00000
   D40       -3.14159  -0.00000  -0.00000  -0.00000  -0.00000   3.14159
   D41        3.14159   0.00000   0.00000   0.00000   0.00000   3.14159
   D42       -0.00000   0.00000  -0.00000   0.00000  -0.00000  -0.00000
   D43        0.00001   0.00000  -0.00000   0.00000  -0.00000   0.00001
   D44       -3.14159   0.00000  -0.00000   0.00000   0.00000  -3.14159
   D45       -0.00001   0.00000  -0.00001  -0.00000  -0.00001  -0.00002
         Item               Value     Threshold  Converged?
 Maximum Force            0.327549     0.000450     NO 
 RMS     Force            0.034519     0.000300     NO 
 Maximum Displacement     0.631578     0.001800     NO 
 RMS     Displacement     0.191810     0.001200     NO 
 Predicted change in Energy=-1.015074D-01
 GradGradGradGradGradGradGradGradGradGradGradGradGradGradGradGradGradGrad

                          Input orientation:                          
 ---------------------------------------------------------------------
 Center     Atomic      Atomic             Coordinates (Angstroms)
 Number     Number       Type             X           Y           Z
 ---------------------------------------------------------------------
      1          6           0        0.364743    1.103686   -0.034798
      2          6           0        1.674093    1.228778   -0.442673
      3          6           0        2.347343    2.448955   -0.435325
      4          6           0        1.704862    3.589643   -0.009436
      5          6           0        0.390664    3.491120    0.405024
      6          6           0       -0.221855    2.239733    0.371806
      7          6           0       -1.157573   -1.292193    0.016748
      8          6           0       -0.561810   -2.463262   -0.399475
      9          6           0       -1.269171   -3.657528   -0.390719
     10          6           0       -2.585919   -3.683215    0.038282
     11          6           0       -3.199608   -2.499107    0.462860
     12          6           0       -2.427473   -1.345756    0.425079
     13          1           0        3.385247    2.499727   -0.767729
     14          1           0        2.215352    4.551440    0.003010
     15          1           0        0.468070   -2.472523   -0.740524
     16          1           0       -0.795300   -4.582503   -0.720564
     17         17           0       -3.122069    0.325385    0.967782
     18         17           0       -2.017883    2.101702    0.937588
     19         17           0       -4.882162   -2.527361    1.011902
     20         17           0       -0.388057    4.988457    0.942774
     21         17           0       -3.428086   -5.215644    0.027944
     22         17           0        2.656063   -0.115986   -1.018731
[...]
                 (A) (A) (A) (A) (A) (A) (A) (A) (A) (A) (A) (A)
                 (A) (A) (A) (A) (A) (A) (A) (A) (A) (A) (A) (A)
                 (A) (A) (A) (A) (A) (A) (A) (A) (A) (A) (A) (A)
                 (A) (A) (A) (A) (A) (A) (A) (A) (A) (A) (A) (A)
                 (A) (A) (A) (A) (A) (A) (A) (A) (A) (A) (A) (A)
                 (A) (A) (A) (A) (A) (A) (A) (A) (A) (A) (A) (A)
                 (A) (A) (A) (A) (A) (A) (A) (A) (A) (A) (A) (A)
                 (A) (A) (A) (A) (A) (A) (A) (A) (A) (A) (A) (A)
                 (A) (A) (A) (A) (A) (A) (A) (A) (A) (A) (A) (A)
                 (A) (A) (A) (A) (A) (A) (A) (A) (A) (A) (A) (A)
                 (A) (A) (A) (A) (A) (A) (A) (A) (A) (A) (A) (A)
                 (A) (A) (A) (A) (A) (A) (A) (A) (A) (A) (A) (A)
                 (A) (A) (A) (A) (A) (A) (A) (A) (A) (A) (A) (A)
                 (A) (A) (A) (A) (A) (A) (A) (A) (A) (A) (A) (A)
                 (A) (A) (A) (A) (A) (A) (A) (A) (A) (A) (A) (A)
                 (A) (A) (A) (A) (A) (A) (A) (A) (A) (A) (A) (A)
                 (A) (A) (A) (A) (A) (A) (A) (A) (A) (A) (A) (A)
                 (A) (A) (A) (A) (A) (A) (A) (A) (A) (A) (A) (A)
                 (A) (A) (A) (A) (A) (A) (A) (A) (A) (A) (A) (A)
                 (A) (A) (A) (A) (A) (A) (A) (A) (A) (A) (A) (A)
                 (A) (A) (A) (A) (A) (A) (A) (A) (A) (A) (A) (A)
                 (A) (A) (A) (A) (A) (A) (A) (A) (A) (A) (A) (A)
                 (A) (A) (A) (A) (A) (A) (A) (A) (A) (A) (A) (A)
                 (A) (A) (A) (A) (A) (A) (A) (A) (A) (A) (A) (A)
                 (A) (A) (A) (A) (A) (A) (A) (A) (A) (A) (A) (A)
                 (A) (A) (A) (A) (A) (A) (A) (A) (A) (A) (A) (A)
                 (A) (A)
 The electronic state is 1-A.
 Alpha  occ. eigenvalues -- -101.57599-101.57514-101.57401-101.57399-101.57351
 Alpha  occ. eigenvalues -- -101.57339 -10.27607 -10.27367 -10.27283 -10.27025
 Alpha  occ. eigenvalues --  -10.27021 -10.26948 -10.23833 -10.23014 -10.22006
 Alpha  occ. eigenvalues --  -10.21694 -10.21369 -10.21308  -9.49073  -9.48972
 Alpha  occ. eigenvalues --   -9.48868  -9.48866  -9.48829  -9.48798  -7.25559
 Alpha  occ. eigenvalues --   -7.25459  -7.25366  -7.25340  -7.25313  -7.25284
 Alpha  occ. eigenvalues --   -7.24557  -7.24482  -7.24451  -7.24394  -7.24349
 Alpha  occ. eigenvalues --   -7.24348  -7.24310  -7.24300  -7.24279  -7.24265
 Alpha  occ. eigenvalues --   -7.24241  -7.24217  -0.95505  -0.94303  -0.90724
 Alpha  occ. eigenvalues --   -0.89828  -0.88358  -0.87290  -0.85229  -0.84382
 Alpha  occ. eigenvalues --   -0.80042  -0.76033  -0.75309  -0.74235  -0.66632
 Alpha  occ. eigenvalues --   -0.63956  -0.63046  -0.61556  -0.55229  -0.53398
 Alpha  occ. eigenvalues --   -0.53225  -0.52668  -0.49558  -0.48196  -0.46629
 Alpha  occ. eigenvalues --   -0.46472  -0.46392  -0.44882  -0.44738  -0.43032
 Alpha  occ. eigenvalues --   -0.41496  -0.41069  -0.40409  -0.39492  -0.38290
 Alpha  occ. eigenvalues --   -0.36724  -0.36263  -0.35119  -0.34834  -0.34303
 Alpha  occ. eigenvalues --   -0.33899  -0.33525  -0.33463  -0.32573  -0.31729
 Alpha  occ. eigenvalues --   -0.28495  -0.27194  -0.26989  -0.26540
 Alpha virt. eigenvalues --   -0.05804  -0.05659  -0.05393  -0.04714  -0.03898
 Alpha virt. eigenvalues --   -0.02781  -0.00689  -0.00021   0.00856   0.01458
 Alpha virt. eigenvalues --    0.02008   0.02444   0.02475   0.02605   0.03192
 Alpha virt. eigenvalues --    0.04532   0.05095   0.05294   0.05544   0.06003
 Alpha virt. eigenvalues --    0.06156   0.06536   0.06938   0.07575   0.07923
 Alpha virt. eigenvalues --    0.08273   0.08666   0.09127   0.09220   0.09717
 Alpha virt. eigenvalues --    0.09983   0.10625   0.11178   0.11447   0.11788
 Alpha virt. eigenvalues --    0.12023   0.12364   0.12622   0.12845   0.13129
 Alpha virt. eigenvalues --    0.14058   0.14172   0.14484   0.14963   0.15371
 Alpha virt. eigenvalues --    0.15590   0.15986   0.16451   0.16751   0.17044
 Alpha virt. eigenvalues --    0.17340   0.17629   0.17700   0.18268   0.18832
 Alpha virt. eigenvalues --    0.19015   0.19160   0.19844   0.20374   0.20771
 Alpha virt. eigenvalues --    0.20823   0.21249   0.21632   0.21972   0.22255
 Alpha virt. eigenvalues --    0.22537   0.23195   0.23544   0.23675   0.23820
 Alpha virt. eigenvalues --    0.24271   0.24833   0.25174   0.25696   0.26164
 Alpha virt. eigenvalues --    0.26403   0.27013   0.27413   0.27630   0.27707
 Alpha virt. eigenvalues --    0.28600   0.28943   0.29310   0.29907   0.30073
 Alpha virt. eigenvalues --    0.30502   0.31095   0.31917   0.32282   0.32645
 Alpha virt. eigenvalues --    0.33972   0.35703   0.40543   0.41139   0.41612
 Alpha virt. eigenvalues --    0.43107   0.43618   0.44508   0.45304   0.45528
 Alpha virt. eigenvalues --    0.45798   0.45914   0.46434   0.47006   0.47450
 Alpha virt. eigenvalues --    0.48018   0.48293   0.48933   0.49286   0.50821
 Alpha virt. eigenvalues --    0.50900   0.51217   0.51656   0.52130   0.53644
 Alpha virt. eigenvalues --    0.54326   0.56395   0.56810   0.57225   0.57785
 Alpha virt. eigenvalues --    0.58021   0.58982   0.59783   0.59827   0.60465
 Alpha virt. eigenvalues --    0.60858   0.62202   0.62748   0.63307   0.63856
 Alpha virt. eigenvalues --    0.63970   0.64961   0.65879   0.66155   0.67240
 Alpha virt. eigenvalues --    0.67837   0.68327   0.69064   0.69432   0.69862
 Alpha virt. eigenvalues --    0.71324   0.72658   0.75354   0.77747   0.78262
 Alpha virt. eigenvalues --    0.79927   0.80926   0.81185   0.82249   0.82718
 Alpha virt. eigenvalues --    0.83034   0.83829   0.84114   0.84271   0.84307
 Alpha virt. eigenvalues --    0.84750   0.84978   0.85318   0.85624   0.86329
 Alpha virt. eigenvalues --    0.86744   0.87368   0.88008   0.88632   0.88957
 Alpha virt. eigenvalues --    0.89185   0.89659   0.89933   0.90709   0.91843
 Alpha virt. eigenvalues --    0.93358   0.94236   0.94463   0.94533   0.95073
 Alpha virt. eigenvalues --    0.95572   0.95943   0.96452   0.96616   0.96911
 Alpha virt. eigenvalues --    0.98541   0.98750   1.00329   1.00675   1.01090
 Alpha virt. eigenvalues --    1.02276   1.04007   1.04857   1.05538   1.06714
 Alpha virt. eigenvalues --    1.08559   1.11078   1.13930   1.17150   1.19448
 Alpha virt. eigenvalues --    1.21038   1.21660   1.22555   1.22900   1.24262
 Alpha virt. eigenvalues --    1.25814   1.26449   1.27402   1.27851   1.29276
 Alpha virt. eigenvalues --    1.30005   1.30797   1.31471   1.34144   1.34981
 Alpha virt. eigenvalues --    1.36278   1.37744   1.41980   1.42604   1.46334
 Alpha virt. eigenvalues --    1.47895   1.48108   1.48986   1.53165   1.55934
 Alpha virt. eigenvalues --    1.56719   1.57515   1.60645   1.61761   1.62888
 Alpha virt. eigenvalues --    1.65982   1.66969   1.68354   1.68818   1.71791
 Alpha virt. eigenvalues --    1.73389   1.76049   1.79044   1.79403   1.80743
 Alpha virt. eigenvalues --    1.82671   1.83864   1.84913   1.85430   1.86432
 Alpha virt. eigenvalues --    1.87315   1.92495   1.92551   1.93217   1.93675
 Alpha virt. eigenvalues --    1.96365   1.96890   1.99175   2.00406   2.02670
 Alpha virt. eigenvalues --    2.07927   2.10834   2.12829   2.12865   2.17940
 Alpha virt. eigenvalues --    2.19235   2.23473   2.24317   2.24913   2.25337
 Alpha virt. eigenvalues --    2.26343   2.26528   2.28976   2.30067   2.31584
 Alpha virt. eigenvalues --    2.32372   2.34704   2.34964   2.35694   2.38589
 Alpha virt. eigenvalues --    2.40234   2.41998   2.42296   2.45106   2.45671
 Alpha virt. eigenvalues --    2.46755   2.49118   2.50662   2.52265   2.53889
 Alpha virt. eigenvalues --    2.54308   2.55333   2.58629   2.62665   2.63197
 Alpha virt. eigenvalues --    2.65792   2.66113   2.67830   2.69458   2.69918
 Alpha virt. eigenvalues --    2.70297   2.73018   2.74623   2.75179   2.76348
 Alpha virt. eigenvalues --    2.77042   2.78972   2.82072   2.82629   2.83736
 Alpha virt. eigenvalues --    2.86374   2.89627   2.96407   2.97586   3.07942
 Alpha virt. eigenvalues --    3.09059   3.09859   3.12159   3.12263   3.12743
 Alpha virt. eigenvalues --    3.17168   3.19936   3.21514   3.24579   3.27466
 Alpha virt. eigenvalues --    3.35835   3.37092   3.41406   3.43630   3.55771
 Alpha virt. eigenvalues --    3.62780   3.67286   3.69684   3.81631   3.84551
 Alpha virt. eigenvalues --    3.97870   4.02221   4.04229   4.07322   4.32481
 Alpha virt. eigenvalues --    4.80545   4.81095   9.76085   9.77531   9.79975
 Alpha virt. eigenvalues --    9.80512   9.83813   9.85146  23.34621  23.49515
 Alpha virt. eigenvalues --   23.82099  23.84374  23.87220  23.89584  23.94452
 Alpha virt. eigenvalues --   23.96099  23.97973  24.06834  24.11920  24.14367
 Alpha virt. eigenvalues --   25.77922  25.79671  25.82842  25.88276  25.94262
 Alpha virt. eigenvalues --   25.98630  26.09710  26.14243  26.15716  26.21247
 Alpha virt. eigenvalues --   26.30808  26.35198  26.51271  26.56728  26.65703
 Alpha virt. eigenvalues --   26.68995  26.85478  27.03519 215.75231 215.76860
 Alpha virt. eigenvalues --  215.79619 215.80325 215.84785 215.85740
          Condensed to atoms (all electrons):
               1          2          3          4          5          6
     1  C   20.829417  -5.504653  -5.637352  -1.198783  -6.364871   2.240746
     2  C   -5.504653  25.472879  -4.123960  -0.228939   3.962213  -4.740372
     3  C   -5.637352  -4.123960  16.775518   3.258376  -0.491333   3.230171
     4  C   -1.198783  -0.228939   3.258376  16.263215  -2.869181  -8.094786
     5  C   -6.364871   3.962213  -0.491333  -2.869181  20.815227  -3.147985
     6  C    2.240746  -4.740372   3.230171  -8.094786  -3.147985  25.772130
     7  C    6.178224  -2.598309  -4.645788  -1.085964  -4.118456  -1.836202
     8  C   -1.184866  -1.083024  -0.136612  -0.035535  -0.213350  -1.185769
     9  C    1.140688   0.372038   0.079214  -0.087063   0.351554   0.242100
    10  C   -0.752093   0.044337   0.050579   0.010922  -0.042770  -0.027176
    11  C   -3.578767  -1.538867  -0.269773   0.028857  -0.427092  -1.527524
    12  C    0.525298  -3.471628  -1.329560   0.394597  -2.479319  -1.716888
    13  H    0.057148   0.055568   0.309892  -0.030456  -0.033311  -0.014784
    14  H    0.037791   0.012398  -0.091561   0.330049  -0.000016   0.052176
    15  H    0.046883   0.074663   0.027255   0.001968   0.016914   0.081020
    16  H   -0.006498   0.001692   0.000352   0.000113  -0.000500   0.001557
    17  Cl   0.029863   0.356358  -0.145375  -0.202796   0.249234   0.118295
    18  Cl  -0.114564  -0.542874   0.364319   0.800435  -0.160338  -2.210803
    19  Cl  -0.150828  -0.073342  -0.007845   0.001382  -0.009320  -0.072046
    20  Cl  -0.673151   0.098848   0.130409  -0.463115  -0.395336   0.985718
    21  Cl  -0.021478  -0.038318  -0.004879  -0.001291   0.000223  -0.035132
    22  Cl   0.149410  -0.379251  -1.011431  -0.224968   0.186539  -0.699366
               7          8          9         10         11         12
     1  C    6.178224  -1.184866   1.140688  -0.752093  -3.578767   0.525298
     2  C   -2.598309  -1.083024   0.372038   0.044337  -1.538867  -3.471628
     3  C   -4.645788  -0.136612   0.079214   0.050579  -0.269773  -1.329560
     4  C   -1.085964  -0.035535  -0.087063   0.010922   0.028857   0.394597
     5  C   -4.118456  -0.213350   0.351554  -0.042770  -0.427092  -2.479319
     6  C   -1.836202  -1.185769   0.242100  -0.027176  -1.527524  -1.716888
     7  C   20.251822  -4.389257  -1.726735   0.679656  -2.555430   2.431973
     8  C   -4.389257  18.592191  -0.570055  -0.522827   1.305891  -5.396554
     9  C   -1.726735  -0.570055  17.186851  -3.968993  -7.236361   0.510685
    10  C    0.679656  -0.522827  -3.968993  15.985033  -0.338279  -4.271224
    11  C   -2.555430   1.305891  -7.236361  -0.338279  20.527411   0.906997
    12  C    2.431973  -5.396554   0.510685  -4.271224   0.906997  23.297804
    13  H    0.011856  -0.002555  -0.000476   0.000007  -0.000131   0.003488
    14  H    0.008081  -0.000636  -0.000183   0.000032   0.000137   0.001547
    15  H   -0.013669   0.318187  -0.056611  -0.023650  -0.054230  -0.051845
    16  H    0.027541  -0.038343   0.315738   0.039334   0.004323   0.005555
    17  Cl  -0.126146   0.116038   0.378414  -0.139281  -0.040642  -2.178299
    18  Cl  -0.016495   0.264572   0.088383  -0.018845   0.074172   0.024257
    19  Cl  -0.632743   0.281245   0.122458  -0.482567  -0.378557   0.785667
    20  Cl  -0.156900  -0.001059   0.008242  -0.000591  -0.009019  -0.088143
    21  Cl  -0.232685   0.089782  -0.203042  -0.529087   0.689119  -0.384797
    22  Cl   0.524044   0.210641   0.120496   0.007270  -0.000453   0.022747
              13         14         15         16         17         18
     1  C    0.057148   0.037791   0.046883  -0.006498   0.029863  -0.114564
     2  C    0.055568   0.012398   0.074663   0.001692   0.356358  -0.542874
     3  C    0.309892  -0.091561   0.027255   0.000352  -0.145375   0.364319
     4  C   -0.030456   0.330049   0.001968   0.000113  -0.202796   0.800435
     5  C   -0.033311  -0.000016   0.016914  -0.000500   0.249234  -0.160338
     6  C   -0.014784   0.052176   0.081020   0.001557   0.118295  -2.210803
     7  C    0.011856   0.008081  -0.013669   0.027541  -0.126146  -0.016495
     8  C   -0.002555  -0.000636   0.318187  -0.038343   0.116038   0.264572
     9  C   -0.000476  -0.000183  -0.056611   0.315738   0.378414   0.088383
    10  C    0.000007   0.000032  -0.023650   0.039334  -0.139281  -0.018845
    11  C   -0.000131   0.000137  -0.054230   0.004323  -0.040642   0.074172
    12  C    0.003488   0.001547  -0.051845   0.005555  -2.178299   0.024257
    13  H    0.503638  -0.007515   0.000002   0.000000  -0.001017   0.000723
    14  H   -0.007515   0.501387  -0.000004  -0.000000  -0.000412  -0.001387
    15  H    0.000002  -0.000004   0.529029  -0.006876  -0.001634  -0.011645
    16  H    0.000000  -0.000000  -0.006876   0.505685   0.001485  -0.000864
    17  Cl  -0.001017  -0.000412  -0.001634   0.001485  18.186195   0.101831
    18  Cl   0.000723  -0.001387  -0.011645  -0.000864   0.101831  18.151318
    19  Cl  -0.000002   0.000000  -0.000055  -0.000678  -0.279783   0.001717
    20  Cl  -0.000357  -0.002067   0.000606  -0.000002   0.004165  -0.249136
    21  Cl  -0.000001   0.000000  -0.001911  -0.006734  -0.021662   0.007648
    22  Cl  -0.008473   0.000815  -0.010031  -0.000928   0.109652  -0.086261
              19         20         21         22
     1  C   -0.150828  -0.673151  -0.021478   0.149410
     2  C   -0.073342   0.098848  -0.038318  -0.379251
     3  C   -0.007845   0.130409  -0.004879  -1.011431
     4  C    0.001382  -0.463115  -0.001291  -0.224968
     5  C   -0.009320  -0.395336   0.000223   0.186539
     6  C   -0.072046   0.985718  -0.035132  -0.699366
     7  C   -0.632743  -0.156900  -0.232685   0.524044
     8  C    0.281245  -0.001059   0.089782   0.210641
     9  C    0.122458   0.008242  -0.203042   0.120496
    10  C   -0.482567  -0.000591  -0.529087   0.007270
    11  C   -0.378557  -0.009019   0.689119  -0.000453
    12  C    0.785667  -0.088143  -0.384797   0.022747
    13  H   -0.000002  -0.000357  -0.000001  -0.008473
    14  H    0.000000  -0.002067   0.000000   0.000815
    15  H   -0.000055   0.000606  -0.001911  -0.010031
    16  H   -0.000678  -0.000002  -0.006734  -0.000928
    17  Cl  -0.279783   0.004165  -0.021662   0.109652
    18  Cl   0.001717  -0.249136   0.007648  -0.086261
    19  Cl  17.439624  -0.000111  -0.141544  -0.001549
    20  Cl  -0.000111  17.344102   0.000034  -0.008862
    21  Cl  -0.141544   0.000034  17.323969   0.008361
    22  Cl  -0.001549  -0.008862   0.008361  17.694522
 Mulliken charges:
               1
     1  C   -0.047564
     2  C   -0.127455
     3  C   -0.330616
     4  C   -0.567036
     5  C    1.171273
     6  C   -1.415080
     7  C    0.021581
     8  C   -0.418103
     9  C   -1.067342
    10  C    0.300213
    11  C    0.418217
    12  C   -1.542358
    13  H    0.156757
    14  H    0.159368
    15  H    0.135636
    16  H    0.158048
    17  Cl   0.485519
    18  Cl   0.533835
    19  Cl   0.598880
    20  Cl   0.475726
    21  Cl   0.503424
    22  Cl   0.397077
 Sum of Mulliken charges =  -0.00000
 Mulliken charges with hydrogens summed into heavy atoms:
               1
     1  C   -0.047564
     2  C   -0.127455
     3  C   -0.173859
     4  C   -0.407667
     5  C    1.171273
     6  C   -1.415080
     7  C    0.021581
     8  C   -0.282467
     9  C   -0.909294
    10  C    0.300213
    11  C    0.418217
    12  C   -1.542358
    17  Cl   0.485519
    18  Cl   0.533835
    19  Cl   0.598880
    20  Cl   0.475726
    21  Cl   0.503424
    22  Cl   0.397077
 Electronic spatial extent (au):  <R**2>=           7667.2203
 Charge=              0.0000 electrons
 Dipole moment (field-independent basis, Debye):
    X=              1.9459    Y=              1.3920    Z=              1.7554  Tot=              2.9674
 Quadrupole moment (field-independent basis, Debye-Ang):
   XX=           -141.8765   YY=           -145.5138   ZZ=           -140.7518
   XY=              6.9486   XZ=             -2.8493   YZ=             -0.1025
 Traceless Quadrupole moment (field-independent basis, Debye-Ang):
   XX=              0.8376   YY=             -2.7998   ZZ=              1.9623
   XY=              6.9486   XZ=             -2.8493   YZ=             -0.1025
 Octapole moment (field-independent basis, Debye-Ang**2):
  XXX=             38.5574  YYY=             -8.4687  ZZZ=              0.4220  XYY=              6.9847
  XXY=             28.9054  XXZ=             -7.0758  XZZ=            -15.9735  YZZ=             -4.5969
  YYZ=             -7.5348  XYZ=             -0.9196
 Hexadecapole moment (field-independent basis, Debye-Ang**3):
 XXXX=          -6847.5948 YYYY=          -1815.0990 ZZZZ=          -1162.3354 XXXY=            100.0082
 XXXZ=              0.7597 YYYX=            -15.3108 YYYZ=             -5.8215 ZZZX=             -6.5041
 ZZZY=              0.4547 XXYY=          -1429.8111 XXZZ=          -1371.4957 YYZZ=           -537.3247
 XXYZ=             -1.6464 YYXZ=              1.5799 ZZXY=             -7.9580
 N-N= 2.067230375275D+03 E-N=-1.176379747044D+04  KE= 3.212691223808D+03
 1\1\GINC-CN320\FOpt\RB3LYP\6-311+G(d,p)\C12H4Cl6\20CY91R06\03-Apr-2022
 \0\\# opt b3lyp/6-311+g(d,p) scf=xqc\\Title Card Required\\0,1\C,-0.05
 43747906,0.5901094992,0.0670440787\C,1.2666220483,0.5821250504,0.52938
 27728\C,2.0263668602,1.7449436318,0.5969023102\C,1.4686105696,2.949837
 3204,0.1958382672\C,0.1582717516,2.9954752305,-0.2709683772\C,-0.59982
 41066,1.8217581145,-0.3359036061\C,-0.8501615603,-0.6692129289,-0.0247
 528555\C,-0.8054208754,-1.4297538494,-1.1935710701\C,-1.5276402362,-2.
 607653004,-1.3097656677\C,-2.3120820586,-3.0464616427,-0.2481686078\C,
 -2.3790924439,-2.3072672721,0.939345106\C,-1.6412421587,-1.1169410811,
 1.0389980299\H,3.0442976128,1.7052861346,0.9609393343\H,2.0470389014,3
 .8632812415,0.2428323998\H,-0.1951733484,-1.0901977744,-2.0214413749\H
 ,-1.4894080066,-3.1933403174,-2.2185563953\Cl,-1.7041240397,-0.1732137
 147,2.5044984432\Cl,-2.2438969721,1.8710481609,-0.9157181471\Cl,-3.357
 5590924,-2.8546746172,2.2658847594\Cl,-0.4988396029,4.5345656827,-0.76
 69741641\Cl,-3.2059957489,-4.534245223,-0.4335325711\Cl,2.0030999676,-
 0.9219213919,1.0485112653\\Version=EM64L-G16RevB.01\State=1-A\HF=-3221
 .1302775\RMSD=2.770e-09\RMSF=1.948e-05\Dipole=0.9785453,0.3155977,-0.5
 530167\Quadrupole=1.9690509,-2.1955995,0.2265486,3.7762181,0.1887371,3
 .9920628\PG=C01 [X(C12H4Cl6)]\\@


 THERE IS MUCH PLEASURE TO BE GAINED FROM USELESS KNOWLEDGE

                                       -- BERTRAND RUSSELL
 Job cpu time:       1 days 10 hours 37 minutes 21.7 seconds.
 Elapsed time:       0 days  3 hours 28 minutes 18.4 seconds.
 File lengths (MBytes):  RWF=    147 Int=      0 D2E=      0 Chk=     22 Scr=      1
 Normal termination of Gaussian 16 at Sun Apr  3 04:07:26 2022.
