 Entering Gaussian System, Link 0=g16
 Input=2,2prime,5,6prime-Tetrachlorobiphenyl.gjf
 Output=2,2prime,5,6prime-Tetrachlorobiphenyl.log
 Initial command:
 /home/apps/g16/l1.exe "./Gau-293083.inp" -scrdir="./"
 Entering Link 1 = /home/apps/g16/l1.exe PID=    293084.
  
 Copyright (c) 1988-2017, Gaussian, Inc.  All Rights Reserved.
  
 This is part of the Gaussian(R) 16 program.  It is based on
 the Gaussian(R) 09 system (copyright 2009, Gaussian, Inc.),
 the Gaussian(R) 03 system (copyright 2003, Gaussian, Inc.),
 the Gaussian(R) 98 system (copyright 1998, Gaussian, Inc.),
 the Gaussian(R) 94 system (copyright 1995, Gaussian, Inc.),
 the Gaussian 92(TM) system (copyright 1992, Gaussian, Inc.),
 the Gaussian 90(TM) system (copyright 1990, Gaussian, Inc.),
 the Gaussian 88(TM) system (copyright 1988, Gaussian, Inc.),
 the Gaussian 86(TM) system (copyright 1986, Carnegie Mellon
 University), and the Gaussian 82(TM) system (copyright 1983,
 Carnegie Mellon University). Gaussian is a federally registered
 trademark of Gaussian, Inc.
  
 This software contains proprietary and confidential information,
 including trade secrets, belonging to Gaussian, Inc.
  
 This software is provided under written license and may be
 used, copied, transmitted, or stored only in accord with that
 written license.
  
 The following legend is applicable only to US Government
 contracts under FAR:
  
                    RESTRICTED RIGHTS LEGEND
  
 Use, reproduction and disclosure by the US Government is
 subject to restrictions as set forth in subparagraphs (a)
 and (c) of the Commercial Computer Software - Restricted
 Rights clause in FAR 52.227-19.
  
 Gaussian, Inc.
 340 Quinnipiac St., Bldg. 40, Wallingford CT 06492
  
  
 ---------------------------------------------------------------
 Warning -- This program may not be used in any manner that
 competes with the business of Gaussian, Inc. or will provide
 assistance to any competitor of Gaussian, Inc.  The licensee
 of this program is prohibited from giving any competitor of
 Gaussian, Inc. access to this program.  By using this program,
 the user acknowledges that Gaussian, Inc. is engaged in the
 business of creating and licensing software in the field of
 computational chemistry and represents and warrants to the
 licensee that it is not a competitor of Gaussian, Inc. and that
 it will not use this program in any manner prohibited above.
 ---------------------------------------------------------------
  

 Cite this work as:
 Gaussian 16, Revision B.01,
 M. J. Frisch, G. W. Trucks, H. B. Schlegel, G. E. Scuseria, 
 M. A. Robb, J. R. Cheeseman, G. Scalmani, V. Barone, 
 G. A. Petersson, H. Nakatsuji, X. Li, M. Caricato, A. V. Marenich, 
 J. Bloino, B. G. Janesko, R. Gomperts, B. Mennucci, H. P. Hratchian, 
 J. V. Ortiz, A. F. Izmaylov, J. L. Sonnenberg, D. Williams-Young, 
 F. Ding, F. Lipparini, F. Egidi, J. Goings, B. Peng, A. Petrone, 
 T. Henderson, D. Ranasinghe, V. G. Zakrzewski, J. Gao, N. Rega, 
 G. Zheng, W. Liang, M. Hada, M. Ehara, K. Toyota, R. Fukuda, 
 J. Hasegawa, M. Ishida, T. Nakajima, Y. Honda, O. Kitao, H. Nakai, 
 T. Vreven, K. Throssell, J. A. Montgomery, Jr., J. E. Peralta, 
 F. Ogliaro, M. J. Bearpark, J. J. Heyd, E. N. Brothers, K. N. Kudin, 
 V. N. Staroverov, T. A. Keith, R. Kobayashi, J. Normand, 
 K. Raghavachari, A. P. Rendell, J. C. Burant, S. S. Iyengar, 
 J. Tomasi, M. Cossi, J. M. Millam, M. Klene, C. Adamo, R. Cammi, 
 J. W. Ochterski, R. L. Martin, K. Morokuma, O. Farkas, 
 J. B. Foresman, and D. J. Fox, Gaussian, Inc., Wallingford CT, 2016.
 
 ******************************************
 Gaussian 16:  EM64L-G16RevB.01 20-Dec-2017
                 1-Apr-2022 
 ******************************************
 %mem=16GB
 %nprocshared=8
 Will use up to    8 processors via shared memory.
 --------------------------------
 # opt b3lyp/6-311+g(d,p) scf=xqc
 --------------------------------
 1/18=20,19=15,26=3,38=1/1,3;
 2/9=110,12=2,17=6,18=5,40=1/2;
 3/5=4,6=6,7=111,11=2,25=1,30=1,71=1,74=-5/1,2,3;
 4//1;
 5/5=2,8=3,13=1,38=5/2,8;
 6/7=2,8=2,9=2,10=2,28=1/1;
 7//1,2,3,16;
 1/18=20,19=15,26=3/3(2);
 2/9=110/2;
 99//99;
 2/9=110/2;
 3/5=4,6=6,7=111,11=2,25=1,30=1,71=1,74=-5/1,2,3;
 4/5=5,16=3,69=1/1;
 5/5=2,8=3,13=1,38=5/2,8;
 7//1,2,3,16;
 1/18=20,19=15,26=3/3(-5);
 2/9=110/2;
 6/7=2,8=2,9=2,10=2,19=2,28=1/1;
 99/9=1/99;
 -------------------
 Title Card Required
 -------------------
 Symbolic Z-matrix:
 Charge =  0 Multiplicity = 1
 C                    -0.3134    0.43745  -0.00381 
 C                     1.01898   0.46733  -0.43715 
 C                     1.72687   1.67679  -0.44322 
 C                     1.10238   2.85635  -0.01595 
 C                    -0.23      2.82647   0.4174 
 C                    -0.93789   1.61701   0.42347 
 C                    -1.31377  -1.2717    0.00478 
 C                    -0.68928  -2.45126  -0.4225 
 C                    -1.39717  -3.66071  -0.41642 
 C                    -2.72955  -3.6906    0.01693 
 C                    -3.35404  -2.51103   0.4442 
 C                    -2.64615  -1.30158   0.43813 
 H                     2.74417   1.6996   -0.77409 
 H                     1.64288   3.77979  -0.02059 
 H                    -0.70681   3.72709   0.74363 
 H                     0.32802  -2.42844  -0.75337 
 H                    -3.27005  -4.61404   0.02157 
 H                    -4.37134  -2.53385   0.77508 
 Cl                   -3.43043   0.17982   0.97474 
 Cl                   -2.61121   1.57948   0.9677 
 Cl                   -0.61289  -5.14211  -0.95303 
 Cl                    1.80326  -1.01407  -0.97376 
 

 GradGradGradGradGradGradGradGradGradGradGradGradGradGradGradGradGradGrad
 Berny optimization.
 Initialization pass.
                           ----------------------------
                           !    Initial Parameters    !
                           ! (Angstroms and Degrees)  !
 --------------------------                            --------------------------
 ! Name  Definition              Value          Derivative Info.                !
 --------------------------------------------------------------------------------
 ! R1    R(1,2)                  1.4014         estimate D2E/DX2                !
 ! R2    R(1,6)                  1.4014         estimate D2E/DX2                !
 ! R3    R(2,3)                  1.4014         estimate D2E/DX2                !
 ! R4    R(2,22)                 1.76           estimate D2E/DX2                !
 ! R5    R(3,4)                  1.4014         estimate D2E/DX2                !
 ! R6    R(3,13)                 1.07           estimate D2E/DX2                !
 ! R7    R(4,5)                  1.4014         estimate D2E/DX2                !
 ! R8    R(4,14)                 1.07           estimate D2E/DX2                !
 ! R9    R(5,6)                  1.4014         estimate D2E/DX2                !
 ! R10   R(5,15)                 1.07           estimate D2E/DX2                !
 ! R11   R(6,20)                 1.76           estimate D2E/DX2                !
 ! R12   R(7,8)                  1.4014         estimate D2E/DX2                !
 ! R13   R(7,12)                 1.4014         estimate D2E/DX2                !
 ! R14   R(8,9)                  1.4014         estimate D2E/DX2                !
 ! R15   R(8,16)                 1.07           estimate D2E/DX2                !
 ! R16   R(9,10)                 1.4014         estimate D2E/DX2                !
 ! R17   R(9,21)                 1.76           estimate D2E/DX2                !
 ! R18   R(10,11)                1.4014         estimate D2E/DX2                !
 ! R19   R(10,17)                1.07           estimate D2E/DX2                !
 ! R20   R(11,12)                1.4014         estimate D2E/DX2                !
 ! R21   R(11,18)                1.07           estimate D2E/DX2                !
 ! R22   R(12,19)                1.76           estimate D2E/DX2                !
 ! R23   R(19,20)                1.6218         estimate D2E/DX2                !
 ! A1    A(2,1,6)              120.0            estimate D2E/DX2                !
 ! A2    A(1,2,3)              120.0            estimate D2E/DX2                !
 ! A3    A(1,2,22)             120.0            estimate D2E/DX2                !
 ! A4    A(3,2,22)             120.0            estimate D2E/DX2                !
 ! A5    A(2,3,4)              120.0            estimate D2E/DX2                !
 ! A6    A(2,3,13)             120.0            estimate D2E/DX2                !
 ! A7    A(4,3,13)             120.0            estimate D2E/DX2                !
 ! A8    A(3,4,5)              120.0            estimate D2E/DX2                !
 ! A9    A(3,4,14)             120.0            estimate D2E/DX2                !
 ! A10   A(5,4,14)             120.0            estimate D2E/DX2                !
 ! A11   A(4,5,6)              120.0            estimate D2E/DX2                !
 ! A12   A(4,5,15)             120.0            estimate D2E/DX2                !
 ! A13   A(6,5,15)             120.0            estimate D2E/DX2                !
 ! A14   A(1,6,5)              120.0            estimate D2E/DX2                !
 ! A15   A(1,6,20)             120.0            estimate D2E/DX2                !
 ! A16   A(5,6,20)             120.0            estimate D2E/DX2                !
 ! A17   A(8,7,12)             120.0            estimate D2E/DX2                !
 ! A18   A(7,8,9)              120.0            estimate D2E/DX2                !
 ! A19   A(7,8,16)             120.0            estimate D2E/DX2                !
 ! A20   A(9,8,16)             120.0            estimate D2E/DX2                !
 ! A21   A(8,9,10)             120.0            estimate D2E/DX2                !
 ! A22   A(8,9,21)             120.0            estimate D2E/DX2                !
 ! A23   A(10,9,21)            120.0            estimate D2E/DX2                !
 ! A24   A(9,10,11)            120.0            estimate D2E/DX2                !
 ! A25   A(9,10,17)            120.0            estimate D2E/DX2                !
 ! A26   A(11,10,17)           120.0            estimate D2E/DX2                !
 ! A27   A(10,11,12)           120.0            estimate D2E/DX2                !
 ! A28   A(10,11,18)           120.0            estimate D2E/DX2                !
 ! A29   A(12,11,18)           120.0            estimate D2E/DX2                !
 ! A30   A(7,12,11)            120.0            estimate D2E/DX2                !
 ! A31   A(7,12,19)            120.0            estimate D2E/DX2                !
 ! A32   A(11,12,19)           120.0            estimate D2E/DX2                !
 ! A33   A(12,19,20)           120.0            estimate D2E/DX2                !
 ! A34   A(6,20,19)            120.0            estimate D2E/DX2                !
 ! D1    D(6,1,2,3)              0.0001         estimate D2E/DX2                !
 ! D2    D(6,1,2,22)           180.0            estimate D2E/DX2                !
 ! D3    D(2,1,6,5)             -0.0001         estimate D2E/DX2                !
 ! D4    D(2,1,6,20)           180.0            estimate D2E/DX2                !
 ! D5    D(1,2,3,4)              0.0            estimate D2E/DX2                !
 ! D6    D(1,2,3,13)           180.0            estimate D2E/DX2                !
 ! D7    D(22,2,3,4)          -179.9999         estimate D2E/DX2                !
 ! D8    D(22,2,3,13)            0.0001         estimate D2E/DX2                !
 ! D9    D(2,3,4,5)             -0.0001         estimate D2E/DX2                !
 ! D10   D(2,3,4,14)           180.0            estimate D2E/DX2                !
 ! D11   D(13,3,4,5)           179.9999         estimate D2E/DX2                !
 ! D12   D(13,3,4,14)            0.0            estimate D2E/DX2                !
 ! D13   D(3,4,5,6)              0.0001         estimate D2E/DX2                !
 ! D14   D(3,4,5,15)          -179.9999         estimate D2E/DX2                !
 ! D15   D(14,4,5,6)          -180.0            estimate D2E/DX2                !
 ! D16   D(14,4,5,15)            0.0            estimate D2E/DX2                !
 ! D17   D(4,5,6,1)              0.0            estimate D2E/DX2                !
 ! D18   D(4,5,6,20)           179.9999         estimate D2E/DX2                !
 ! D19   D(15,5,6,1)           180.0            estimate D2E/DX2                !
 ! D20   D(15,5,6,20)           -0.0001         estimate D2E/DX2                !
 ! D21   D(1,6,20,19)            0.0004         estimate D2E/DX2                !
 ! D22   D(5,6,20,19)         -179.9996         estimate D2E/DX2                !
 ! D23   D(12,7,8,9)             0.0001         estimate D2E/DX2                !
 ! D24   D(12,7,8,16)         -179.9998         estimate D2E/DX2                !
 ! D25   D(8,7,12,11)           -0.0001         estimate D2E/DX2                !
 ! D26   D(8,7,12,19)          179.9999         estimate D2E/DX2                !
 ! D27   D(7,8,9,10)             0.0            estimate D2E/DX2                !
 ! D28   D(7,8,9,21)           180.0            estimate D2E/DX2                !
 ! D29   D(16,8,9,10)          179.9998         estimate D2E/DX2                !
 ! D30   D(16,8,9,21)           -0.0002         estimate D2E/DX2                !
 ! D31   D(8,9,10,11)            0.0            estimate D2E/DX2                !
 ! D32   D(8,9,10,17)         -179.9999         estimate D2E/DX2                !
 ! D33   D(21,9,10,11)         180.0            estimate D2E/DX2                !
 ! D34   D(21,9,10,17)           0.0001         estimate D2E/DX2                !
 ! D35   D(9,10,11,12)           0.0            estimate D2E/DX2                !
 ! D36   D(9,10,11,18)        -179.9998         estimate D2E/DX2                !
 ! D37   D(17,10,11,12)        179.9999         estimate D2E/DX2                !
 ! D38   D(17,10,11,18)          0.0001         estimate D2E/DX2                !
 ! D39   D(10,11,12,7)           0.0            estimate D2E/DX2                !
 ! D40   D(10,11,12,19)       -179.9999         estimate D2E/DX2                !
 ! D41   D(18,11,12,7)         179.9999         estimate D2E/DX2                !
 ! D42   D(18,11,12,19)         -0.0001         estimate D2E/DX2                !
 ! D43   D(7,12,19,20)           0.0004         estimate D2E/DX2                !
 ! D44   D(11,12,19,20)       -179.9997         estimate D2E/DX2                !
 ! D45   D(12,19,20,6)          -0.0006         estimate D2E/DX2                !
 --------------------------------------------------------------------------------
 Trust Radius=3.00D-01 FncErr=1.00D-07 GrdErr=1.00D-06 EigMax=2.50D+02 EigMin=1.00D-04
 Number of steps in this run=    112 maximum allowed number of steps=    132.
 GradGradGradGradGradGradGradGradGradGradGradGradGradGradGradGradGradGrad

                          Input orientation:                          
 ---------------------------------------------------------------------
 Center     Atomic      Atomic             Coordinates (Angstroms)
 Number     Number       Type             X           Y           Z
 ---------------------------------------------------------------------
      1          6           0       -0.313403    0.437449   -0.003805
      2          6           0        1.018978    0.467335   -0.437152
      3          6           0        1.726872    1.676786   -0.443224
      4          6           0        1.102384    2.856351   -0.015949
      5          6           0       -0.229997    2.826465    0.417395
      6          6           0       -0.937891    1.617014    0.423468
      7          6           0       -1.313768   -1.271697    0.004777
      8          6           0       -0.689281   -2.451262   -0.422498
      9          6           0       -1.397174   -3.660713   -0.416423
     10          6           0       -2.729554   -3.690600    0.016926
     11          6           0       -3.354041   -2.511035    0.444202
     12          6           0       -2.646148   -1.301583    0.438127
     13          1           0        2.744175    1.699604   -0.774093
     14          1           0        1.642877    3.779794   -0.020585
     15          1           0       -0.706808    3.727090    0.743627
     16          1           0        0.328022   -2.428443   -0.753367
     17          1           0       -3.270045   -4.614043    0.021566
     18          1           0       -4.371342   -2.533854    0.775076
     19         17           0       -3.430433    0.179816    0.974739
     20         17           0       -2.611211    1.579481    0.967701
     21         17           0       -0.612888   -5.142114   -0.953033
     22         17           0        1.803265   -1.014066   -0.973758
 ---------------------------------------------------------------------
                    Distance matrix (angstroms):
                    1          2          3          4          5
     1  C    0.000000
     2  C    1.401400   0.000000
     3  C    2.427296   1.401400   0.000000
     4  C    2.802800   2.427296   1.401400   0.000000
     5  C    2.427296   2.802800   2.427296   1.401400   0.000000
     6  C    1.401400   2.427296   2.802800   2.427296   1.401400
     7  C    1.980400   2.942998   4.259078   4.783200   4.259078
     8  C    2.942998   3.381800   4.783200   5.616592   5.363839
     9  C    4.259078   4.783200   6.184600   6.991445   6.643873
    10  C    4.783200   5.616592   6.991445   7.586000   6.991445
    11  C    4.259078   5.363839   6.643873   6.991445   6.184600
    12  C    2.942998   4.162732   5.363839   5.616592   4.783200
    13  H    3.396345   2.146700   1.070000   2.146700   3.396345
    14  H    3.872800   3.396345   2.146700   1.070000   2.146700
    15  H    3.396345   3.872800   3.396345   2.146700   1.070000
    16  H    3.030942   2.993818   4.348089   5.391890   5.412591
    17  H    5.853200   6.665324   8.047344   8.656000   8.047344
    18  H    5.089417   6.287463   7.510124   7.722805   6.783192
    19  Cl   3.277163   4.676897   5.554217   5.356466   4.190247
    20  Cl   2.743718   4.048303   4.562800   4.048303   2.743718
    21  Cl   5.667649   5.864728   7.227155   8.233816   8.094624
    22  Cl   2.743718   1.760000   2.743718   4.048303   4.562800
                    6          7          8          9         10
     6  C    0.000000
     7  C    2.942998   0.000000
     8  C    4.162732   1.401400   0.000000
     9  C    5.363839   2.427296   1.401400   0.000000
    10  C    5.616592   2.802800   2.427296   1.401400   0.000000
    11  C    4.783200   2.427296   2.802800   2.427296   1.401400
    12  C    3.381800   1.401400   2.427296   2.802800   2.427296
    13  H    3.872800   5.089417   5.398326   6.783192   7.722805
    14  H    3.396345   5.853200   6.665324   8.047344   8.656000
    15  H    2.146700   5.089417   6.287463   7.510124   7.722805
    16  H    4.399228   2.146700   1.070000   2.146700   3.396345
    17  H    6.665324   3.872800   3.396345   2.146700   1.070000
    18  H    5.398326   3.396345   3.872800   3.396345   2.146700
    19  Cl   2.929540   2.743718   4.048303   4.562800   4.048303
    20  Cl   1.760000   3.277163   4.676897   5.554217   5.356466
    21  Cl   6.905519   4.048303   2.743718   1.760000   2.743718
    22  Cl   4.048303   3.277163   2.929540   4.190247   5.356466
                   11         12         13         14         15
    11  C    0.000000
    12  C    1.401400   0.000000
    13  H    7.510124   6.287463   0.000000
    14  H    8.047344   6.665324   2.471400   0.000000
    15  H    6.783192   5.398326   4.280590   2.471400   0.000000
    16  H    3.872800   3.396345   4.783200   6.388116   6.418914
    17  H    2.146700   3.396345   8.755916   9.726000   8.755916
    18  H    1.070000   2.146700   8.423341   8.755916   7.254600
    19  Cl   2.743718   1.760000   6.594994   6.299919   4.478247
    20  Cl   4.190247   2.929540   5.632800   4.890332   2.879094
    21  Cl   4.048303   4.562800   7.623057   9.249776   9.030518
    22  Cl   5.554217   4.676897   2.879094   4.890332   5.632800
                   16         17         18         19         20
    16  H    0.000000
    17  H    4.280590   0.000000
    18  H    4.942800   2.471400   0.000000
    19  Cl   4.890332   4.890332   2.879094   0.000000
    20  Cl   5.259718   6.299919   4.478247   1.621800   0.000000
    21  Cl   2.879094   2.879094   4.890332   6.322800   7.270650
    22  Cl   2.055572   6.299919   6.594994   5.710831   5.475705
                   21         22
    21  Cl   0.000000
    22  Cl   4.783200   0.000000
 Stoichiometry    C12H6Cl4
 Framework group  C1[X(C12H6Cl4)]
 Deg. of freedom    60
 Full point group                 C1      NOp   1
 Largest Abelian subgroup         C1      NOp   1
 Largest concise Abelian subgroup C1      NOp   1
                         Standard orientation:                         
 ---------------------------------------------------------------------
 Center     Atomic      Atomic             Coordinates (Angstroms)
 Number     Number       Type             X           Y           Z
 ---------------------------------------------------------------------
      1          6           0       -1.225525    0.545335   -0.000001
      2          6           0       -1.372299    1.939028   -0.000000
      3          6           0       -2.652660    2.508764    0.000001
      4          6           0       -3.786246    1.684808    0.000002
      5          6           0       -3.639472    0.291115   -0.000002
      6          6           0       -2.359111   -0.278621   -0.000003
      7          6           0        0.583827   -0.259792   -0.000002
      8          6           0        1.717413    0.564165   -0.000002
      9          6           0        2.997773   -0.005571   -0.000001
     10          6           0        3.144548   -1.399264    0.000001
     11          6           0        2.010961   -2.223221    0.000002
     12          6           0        0.730601   -1.653484    0.000001
     13          1           0       -2.764725    3.572879    0.000003
     14          1           0       -4.763830    2.119814    0.000003
     15          1           0       -4.504990   -0.337994   -0.000003
     16          1           0        1.605347    1.628280   -0.000001
     17          1           0        4.122131   -1.834270    0.000004
     18          1           0        2.123027   -3.287336    0.000007
     19         17           0       -0.693055   -2.688281    0.000005
     20         17           0       -2.174779   -2.028942   -0.000005
     21         17           0        4.421429    1.029225   -0.000002
     22         17           0        0.051357    2.973824    0.000003
 ---------------------------------------------------------------------
 Rotational constants (GHZ):           0.4787656           0.2827941           0.1777826
 Standard basis: 6-311+G(d,p) (5D, 7F)
 There are   436 symmetry adapted cartesian basis functions of A   symmetry.
 There are   420 symmetry adapted basis functions of A   symmetry.
   420 basis functions,   692 primitive gaussians,   436 cartesian basis functions
    73 alpha electrons       73 beta electrons
       nuclear repulsion energy      1514.4050062020 Hartrees.
 NAtoms=   22 NActive=   22 NUniq=   22 SFac= 1.00D+00 NAtFMM=   60 NAOKFM=F Big=F
 Integral buffers will be    131072 words long.
 Raffenetti 2 integral format.
 Two-electron integral symmetry is turned on.
 One-electron integrals computed using PRISM.
 NBasis=   420 RedAO= T EigKep=  1.05D-06  NBF=   420
 NBsUse=   416 1.00D-06 EigRej=  7.13D-07 NBFU=   416
 ExpMin= 4.38D-02 ExpMax= 1.06D+05 ExpMxC= 3.62D+03 IAcc=3 IRadAn=         5 AccDes= 0.00D+00
 Harris functional with IExCor=  402 and IRadAn=       5 diagonalized for initial guess.
 HarFok:  IExCor=  402 AccDes= 0.00D+00 IRadAn=         5 IDoV= 1 UseB2=F ITyADJ=14
 ICtDFT=  3500011 ScaDFX=  1.000000  1.000000  1.000000  1.000000
 FoFCou: FMM=F IPFlag=           0 FMFlag=      100000 FMFlg1=           0
         NFxFlg=           0 DoJE=T BraDBF=F KetDBF=T FulRan=T
         wScrn=  0.000000 ICntrl=       500 IOpCl=  0 I1Cent=   200000004 NGrid=           0
         NMat0=    1 NMatS0=      1 NMatT0=    0 NMatD0=    1 NMtDS0=    0 NMtDT0=    0
 Petite list used in FoFCou.
 Requested convergence on RMS density matrix=1.00D-08 within  32 cycles.
 Requested convergence on MAX density matrix=1.00D-06.
 Requested convergence on             energy=1.00D-06.
 No special actions if energy rises.
 EnCoef did     4 forward-backward iterations
 EnCoef did     2 forward-backward iterations
 EnCoef did     4 forward-backward iterations
 Restarting incremental Fock formation.
 SCF Done:  E(RB3LYP) =  -2301.29969530     A.U. after   26 cycles
            NFock= 26  Conv=0.22D-08     -V/T= 2.0021
 QCSCF skips out because SCF is already converged.

 **********************************************************************

            Population analysis using the SCF Density.

 **********************************************************************

 Orbital symmetries:
       Occupied  (A) (A) (A) (A) (A) (A) (A) (A) (A) (A) (A) (A)
                 (A) (A) (A) (A) (A) (A) (A) (A) (A) (A) (A) (A)
                 (A) (A) (A) (A) (A) (A) (A) (A) (A) (A) (A) (A)
                 (A) (A) (A) (A) (A) (A) (A) (A) (A) (A) (A) (A)
                 (A) (A) (A) (A) (A) (A) (A) (A) (A) (A) (A) (A)
                 (A) (A) (A) (A) (A) (A) (A) (A) (A) (A) (A) (A)
                 (A)
       Virtual   (A) (A) (A) (A) (A) (A) (A) (A) (A) (A) (A) (A)
                 (A) (A) (A) (A) (A) (A) (A) (A) (A) (A) (A) (A)
                 (A) (A) (A) (A) (A) (A) (A) (A) (A) (A) (A) (A)
                 (A) (A) (A) (A) (A) (A) (A) (A) (A) (A) (A) (A)
                 (A) (A) (A) (A) (A) (A) (A) (A) (A) (A) (A) (A)
                 (A) (A) (A) (A) (A) (A) (A) (A) (A) (A) (A) (A)
                 (A) (A) (A) (A) (A) (A) (A) (A) (A) (A) (A) (A)
                 (A) (A) (A) (A) (A) (A) (A) (A) (A) (A) (A) (A)
                 (A) (A) (A) (A) (A) (A) (A) (A) (A) (A) (A) (A)
                 (A) (A) (A) (A) (A) (A) (A) (A) (A) (A) (A) (A)
                 (A) (A) (A) (A) (A) (A) (A) (A) (A) (A) (A) (A)
                 (A) (A) (A) (A) (A) (A) (A) (A) (A) (A) (A) (A)
                 (A) (A) (A) (A) (A) (A) (A) (A) (A) (A) (A) (A)
                 (A) (A) (A) (A) (A) (A) (A) (A) (A) (A) (A) (A)
                 (A) (A) (A) (A) (A) (A) (A) (A) (A) (A) (A) (A)
                 (A) (A) (A) (A) (A) (A) (A) (A) (A) (A) (A) (A)
                 (A) (A) (A) (A) (A) (A) (A) (A) (A) (A) (A) (A)
                 (A) (A) (A) (A) (A) (A) (A) (A) (A) (A) (A) (A)
                 (A) (A) (A) (A) (A) (A) (A) (A) (A) (A) (A) (A)
                 (A) (A) (A) (A) (A) (A) (A) (A) (A) (A) (A) (A)
                 (A) (A) (A) (A) (A) (A) (A) (A) (A) (A) (A) (A)
                 (A) (A) (A) (A) (A) (A) (A) (A) (A) (A) (A) (A)
                 (A) (A) (A) (A) (A) (A) (A) (A) (A) (A) (A) (A)
                 (A) (A) (A) (A) (A) (A) (A) (A) (A) (A) (A) (A)
                 (A) (A) (A) (A) (A) (A) (A) (A) (A) (A) (A) (A)
                 (A) (A) (A) (A) (A) (A) (A) (A) (A) (A) (A) (A)
                 (A) (A) (A) (A) (A) (A) (A) (A) (A) (A) (A) (A)
                 (A) (A) (A) (A) (A) (A) (A) (A) (A) (A) (A) (A)
                 (A) (A) (A) (A) (A) (A) (A)
 The electronic state is 1-A.
 Alpha  occ. eigenvalues -- -101.67736-101.67412-101.55925-101.55691 -10.25316
 Alpha  occ. eigenvalues --  -10.24544 -10.23327 -10.23080 -10.19943 -10.19833
 Alpha  occ. eigenvalues --  -10.19798 -10.19646 -10.19550 -10.18854 -10.18498
 Alpha  occ. eigenvalues --  -10.18021  -9.59078  -9.58795  -9.47496  -9.47131
 Alpha  occ. eigenvalues --   -7.35657  -7.35331  -7.34732  -7.34433  -7.34177
 Alpha  occ. eigenvalues --   -7.33884  -7.23929  -7.23596  -7.22979  -7.22938
 Alpha  occ. eigenvalues --   -7.22611  -7.22582  -1.15130  -0.90415  -0.90020
 Alpha  occ. eigenvalues --   -0.87416  -0.85031  -0.82600  -0.77371  -0.76416
 Alpha  occ. eigenvalues --   -0.74792  -0.72351  -0.66045  -0.63488  -0.61606
 Alpha  occ. eigenvalues --   -0.59094  -0.57876  -0.54811  -0.54077  -0.51584
 Alpha  occ. eigenvalues --   -0.50170  -0.48268  -0.47872  -0.46836  -0.45458
 Alpha  occ. eigenvalues --   -0.43238  -0.42937  -0.40978  -0.40585  -0.40472
 Alpha  occ. eigenvalues --   -0.39690  -0.38068  -0.36594  -0.34492  -0.34067
 Alpha  occ. eigenvalues --   -0.32353  -0.31983  -0.30578  -0.28431  -0.26499
 Alpha  occ. eigenvalues --   -0.25884  -0.24040  -0.11313
 Alpha virt. eigenvalues --   -0.06065  -0.04911  -0.03834  -0.02857  -0.02703
 Alpha virt. eigenvalues --   -0.01106  -0.01029   0.00757   0.00898   0.01346
 Alpha virt. eigenvalues --    0.02365   0.03113   0.03754   0.03816   0.04392
 Alpha virt. eigenvalues --    0.04799   0.05295   0.05926   0.06283   0.06710
 Alpha virt. eigenvalues --    0.07419   0.07817   0.08292   0.08366   0.08641
 Alpha virt. eigenvalues --    0.09707   0.09772   0.10619   0.11056   0.11089
 Alpha virt. eigenvalues --    0.11424   0.12056   0.12420   0.12523   0.13273
 Alpha virt. eigenvalues --    0.13802   0.13990   0.14834   0.14896   0.14959
 Alpha virt. eigenvalues --    0.15702   0.16244   0.16488   0.16616   0.16816
 Alpha virt. eigenvalues --    0.17105   0.17453   0.18002   0.18316   0.18976
 Alpha virt. eigenvalues --    0.19268   0.19856   0.20331   0.20822   0.21126
 Alpha virt. eigenvalues --    0.21153   0.21840   0.21995   0.22226   0.22959
 Alpha virt. eigenvalues --    0.23434   0.24141   0.24187   0.24668   0.25124
 Alpha virt. eigenvalues --    0.26087   0.26163   0.26612   0.26732   0.27486
 Alpha virt. eigenvalues --    0.27734   0.28541   0.28735   0.29613   0.29978
 Alpha virt. eigenvalues --    0.30292   0.31016   0.32189   0.32675   0.33936
 Alpha virt. eigenvalues --    0.35086   0.35346   0.36705   0.38599   0.39163
 Alpha virt. eigenvalues --    0.40143   0.40705   0.41376   0.43210   0.44213
 Alpha virt. eigenvalues --    0.44744   0.44816   0.45619   0.46016   0.46543
 Alpha virt. eigenvalues --    0.47223   0.48209   0.49435   0.49867   0.51300
 Alpha virt. eigenvalues --    0.51835   0.52472   0.53085   0.53289   0.54184
 Alpha virt. eigenvalues --    0.54510   0.56464   0.56719   0.57084   0.58463
 Alpha virt. eigenvalues --    0.58556   0.58814   0.59373   0.60109   0.60825
 Alpha virt. eigenvalues --    0.61174   0.62428   0.62574   0.64783   0.64800
 Alpha virt. eigenvalues --    0.65712   0.66019   0.66198   0.66550   0.67886
 Alpha virt. eigenvalues --    0.69742   0.70729   0.70950   0.71097   0.72310
 Alpha virt. eigenvalues --    0.75593   0.76173   0.78357   0.79377   0.80634
 Alpha virt. eigenvalues --    0.81336   0.82195   0.82997   0.83441   0.83665
 Alpha virt. eigenvalues --    0.84955   0.85441   0.85662   0.86052   0.86423
 Alpha virt. eigenvalues --    0.86649   0.87131   0.88142   0.88452   0.90002
 Alpha virt. eigenvalues --    0.90148   0.90965   0.91734   0.93193   0.94387
 Alpha virt. eigenvalues --    0.95034   0.95785   0.96907   0.98061   0.98443
 Alpha virt. eigenvalues --    0.98970   0.99049   1.00701   1.01878   1.02087
 Alpha virt. eigenvalues --    1.02899   1.03240   1.04991   1.06191   1.07136
 Alpha virt. eigenvalues --    1.08869   1.09995   1.10219   1.12280   1.12864
 Alpha virt. eigenvalues --    1.14386   1.19163   1.20634   1.22988   1.24127
 Alpha virt. eigenvalues --    1.26114   1.26181   1.27952   1.28175   1.28672
 Alpha virt. eigenvalues --    1.29380   1.31140   1.31265   1.33927   1.34370
 Alpha virt. eigenvalues --    1.43321   1.45829   1.48453   1.51308   1.51764
 Alpha virt. eigenvalues --    1.52554   1.53334   1.55694   1.56149   1.56523
 Alpha virt. eigenvalues --    1.58885   1.61488   1.62270   1.64049   1.66094
 Alpha virt. eigenvalues --    1.67230   1.69307   1.70435   1.71491   1.73423
 Alpha virt. eigenvalues --    1.74764   1.75664   1.78046   1.82940   1.84951
 Alpha virt. eigenvalues --    1.85623   1.88475   1.89117   1.89432   1.89718
 Alpha virt. eigenvalues --    1.89856   1.90547   1.91542   1.93385   1.96016
 Alpha virt. eigenvalues --    1.96999   1.97445   1.98435   2.02542   2.02967
 Alpha virt. eigenvalues --    2.04919   2.05533   2.07390   2.08767   2.13990
 Alpha virt. eigenvalues --    2.17636   2.19483   2.20794   2.22598   2.26847
 Alpha virt. eigenvalues --    2.27564   2.28615   2.29409   2.29776   2.30227
 Alpha virt. eigenvalues --    2.32082   2.32489   2.37708   2.39333   2.40703
 Alpha virt. eigenvalues --    2.41379   2.43893   2.44699   2.49688   2.54299
 Alpha virt. eigenvalues --    2.55698   2.56834   2.59250   2.60705   2.61117
 Alpha virt. eigenvalues --    2.62588   2.64421   2.64583   2.67610   2.69137
 Alpha virt. eigenvalues --    2.69647   2.71574   2.72203   2.73857   2.74528
 Alpha virt. eigenvalues --    2.75866   2.75887   2.77695   2.78003   2.79288
 Alpha virt. eigenvalues --    2.79728   2.80172   2.81113   2.86271   2.87539
 Alpha virt. eigenvalues --    2.87864   2.88746   2.90675   3.04026   3.06727
 Alpha virt. eigenvalues --    3.08084   3.11139   3.13198   3.18590   3.20276
 Alpha virt. eigenvalues --    3.24063   3.30824   3.33685   3.36560   3.37111
 Alpha virt. eigenvalues --    3.41642   3.44145   3.51971   3.55794   3.65781
 Alpha virt. eigenvalues --    3.71587   3.75360   3.82381   3.89374   4.01145
 Alpha virt. eigenvalues --    4.05620   4.10940   4.11795   4.18998   4.82007
 Alpha virt. eigenvalues --    4.82748   9.65767   9.77925   9.85890   9.99250
 Alpha virt. eigenvalues --   23.43028  23.47370  23.85397  23.88890  23.90531
 Alpha virt. eigenvalues --   23.93322  24.00078  24.01334  24.03972  24.05491
 Alpha virt. eigenvalues --   24.12471  24.13135  25.73122  25.82422  25.85018
 Alpha virt. eigenvalues --   25.92825  26.11853  26.18949  26.35332  26.61852
 Alpha virt. eigenvalues --   26.70626  26.74494  26.80715  27.06254 215.65708
 Alpha virt. eigenvalues --  215.77074 215.86677 216.03925
          Condensed to atoms (all electrons):
               1          2          3          4          5          6
     1  C   24.318643   3.311138  -3.364589  -1.896394  -2.931389 -11.323132
     2  C    3.311138  18.053707  -3.980476  -2.765144   0.009028  -5.762363
     3  C   -3.364589  -3.980476  17.077229   1.159591  -1.565551  -0.526936
     4  C   -1.896394  -2.765144   1.159591   9.726614   2.026354  -3.151145
     5  C   -2.931389   0.009028  -1.565551   2.026354  15.576476  -9.788483
     6  C  -11.323132  -5.762363  -0.526936  -3.151145  -9.788483  55.709707
     7  C    2.846823  -1.979110  -2.669109  -0.681722  -2.792040   2.593747
     8  C    3.789611   3.827784   0.953725   0.167490  -0.189673  -7.767421
     9  C   -1.719369  -1.844631  -0.445620  -0.001029  -0.266827   1.020194
    10  C    1.432403   0.159506   0.040904   0.050519   0.187970  -1.202521
    11  C   -0.739455   1.529245   0.486879  -0.027135  -0.282349  -2.569895
    12  C  -11.022700  -4.535507  -0.640607  -0.155928  -1.247680  21.993629
    13  H    0.062196  -0.021516   0.401013  -0.029132  -0.052374  -0.009815
    14  H   -0.028208   0.027636  -0.072170   0.492765  -0.064958  -0.023884
    15  H    0.037170  -0.001589  -0.065339   0.042611   0.359039   0.025302
    16  H    0.073166   0.049561   0.057242   0.013239   0.002044  -0.000647
    17  H    0.005151   0.002254   0.000102   0.000003   0.000067  -0.001614
    18  H    0.008986  -0.002233  -0.000010  -0.000072  -0.000423   0.015225
    19  Cl   2.545893   0.938497   0.007618   0.065042   0.908318 -10.056890
    20  Cl   1.024249   0.370863  -0.318620   1.557710   6.239838 -23.432980
    21  Cl  -0.198949  -0.019882  -0.007755  -0.000545  -0.009786  -0.022207
    22  Cl   0.076398  -1.166838  -0.396188  -0.243234   0.120265   0.732979
               7          8          9         10         11         12
     1  C    2.846823   3.789611  -1.719369   1.432403  -0.739455 -11.022700
     2  C   -1.979110   3.827784  -1.844631   0.159506   1.529245  -4.535507
     3  C   -2.669109   0.953725  -0.445620   0.040904   0.486879  -0.640607
     4  C   -0.681722   0.167490  -0.001029   0.050519  -0.027135  -0.155928
     5  C   -2.792040  -0.189673  -0.266827   0.187970  -0.282349  -1.247680
     6  C    2.593747  -7.767421   1.020194  -1.202521  -2.569895  21.993629
     7  C   20.881765   0.859831  -4.198442  -1.638593  -1.879645  -1.257829
     8  C    0.859831  21.714980  -1.374690  -5.141001   0.546080 -12.385510
     9  C   -4.198442  -1.374690  24.017036  -8.370455  -4.064269   7.314962
    10  C   -1.638593  -5.141001  -8.370455  23.899347   1.642923  -9.285025
    11  C   -1.879645   0.546080  -4.064269   1.642923  18.370484 -14.297069
    12  C   -1.257829 -12.385510   7.314962  -9.285025 -14.297069  65.138049
    13  H    0.010720   0.003075  -0.000667  -0.000040   0.000091  -0.001879
    14  H   -0.004589  -0.000226  -0.000203   0.000036   0.000214  -0.000425
    15  H    0.024057  -0.002394   0.000660  -0.000203  -0.001291   0.011751
    16  H   -0.123698   0.315261  -0.226790   0.201339  -0.009202  -0.048227
    17  H    0.059207   0.111906   0.008991   0.396537  -0.106855  -0.133601
    18  H    0.074219  -0.040618  -0.015871  -0.011535   0.278800   0.150708
    19  Cl  -2.009947   1.427050  -2.941506   3.993918   6.208864 -24.576430
    20  Cl  -2.593371   1.026197  -1.101615   0.891254   1.087694  -9.669645
    21  Cl  -0.514137   0.402184  -0.587514  -0.530746   0.273215   0.387321
    22  Cl   1.181003  -1.073618  -0.390583  -0.119617   0.041170   0.444906
              13         14         15         16         17         18
     1  C    0.062196  -0.028208   0.037170   0.073166   0.005151   0.008986
     2  C   -0.021516   0.027636  -0.001589   0.049561   0.002254  -0.002233
     3  C    0.401013  -0.072170  -0.065339   0.057242   0.000102  -0.000010
     4  C   -0.029132   0.492765   0.042611   0.013239   0.000003  -0.000072
     5  C   -0.052374  -0.064958   0.359039   0.002044   0.000067  -0.000423
     6  C   -0.009815  -0.023884   0.025302  -0.000647  -0.001614   0.015225
     7  C    0.010720  -0.004589   0.024057  -0.123698   0.059207   0.074219
     8  C    0.003075  -0.000226  -0.002394   0.315261   0.111906  -0.040618
     9  C   -0.000667  -0.000203   0.000660  -0.226790   0.008991  -0.015871
    10  C   -0.000040   0.000036  -0.000203   0.201339   0.396537  -0.011535
    11  C    0.000091   0.000214  -0.001291  -0.009202  -0.106855   0.278800
    12  C   -0.001879  -0.000425   0.011751  -0.048227  -0.133601   0.150708
    13  H    0.514945  -0.006982  -0.000260   0.000065   0.000000  -0.000000
    14  H   -0.006982   0.537530  -0.008778   0.000001   0.000000  -0.000000
    15  H   -0.000260  -0.008778   0.531408  -0.000002  -0.000000   0.000000
    16  H    0.000065   0.000001  -0.000002   0.598849  -0.000298  -0.000009
    17  H    0.000000   0.000000  -0.000000  -0.000298   0.520353  -0.009351
    18  H   -0.000000  -0.000000   0.000000  -0.000009  -0.009351   0.526566
    19  Cl   0.000162   0.001481  -0.002396   0.039228   0.014365  -0.108895
    20  Cl   0.003565   0.018084  -0.083313   0.023081   0.001021  -0.008060
    21  Cl  -0.000001  -0.000001   0.000001  -0.045781  -0.013893   0.002212
    22  Cl  -0.018446   0.000410   0.001337  -0.070303  -0.000040   0.000113
              19         20         21         22
     1  C    2.545893   1.024249  -0.198949   0.076398
     2  C    0.938497   0.370863  -0.019882  -1.166838
     3  C    0.007618  -0.318620  -0.007755  -0.396188
     4  C    0.065042   1.557710  -0.000545  -0.243234
     5  C    0.908318   6.239838  -0.009786   0.120265
     6  C  -10.056890 -23.432980  -0.022207   0.732979
     7  C   -2.009947  -2.593371  -0.514137   1.181003
     8  C    1.427050   1.026197   0.402184  -1.073618
     9  C   -2.941506  -1.101615  -0.587514  -0.390583
    10  C    3.993918   0.891254  -0.530746  -0.119617
    11  C    6.208864   1.087694   0.273215   0.041170
    12  C  -24.576430  -9.669645   0.387321   0.444906
    13  H    0.000162   0.003565  -0.000001  -0.018446
    14  H    0.001481   0.018084  -0.000001   0.000410
    15  H   -0.002396  -0.083313   0.000001   0.001337
    16  H    0.039228   0.023081  -0.045781  -0.070303
    17  H    0.014365   0.001021  -0.013893  -0.000040
    18  H   -0.108895  -0.008060   0.002212   0.000113
    19  Cl  33.423420   6.757886  -0.080975  -0.145256
    20  Cl   6.757886  34.716395  -0.017022  -0.211566
    21  Cl  -0.080975  -0.017022  17.598752  -0.020519
    22  Cl  -0.145256  -0.211566  -0.020519  17.702499
 Mulliken charges:
               1
     1  C   -0.307642
     2  C   -0.199928
     3  C   -0.131333
     4  C   -0.350459
     5  C   -0.237864
     6  C   -0.450846
     7  C   -0.189137
     8  C   -1.170021
     9  C    1.188240
    10  C   -0.596920
    11  C   -0.488493
    12  C   -0.183263
    13  H    0.145282
    14  H    0.132265
    15  H    0.132229
    16  H    0.151883
    17  H    0.145696
    18  H    0.140249
    19  Cl   0.590553
    20  Cl   0.718357
    21  Cl   0.406026
    22  Cl   0.555129
 Sum of Mulliken charges =  -0.00000
 Mulliken charges with hydrogens summed into heavy atoms:
               1
     1  C   -0.307642
     2  C   -0.199928
     3  C    0.013949
     4  C   -0.218194
     5  C   -0.105636
     6  C   -0.450846
     7  C   -0.189137
     8  C   -1.018138
     9  C    1.188240
    10  C   -0.451224
    11  C   -0.348244
    12  C   -0.183263
    19  Cl   0.590553
    20  Cl   0.718357
    21  Cl   0.406026
    22  Cl   0.555129
 Electronic spatial extent (au):  <R**2>=           5451.8868
 Charge=             -0.0000 electrons
 Dipole moment (field-independent basis, Debye):
    X=             -2.6646    Y=             -2.3209    Z=              0.0000  Tot=              3.5337
 Quadrupole moment (field-independent basis, Debye-Ang):
   XX=           -115.3979   YY=           -113.3960   ZZ=           -124.4240
   XY=             -5.2626   XZ=              0.0000   YZ=             -0.0000
 Traceless Quadrupole moment (field-independent basis, Debye-Ang):
   XX=              2.3414   YY=              4.3433   ZZ=             -6.6847
   XY=             -5.2626   XZ=              0.0000   YZ=             -0.0000
 Octapole moment (field-independent basis, Debye-Ang**2):
  XXX=            -50.3335  YYY=            -15.3904  ZZZ=              0.0000  XYY=             -2.6837
  XXY=             -5.5717  XXZ=              0.0001  XZZ=              2.9802  YZZ=             -5.9378
  YYZ=              0.0001  XYZ=             -0.0001
 Hexadecapole moment (field-independent basis, Debye-Ang**3):
 XXXX=          -4456.7103 YYYY=          -2579.8245 ZZZZ=           -149.2507 XXXY=            -49.2481
 XXXZ=              0.0002 YYYX=              2.8264 YYYZ=             -0.0001 ZZZX=             -0.0000
 ZZZY=              0.0000 XXYY=          -1105.2477 XXZZ=           -839.9413 YYZZ=           -479.9005
 XXYZ=              0.0000 YYXZ=              0.0001 ZZXY=             39.4312
 N-N= 1.514405006202D+03 E-N=-8.471643862180D+03  KE= 2.296539980257D+03
 Calling FoFJK, ICntrl=      2127 FMM=F ISym2X=0 I1Cent= 0 IOpClX= 0 NMat=1 NMatS=1 NMatT=0.
 ***** Axes restored to original set *****
 -------------------------------------------------------------------
 Center     Atomic                   Forces (Hartrees/Bohr)
 Number     Number              X              Y              Z
 -------------------------------------------------------------------
      1        6          -0.026618084   -0.058950888   -0.002302085
      2        6          -0.012512737    0.004165386    0.004904909
      3        6          -0.010543316    0.001064823    0.003673624
      4        6          -0.011288106   -0.016551381    0.000610198
      5        6           0.007012992   -0.021430355   -0.006335108
      6        6           0.137145314   -0.016046048   -0.048197302
      7        6           0.039705402    0.045001387   -0.004629465
      8        6          -0.008484215   -0.004568606    0.001937164
      9        6          -0.010917189    0.013812971    0.006190881
     10        6           0.005718352    0.007752864   -0.000427855
     11        6           0.024562667    0.005540230   -0.007051800
     12        6           0.068474325   -0.089334614   -0.039337011
     13        1           0.008598610   -0.001323776   -0.003081453
     14        1           0.006634425    0.008885428   -0.000516967
     15        1          -0.007517898    0.012103199    0.004749914
     16        1          -0.005873394   -0.007128477    0.000596092
     17        1          -0.004870720   -0.009074805   -0.000099687
     18        1          -0.013177210   -0.000162085    0.004310841
     19       17          -0.239011981   -0.174087713    0.046050404
     20       17           0.026779260    0.280652424    0.043884899
     21       17          -0.001132073    0.002577854    0.000857145
     22       17           0.027315576    0.017102182   -0.005787337
 -------------------------------------------------------------------
 Cartesian Forces:  Max     0.280652424 RMS     0.057574116

 GradGradGradGradGradGradGradGradGradGradGradGradGradGradGradGradGradGrad
 Berny optimization.
 FormGI is forming the generalized inverse of G from B-inverse, IUseBI=4.
 Internal  Forces:  Max     0.259475210 RMS     0.045954396
 Search for a local minimum.
 Step number   1 out of a maximum of  112
 All quantities printed in internal units (Hartrees-Bohrs-Radians)
 Mixed Optimization -- RFO/linear search
 Second derivative matrix not updated -- first step.
 ITU=  0
     Eigenvalues ---    0.00238   0.00238   0.01655   0.01655   0.02070
     Eigenvalues ---    0.02070   0.02070   0.02070   0.02070   0.02070
     Eigenvalues ---    0.02070   0.02070   0.02070   0.02070   0.02070
     Eigenvalues ---    0.02070   0.02070   0.02070   0.04977   0.16000
     Eigenvalues ---    0.16000   0.16000   0.16000   0.16000   0.16000
     Eigenvalues ---    0.22068   0.22319   0.23430   0.23478   0.24560
     Eigenvalues ---    0.24896   0.25000   0.25000   0.25000   0.25000
     Eigenvalues ---    0.25000   0.25000   0.29539   0.29539   0.29539
     Eigenvalues ---    0.29539   0.37230   0.37230   0.37230   0.37230
     Eigenvalues ---    0.37230   0.37230   0.41511   0.41554   0.41956
     Eigenvalues ---    0.42020   0.45389   0.45389   0.45389   0.45389
     Eigenvalues ---    0.45389   0.45389   0.45389   0.45389   1.75098
 RFO step:  Lambda=-2.99581685D-01 EMin= 2.37799054D-03
 Linear search not attempted -- first point.
 Maximum step size (   0.300) exceeded in Quadratic search.
    -- Step size scaled by   0.427
 Iteration  1 RMS(Cart)=  0.35979181 RMS(Int)=  0.01129850
 Iteration  2 RMS(Cart)=  0.15462421 RMS(Int)=  0.00133125
 Iteration  3 RMS(Cart)=  0.00219013 RMS(Int)=  0.00003184
 Iteration  4 RMS(Cart)=  0.00000073 RMS(Int)=  0.00003183
 Variable       Old X    -DE/DX   Delta X   Delta X   Delta X     New X
                                 (Linear)    (Quad)   (Total)
    R1        2.64826   0.03063   0.00000   0.01812   0.01818   2.66644
    R2        2.64826   0.04754   0.00000   0.02772   0.02776   2.67603
    R3        2.64826  -0.00429   0.00000  -0.00244  -0.00243   2.64583
    R4        3.32592  -0.00046   0.00000  -0.00033  -0.00033   3.32559
    R5        2.64826  -0.02095   0.00000  -0.01265  -0.01269   2.63557
    R6        2.02201   0.00910   0.00000   0.00578   0.00578   2.02779
    R7        2.64826  -0.02248   0.00000  -0.01351  -0.01357   2.63469
    R8        2.02201   0.01102   0.00000   0.00701   0.00701   2.02901
    R9        2.64826  -0.01418   0.00000  -0.00803  -0.00804   2.64022
   R10        2.02201   0.01499   0.00000   0.00952   0.00952   2.03153
   R11        3.32592   0.12705   0.00000   0.09119   0.09119   3.41711
   R12        2.64826   0.00020   0.00000   0.00038   0.00041   2.64868
   R13        2.64826   0.02565   0.00000   0.01484   0.01486   2.66313
   R14        2.64826  -0.00267   0.00000  -0.00155  -0.00154   2.64672
   R15        2.02201  -0.00592   0.00000  -0.00376  -0.00376   2.01824
   R16        2.64826  -0.01347   0.00000  -0.00794  -0.00796   2.64030
   R17        3.32592  -0.00294   0.00000  -0.00211  -0.00211   3.32381
   R18        2.64826  -0.01719   0.00000  -0.01001  -0.01004   2.63822
   R19        2.02201   0.01029   0.00000   0.00654   0.00654   2.02855
   R20        2.64826  -0.01506   0.00000  -0.00850  -0.00851   2.63976
   R21        2.02201   0.01386   0.00000   0.00881   0.00881   2.03082
   R22        3.32592   0.08333   0.00000   0.05980   0.05980   3.38572
   R23        3.06476   0.25424   0.00000   0.05294   0.05294   3.11770
    A1        2.09440  -0.05188   0.00000  -0.03743  -0.03727   2.05712
    A2        2.09440   0.01441   0.00000   0.01203   0.01209   2.10649
    A3        2.09440   0.04724   0.00000   0.03629   0.03626   2.13065
    A4        2.09440  -0.06165   0.00000  -0.04832  -0.04835   2.04605
    A5        2.09440   0.01303   0.00000   0.00931   0.00926   2.10366
    A6        2.09440  -0.00807   0.00000  -0.00610  -0.00608   2.08831
    A7        2.09440  -0.00496   0.00000  -0.00321  -0.00318   2.09121
    A8        2.09440  -0.00397   0.00000  -0.00578  -0.00590   2.08850
    A9        2.09440   0.00065   0.00000   0.00165   0.00171   2.09610
   A10        2.09440   0.00332   0.00000   0.00413   0.00419   2.09859
   A11        2.09440   0.00674   0.00000   0.00418   0.00410   2.09849
   A12        2.09440  -0.00236   0.00000  -0.00115  -0.00111   2.09329
   A13        2.09440  -0.00438   0.00000  -0.00303  -0.00299   2.09141
   A14        2.09440   0.02166   0.00000   0.01769   0.01772   2.11212
   A15        2.09440   0.01545   0.00000   0.01157   0.01156   2.10595
   A16        2.09440  -0.03711   0.00000  -0.02927  -0.02928   2.06511
   A17        2.09440  -0.03897   0.00000  -0.02913  -0.02905   2.06534
   A18        2.09440   0.00856   0.00000   0.00734   0.00738   2.10178
   A19        2.09440   0.00291   0.00000   0.00301   0.00299   2.09739
   A20        2.09440  -0.01147   0.00000  -0.01035  -0.01037   2.08402
   A21        2.09440   0.01545   0.00000   0.01150   0.01148   2.10587
   A22        2.09440  -0.00808   0.00000  -0.00602  -0.00601   2.08838
   A23        2.09440  -0.00738   0.00000  -0.00548  -0.00547   2.08893
   A24        2.09440  -0.00972   0.00000  -0.00887  -0.00893   2.08546
   A25        2.09440   0.00445   0.00000   0.00405   0.00408   2.09848
   A26        2.09440   0.00527   0.00000   0.00482   0.00485   2.09924
   A27        2.09440  -0.00188   0.00000  -0.00191  -0.00196   2.09243
   A28        2.09440   0.00107   0.00000   0.00108   0.00111   2.09550
   A29        2.09440   0.00080   0.00000   0.00083   0.00085   2.09525
   A30        2.09440   0.02655   0.00000   0.02108   0.02109   2.11548
   A31        2.09440  -0.03049   0.00000  -0.02391  -0.02391   2.07048
   A32        2.09440   0.00393   0.00000   0.00283   0.00283   2.09722
   A33        2.09440  -0.25948   0.00000  -0.20161  -0.20161   1.89279
   A34        2.09440  -0.19645   0.00000  -0.15264  -0.15264   1.94176
    D1        0.00000  -0.00000   0.00000  -0.00000  -0.00000   0.00000
    D2        3.14159  -0.00000   0.00000  -0.00000  -0.00000   3.14159
    D3       -0.00000   0.00000   0.00000   0.00000   0.00000  -0.00000
    D4        3.14159   0.00000   0.00000   0.00000   0.00000   3.14159
    D5        0.00000   0.00000   0.00000   0.00000   0.00000   0.00000
    D6        3.14159   0.00000   0.00000   0.00000   0.00000   3.14159
    D7       -3.14159  -0.00000   0.00000  -0.00000  -0.00000  -3.14159
    D8        0.00000  -0.00000   0.00000  -0.00000  -0.00000   0.00000
    D9       -0.00000   0.00000   0.00000   0.00000   0.00000  -0.00000
   D10        3.14159  -0.00000   0.00000  -0.00000  -0.00000   3.14159
   D11        3.14159   0.00000   0.00000   0.00000   0.00000   3.14159
   D12        0.00000  -0.00000   0.00000  -0.00000  -0.00000   0.00000
   D13        0.00000  -0.00000   0.00000  -0.00000  -0.00000   0.00000
   D14       -3.14159  -0.00000   0.00000  -0.00000  -0.00000  -3.14159
   D15       -3.14159  -0.00000   0.00000  -0.00000  -0.00000  -3.14159
   D16        0.00000  -0.00000   0.00000  -0.00000  -0.00000   0.00000
   D17       -0.00000   0.00000   0.00000   0.00000   0.00000  -0.00000
   D18        3.14159  -0.00000   0.00000  -0.00000  -0.00000   3.14159
   D19        3.14159   0.00000   0.00000   0.00000   0.00000   3.14159
   D20       -0.00000  -0.00000   0.00000  -0.00000  -0.00000  -0.00000
   D21        0.00001  -0.00000   0.00000  -0.00000  -0.00000   0.00001
   D22       -3.14158  -0.00000   0.00000  -0.00000  -0.00000  -3.14158
   D23        0.00000  -0.00000   0.00000  -0.00000  -0.00000   0.00000
   D24       -3.14159  -0.00000   0.00000  -0.00000  -0.00000  -3.14159
   D25       -0.00000   0.00000   0.00000   0.00000   0.00000  -0.00000
   D26        3.14159   0.00000   0.00000   0.00000   0.00000   3.14159
   D27       -0.00000  -0.00000   0.00000   0.00000   0.00000  -0.00000
   D28        3.14159  -0.00000   0.00000  -0.00000  -0.00000   3.14159
   D29        3.14159   0.00000   0.00000   0.00000   0.00000   3.14159
   D30       -0.00000   0.00000   0.00000   0.00000   0.00000  -0.00000
   D31       -0.00000   0.00000   0.00000   0.00000   0.00000  -0.00000
   D32       -3.14159  -0.00000   0.00000  -0.00000  -0.00000  -3.14159
   D33        3.14159   0.00000   0.00000   0.00000   0.00000   3.14159
   D34        0.00000  -0.00000   0.00000  -0.00000  -0.00000   0.00000
   D35        0.00000  -0.00000   0.00000  -0.00000  -0.00000   0.00000
   D36       -3.14159  -0.00000   0.00000  -0.00000  -0.00000  -3.14159
   D37        3.14159   0.00000   0.00000   0.00000   0.00000   3.14159
   D38        0.00000  -0.00000   0.00000  -0.00000  -0.00000   0.00000
   D39        0.00000   0.00000   0.00000   0.00000   0.00000   0.00000
   D40       -3.14159  -0.00000   0.00000  -0.00000  -0.00000  -3.14159
   D41        3.14159   0.00000   0.00000   0.00000   0.00000   3.14159
   D42       -0.00000  -0.00000   0.00000  -0.00000  -0.00000  -0.00000
   D43        0.00001  -0.00000   0.00000  -0.00000  -0.00000   0.00001
   D44       -3.14159   0.00000   0.00000   0.00000   0.00000  -3.14159
   D45       -0.00001   0.00000   0.00000   0.00000   0.00000  -0.00001
         Item               Value     Threshold  Converged?
 Maximum Force            0.259475     0.000450     NO 
 RMS     Force            0.045954     0.000300     NO 
 Maximum Displacement     1.603985     0.001800     NO 
 RMS     Displacement     0.512721     0.001200     NO 
 Predicted change in Energy=-1.140933D-01
 GradGradGradGradGradGradGradGradGradGradGradGradGradGradGradGradGradGrad

                          Input orientation:                          
 ---------------------------------------------------------------------
 Center     Atomic      Atomic             Coordinates (Angstroms)
 Number     Number       Type             X           Y           Z
 ---------------------------------------------------------------------
      1          6           0       -0.728961    0.118779    0.073254
      2          6           0        0.594177   -0.036254   -0.391777
      3          6           0        1.457701    1.063091   -0.469802
      4          6           0        1.024463    2.332789   -0.088608
      5          6           0       -0.279303    2.507043    0.373648
      6          6           0       -1.148524    1.416252    0.455157
      7          6           0       -1.332554   -0.728925    0.112904
      8          6           0       -0.521067   -1.773511   -0.350629
      9          6           0       -1.022198   -3.078922   -0.430696
     10          6           0       -2.336611   -3.362014   -0.050820
     11          6           0       -3.155320   -2.330517    0.412635
     12          6           0       -2.656227   -1.028285    0.492777
     13          1           0        2.460630    0.926134   -0.825942
     14          1           0        1.692534    3.171001   -0.151283
     15          1           0       -0.617875    3.483804    0.668635
     16          1           0        0.486739   -1.579651   -0.646247
     17          1           0       -2.713687   -4.365019   -0.114961
     18          1           0       -4.167794   -2.537855    0.707266
     19         17           0       -3.700461    0.301039    1.086469
     20         17           0       -2.827956    1.701049    1.061940
     21         17           0        0.013825   -4.374500   -1.015343
     22         17           0        1.231058   -1.597752   -0.894860
 ---------------------------------------------------------------------
                    Distance matrix (angstroms):
                    1          2          3          4          5
     1  C    0.000000
     2  C    1.411022   0.000000
     3  C    2.442974   1.400115   0.000000
     4  C    2.828875   2.426814   1.394682   0.000000
     5  C    2.448720   2.795926   2.411139   1.394220   0.000000
     6  C    1.416093   2.421586   2.787953   2.420247   1.397145
     7  C    1.041394   2.108741   3.366956   3.869138   3.413036
     8  C    1.950298   2.064830   3.460641   4.395341   4.348123
     9  C    3.250423   3.445579   4.827805   5.795901   5.692264
    10  C    3.836125   4.445947   5.844134   6.612793   6.233660
    11  C    3.464311   4.468719   5.794414   6.282377   5.628053
    12  C    2.281690   3.511650   4.714320   5.018197   4.261748
    13  H    3.410845   2.144373   1.073060   2.141241   3.383123
    14  H    3.902577   3.398634   2.144735   1.073707   2.145818
    15  H    3.419095   3.870963   3.385840   2.143718   1.075040
    16  H    2.209134   1.567920   2.820990   3.988396   4.281130
    17  H    4.907037   5.454979   6.854981   7.670403   7.306859
    18  H    4.391498   5.490198   6.782219   7.163527   6.378296
    19  Cl   3.144779   4.554436   5.441446   5.275767   4.132661
    20  Cl   2.808355   4.103962   4.595658   4.069887   2.760254
    21  Cl   4.682556   4.421088   5.652414   6.846017   7.026440
    22  Cl   2.779461   1.759826   2.704094   4.017696   4.554081
                    6          7          8          9         10
     6  C    0.000000
     7  C    2.180089   0.000000
     8  C    3.349266   1.401619   0.000000
     9  C    4.583370   2.431935   1.400586   0.000000
    10  C    4.949685   2.822781   2.430931   1.397186   0.000000
    11  C    4.250567   2.444874   2.798592   2.412784   1.396087
    12  C    2.872341   1.409265   2.413629   2.779922   2.417424
    13  H    3.861013   4.243689   4.050250   5.322292   6.480937
    14  H    3.393895   4.942710   5.421067   6.819779   7.676222
    15  H    2.145212   4.308909   5.356084   6.666437   7.094850
    16  H    3.586448   2.147061   1.068009   2.138029   3.391556
    17  H    6.016465   3.896232   3.402798   2.148224   1.073461
    18  H    4.981417   3.415271   3.873240   3.388582   2.146430
    19  Cl   2.855632   2.759644   4.059256   4.571544   4.070807
    20  Cl   1.808254   3.006937   4.403369   5.323236   5.207135
    21  Cl   6.086562   4.046714   2.737352   1.758885   2.734956
    22  Cl   4.070526   2.888349   1.843101   2.736143   4.068573
                   11         12         13         14         15
    11  C    0.000000
    12  C    1.396899   0.000000
    13  H    6.608990   5.633914   0.000000
    14  H    7.354345   6.079518   2.466691   0.000000
    15  H    6.349055   4.954266   4.272309   2.471457   0.000000
    16  H    3.866474   3.388157   3.194918   4.926219   5.346744
    17  H    2.147695   3.392114   7.434739   8.729702   8.161524
    18  H    1.074663   2.147008   7.634524   8.226274   6.990265
    19  Cl   2.770617   1.791647   6.481288   6.233226   4.450496
    20  Cl   4.096619   2.793331   5.668661   4.905863   2.866594
    21  Cl   4.032427   4.538805   5.841186   7.778127   8.061499
    22  Cl   4.635386   4.166631   2.808309   4.848389   5.628969
                   16         17         18         19         20
    16  H    0.000000
    17  H    4.275893   0.000000
    18  H    4.941136   2.475684   0.000000
    19  Cl   4.906316   4.918257   2.901985   0.000000
    20  Cl   4.966698   6.180237   4.459738   1.649816   0.000000
    21  Cl   2.858506   2.872298   4.881248   6.330418   7.021617
    22  Cl   0.784951   4.881293   5.709484   5.643665   5.584510
                   21         22
    21  Cl   0.000000
    22  Cl   3.034222   0.000000
 Stoichiometry    C12H6Cl4
 Framework group  C1[X(C12H6Cl4)]
 Deg. of freedom    60
 Full point group                 C1      NOp   1
 Largest Abelian subgroup         C1      NOp   1
 Largest concise Abelian subgroup C1      NOp   1
                         Standard orientation:                         
 ---------------------------------------------------------------------
 Center     Atomic      Atomic             Coordinates (Angstroms)
 Number     Number       Type             X           Y           Z
 ---------------------------------------------------------------------
      1          6           0       -0.607145    0.598487   -0.000001
      2          6           0        0.119318    1.808129    0.000001
      3          6           0       -0.544889    3.040668    0.000002
      4          6           0       -1.938533    3.094471    0.000001
      5          6           0       -2.674735    1.910471   -0.000002
      6          6           0       -2.021134    0.675635   -0.000003
      7          6           0       -0.067705   -0.292302   -0.000001
      8          6           0        1.278144    0.099140   -0.000002
      9          6           0        2.296447   -0.862474   -0.000002
     10          6           0        1.989228   -2.225465    0.000000
     11          6           0        0.652628   -2.628652    0.000002
     12          6           0       -0.363554   -1.670163    0.000002
     13          1           0        0.024199    3.950392    0.000003
     14          1           0       -2.440735    4.043492    0.000002
     15          1           0       -3.749161    1.946799   -0.000005
     16          1           0        1.535692    1.135630   -0.000002
     17          1           0        2.775123   -2.956689    0.000002
     18          1           0        0.405812   -3.674588    0.000007
     19         17           0       -2.081318   -2.179363    0.000006
     20         17           0       -3.026673   -0.827254   -0.000006
     21         17           0        3.978616   -0.348682   -0.000004
     22         17           0        1.878825    1.841610    0.000005
 ---------------------------------------------------------------------
 Rotational constants (GHZ):           0.5774141           0.3355086           0.2122057
 Standard basis: 6-311+G(d,p) (5D, 7F)
 There are   436 symmetry adapted cartesian basis functions of A   symmetry.
 There are   420 symmetry adapted basis functions of A   symmetry.
   420 basis functions,   692 primitive gaussians,   436 cartesian basis functions
    73 alpha electrons       73 beta electrons
       nuclear repulsion energy      1631.0616824370 Hartrees.
 NAtoms=   22 NActive=   22 NUniq=   22 SFac= 1.00D+00 NAtFMM=   60 NAOKFM=F Big=F
 Integral buffers will be    131072 words long.
 Raffenetti 2 integral format.
 Two-electron integral symmetry is turned on.
 One-electron integrals computed using PRISM.
 NBasis=   420 RedAO= T EigKep=  1.06D-06  NBF=   420
 NBsUse=   414 1.00D-06 EigRej=  6.17D-07 NBFU=   414
 Initial guess from the checkpoint file:  "./Gau-293084.chk"
 B after Tr=     0.000000    0.000000    0.000000
         Rot=    0.969619   -0.000000   -0.000000    0.244619 Ang= -28.32 deg.
 ExpMin= 4.38D-02 ExpMax= 1.06D+05 ExpMxC= 3.62D+03 IAcc=3 IRadAn=         5 AccDes= 0.00D+00
 Harris functional with IExCor=  402 and IRadAn=       5 diagonalized for initial guess.
 HarFok:  IExCor=  402 AccDes= 0.00D+00 IRadAn=         5 IDoV= 1 UseB2=F ITyADJ=14
 ICtDFT=  3500011 ScaDFX=  1.000000  1.000000  1.000000  1.000000
 FoFCou: FMM=F IPFlag=           0 FMFlag=      100000 FMFlg1=           0
         NFxFlg=           0 DoJE=T BraDBF=F KetDBF=T FulRan=T
         wScrn=  0.000000 ICntrl=       500 IOpCl=  0 I1Cent=   200000004 NGrid=           0
         NMat0=    1 NMatS0=      1 NMatT0=    0 NMatD0=    1 NMtDS0=    0 NMtDT0=    0
 Petite list used in FoFCou.
 Requested convergence on RMS density matrix=1.00D-08 within  32 cycles.
 Requested convergence on MAX density matrix=1.00D-06.
 Requested convergence on             energy=1.00D-06.
 No special actions if energy rises.
 EnCoef did     2 forward-backward iterations
 EnCoef did     2 forward-backward iterations
 EnCoef did     5 forward-backward iterations
 EnCoef did     3 forward-backward iterations
 EnCoef did     4 forward-backward iterations
 Restarting incremental Fock formation.
 >>>>>>>>>> Convergence criterion not met.
 SCF Done:  E(RB3LYP) =  -2300.23445326     A.U. after   33 cycles
            NFock= 32  Conv=0.11D-06     -V/T= 1.9994
 SCF Done:  E(RB3LYP) =  -2300.23445326     a.u. after    1 cycles
            Convg  =    0.8550D-07                     1 Fock formations.
              S**2 =  0.0000                  -V/T =  1.9994
 Calling FoFJK, ICntrl=      2127 FMM=F ISym2X=0 I1Cent= 0 IOpClX= 0 NMat=1 NMatS=1 NMatT=0.
 ***** Axes restored to original set *****
 -------------------------------------------------------------------
 Center     Atomic                   Forces (Hartrees/Bohr)
 Number     Number              X              Y              Z
 -------------------------------------------------------------------
      1        6           0.497229438    0.735830837   -0.025618024
      2        6           0.071941507    0.170758257    0.008367451
      3        6          -0.010371932   -0.005866288    0.002316323
      4        6          -0.000591282   -0.007144444   -0.001147139
      5        6          -0.015282742   -0.018025011    0.001651016
      6        6           0.135797059   -0.001248903   -0.044975699
      7        6          -0.487203306   -0.761163318    0.017557485
      8        6          -0.364517800   -0.176664220    0.086913796
      9        6          -0.007441688    0.041394818    0.010225022
     10        6           0.007120723   -0.001267872   -0.002583855
     11        6           0.012130003    0.023503712    0.000418675
     12        6           0.065979914   -0.073507111   -0.035545349
     13        1           0.007686121   -0.002677200   -0.003034997
     14        1           0.005924770    0.006977365   -0.000642414
     15        1          -0.003103914    0.010193916    0.002937267
     16        1          -1.414318436   -0.022574668    0.461703432
     17        1          -0.003626918   -0.008991492   -0.000493453
     18        1          -0.009167998   -0.002459906    0.002558435
     19       17          -0.235262009   -0.164262619    0.046660730
     20       17           0.027648467    0.273321182    0.042222543
     21       17           0.006734505   -0.016170412   -0.005255870
     22       17           1.712695517    0.000043379   -0.564235374
 -------------------------------------------------------------------
 Cartesian Forces:  Max     1.712695517 RMS     0.336549691

 GradGradGradGradGradGradGradGradGradGradGradGradGradGradGradGradGradGrad
 Berny optimization.
 Using GEDIIS/GDIIS optimizer.
 FormGI is forming the generalized inverse of G from B-inverse, IUseBI=4.
 Internal  Forces:  Max    17.537371218 RMS     2.461527533
 Search for a local minimum.
 Step number   2 out of a maximum of  112
 All quantities printed in internal units (Hartrees-Bohrs-Radians)
 Mixed Optimization -- RFO/linear search
 Update second derivatives using D2CorX and points    2    1
 DE=  1.07D+00 DEPred=-1.14D-01 R=-9.34D+00
 Trust test=-9.34D+00 RLast= 3.00D-01 DXMaxT set to 1.50D-01
 ITU= -1  0
 Use linear search instead of GDIIS.
     Eigenvalues ---    0.00238   0.00238   0.01661   0.01667   0.02070
     Eigenvalues ---    0.02070   0.02070   0.02070   0.02070   0.02070
     Eigenvalues ---    0.02070   0.02070   0.02070   0.02070   0.02070
     Eigenvalues ---    0.02070   0.02070   0.02070   0.04977   0.09706
     Eigenvalues ---    0.16000   0.16000   0.16000   0.16000   0.16000
     Eigenvalues ---    0.16008   0.22112   0.22365   0.23441   0.23481
     Eigenvalues ---    0.24579   0.24895   0.25000   0.25000   0.25000
     Eigenvalues ---    0.25000   0.28017   0.29514   0.29539   0.29539
     Eigenvalues ---    0.37064   0.37204   0.37230   0.37230   0.37230
     Eigenvalues ---    0.37230   0.40611   0.41458   0.41487   0.42011
     Eigenvalues ---    0.45181   0.45258   0.45389   0.45389   0.45389
     Eigenvalues ---    0.45389   0.45389   0.45389   1.44482 139.76620
 RFO step:  Lambda=-3.20682440D+00 EMin= 2.37799054D-03
 Quartic linear search produced a step of -0.73605.
 Maximum step size (   0.150) exceeded in Quadratic search.
    -- Step size scaled by   0.156
 Iteration  1 RMS(Cart)=  0.26576686 RMS(Int)=  0.00558209
 Iteration  2 RMS(Cart)=  0.07257244 RMS(Int)=  0.00038963
 Iteration  3 RMS(Cart)=  0.00084001 RMS(Int)=  0.00002314
 Iteration  4 RMS(Cart)=  0.00000007 RMS(Int)=  0.00002314
 Variable       Old X    -DE/DX   Delta X   Delta X   Delta X     New X
                                 (Linear)    (Quad)   (Total)
    R1        2.66644   2.56178  -0.01338   0.02272   0.00929   2.67573
    R2        2.67603   1.15078  -0.02044   0.02252   0.00205   2.67808
    R3        2.64583  -0.41864   0.00179  -0.00335  -0.00158   2.64426
    R4        3.32559   0.78108   0.00024   0.00338   0.00362   3.32921
    R5        2.63557  -1.14465   0.00934  -0.01304  -0.00367   2.63190
    R6        2.02779   0.00853  -0.00426   0.00364  -0.00061   2.02718
    R7        2.63469  -0.73355   0.00999  -0.01180  -0.00176   2.63293
    R8        2.02901   0.00917  -0.00516   0.00441  -0.00075   2.02826
    R9        2.64022   0.38766   0.00592  -0.00335   0.00258   2.64280
   R10        2.03153   0.01105  -0.00701   0.00599  -0.00102   2.03051
   R11        3.41711   2.30033  -0.06712   0.06706  -0.00006   3.41705
   R12        2.64868  -0.62143  -0.00030  -0.00248  -0.00280   2.64587
   R13        2.66313  -1.74200  -0.01094   0.00167  -0.00929   2.65383
   R14        2.64672  -0.29918   0.00113  -0.00228  -0.00115   2.64557
   R15        2.01824  -1.46649   0.00277  -0.00893  -0.00616   2.01208
   R16        2.64030  -0.74093   0.00586  -0.00824  -0.00236   2.63794
   R17        3.32381   0.01763   0.00155  -0.00122   0.00033   3.32414
   R18        2.63822  -0.45745   0.00739  -0.00830  -0.00089   2.63734
   R19        2.02855   0.00970  -0.00481   0.00412  -0.00069   2.02785
   R20        2.63976   0.26288   0.00626  -0.00418   0.00208   2.64184
   R21        2.03082   0.00981  -0.00649   0.00554  -0.00095   2.02987
   R22        3.38572  -0.71596  -0.04402   0.03377  -0.01025   3.37548
   R23        3.11770   2.27973  -0.03897   0.04291   0.00395   3.12165
    A1        2.05712  -0.78589   0.02744  -0.02649   0.00084   2.05796
    A2        2.10649   0.32584  -0.00890   0.00904   0.00009   2.10658
    A3        2.13065   2.53962  -0.02669   0.03416   0.00750   2.13815
    A4        2.04605  -2.86546   0.03559  -0.04320  -0.00759   2.03845
    A5        2.10366   0.20329  -0.00682   0.00659  -0.00020   2.10346
    A6        2.08831  -0.10330   0.00448  -0.00419   0.00027   2.08859
    A7        2.09121  -0.10000   0.00234  -0.00240  -0.00007   2.09114
    A8        2.08850  -0.14718   0.00434  -0.00448  -0.00005   2.08845
    A9        2.09610   0.07328  -0.00126   0.00148   0.00018   2.09628
   A10        2.09859   0.07390  -0.00308   0.00300  -0.00013   2.09846
   A11        2.09849   1.42763  -0.00301   0.00912   0.00617   2.10466
   A12        2.09329  -0.71424   0.00082  -0.00398  -0.00320   2.09009
   A13        2.09141  -0.71339   0.00220  -0.00513  -0.00297   2.08844
   A14        2.11212  -1.02369  -0.01304   0.00621  -0.00685   2.10527
   A15        2.10595   7.08081  -0.00851   0.04004   0.03154   2.13750
   A16        2.06511  -6.05712   0.02155  -0.04626  -0.02470   2.04042
   A17        2.06534  -0.69659   0.02138  -0.02121   0.00012   2.06546
   A18        2.10178   1.01732  -0.00543   0.00931   0.00385   2.10562
   A19        2.09739  -0.76273  -0.00220  -0.00177  -0.00396   2.09343
   A20        2.08402  -0.25459   0.00764  -0.00754   0.00011   2.08414
   A21        2.10587  -0.35987  -0.00845   0.00542  -0.00301   2.10286
   A22        2.08838   0.18804   0.00442  -0.00284   0.00158   2.08996
   A23        2.08893   0.17182   0.00402  -0.00258   0.00144   2.09036
   A24        2.08546  -0.56335   0.00657  -0.00813  -0.00151   2.08395
   A25        2.09848   0.28192  -0.00301   0.00383   0.00080   2.09928
   A26        2.09924   0.28143  -0.00357   0.00430   0.00071   2.09995
   A27        2.09243   0.47439   0.00145   0.00101   0.00249   2.09492
   A28        2.09550  -0.23779  -0.00082  -0.00043  -0.00126   2.09424
   A29        2.09525  -0.23660  -0.00063  -0.00058  -0.00123   2.09402
   A30        2.11548   0.12810  -0.01552   0.01360  -0.00193   2.11355
   A31        2.07048   2.29146   0.01760  -0.00410   0.01350   2.08399
   A32        2.09722  -2.41956  -0.00208  -0.00949  -0.01157   2.08565
   A33        1.89279  12.71231   0.14839  -0.06536   0.08303   1.97582
   A34        1.94176  17.53737   0.11235  -0.01270   0.09965   2.04141
    D1        0.00000  -0.00000   0.00000  -0.00000  -0.00000   0.00000
    D2        3.14159  -0.00001   0.00000  -0.00000  -0.00000   3.14159
    D3       -0.00000   0.00000  -0.00000   0.00000   0.00000  -0.00000
    D4        3.14159   0.00002  -0.00000   0.00000   0.00000   3.14159
    D5        0.00000   0.00000  -0.00000   0.00000   0.00000   0.00000
    D6        3.14159  -0.00000  -0.00000   0.00000  -0.00000   3.14159
    D7       -3.14159   0.00001   0.00000  -0.00000   0.00000  -3.14159
    D8        0.00000   0.00001   0.00000  -0.00000   0.00000   0.00000
    D9       -0.00000   0.00000  -0.00000   0.00000   0.00000  -0.00000
   D10        3.14159  -0.00000   0.00000  -0.00000  -0.00000   3.14159
   D11        3.14159   0.00000  -0.00000   0.00000   0.00000   3.14159
   D12        0.00000   0.00000   0.00000  -0.00000   0.00000   0.00000
   D13        0.00000  -0.00000   0.00000  -0.00000  -0.00000   0.00000
   D14       -3.14159  -0.00000   0.00000  -0.00000  -0.00000  -3.14159
   D15       -3.14159  -0.00000   0.00000  -0.00000   0.00000  -3.14159
   D16        0.00000  -0.00000   0.00000  -0.00000  -0.00000   0.00000
   D17       -0.00000   0.00000  -0.00000   0.00000   0.00000  -0.00000
   D18        3.14159  -0.00001   0.00000  -0.00000  -0.00000   3.14159
   D19        3.14159   0.00000  -0.00000   0.00000   0.00000   3.14159
   D20       -0.00000  -0.00001   0.00000  -0.00000  -0.00000  -0.00000
   D21        0.00001  -0.00004   0.00000  -0.00000  -0.00000   0.00001
   D22       -3.14158  -0.00002   0.00000  -0.00000  -0.00000  -3.14159
   D23        0.00000  -0.00000   0.00000  -0.00000  -0.00000   0.00000
   D24       -3.14159  -0.00001   0.00000  -0.00000  -0.00000  -3.14159
   D25       -0.00000   0.00000  -0.00000   0.00000   0.00000  -0.00000
   D26        3.14159   0.00002  -0.00000   0.00000   0.00000   3.14159
   D27       -0.00000   0.00000  -0.00000   0.00000   0.00000  -0.00000
   D28        3.14159  -0.00000   0.00000  -0.00000   0.00000   3.14159
   D29        3.14159   0.00001  -0.00000   0.00000   0.00000   3.14159
   D30       -0.00000   0.00000  -0.00000   0.00000   0.00000  -0.00000
   D31       -0.00000   0.00000  -0.00000   0.00000   0.00000  -0.00000
   D32       -3.14159  -0.00000   0.00000  -0.00000  -0.00000  -3.14159
   D33        3.14159   0.00000  -0.00000   0.00000   0.00000   3.14159
   D34        0.00000   0.00000   0.00000  -0.00000   0.00000   0.00000
   D35        0.00000  -0.00000   0.00000  -0.00000  -0.00000   0.00000
   D36       -3.14159  -0.00001   0.00000  -0.00000  -0.00000  -3.14159
   D37        3.14159  -0.00000  -0.00000   0.00000  -0.00000   3.14159
   D38        0.00000  -0.00000   0.00000  -0.00000  -0.00000   0.00000
   D39        0.00000   0.00000  -0.00000   0.00000   0.00000   0.00000
   D40       -3.14159  -0.00002   0.00000  -0.00000  -0.00000  -3.14159
   D41        3.14159   0.00001  -0.00000   0.00000   0.00000   3.14159
   D42       -0.00000  -0.00002   0.00000  -0.00000  -0.00000  -0.00000
   D43        0.00001  -0.00004   0.00000  -0.00000  -0.00000   0.00001
   D44       -3.14159  -0.00002  -0.00000  -0.00000  -0.00000  -3.14159
   D45       -0.00001  -0.00023  -0.00000   0.00000  -0.00000  -0.00001
         Item               Value     Threshold  Converged?
 Maximum Force            ********     0.000450     NO 
 RMS     Force            2.461528     0.000300     NO 
 Maximum Displacement     0.992344     0.001800     NO 
 RMS     Displacement     0.337040     0.001200     NO 
 Predicted change in Energy=-1.017600D+00
 GradGradGradGradGradGradGradGradGradGradGradGradGradGradGradGradGradGrad

                          Input orientation:                          
 ---------------------------------------------------------------------
 Center     Atomic      Atomic             Coordinates (Angstroms)
 Number     Number       Type             X           Y           Z
 ---------------------------------------------------------------------
      1          6           0       -0.425763    0.264952    0.000817
      2          6           0        0.919554    0.274162   -0.440674
      3          6           0        1.656840    1.463283   -0.460249
      4          6           0        1.079109    2.660599   -0.045046
      5          6           0       -0.243495    2.672525    0.392930
      6          6           0       -0.995131    1.493462    0.419122
      7          6           0       -1.346490   -1.047129    0.057733
      8          6           0       -0.654888   -2.181860   -0.383234
      9          6           0       -1.281772   -3.433315   -0.411737
     10          6           0       -2.608653   -3.570243   -0.000301
     11          6           0       -3.308491   -2.446436    0.441328
     12          6           0       -2.680790   -1.197584    0.469073
     13          1           0        2.674969    1.451260   -0.797934
     14          1           0        1.650732    3.568855   -0.062791
     15          1           0       -0.690718    3.595408    0.713593
     16          1           0        0.357808   -2.096967   -0.700928
     17          1           0       -3.085939   -4.531071   -0.023507
     18          1           0       -4.329900   -2.540969    0.760088
     19         17           0       -3.589851    0.231311    1.036932
     20         17           0       -2.700747    1.623175    1.005405
     21         17           0       -0.390584   -4.843359   -0.970165
     22         17           0        1.746788   -1.182284   -0.986740
 ---------------------------------------------------------------------
                    Distance matrix (angstroms):
                    1          2          3          4          5
     1  C    0.000000
     2  C    1.415937   0.000000
     3  C    2.446593   1.399280   0.000000
     4  C    2.829464   2.424265   1.392742   0.000000
     5  C    2.446095   2.792799   2.408620   1.393287   0.000000
     6  C    1.417179   2.427336   2.794129   2.424899   1.398510
     7  C    1.603912   2.670051   3.948477   4.431855   3.894198
     8  C    2.487344   2.917911   4.317069   5.154660   4.933226
     9  C    3.818394   4.311851   5.710908   6.545534   6.245541
    10  C    4.412904   5.236565   6.613801   7.240509   6.687357
    11  C    3.981933   5.104501   6.383827   6.750510   5.966598
[...]

 **********************************************************************

            Population analysis using the SCF Density.

 **********************************************************************

 Orbital symmetries:
       Occupied  (A) (A) (A) (A) (A) (A) (A) (A) (A) (A) (A) (A)
                 (A) (A) (A) (A) (A) (A) (A) (A) (A) (A) (A) (A)
                 (A) (A) (A) (A) (A) (A) (A) (A) (A) (A) (A) (A)
                 (A) (A) (A) (A) (A) (A) (A) (A) (A) (A) (A) (A)
                 (A) (A) (A) (A) (A) (A) (A) (A) (A) (A) (A) (A)
                 (A) (A) (A) (A) (A) (A) (A) (A) (A) (A) (A) (A)
                 (A)
       Virtual   (A) (A) (A) (A) (A) (A) (A) (A) (A) (A) (A) (A)
                 (A) (A) (A) (A) (A) (A) (A) (A) (A) (A) (A) (A)
                 (A) (A) (A) (A) (A) (A) (A) (A) (A) (A) (A) (A)
                 (A) (A) (A) (A) (A) (A) (A) (A) (A) (A) (A) (A)
                 (A) (A) (A) (A) (A) (A) (A) (A) (A) (A) (A) (A)
                 (A) (A) (A) (A) (A) (A) (A) (A) (A) (A) (A) (A)
                 (A) (A) (A) (A) (A) (A) (A) (A) (A) (A) (A) (A)
                 (A) (A) (A) (A) (A) (A) (A) (A) (A) (A) (A) (A)
                 (A) (A) (A) (A) (A) (A) (A) (A) (A) (A) (A) (A)
                 (A) (A) (A) (A) (A) (A) (A) (A) (A) (A) (A) (A)
                 (A) (A) (A) (A) (A) (A) (A) (A) (A) (A) (A) (A)
                 (A) (A) (A) (A) (A) (A) (A) (A) (A) (A) (A) (A)
                 (A) (A) (A) (A) (A) (A) (A) (A) (A) (A) (A) (A)
                 (A) (A) (A) (A) (A) (A) (A) (A) (A) (A) (A) (A)
                 (A) (A) (A) (A) (A) (A) (A) (A) (A) (A) (A) (A)
                 (A) (A) (A) (A) (A) (A) (A) (A) (A) (A) (A) (A)
                 (A) (A) (A) (A) (A) (A) (A) (A) (A) (A) (A) (A)
                 (A) (A) (A) (A) (A) (A) (A) (A) (A) (A) (A) (A)
                 (A) (A) (A) (A) (A) (A) (A) (A) (A) (A) (A) (A)
                 (A) (A) (A) (A) (A) (A) (A) (A) (A) (A) (A) (A)
                 (A) (A) (A) (A) (A) (A) (A) (A) (A) (A) (A) (A)
                 (A) (A) (A) (A) (A) (A) (A) (A) (A) (A) (A) (A)
                 (A) (A) (A) (A) (A) (A) (A) (A) (A) (A) (A) (A)
                 (A) (A) (A) (A) (A) (A) (A) (A) (A) (A) (A) (A)
                 (A) (A) (A) (A) (A) (A) (A) (A) (A) (A) (A) (A)
                 (A) (A) (A) (A) (A) (A) (A) (A) (A) (A) (A) (A)
                 (A) (A) (A) (A) (A) (A) (A) (A) (A) (A) (A) (A)
                 (A) (A) (A) (A) (A) (A) (A) (A) (A) (A) (A) (A)
                 (A) (A) (A) (A) (A) (A) (A)
 The electronic state is 1-A.
 Alpha  occ. eigenvalues -- -101.56645-101.56643-101.56404-101.56373 -10.26222
 Alpha  occ. eigenvalues --  -10.26219 -10.25612 -10.25438 -10.22722 -10.22348
 Alpha  occ. eigenvalues --  -10.20832 -10.20802 -10.20768 -10.20712 -10.20569
 Alpha  occ. eigenvalues --  -10.20562  -9.48115  -9.48113  -9.47859  -9.47843
 Alpha  occ. eigenvalues --   -7.24582  -7.24580  -7.24324  -7.24308  -7.23600
 Alpha  occ. eigenvalues --   -7.23598  -7.23549  -7.23547  -7.23339  -7.23324
 Alpha  occ. eigenvalues --   -7.23307  -7.23284  -0.93552  -0.91532  -0.88823
 Alpha  occ. eigenvalues --   -0.88759  -0.84282  -0.83741  -0.80842  -0.76121
 Alpha  occ. eigenvalues --   -0.75217  -0.73492  -0.66372  -0.63390  -0.62321
 Alpha  occ. eigenvalues --   -0.60635  -0.54707  -0.52504  -0.51318  -0.51234
 Alpha  occ. eigenvalues --   -0.49045  -0.47395  -0.45731  -0.45416  -0.45145
 Alpha  occ. eigenvalues --   -0.42708  -0.42480  -0.41403  -0.39489  -0.39370
 Alpha  occ. eigenvalues --   -0.38769  -0.38219  -0.37230  -0.33744  -0.33355
 Alpha  occ. eigenvalues --   -0.33044  -0.32936  -0.32537  -0.32430  -0.28446
 Alpha  occ. eigenvalues --   -0.27766  -0.26521  -0.25623
 Alpha virt. eigenvalues --   -0.04923  -0.04659  -0.04445  -0.03725  -0.01871
 Alpha virt. eigenvalues --   -0.00462   0.00090   0.00921   0.01268   0.01781
 Alpha virt. eigenvalues --    0.02240   0.02258   0.03462   0.04210   0.04685
 Alpha virt. eigenvalues --    0.05037   0.05445   0.06126   0.06219   0.06491
 Alpha virt. eigenvalues --    0.06900   0.08359   0.08696   0.08766   0.09290
 Alpha virt. eigenvalues --    0.09641   0.10253   0.10610   0.11043   0.11224
 Alpha virt. eigenvalues --    0.12090   0.12151   0.12691   0.12791   0.13153
 Alpha virt. eigenvalues --    0.13281   0.13791   0.13817   0.14494   0.15127
 Alpha virt. eigenvalues --    0.15593   0.16008   0.16275   0.16950   0.17113
 Alpha virt. eigenvalues --    0.17556   0.17785   0.17924   0.18009   0.18814
 Alpha virt. eigenvalues --    0.18892   0.19319   0.20070   0.20326   0.20859
 Alpha virt. eigenvalues --    0.21255   0.21548   0.21858   0.22240   0.22738
 Alpha virt. eigenvalues --    0.22833   0.23535   0.23612   0.24086   0.24548
 Alpha virt. eigenvalues --    0.25280   0.25619   0.26317   0.26690   0.26810
 Alpha virt. eigenvalues --    0.27409   0.27443   0.27552   0.27860   0.28628
 Alpha virt. eigenvalues --    0.29615   0.29951   0.30258   0.30723   0.31843
 Alpha virt. eigenvalues --    0.32405   0.32453   0.33439   0.34383   0.36139
 Alpha virt. eigenvalues --    0.41401   0.42080   0.42684   0.43896   0.45183
 Alpha virt. eigenvalues --    0.45306   0.45872   0.46258   0.48034   0.48698
 Alpha virt. eigenvalues --    0.49702   0.50389   0.50687   0.50785   0.51022
 Alpha virt. eigenvalues --    0.52014   0.52979   0.54119   0.54340   0.54867
 Alpha virt. eigenvalues --    0.56778   0.57176   0.57756   0.58228   0.58598
 Alpha virt. eigenvalues --    0.59033   0.59404   0.60044   0.60934   0.61253
 Alpha virt. eigenvalues --    0.63647   0.63838   0.64540   0.65042   0.65300
 Alpha virt. eigenvalues --    0.65448   0.66270   0.67367   0.68448   0.69012
 Alpha virt. eigenvalues --    0.69504   0.69997   0.70148   0.70594   0.72277
 Alpha virt. eigenvalues --    0.72978   0.75931   0.78667   0.79521   0.80397
 Alpha virt. eigenvalues --    0.82089   0.82863   0.83354   0.84126   0.84469
 Alpha virt. eigenvalues --    0.84862   0.85087   0.85653   0.85882   0.86233
 Alpha virt. eigenvalues --    0.86469   0.86839   0.87706   0.89039   0.89711
 Alpha virt. eigenvalues --    0.89893   0.89998   0.91412   0.91777   0.94262
 Alpha virt. eigenvalues --    0.95161   0.96138   0.96205   0.96272   0.96383
 Alpha virt. eigenvalues --    0.97504   0.98857   0.98998   0.99737   0.99740
 Alpha virt. eigenvalues --    1.02042   1.02800   1.03806   1.04156   1.04711
 Alpha virt. eigenvalues --    1.05063   1.06209   1.08468   1.12074   1.14894
 Alpha virt. eigenvalues --    1.15899   1.20603   1.21681   1.23437   1.24005
 Alpha virt. eigenvalues --    1.25419   1.26691   1.27105   1.30244   1.31215
 Alpha virt. eigenvalues --    1.31528   1.32811   1.33251   1.34703   1.40814
 Alpha virt. eigenvalues --    1.41947   1.45394   1.48229   1.48744   1.49228
 Alpha virt. eigenvalues --    1.49832   1.54857   1.55539   1.56984   1.57425
 Alpha virt. eigenvalues --    1.57883   1.59416   1.61191   1.62377   1.65099
 Alpha virt. eigenvalues --    1.67105   1.67440   1.69398   1.69707   1.70755
 Alpha virt. eigenvalues --    1.73141   1.77282   1.80783   1.80888   1.81716
 Alpha virt. eigenvalues --    1.82730   1.86108   1.86314   1.88788   1.91539
 Alpha virt. eigenvalues --    1.93290   1.93383   1.94243   1.95717   1.95867
 Alpha virt. eigenvalues --    1.96745   1.97032   1.97259   2.02569   2.02800
 Alpha virt. eigenvalues --    2.04026   2.04289   2.07664   2.14155   2.15296
 Alpha virt. eigenvalues --    2.17480   2.18712   2.26288   2.26735   2.26934
 Alpha virt. eigenvalues --    2.27725   2.29614   2.31343   2.31577   2.32500
 Alpha virt. eigenvalues --    2.35085   2.36487   2.38086   2.41009   2.41098
 Alpha virt. eigenvalues --    2.44998   2.45665   2.47909   2.51302   2.51922
 Alpha virt. eigenvalues --    2.53465   2.55705   2.56766   2.58439   2.59024
 Alpha virt. eigenvalues --    2.61742   2.67791   2.68346   2.69231   2.69403
 Alpha virt. eigenvalues --    2.69925   2.70830   2.73010   2.73977   2.75412
 Alpha virt. eigenvalues --    2.75455   2.76612   2.77014   2.77656   2.78477
 Alpha virt. eigenvalues --    2.81452   2.83153   2.84210   2.85456   2.86471
 Alpha virt. eigenvalues --    2.90005   2.97141   2.99487   3.08417   3.09881
 Alpha virt. eigenvalues --    3.10601   3.13576   3.13897   3.18308   3.22431
 Alpha virt. eigenvalues --    3.24631   3.28801   3.34145   3.35091   3.38915
 Alpha virt. eigenvalues --    3.42070   3.53214   3.55538   3.60528   3.67979
 Alpha virt. eigenvalues --    3.70684   3.78414   3.87269   3.97530   4.01320
 Alpha virt. eigenvalues --    4.05468   4.08521   4.12740   4.36008   4.81255
 Alpha virt. eigenvalues --    4.82305   9.78202   9.80390   9.83609   9.84998
 Alpha virt. eigenvalues --   23.42331  23.57305  23.85415  23.85539  23.90331
 Alpha virt. eigenvalues --   23.95056  23.98545  24.03381  24.04224  24.09364
 Alpha virt. eigenvalues --   24.14051  24.15468  25.82110  25.82850  25.92845
 Alpha virt. eigenvalues --   25.97240  26.11316  26.25207  26.28700  26.29054
 Alpha virt. eigenvalues --   26.61779  26.62853  26.67761  26.91996 215.77451
 Alpha virt. eigenvalues --  215.80035 215.83776 215.86122
          Condensed to atoms (all electrons):
               1          2          3          4          5          6
     1  C   18.596892   1.054997  -4.507816  -1.074953  -4.498608   1.050139
     2  C    1.054997  14.282207  -2.523695  -1.426623   3.241000  -0.367351
     3  C   -4.507816  -2.523695  13.246399   1.465541   1.229498   3.250360
     4  C   -1.074953  -1.426623   1.465541   7.606011   1.465819  -1.429429
     5  C   -4.498608   3.241000   1.229498   1.465819  13.234258  -2.508051
     6  C    1.050139  -0.367351   3.250360  -1.429429  -2.508051  14.284960
     7  C    6.874940  -1.477359  -3.635531  -0.664589  -3.634321  -1.485410
     8  C   -6.129292  -1.022490  -0.480192   0.049389  -0.480707  -1.029446
     9  C    3.390161  -0.431558   0.001702  -0.216178   0.002313  -0.425118
    10  C    0.362339   0.170224   0.026600   0.033978   0.026371   0.171601
    11  C   -3.261086   0.159911   0.175680   0.175385   0.175001   0.155975
    12  C   -6.704490  -4.382865  -2.042150   0.374128  -2.045905  -4.394189
    13  H    0.073732   0.030425   0.307874  -0.030347  -0.030007  -0.007730
    14  H   -0.007283   0.009788  -0.036312   0.406511  -0.036314   0.009869
    15  H    0.073839  -0.007635  -0.030085  -0.030256   0.307981   0.030111
    16  H    0.133798   0.065000   0.017565   0.004939   0.017535   0.065339
    17  H    0.004529   0.001352   0.000103  -0.000003   0.000102   0.001347
    18  H    0.015492   0.000392  -0.000318   0.000120  -0.000318   0.000397
    19  Cl   0.307704  -0.272009  -0.211240  -0.137657  -0.210796  -0.271250
    20  Cl   0.137976  -0.496730   0.280264  -0.127809  -0.480545  -0.296141
    21  Cl  -0.226816  -0.037307  -0.001684   0.001565  -0.001754  -0.037603
    22  Cl   0.139666  -0.300072  -0.483326  -0.128759   0.277966  -0.498454
               7          8          9         10         11         12
     1  C    6.874940  -6.129292   3.390161   0.362339  -3.261086  -6.704490
     2  C   -1.477359  -1.022490  -0.431558   0.170224   0.159911  -4.382865
     3  C   -3.635531  -0.480192   0.001702   0.026600   0.175680  -2.042150
     4  C   -0.664589   0.049389  -0.216178   0.033978   0.175385   0.374128
     5  C   -3.634321  -0.480707   0.002313   0.026371   0.175001  -2.045905
     6  C   -1.485410  -1.029446  -0.425118   0.171601   0.155975  -4.394189
     7  C   24.791603  -1.290262  -5.640818  -1.400840  -1.730061  -3.588604
     8  C   -1.290262  27.304569  -5.747814 -10.021632   1.409429   3.027002
     9  C   -5.640818  -5.747814  21.081911  -0.472508  -1.584662  -3.803703
    10  C   -1.400840 -10.021632  -0.472508  17.406043   1.924476  -1.748889
    11  C   -1.730061   1.409429  -1.584662   1.924476  13.201084  -4.055348
    12  C   -3.588604   3.027002  -3.803703  -1.748889  -4.055348  34.712973
    13  H    0.013295  -0.000122  -0.000541   0.000077  -0.000049   0.001377
    14  H    0.003961  -0.001276  -0.000200  -0.000024   0.000114   0.001785
    15  H    0.013305  -0.000136  -0.000544   0.000078  -0.000051   0.001393
    16  H   -0.010670   0.114282   0.043886   0.096518  -0.032533  -0.143150
    17  H    0.036836   0.042614   0.020907   0.328664  -0.056400  -0.025598
    18  H    0.091140  -0.039274  -0.022550  -0.039231   0.338851   0.014216
    19  Cl  -0.694411  -0.197800   0.034016   0.065393  -0.497336   1.126195
    20  Cl   0.100452  -0.072689   0.348893  -0.077239  -0.218512   0.027758
    21  Cl  -0.364930   1.201773  -1.578110  -0.175099   0.141480   0.258796
    22  Cl   0.106999  -0.071008   0.348123  -0.078417  -0.218103   0.029817
              13         14         15         16         17         18
     1  C    0.073732  -0.007283   0.073839   0.133798   0.004529   0.015492
     2  C    0.030425   0.009788  -0.007635   0.065000   0.001352   0.000392
     3  C    0.307874  -0.036312  -0.030085   0.017565   0.000103  -0.000318
     4  C   -0.030347   0.406511  -0.030256   0.004939  -0.000003   0.000120
     5  C   -0.030007  -0.036314   0.307981   0.017535   0.000102  -0.000318
     6  C   -0.007730   0.009869   0.030111   0.065339   0.001347   0.000397
     7  C    0.013295   0.003961   0.013305  -0.010670   0.036836   0.091140
     8  C   -0.000122  -0.001276  -0.000136   0.114282   0.042614  -0.039274
     9  C   -0.000541  -0.000200  -0.000544   0.043886   0.020907  -0.022550
    10  C    0.000077  -0.000024   0.000078   0.096518   0.328664  -0.039231
    11  C   -0.000049   0.000114  -0.000051  -0.032533  -0.056400   0.338851
    12  C    0.001377   0.001785   0.001393  -0.143150  -0.025598   0.014216
    13  H    0.509525  -0.007525  -0.000181   0.000005  -0.000000   0.000000
    14  H   -0.007525   0.522191  -0.007527  -0.000004  -0.000000  -0.000000
    15  H   -0.000181  -0.007527   0.509525   0.000005  -0.000000   0.000000
    16  H    0.000005  -0.000004   0.000005   0.517943  -0.000295   0.000047
    17  H   -0.000000  -0.000000  -0.000000  -0.000295   0.506793  -0.007627
    18  H    0.000000  -0.000000   0.000000   0.000047  -0.007627   0.508790
    19  Cl  -0.000541  -0.000288  -0.000537  -0.002699  -0.000019  -0.012248
    20  Cl   0.000412   0.000230  -0.010082  -0.006495  -0.000194  -0.000678
    21  Cl  -0.000008   0.000000  -0.000008  -0.018809  -0.007524   0.000702
    22  Cl  -0.010086   0.000233   0.000414  -0.006612  -0.000197  -0.000688
              19         20         21         22
     1  C    0.307704   0.137976  -0.226816   0.139666
     2  C   -0.272009  -0.496730  -0.037307  -0.300072
     3  C   -0.211240   0.280264  -0.001684  -0.483326
     4  C   -0.137657  -0.127809   0.001565  -0.128759
     5  C   -0.210796  -0.480545  -0.001754   0.277966
     6  C   -0.271250  -0.296141  -0.037603  -0.498454
     7  C   -0.694411   0.100452  -0.364930   0.106999
     8  C   -0.197800  -0.072689   1.201773  -0.071008
     9  C    0.034016   0.348893  -1.578110   0.348123
    10  C    0.065393  -0.077239  -0.175099  -0.078417
    11  C   -0.497336  -0.218512   0.141480  -0.218103
    12  C    1.126195   0.027758   0.258796   0.029817
    13  H   -0.000541   0.000412  -0.000008  -0.010086
    14  H   -0.000288   0.000230   0.000000   0.000233
    15  H   -0.000537  -0.010082  -0.000008   0.000414
    16  H   -0.002699  -0.006495  -0.018809  -0.006612
    17  H   -0.000019  -0.000194  -0.007524  -0.000197
    18  H   -0.012248  -0.000678   0.000702  -0.000688
    19  Cl  17.436840   0.083442  -0.013288   0.084296
    20  Cl   0.083442  17.440526  -0.001313  -0.050561
    21  Cl  -0.013288  -0.001313  17.446003  -0.001300
    22  Cl   0.084296  -0.050561  -0.001300  17.441783
 Mulliken charges:
               1
     1  C    0.194140
     2  C   -0.269602
     3  C   -0.049237
     4  C   -0.316784
     5  C   -0.050519
     6  C   -0.269925
     7  C   -0.414725
     8  C   -0.564918
     9  C    0.652391
    10  C   -0.598483
    11  C   -0.203246
    12  C   -0.640550
    13  H    0.150415
    14  H    0.142071
    15  H    0.150388
    16  H    0.144405
    17  H    0.154609
    18  H    0.152785
    19  Cl   0.384231
    20  Cl   0.419037
    21  Cl   0.415234
    22  Cl   0.418283
 Sum of Mulliken charges =  -0.00000
 Mulliken charges with hydrogens summed into heavy atoms:
               1
     1  C    0.194140
     2  C   -0.269602
     3  C    0.101178
     4  C   -0.174713
     5  C    0.099870
     6  C   -0.269925
     7  C   -0.414725
     8  C   -0.420513
     9  C    0.652391
    10  C   -0.443875
    11  C   -0.050461
    12  C   -0.640550
    19  Cl   0.384231
    20  Cl   0.419037
    21  Cl   0.415234
    22  Cl   0.418283
 Electronic spatial extent (au):  <R**2>=           4973.2906
 Charge=             -0.0000 electrons
 Dipole moment (field-independent basis, Debye):
    X=             -1.5454    Y=             -0.0013    Z=              0.2991  Tot=              1.5741
 Quadrupole moment (field-independent basis, Debye-Ang):
   XX=           -106.7257   YY=           -123.4753   ZZ=           -119.4619
   XY=              0.0986   XZ=            -10.4285   YZ=             -0.0416
 Traceless Quadrupole moment (field-independent basis, Debye-Ang):
   XX=              9.8286   YY=             -6.9210   ZZ=             -2.9076
   XY=              0.0986   XZ=            -10.4285   YZ=             -0.0416
 Octapole moment (field-independent basis, Debye-Ang**2):
  XXX=            -44.7549  YYY=             -0.0227  ZZZ=             -8.6055  XYY=             -5.4930
  XXY=              0.0712  XXZ=             -3.7320  XZZ=             10.4917  YZZ=              0.1011
  YYZ=              0.9652  XYZ=             -0.1638
 Hexadecapole moment (field-independent basis, Debye-Ang**3):
 XXXX=          -3544.8162 YYYY=          -1477.0519 ZZZZ=          -1349.2830 XXXY=              1.2678
 XXXZ=           -133.5307 YYYX=             -0.0379 YYYZ=              0.7016 ZZZX=             33.6203
 ZZZY=             -0.4256 XXYY=           -869.4274 XXZZ=           -821.3175 YYZZ=           -490.5501
 XXYZ=             -0.2587 YYXZ=             -0.7385 ZZXY=             -0.2917
 N-N= 1.500364849647D+03 E-N=-8.445525257163D+03  KE= 2.295552518942D+03
 1\1\GINC-CN009\FOpt\RB3LYP\6-311+G(d,p)\C12H6Cl4\20CY91R06\03-Apr-2022
 \0\\# opt b3lyp/6-311+g(d,p) scf=xqc\\Title Card Required\\0,1\C,-0.46
 59800364,0.2311909595,-0.0355087033\C,0.3186209066,0.5847247697,-1.142
 8269911\C,1.0340503346,1.7763158879,-1.196163332\C,0.9747516442,2.6522
 905709,-0.1176995894\C,0.2105832084,2.3410265385,1.0015484012\C,-0.495
 3635875,1.1427822617,1.0297345438\C,-1.213802433,-1.0583495353,0.01496
 19889\C,-0.5904131072,-2.1940714589,0.541215889\C,-1.2693979039,-3.404
 1470658,0.5961741729\C,-2.5759689555,-3.5154792875,0.1327874918\C,-3.2
 049108675,-2.3921215424,-0.392419861\C,-2.5275797211,-1.1776601407,-0.
 4491447677\H,1.6252913557,2.0079737692,-2.0720771599\H,1.5277740987,3.
 583533093,-0.1497588988\H,0.1570526451,3.0147152479,1.8463888412\H,0.4
 260627988,-2.1249968513,0.9063244544\H,-3.0958030353,-4.4634862083,0.1
 805200371\H,-4.2213868488,-2.4571630606,-0.7583324209\Cl,-3.3575427825
 ,0.2152258004,-1.1189388154\Cl,-1.4526525085,0.7792485528,2.4560096801
 \Cl,-0.462685386,-4.8149655109,1.2621516386\Cl,0.4118882912,-0.4988116
 4,-2.5212312294\\Version=EM64L-G16RevB.01\State=1-A\HF=-2301.9021873\R
 MSD=6.151e-09\RMSF=3.797e-05\Dipole=0.2615503,0.5594453,-0.0461242\Qua
 drupole=1.675965,3.6403935,-5.3163585,8.8873051,0.2822101,1.0806848\PG
 =C01 [X(C12H6Cl4)]\\@


 Age does not diminish the extreme disappointment of
 having a scoop of ice cream fall from the cone.
 -- Jim Fiebig
 Job cpu time:       1 days  7 hours 37 minutes 15.3 seconds.
 Elapsed time:       1 days  7 hours 37 minutes 15.9 seconds.
 File lengths (MBytes):  RWF=    116 Int=      0 D2E=      0 Chk=     17 Scr=      1
 Normal termination of Gaussian 16 at Sun Apr  3 06:15:19 2022.
