 Entering Gaussian System, Link 0=g16
 Input=2,2prime,4,4prime,6,6prime-Hexachlorobiphenyl.gjf
 Output=2,2prime,4,4prime,6,6prime-Hexachlorobiphenyl.log
 Initial command:
 /opt/g16/l1.exe "/scratch/gour/Gau-104962.inp" -scrdir="/scratch/gour/"
 Entering Link 1 = /opt/g16/l1.exe PID=    104963.
  
 Copyright (c) 1988-2017, Gaussian, Inc.  All Rights Reserved.
  
 This is part of the Gaussian(R) 16 program.  It is based on
 the Gaussian(R) 09 system (copyright 2009, Gaussian, Inc.),
 the Gaussian(R) 03 system (copyright 2003, Gaussian, Inc.),
 the Gaussian(R) 98 system (copyright 1998, Gaussian, Inc.),
 the Gaussian(R) 94 system (copyright 1995, Gaussian, Inc.),
 the Gaussian 92(TM) system (copyright 1992, Gaussian, Inc.),
 the Gaussian 90(TM) system (copyright 1990, Gaussian, Inc.),
 the Gaussian 88(TM) system (copyright 1988, Gaussian, Inc.),
 the Gaussian 86(TM) system (copyright 1986, Carnegie Mellon
 University), and the Gaussian 82(TM) system (copyright 1983,
 Carnegie Mellon University). Gaussian is a federally registered
 trademark of Gaussian, Inc.
  
 This software contains proprietary and confidential information,
 including trade secrets, belonging to Gaussian, Inc.
  
 This software is provided under written license and may be
 used, copied, transmitted, or stored only in accord with that
 written license.
  
 The following legend is applicable only to US Government
 contracts under FAR:
  
                    RESTRICTED RIGHTS LEGEND
  
 Use, reproduction and disclosure by the US Government is
 subject to restrictions as set forth in subparagraphs (a)
 and (c) of the Commercial Computer Software - Restricted
 Rights clause in FAR 52.227-19.
  
 Gaussian, Inc.
 340 Quinnipiac St., Bldg. 40, Wallingford CT 06492
  
  
 ---------------------------------------------------------------
 Warning -- This program may not be used in any manner that
 competes with the business of Gaussian, Inc. or will provide
 assistance to any competitor of Gaussian, Inc.  The licensee
 of this program is prohibited from giving any competitor of
 Gaussian, Inc. access to this program.  By using this program,
 the user acknowledges that Gaussian, Inc. is engaged in the
 business of creating and licensing software in the field of
 computational chemistry and represents and warrants to the
 licensee that it is not a competitor of Gaussian, Inc. and that
 it will not use this program in any manner prohibited above.
 ---------------------------------------------------------------
  

 Cite this work as:
 Gaussian 16, Revision B.01,
 M. J. Frisch, G. W. Trucks, H. B. Schlegel, G. E. Scuseria, 
 M. A. Robb, J. R. Cheeseman, G. Scalmani, V. Barone, 
 G. A. Petersson, H. Nakatsuji, X. Li, M. Caricato, A. V. Marenich, 
 J. Bloino, B. G. Janesko, R. Gomperts, B. Mennucci, H. P. Hratchian, 
 J. V. Ortiz, A. F. Izmaylov, J. L. Sonnenberg, D. Williams-Young, 
 F. Ding, F. Lipparini, F. Egidi, J. Goings, B. Peng, A. Petrone, 
 T. Henderson, D. Ranasinghe, V. G. Zakrzewski, J. Gao, N. Rega, 
 G. Zheng, W. Liang, M. Hada, M. Ehara, K. Toyota, R. Fukuda, 
 J. Hasegawa, M. Ishida, T. Nakajima, Y. Honda, O. Kitao, H. Nakai, 
 T. Vreven, K. Throssell, J. A. Montgomery, Jr., J. E. Peralta, 
 F. Ogliaro, M. J. Bearpark, J. J. Heyd, E. N. Brothers, K. N. Kudin, 
 V. N. Staroverov, T. A. Keith, R. Kobayashi, J. Normand, 
 K. Raghavachari, A. P. Rendell, J. C. Burant, S. S. Iyengar, 
 J. Tomasi, M. Cossi, J. M. Millam, M. Klene, C. Adamo, R. Cammi, 
 J. W. Ochterski, R. L. Martin, K. Morokuma, O. Farkas, 
 J. B. Foresman, and D. J. Fox, Gaussian, Inc., Wallingford CT, 2016.
 
 ******************************************
 Gaussian 16:  EM64L-G16RevB.01 20-Dec-2017
                17-Mar-2022 
 ******************************************
 %mem=10GB
 %nprocshared=4
 Will use up to    4 processors via shared memory.
 --------------------------------
 # opt b3lyp/6-311+g(d,p) scf=xqc
 --------------------------------
 1/18=20,19=15,26=3,38=1/1,3;
 2/9=110,12=2,17=6,18=5,40=1/2;
 3/5=4,6=6,7=111,11=2,25=1,30=1,71=1,74=-5/1,2,3;
 4//1;
 5/5=2,8=3,13=1,38=5/2,8;
 6/7=2,8=2,9=2,10=2,28=1/1;
 7//1,2,3,16;
 1/18=20,19=15,26=3/3(2);
 2/9=110/2;
 99//99;
 2/9=110/2;
 3/5=4,6=6,7=111,11=2,25=1,30=1,71=1,74=-5/1,2,3;
 4/5=5,16=3,69=1/1;
 5/5=2,8=3,13=1,38=5/2,8;
 7//1,2,3,16;
 1/18=20,19=15,26=3/3(-5);
 2/9=110/2;
 6/7=2,8=2,9=2,10=2,19=2,28=1/1;
 99/9=1/99;
 -------------------
 Title Card Required
 -------------------
 Symbolic Z-matrix:
 Charge =  0 Multiplicity = 1
 C                     1.11635   0.31298  -0.00285 
 C                     2.44873   0.34287  -0.4362 
 C                     3.15663   1.55232  -0.44227 
 C                     2.53214   2.73189  -0.015 
 C                     1.19976   2.702     0.41835 
 C                     0.49186   1.49255   0.42442 
 C                     0.33845  -1.01608   0.00382 
 C                     0.96293  -2.19565  -0.42345 
 C                     0.25504  -3.4051   -0.41738 
 C                    -1.07734  -3.43499   0.01597 
 C                    -1.70183  -2.25542   0.44325 
 C                    -0.99393  -1.04597   0.43717 
 H                     4.17393   1.57514  -0.77314 
 H                     0.72295   3.60262   0.74458 
 H                     0.73185  -4.30572  -0.74361 
 H                    -2.71913  -2.27824   0.77412 
 Cl                   -1.77822   0.43543   0.97378 
 Cl                   -1.18146   1.45502   0.96866 
 Cl                   -1.96637  -4.95392   0.0236 
 Cl                    3.42117   4.25082  -0.02262 
 Cl                    2.63625  -2.15812  -0.96769 
 Cl                    3.23302  -1.13853  -0.9728 
 

 GradGradGradGradGradGradGradGradGradGradGradGradGradGradGradGradGradGrad
 Berny optimization.
 Initialization pass.
                           ----------------------------
                           !    Initial Parameters    !
                           ! (Angstroms and Degrees)  !
 --------------------------                            --------------------------
 ! Name  Definition              Value          Derivative Info.                !
 --------------------------------------------------------------------------------
 ! R1    R(1,2)                  1.4014         estimate D2E/DX2                !
 ! R2    R(1,6)                  1.4014         estimate D2E/DX2                !
 ! R3    R(1,7)                  1.54           estimate D2E/DX2                !
 ! R4    R(2,3)                  1.4014         estimate D2E/DX2                !
 ! R5    R(2,22)                 1.76           estimate D2E/DX2                !
 ! R6    R(3,4)                  1.4014         estimate D2E/DX2                !
 ! R7    R(3,13)                 1.07           estimate D2E/DX2                !
 ! R8    R(4,5)                  1.4014         estimate D2E/DX2                !
 ! R9    R(4,20)                 1.76           estimate D2E/DX2                !
 ! R10   R(5,6)                  1.4014         estimate D2E/DX2                !
 ! R11   R(5,14)                 1.07           estimate D2E/DX2                !
 ! R12   R(6,18)                 1.76           estimate D2E/DX2                !
 ! R13   R(7,8)                  1.4014         estimate D2E/DX2                !
 ! R14   R(7,12)                 1.4014         estimate D2E/DX2                !
 ! R15   R(8,9)                  1.4014         estimate D2E/DX2                !
 ! R16   R(8,21)                 1.76           estimate D2E/DX2                !
 ! R17   R(9,10)                 1.4014         estimate D2E/DX2                !
 ! R18   R(9,15)                 1.07           estimate D2E/DX2                !
 ! R19   R(10,11)                1.4014         estimate D2E/DX2                !
 ! R20   R(10,19)                1.76           estimate D2E/DX2                !
 ! R21   R(11,12)                1.4014         estimate D2E/DX2                !
 ! R22   R(11,16)                1.07           estimate D2E/DX2                !
 ! R23   R(12,17)                1.76           estimate D2E/DX2                !
 ! R24   R(17,18)                1.1814         estimate D2E/DX2                !
 ! R25   R(21,22)                1.1814         estimate D2E/DX2                !
 ! A1    A(2,1,6)              120.0            estimate D2E/DX2                !
 ! A2    A(2,1,7)              120.0            estimate D2E/DX2                !
 ! A3    A(6,1,7)              120.0            estimate D2E/DX2                !
 ! A4    A(1,2,3)              120.0            estimate D2E/DX2                !
 ! A5    A(1,2,22)             120.0            estimate D2E/DX2                !
 ! A6    A(3,2,22)             120.0            estimate D2E/DX2                !
 ! A7    A(2,3,4)              120.0            estimate D2E/DX2                !
 ! A8    A(2,3,13)             120.0            estimate D2E/DX2                !
 ! A9    A(4,3,13)             120.0            estimate D2E/DX2                !
 ! A10   A(3,4,5)              120.0            estimate D2E/DX2                !
 ! A11   A(3,4,20)             120.0            estimate D2E/DX2                !
 ! A12   A(5,4,20)             120.0            estimate D2E/DX2                !
 ! A13   A(4,5,6)              120.0            estimate D2E/DX2                !
 ! A14   A(4,5,14)             120.0            estimate D2E/DX2                !
 ! A15   A(6,5,14)             120.0            estimate D2E/DX2                !
 ! A16   A(1,6,5)              120.0            estimate D2E/DX2                !
 ! A17   A(1,6,18)             120.0            estimate D2E/DX2                !
 ! A18   A(5,6,18)             120.0            estimate D2E/DX2                !
 ! A19   A(1,7,8)              120.0            estimate D2E/DX2                !
 ! A20   A(1,7,12)             120.0            estimate D2E/DX2                !
 ! A21   A(8,7,12)             120.0            estimate D2E/DX2                !
 ! A22   A(7,8,9)              120.0            estimate D2E/DX2                !
 ! A23   A(7,8,21)             120.0            estimate D2E/DX2                !
 ! A24   A(9,8,21)             120.0            estimate D2E/DX2                !
 ! A25   A(8,9,10)             120.0            estimate D2E/DX2                !
 ! A26   A(8,9,15)             120.0            estimate D2E/DX2                !
 ! A27   A(10,9,15)            120.0            estimate D2E/DX2                !
 ! A28   A(9,10,11)            120.0            estimate D2E/DX2                !
 ! A29   A(9,10,19)            120.0            estimate D2E/DX2                !
 ! A30   A(11,10,19)           120.0            estimate D2E/DX2                !
 ! A31   A(10,11,12)           120.0            estimate D2E/DX2                !
 ! A32   A(10,11,16)           120.0            estimate D2E/DX2                !
 ! A33   A(12,11,16)           120.0            estimate D2E/DX2                !
 ! A34   A(7,12,11)            120.0            estimate D2E/DX2                !
 ! A35   A(7,12,17)            120.0            estimate D2E/DX2                !
 ! A36   A(11,12,17)           120.0            estimate D2E/DX2                !
 ! A37   A(12,17,18)           120.0            estimate D2E/DX2                !
 ! A38   A(6,18,17)            120.0            estimate D2E/DX2                !
 ! A39   A(8,21,22)            120.0            estimate D2E/DX2                !
 ! A40   A(2,22,21)            120.0            estimate D2E/DX2                !
 ! D1    D(6,1,2,3)              0.0001         estimate D2E/DX2                !
 ! D2    D(6,1,2,22)           180.0            estimate D2E/DX2                !
 ! D3    D(7,1,2,3)           -180.0            estimate D2E/DX2                !
 ! D4    D(7,1,2,22)            -0.0001         estimate D2E/DX2                !
 ! D5    D(2,1,6,5)             -0.0001         estimate D2E/DX2                !
 ! D6    D(2,1,6,18)           180.0            estimate D2E/DX2                !
 ! D7    D(7,1,6,5)            180.0            estimate D2E/DX2                !
 ! D8    D(7,1,6,18)             0.0            estimate D2E/DX2                !
 ! D9    D(2,1,7,8)             -0.0001         estimate D2E/DX2                !
 ! D10   D(2,1,7,12)           179.9998         estimate D2E/DX2                !
 ! D11   D(6,1,7,8)            179.9999         estimate D2E/DX2                !
 ! D12   D(6,1,7,12)            -0.0002         estimate D2E/DX2                !
 ! D13   D(1,2,3,4)              0.0            estimate D2E/DX2                !
 ! D14   D(1,2,3,13)           180.0            estimate D2E/DX2                !
 ! D15   D(22,2,3,4)          -179.9999         estimate D2E/DX2                !
 ! D16   D(22,2,3,13)            0.0001         estimate D2E/DX2                !
 ! D17   D(1,2,22,21)            0.0002         estimate D2E/DX2                !
 ! D18   D(3,2,22,21)         -179.9999         estimate D2E/DX2                !
 ! D19   D(2,3,4,5)             -0.0001         estimate D2E/DX2                !
 ! D20   D(2,3,4,20)           180.0            estimate D2E/DX2                !
 ! D21   D(13,3,4,5)           179.9999         estimate D2E/DX2                !
 ! D22   D(13,3,4,20)            0.0            estimate D2E/DX2                !
 ! D23   D(3,4,5,6)              0.0001         estimate D2E/DX2                !
 ! D24   D(3,4,5,14)          -179.9999         estimate D2E/DX2                !
 ! D25   D(20,4,5,6)          -180.0            estimate D2E/DX2                !
 ! D26   D(20,4,5,14)            0.0            estimate D2E/DX2                !
 ! D27   D(4,5,6,1)              0.0            estimate D2E/DX2                !
 ! D28   D(4,5,6,18)           179.9999         estimate D2E/DX2                !
 ! D29   D(14,5,6,1)           180.0            estimate D2E/DX2                !
 ! D30   D(14,5,6,18)           -0.0001         estimate D2E/DX2                !
 ! D31   D(1,6,18,17)            0.0006         estimate D2E/DX2                !
 ! D32   D(5,6,18,17)         -179.9994         estimate D2E/DX2                !
 ! D33   D(1,7,8,9)            179.9999         estimate D2E/DX2                !
 ! D34   D(1,7,8,21)             0.0001         estimate D2E/DX2                !
 ! D35   D(12,7,8,9)             0.0001         estimate D2E/DX2                !
 ! D36   D(12,7,8,21)         -179.9998         estimate D2E/DX2                !
 ! D37   D(1,7,12,11)         -179.9999         estimate D2E/DX2                !
 ! D38   D(1,7,12,17)            0.0            estimate D2E/DX2                !
 ! D39   D(8,7,12,11)           -0.0001         estimate D2E/DX2                !
 ! D40   D(8,7,12,17)          179.9999         estimate D2E/DX2                !
 ! D41   D(7,8,9,10)             0.0            estimate D2E/DX2                !
 ! D42   D(7,8,9,15)           180.0            estimate D2E/DX2                !
 ! D43   D(21,8,9,10)          179.9998         estimate D2E/DX2                !
 ! D44   D(21,8,9,15)           -0.0002         estimate D2E/DX2                !
 ! D45   D(7,8,21,22)            0.0001         estimate D2E/DX2                !
 ! D46   D(9,8,21,22)         -179.9998         estimate D2E/DX2                !
 ! D47   D(8,9,10,11)            0.0            estimate D2E/DX2                !
 ! D48   D(8,9,10,19)         -179.9999         estimate D2E/DX2                !
 ! D49   D(15,9,10,11)         180.0            estimate D2E/DX2                !
 ! D50   D(15,9,10,19)           0.0001         estimate D2E/DX2                !
 ! D51   D(9,10,11,12)           0.0            estimate D2E/DX2                !
 ! D52   D(9,10,11,16)        -179.9998         estimate D2E/DX2                !
 ! D53   D(19,10,11,12)        179.9999         estimate D2E/DX2                !
 ! D54   D(19,10,11,16)          0.0001         estimate D2E/DX2                !
 ! D55   D(10,11,12,7)           0.0            estimate D2E/DX2                !
 ! D56   D(10,11,12,17)       -179.9999         estimate D2E/DX2                !
 ! D57   D(16,11,12,7)         179.9999         estimate D2E/DX2                !
 ! D58   D(16,11,12,17)         -0.0001         estimate D2E/DX2                !
 ! D59   D(7,12,17,18)           0.0005         estimate D2E/DX2                !
 ! D60   D(11,12,17,18)       -179.9995         estimate D2E/DX2                !
 ! D61   D(12,17,18,6)          -0.0008         estimate D2E/DX2                !
 ! D62   D(8,21,22,2)           -0.0002         estimate D2E/DX2                !
 --------------------------------------------------------------------------------
 Trust Radius=3.00D-01 FncErr=1.00D-07 GrdErr=1.00D-06 EigMax=2.50D+02 EigMin=1.00D-04
 Number of steps in this run=    132 maximum allowed number of steps=    132.
 GradGradGradGradGradGradGradGradGradGradGradGradGradGradGradGradGradGrad

                          Input orientation:                          
 ---------------------------------------------------------------------
 Center     Atomic      Atomic             Coordinates (Angstroms)
 Number     Number       Type             X           Y           Z
 ---------------------------------------------------------------------
      1          6           0        1.116351    0.312983   -0.002851
      2          6           0        2.448732    0.342869   -0.436198
      3          6           0        3.156625    1.552320   -0.442270
      4          6           0        2.532138    2.731885   -0.014995
      5          6           0        1.199756    2.702000    0.418349
      6          6           0        0.491863    1.492549    0.424422
      7          6           0        0.338446   -1.016084    0.003823
      8          6           0        0.962933   -2.195649   -0.423452
      9          6           0        0.255040   -3.405100   -0.417378
     10          6           0       -1.077340   -3.434987    0.015972
     11          6           0       -1.701827   -2.255422    0.443247
     12          6           0       -0.993934   -1.045970    0.437173
     13          1           0        4.173928    1.575139   -0.773139
     14          1           0        0.722945    3.602624    0.744581
     15          1           0        0.731850   -4.305724   -0.743612
     16          1           0       -2.719128   -2.278241    0.774122
     17         17           0       -1.778219    0.435430    0.973785
     18         17           0       -1.181458    1.455016    0.968656
     19         17           0       -1.966373   -4.953921    0.023603
     20         17           0        3.421172    4.250819   -0.022621
     21         17           0        2.636253   -2.158116   -0.967686
     22         17           0        3.233018   -1.138532   -0.972803
 ---------------------------------------------------------------------
                    Distance matrix (angstroms):
                    1          2          3          4          5
     1  C    0.000000
     2  C    1.401400   0.000000
     3  C    2.427296   1.401400   0.000000
     4  C    2.802800   2.427296   1.401400   0.000000
     5  C    2.427296   2.802800   2.427296   1.401400   0.000000
     6  C    1.401400   2.427296   2.802800   2.427296   1.401400
     7  C    1.540000   2.548270   3.838989   4.342800   3.838989
     8  C    2.548270   2.941400   4.342800   5.187469   4.975106
     9  C    3.838989   4.342800   5.744200   6.558176   6.235992
    10  C    4.342800   5.187469   6.558176   7.145600   6.558176
    11  C    3.838989   4.975106   6.235992   6.558176   5.744200
    12  C    2.548270   3.813607   4.975106   5.187469   4.342800
    13  H    3.396345   2.146700   1.070000   2.146700   3.396345
    14  H    3.396345   3.872800   3.396345   2.146700   1.070000
    15  H    4.693509   4.965039   6.347206   7.300676   7.118798
    16  H    4.693509   5.919617   7.118798   7.300676   6.347206
    17  Cl   3.057342   4.456874   5.254079   4.983028   3.783409
    18  Cl   2.743718   4.048303   4.562800   4.048303   2.743718
    19  Cl   6.102800   6.910901   8.294174   8.905600   8.294174
    20  Cl   4.562800   4.048303   2.743718   1.760000   2.743718
    21  Cl   3.057342   2.563702   3.783409   4.983028   5.254079
    22  Cl   2.743718   1.760000   2.743718   4.048303   4.562800
                    6          7          8          9         10
     6  C    0.000000
     7  C    2.548270   0.000000
     8  C    3.813607   1.401400   0.000000
     9  C    4.975106   2.427296   1.401400   0.000000
    10  C    5.187469   2.802800   2.427296   1.401400   0.000000
    11  C    4.342800   2.427296   2.802800   2.427296   1.401400
    12  C    2.941400   1.401400   2.427296   2.802800   2.427296
    13  H    3.872800   4.693509   4.965039   6.347206   7.300676
    14  H    2.146700   4.693509   5.919617   7.118798   7.300676
    15  H    5.919617   3.396345   2.146700   1.070000   2.146700
    16  H    4.965039   3.396345   3.872800   3.396345   2.146700
    17  Cl   2.563702   2.743718   4.048303   4.562800   4.048303
    18  Cl   1.760000   3.057342   4.456874   5.254079   4.983028
    19  Cl   6.910901   4.562800   4.048303   2.743718   1.760000
    20  Cl   4.048303   6.102800   6.910901   8.294174   8.905600
    21  Cl   4.456874   2.743718   1.760000   2.743718   4.048303
    22  Cl   4.048303   3.057342   2.563702   3.783409   4.983028
                   11         12         13         14         15
    11  C    0.000000
    12  C    1.401400   0.000000
    13  H    7.118798   5.919617   0.000000
    14  H    6.347206   4.965039   4.280590   0.000000
    15  H    3.396345   3.872800   6.814200   8.047159   0.000000
    16  H    1.070000   2.146700   8.047159   6.814200   4.280590
    17  Cl   2.743718   1.760000   6.307038   4.042212   5.632800
    18  Cl   3.783409   2.563702   5.632800   2.879094   6.307038
    19  Cl   2.743718   4.048303   8.998151   8.998151   2.879094
    20  Cl   8.294174   6.910901   2.879094   2.879094   8.998151
    21  Cl   4.562800   4.048303   4.042212   6.307038   2.879094
    22  Cl   5.254079   4.456874   2.879094   5.632800   4.042212
                   16         17         18         19         20
    16  H    0.000000
    17  Cl   2.879094   0.000000
    18  Cl   4.042212   1.181400   0.000000
    19  Cl   2.879094   5.475705   6.525618   0.000000
    20  Cl   8.998151   6.525618   5.475705  10.665600   0.000000
    21  Cl   5.632800   5.475705   5.601701   5.475705   6.525618
    22  Cl   6.307038   5.601701   5.475705   6.525618   5.475705
                   21         22
    21  Cl   0.000000
    22  Cl   1.181400   0.000000
 Stoichiometry    C12H4Cl6
 Framework group  C1[X(C12H4Cl6)]
 Deg. of freedom    60
 Full point group                 C1      NOp   1
 Largest Abelian subgroup         C1      NOp   1
 Largest concise Abelian subgroup C1      NOp   1
                         Standard orientation:                         
 ---------------------------------------------------------------------
 Center     Atomic      Atomic             Coordinates (Angstroms)
 Number     Number       Type             X           Y           Z
 ---------------------------------------------------------------------
      1          6           0       -0.770000    0.000000    0.000002
      2          6           0       -1.470700   -1.213648    0.000001
      3          6           0       -2.872100   -1.213648   -0.000000
      4          6           0       -3.572800    0.000000   -0.000001
      5          6           0       -2.872100    1.213648    0.000002
      6          6           0       -1.470700    1.213648    0.000003
      7          6           0        0.770000    0.000000    0.000003
      8          6           0        1.470700   -1.213648    0.000004
      9          6           0        2.872100   -1.213648    0.000003
     10          6           0        3.572800    0.000000    0.000001
     11          6           0        2.872100    1.213648   -0.000001
     12          6           0        1.470700    1.213648   -0.000000
     13          1           0       -3.407100   -2.140295   -0.000002
     14          1           0       -3.407100    2.140295    0.000004
     15          1           0        3.407100   -2.140295    0.000004
     16          1           0        3.407100    2.140295   -0.000005
     17         17           0        0.590700    2.737853   -0.000004
     18         17           0       -0.590700    2.737853    0.000005
     19         17           0        5.332800    0.000000   -0.000003
     20         17           0       -5.332800    0.000000   -0.000004
     21         17           0        0.590700   -2.737853    0.000002
     22         17           0       -0.590700   -2.737853   -0.000001
 ---------------------------------------------------------------------
 Rotational constants (GHZ):           0.4182380           0.1739745           0.1228659
 Standard basis: 6-311+G(d,p) (5D, 7F)
 There are   486 symmetry adapted cartesian basis functions of A   symmetry.
 There are   468 symmetry adapted basis functions of A   symmetry.
   468 basis functions,   782 primitive gaussians,   486 cartesian basis functions
    89 alpha electrons       89 beta electrons
       nuclear repulsion energy      2236.4883769301 Hartrees.
 NAtoms=   22 NActive=   22 NUniq=   22 SFac= 1.00D+00 NAtFMM=   60 NAOKFM=F Big=F
 Integral buffers will be    131072 words long.
 Raffenetti 2 integral format.
 Two-electron integral symmetry is turned on.
 One-electron integrals computed using PRISM.
 NBasis=   468 RedAO= T EigKep=  1.21D-06  NBF=   468
 NBsUse=   460 1.00D-06 EigRej=  9.14D-07 NBFU=   460
 ExpMin= 4.38D-02 ExpMax= 1.06D+05 ExpMxC= 3.62D+03 IAcc=3 IRadAn=         5 AccDes= 0.00D+00
 Harris functional with IExCor=  402 and IRadAn=       5 diagonalized for initial guess.
 HarFok:  IExCor=  402 AccDes= 0.00D+00 IRadAn=         5 IDoV= 1 UseB2=F ITyADJ=14
 ICtDFT=  3500011 ScaDFX=  1.000000  1.000000  1.000000  1.000000
 FoFCou: FMM=F IPFlag=           0 FMFlag=      100000 FMFlg1=           0
         NFxFlg=           0 DoJE=T BraDBF=F KetDBF=T FulRan=T
         wScrn=  0.000000 ICntrl=       500 IOpCl=  0 I1Cent=   200000004 NGrid=           0
         NMat0=    1 NMatS0=      1 NMatT0=    0 NMatD0=    1 NMtDS0=    0 NMtDT0=    0
 Petite list used in FoFCou.
 Requested convergence on RMS density matrix=1.00D-08 within  32 cycles.
 Requested convergence on MAX density matrix=1.00D-06.
 Requested convergence on             energy=1.00D-06.
 No special actions if energy rises.
 SCF Done:  E(RB3LYP) =  -3217.89986936     A.U. after   17 cycles
            NFock= 17  Conv=0.64D-08     -V/T= 1.9977
 QCSCF skips out because SCF is already converged.

 **********************************************************************

            Population analysis using the SCF Density.

 **********************************************************************

 Orbital symmetries:
       Occupied  (A) (A) (A) (A) (A) (A) (A) (A) (A) (A) (A) (A)
                 (A) (A) (A) (A) (A) (A) (A) (A) (A) (A) (A) (A)
                 (A) (A) (A) (A) (A) (A) (A) (A) (A) (A) (A) (A)
                 (A) (A) (A) (A) (A) (A) (A) (A) (A) (A) (A) (A)
                 (A) (A) (A) (A) (A) (A) (A) (A) (A) (A) (A) (A)
                 (A) (A) (A) (A) (A) (A) (A) (A) (A) (A) (A) (A)
                 (A) (A) (A) (A) (A) (A) (A) (A) (A) (A) (A) (A)
                 (A) (A) (A) (A) (A)
       Virtual   (A) (A) (A) (A) (A) (A) (A) (A) (A) (A) (A) (A)
                 (A) (A) (A) (A) (A) (A) (A) (A) (A) (A) (A) (A)
                 (A) (A) (A) (A) (A) (A) (A) (A) (A) (A) (A) (A)
                 (A) (A) (A) (A) (A) (A) (A) (A) (A) (A) (A) (A)
                 (A) (A) (A) (A) (A) (A) (A) (A) (A) (A) (A) (A)
                 (A) (A) (A) (A) (A) (A) (A) (A) (A) (A) (A) (A)
                 (A) (A) (A) (A) (A) (A) (A) (A) (A) (A) (A) (A)
                 (A) (A) (A) (A) (A) (A) (A) (A) (A) (A) (A) (A)
                 (A) (A) (A) (A) (A) (A) (A) (A) (A) (A) (A) (A)
                 (A) (A) (A) (A) (A) (A) (A) (A) (A) (A) (A) (A)
                 (A) (A) (A) (A) (A) (A) (A) (A) (A) (A) (A) (A)
                 (A) (A) (A) (A) (A) (A) (A) (A) (A) (A) (A) (A)
                 (A) (A) (A) (A) (A) (A) (A) (A) (A) (A) (A) (A)
                 (A) (A) (A) (A) (A) (A) (A) (A) (A) (A) (A) (A)
                 (A) (A) (A) (A) (A) (A) (A) (A) (A) (A) (A) (A)
                 (A) (A) (A) (A) (A) (A) (A) (A) (A) (A) (A) (A)
                 (A) (A) (A) (A) (A) (A) (A) (A) (A) (A) (A) (A)
                 (A) (A) (A) (A) (A) (A) (A) (A) (A) (A) (A) (A)
                 (A) (A) (A) (A) (A) (A) (A) (A) (A) (A) (A) (A)
                 (A) (A) (A) (A) (A) (A) (A) (A) (A) (A) (A) (A)
                 (A) (A) (A) (A) (A) (A) (A) (A) (A) (A) (A) (A)
                 (A) (A) (A) (A) (A) (A) (A) (A) (A) (A) (A) (A)
                 (A) (A) (A) (A) (A) (A) (A) (A) (A) (A) (A) (A)
                 (A) (A) (A) (A) (A) (A) (A) (A) (A) (A) (A) (A)
                 (A) (A) (A) (A) (A) (A) (A) (A) (A) (A) (A) (A)
                 (A) (A) (A) (A) (A) (A) (A) (A) (A) (A) (A) (A)
                 (A) (A) (A) (A) (A) (A) (A) (A) (A) (A) (A) (A)
                 (A) (A) (A) (A) (A) (A) (A) (A) (A) (A) (A) (A)
                 (A) (A) (A) (A) (A) (A) (A) (A) (A) (A) (A) (A)
                 (A) (A) (A) (A) (A) (A) (A) (A) (A) (A) (A) (A)
                 (A) (A) (A) (A) (A) (A) (A) (A) (A) (A) (A)
 The electronic state is 1-A.
 Alpha  occ. eigenvalues -- -101.65519-101.65518-101.65518-101.65518-101.55350
 Alpha  occ. eigenvalues -- -101.55350 -10.24446 -10.24445 -10.19687 -10.19666
 Alpha  occ. eigenvalues --  -10.18837 -10.18837 -10.18836 -10.18836 -10.16797
 Alpha  occ. eigenvalues --  -10.16797 -10.16795 -10.16794  -9.64279  -9.64278
 Alpha  occ. eigenvalues --   -9.62152  -9.62152  -9.46799  -9.46799  -7.42690
 Alpha  occ. eigenvalues --   -7.42689  -7.37714  -7.37714  -7.37688  -7.37688
 Alpha  occ. eigenvalues --   -7.37257  -7.37257  -7.37090  -7.37090  -7.36655
 Alpha  occ. eigenvalues --   -7.36655  -7.23249  -7.23249  -7.22291  -7.22291
 Alpha  occ. eigenvalues --   -7.22254  -7.22254  -1.38595  -1.38593  -0.90234
 Alpha  occ. eigenvalues --   -0.89449  -0.86566  -0.85140  -0.83437  -0.82172
 Alpha  occ. eigenvalues --   -0.77884  -0.77792  -0.73149  -0.72605  -0.71852
 Alpha  occ. eigenvalues --   -0.71822  -0.71214  -0.69816  -0.65277  -0.62724
 Alpha  occ. eigenvalues --   -0.57503  -0.57495  -0.56952  -0.56068  -0.51865
 Alpha  occ. eigenvalues --   -0.48644  -0.48458  -0.46441  -0.44041  -0.42080
 Alpha  occ. eigenvalues --   -0.40969  -0.40853  -0.40714  -0.40007  -0.38204
 Alpha  occ. eigenvalues --   -0.36447  -0.35693  -0.34184  -0.33751  -0.32044
 Alpha  occ. eigenvalues --   -0.31909  -0.31623  -0.27734  -0.27512  -0.26644
 Alpha  occ. eigenvalues --   -0.20835  -0.20252  -0.17818  -0.13339
 Alpha virt. eigenvalues --   -0.06114  -0.05259  -0.02665  -0.01112  -0.00608
 Alpha virt. eigenvalues --    0.00620   0.00872   0.00900   0.00974   0.01948
 Alpha virt. eigenvalues --    0.02057   0.02326   0.02441   0.02679   0.03108
 Alpha virt. eigenvalues --    0.03602   0.04611   0.06072   0.06288   0.06551
 Alpha virt. eigenvalues --    0.06747   0.06772   0.07725   0.08199   0.09081
 Alpha virt. eigenvalues --    0.09085   0.09589   0.10420   0.11292   0.11380
 Alpha virt. eigenvalues --    0.11502   0.11825   0.12025   0.12416   0.12497
 Alpha virt. eigenvalues --    0.12737   0.13462   0.13605   0.13842   0.13909
 Alpha virt. eigenvalues --    0.14110   0.14376   0.15096   0.16044   0.16132
 Alpha virt. eigenvalues --    0.17098   0.17179   0.17283   0.17445   0.18248
 Alpha virt. eigenvalues --    0.18248   0.18677   0.19130   0.19413   0.20583
 Alpha virt. eigenvalues --    0.20645   0.21147   0.21409   0.21557   0.21558
 Alpha virt. eigenvalues --    0.22057   0.22261   0.22497   0.22736   0.23229
 Alpha virt. eigenvalues --    0.23260   0.23407   0.24681   0.24788   0.25197
 Alpha virt. eigenvalues --    0.26203   0.26892   0.27226   0.27245   0.27280
 Alpha virt. eigenvalues --    0.27751   0.28830   0.28833   0.28854   0.28904
 Alpha virt. eigenvalues --    0.29365   0.30015   0.30100   0.32451   0.33460
 Alpha virt. eigenvalues --    0.33509   0.34229   0.34736   0.35131   0.35528
 Alpha virt. eigenvalues --    0.37404   0.39177   0.40427   0.41383   0.44074
 Alpha virt. eigenvalues --    0.44575   0.44690   0.44968   0.44995   0.45264
 Alpha virt. eigenvalues --    0.45510   0.45568   0.46575   0.47061   0.48637
 Alpha virt. eigenvalues --    0.48688   0.49373   0.49889   0.50490   0.52931
 Alpha virt. eigenvalues --    0.53813   0.53917   0.55157   0.55220   0.55264
 Alpha virt. eigenvalues --    0.56074   0.56337   0.56392   0.58878   0.59415
 Alpha virt. eigenvalues --    0.59524   0.59637   0.61174   0.61661   0.63332
 Alpha virt. eigenvalues --    0.63886   0.64043   0.66244   0.66355   0.66380
 Alpha virt. eigenvalues --    0.66582   0.66971   0.67788   0.68770   0.69098
 Alpha virt. eigenvalues --    0.69138   0.69590   0.71813   0.73511   0.73600
 Alpha virt. eigenvalues --    0.74549   0.75761   0.76793   0.78723   0.79420
 Alpha virt. eigenvalues --    0.79547   0.79822   0.81604   0.82560   0.83843
 Alpha virt. eigenvalues --    0.85370   0.85650   0.86130   0.86510   0.86524
 Alpha virt. eigenvalues --    0.86748   0.86886   0.87955   0.88158   0.88967
 Alpha virt. eigenvalues --    0.90230   0.91275   0.92716   0.92868   0.93853
 Alpha virt. eigenvalues --    0.94200   0.95226   0.95600   0.97184   0.97491
 Alpha virt. eigenvalues --    0.97909   0.98577   0.99208   0.99650   1.00979
 Alpha virt. eigenvalues --    1.02128   1.03293   1.05708   1.06691   1.09169
 Alpha virt. eigenvalues --    1.09515   1.10611   1.11309   1.12169   1.12982
 Alpha virt. eigenvalues --    1.13051   1.15149   1.16344   1.17018   1.18456
 Alpha virt. eigenvalues --    1.20170   1.21621   1.26004   1.26598   1.27215
 Alpha virt. eigenvalues --    1.30279   1.31222   1.32425   1.32613   1.32643
 Alpha virt. eigenvalues --    1.35045   1.35147   1.37115   1.39858   1.40947
 Alpha virt. eigenvalues --    1.44736   1.46153   1.47474   1.50134   1.50573
 Alpha virt. eigenvalues --    1.52677   1.53092   1.54521   1.55778   1.57768
 Alpha virt. eigenvalues --    1.60379   1.61034   1.62383   1.62492   1.62624
 Alpha virt. eigenvalues --    1.63178   1.67602   1.70762   1.71506   1.71582
 Alpha virt. eigenvalues --    1.73185   1.79878   1.84604   1.84915   1.85042
 Alpha virt. eigenvalues --    1.86910   1.90284   1.91128   1.93724   1.93799
 Alpha virt. eigenvalues --    1.94140   1.94894   1.96906   1.96944   1.98905
 Alpha virt. eigenvalues --    1.99026   2.01208   2.02994   2.05960   2.06254
 Alpha virt. eigenvalues --    2.06537   2.07528   2.10053   2.12655   2.12897
 Alpha virt. eigenvalues --    2.13771   2.14022   2.21119   2.21714   2.24604
 Alpha virt. eigenvalues --    2.24969   2.25148   2.26478   2.26987   2.27251
 Alpha virt. eigenvalues --    2.28465   2.30011   2.32459   2.36364   2.37252
 Alpha virt. eigenvalues --    2.37517   2.39711   2.41677   2.43232   2.44600
 Alpha virt. eigenvalues --    2.46587   2.50105   2.54354   2.54852   2.56299
 Alpha virt. eigenvalues --    2.57048   2.60590   2.61267   2.61304   2.63506
 Alpha virt. eigenvalues --    2.66372   2.67104   2.70133   2.70283   2.72966
 Alpha virt. eigenvalues --    2.74109   2.75284   2.75343   2.75488   2.77586
 Alpha virt. eigenvalues --    2.78086   2.79230   2.82831   2.84157   2.86008
 Alpha virt. eigenvalues --    2.86303   2.88226   2.92084   2.94317   2.96608
 Alpha virt. eigenvalues --    2.97834   3.03051   3.08726   3.10607   3.15710
 Alpha virt. eigenvalues --    3.16422   3.19467   3.21115   3.21257   3.25147
 Alpha virt. eigenvalues --    3.33106   3.35709   3.39522   3.46530   3.47865
 Alpha virt. eigenvalues --    3.48574   3.61569   3.62744   3.73981   3.78586
 Alpha virt. eigenvalues --    3.81076   3.82848   4.00781   4.02054   4.11476
 Alpha virt. eigenvalues --    4.16270   4.50183   4.82688   4.84859   9.76078
 Alpha virt. eigenvalues --    9.78986   9.80835   9.81135  10.54317  10.56287
 Alpha virt. eigenvalues --   23.39676  23.56938  23.85466  23.85501  23.92714
 Alpha virt. eigenvalues --   23.94177  24.00164  24.04609  24.05215  24.06184
 Alpha virt. eigenvalues --   24.10949  24.12232  25.41252  25.42016  25.83012
 Alpha virt. eigenvalues --   25.83424  26.01552  26.02841  26.11790  26.16185
 Alpha virt. eigenvalues --   26.19597  26.21157  26.60623  26.65928  27.09110
 Alpha virt. eigenvalues --   27.13076  27.29152  27.53575  28.37159  28.53758
 Alpha virt. eigenvalues --  215.76698 215.78267 215.89884 215.91074 216.86098
 Alpha virt. eigenvalues --  216.88137
          Condensed to atoms (all electrons):
               1          2          3          4          5          6
     1  C   22.115479   6.215447  -3.385410  -4.661952  -3.385409   6.215446
     2  C    6.215447  32.897917  -7.316902  -5.970250  -1.374138   0.668910
     3  C   -3.385410  -7.316902  15.436626   1.952436  -0.411937  -1.374139
     4  C   -4.661952  -5.970250   1.952436  15.809609   1.952436  -5.970249
     5  C   -3.385409  -1.374138  -0.411937   1.952436  15.436626  -7.316902
     6  C    6.215446   0.668910  -1.374139  -5.970249  -7.316902  32.897916
     7  C    7.300562   1.886441  -3.700361  -1.634000  -3.700361   1.886441
     8  C    1.886442   7.108878  -3.760344  -1.160874  -0.821635   0.608580
     9  C   -3.700362  -3.760344   1.219087   0.165667  -0.573173  -0.821635
    10  C   -1.634000  -1.160874   0.165667   0.069666   0.165667  -1.160874
    11  C   -3.700361  -0.821635  -0.573173   0.165667   1.219087  -3.760343
    12  C    1.886441   0.608580  -0.821635  -1.160874  -3.760344   7.108878
    13  H    0.151875   0.052576   0.203929   0.010963  -0.018168   0.008829
    14  H    0.151875   0.008829  -0.018168   0.010963   0.203929   0.052576
    15  H    0.039004   0.010375  -0.004470  -0.000722   0.001087   0.007431
    16  H    0.039004   0.007431   0.001087  -0.000722  -0.004470   0.010375
    17  Cl  -3.352050  -0.425388  -0.185615   1.512987   3.506099  -7.616632
    18  Cl  -5.897662   0.037137  -0.247712   1.911889   5.644824 -14.909574
    19  Cl  -0.055606  -0.035348  -0.003016  -0.001313  -0.003016  -0.035348
    20  Cl  -0.187890  -0.127363   0.155181  -0.551069   0.155181  -0.127363
    21  Cl  -3.352051  -7.616631   3.506099   1.512987  -0.185615  -0.425388
    22  Cl  -5.897662 -14.909575   5.644824   1.911889  -0.247712   0.037137
               7          8          9         10         11         12
     1  C    7.300562   1.886442  -3.700362  -1.634000  -3.700361   1.886441
     2  C    1.886441   7.108878  -3.760344  -1.160874  -0.821635   0.608580
     3  C   -3.700361  -3.760344   1.219087   0.165667  -0.573173  -0.821635
     4  C   -1.634000  -1.160874   0.165667   0.069666   0.165667  -1.160874
     5  C   -3.700361  -0.821635  -0.573173   0.165667   1.219087  -3.760344
     6  C    1.886441   0.608580  -0.821635  -1.160874  -3.760343   7.108878
     7  C   22.115479   6.215447  -3.385410  -4.661952  -3.385410   6.215445
     8  C    6.215447  32.897917  -7.316903  -5.970249  -1.374138   0.668910
     9  C   -3.385410  -7.316903  15.436626   1.952436  -0.411937  -1.374138
    10  C   -4.661952  -5.970249   1.952436  15.809607   1.952436  -5.970249
    11  C   -3.385410  -1.374138  -0.411937   1.952436  15.436625  -7.316902
    12  C    6.215445   0.668910  -1.374138  -5.970249  -7.316902  32.897916
    13  H    0.039004   0.010375  -0.004470  -0.000722   0.001087   0.007431
    14  H    0.039004   0.007431   0.001087  -0.000722  -0.004470   0.010375
    15  H    0.151875   0.052576   0.203929   0.010963  -0.018168   0.008829
    16  H    0.151875   0.008829  -0.018168   0.010963   0.203929   0.052576
    17  Cl  -5.897662   0.037137  -0.247712   1.911889   5.644824 -14.909574
    18  Cl  -3.352050  -0.425387  -0.185615   1.512987   3.506098  -7.616631
    19  Cl  -0.187890  -0.127363   0.155181  -0.551069   0.155181  -0.127363
    20  Cl  -0.055606  -0.035348  -0.003016  -0.001313  -0.003016  -0.035348
    21  Cl  -5.897662 -14.909574   5.644824   1.911889  -0.247712   0.037137
    22  Cl  -3.352050  -7.616632   3.506099   1.512987  -0.185615  -0.425387
              13         14         15         16         17         18
     1  C    0.151875   0.151875   0.039004   0.039004  -3.352050  -5.897662
     2  C    0.052576   0.008829   0.010375   0.007431  -0.425388   0.037137
     3  C    0.203929  -0.018168  -0.004470   0.001087  -0.185615  -0.247712
     4  C    0.010963   0.010963  -0.000722  -0.000722   1.512987   1.911889
     5  C   -0.018168   0.203929   0.001087  -0.004470   3.506099   5.644824
     6  C    0.008829   0.052576   0.007431   0.010375  -7.616632 -14.909574
     7  C    0.039004   0.039004   0.151875   0.151875  -5.897662  -3.352050
     8  C    0.010375   0.007431   0.052576   0.008829   0.037137  -0.425387
     9  C   -0.004470   0.001087   0.203929  -0.018168  -0.247712  -0.185615
    10  C   -0.000722  -0.000722   0.010963   0.010963   1.911889   1.512987
    11  C    0.001087  -0.004470  -0.018168   0.203929   5.644824   3.506098
    12  C    0.007431   0.010375   0.008829   0.052576 -14.909574  -7.616631
    13  H    0.523244  -0.000363   0.000001   0.000000   0.000107   0.003181
    14  H   -0.000363   0.523244   0.000000   0.000001  -0.003342  -0.110291
    15  H    0.000001   0.000000   0.523244  -0.000363   0.003181   0.000107
    16  H    0.000000   0.000001  -0.000363   0.523244  -0.110291  -0.003342
    17  Cl   0.000107  -0.003342   0.003181  -0.110291  33.514610   3.859411
    18  Cl   0.003181  -0.110291   0.000107  -0.003342   3.859411  33.514610
    19  Cl  -0.000000  -0.000000  -0.014087  -0.014087  -0.011904  -0.002334
    20  Cl  -0.014087  -0.014087  -0.000000  -0.000000  -0.002334  -0.011904
    21  Cl  -0.003342   0.000107  -0.110291   0.003181  -0.251248  -0.419535
    22  Cl  -0.110291   0.003181  -0.003342   0.000107  -0.419535  -0.251248
              19         20         21         22
     1  C   -0.055606  -0.187890  -3.352051  -5.897662
     2  C   -0.035348  -0.127363  -7.616631 -14.909575
     3  C   -0.003016   0.155181   3.506099   5.644824
     4  C   -0.001313  -0.551069   1.512987   1.911889
     5  C   -0.003016   0.155181  -0.185615  -0.247712
     6  C   -0.035348  -0.127363  -0.425388   0.037137
     7  C   -0.187890  -0.055606  -5.897662  -3.352050
     8  C   -0.127363  -0.035348 -14.909574  -7.616632
     9  C    0.155181  -0.003016   5.644824   3.506099
    10  C   -0.551069  -0.001313   1.911889   1.512987
    11  C    0.155181  -0.003016  -0.247712  -0.185615
    12  C   -0.127363  -0.035348   0.037137  -0.425387
    13  H   -0.000000  -0.014087  -0.003342  -0.110291
    14  H   -0.000000  -0.014087   0.000107   0.003181
    15  H   -0.014087  -0.000000  -0.110291  -0.003342
    16  H   -0.014087  -0.000000   0.003181   0.000107
    17  Cl  -0.011904  -0.002334  -0.251248  -0.419535
    18  Cl  -0.002334  -0.011904  -0.419535  -0.251248
    19  Cl  17.438837  -0.000002  -0.011904  -0.002334
    20  Cl  -0.000002  17.438837  -0.002334  -0.011904
    21  Cl  -0.011904  -0.002334  33.514609   3.859411
    22  Cl  -0.002334  -0.011904   3.859411  33.514610
 Mulliken charges:
               1
     1  C   -0.791159
     2  C    0.015925
     3  C   -0.482054
     4  C    0.124868
     5  C   -0.482054
     6  C    0.015925
     7  C   -0.791159
     8  C    0.015925
     9  C   -0.482054
    10  C    0.124868
    11  C   -0.482054
    12  C    0.015925
    13  H    0.138841
    14  H    0.138841
    15  H    0.138841
    16  H    0.138841
    17  Cl   0.443041
    18  Cl   0.443041
    19  Cl   0.434785
    20  Cl   0.434785
    21  Cl   0.443041
    22  Cl   0.443041
 Sum of Mulliken charges =  -0.00000
 Mulliken charges with hydrogens summed into heavy atoms:
               1
     1  C   -0.791159
     2  C    0.015925
     3  C   -0.343213
     4  C    0.124868
     5  C   -0.343213
     6  C    0.015925
     7  C   -0.791159
     8  C    0.015925
     9  C   -0.343213
    10  C    0.124868
    11  C   -0.343213
    12  C    0.015925
    17  Cl   0.443041
    18  Cl   0.443041
    19  Cl   0.434785
    20  Cl   0.434785
    21  Cl   0.443041
    22  Cl   0.443041
 Electronic spatial extent (au):  <R**2>=           7631.9556
 Charge=             -0.0000 electrons
 Dipole moment (field-independent basis, Debye):
    X=              0.0000    Y=              0.0000    Z=             -0.0000  Tot=              0.0000
 Quadrupole moment (field-independent basis, Debye-Ang):
   XX=           -171.0467   YY=           -121.2757   ZZ=           -145.5666
   XY=             -0.0000   XZ=             -0.0000   YZ=             -0.0000
 Traceless Quadrupole moment (field-independent basis, Debye-Ang):
   XX=            -25.0837   YY=             24.6873   ZZ=              0.3964
   XY=             -0.0000   XZ=             -0.0000   YZ=             -0.0000
 Octapole moment (field-independent basis, Debye-Ang**2):
  XXX=              0.0000  YYY=             -0.0000  ZZZ=             -0.0000  XYY=             -0.0000
  XXY=             -0.0000  XXZ=              0.0000  XZZ=             -0.0000  YZZ=             -0.0000
  YYZ=             -0.0000  XYZ=             -0.0001
 Hexadecapole moment (field-independent basis, Debye-Ang**3):
 XXXX=          -7672.3409 YYYY=          -2550.3221 ZZZZ=           -178.0218 XXXY=             -0.0000
 XXXZ=             -0.0003 YYYX=             -0.0000 YYYZ=              0.0000 ZZZX=             -0.0000
 ZZZY=              0.0000 XXYY=          -1643.5970 XXZZ=          -1263.4515 YYZZ=           -500.0115
 XXYZ=             -0.0001 YYXZ=             -0.0000 ZZXY=             -0.0000
 N-N= 2.236488376930D+03 E-N=-1.210225823219D+04  KE= 3.225185107286D+03
 Calling FoFJK, ICntrl=      2127 FMM=F ISym2X=0 I1Cent= 0 IOpClX= 0 NMat=1 NMatS=1 NMatT=0.
 ***** Axes restored to original set *****
 -------------------------------------------------------------------
 Center     Atomic                   Forces (Hartrees/Bohr)
 Number     Number              X              Y              Z
 -------------------------------------------------------------------
      1        6          -0.010201283   -0.017429139    0.000087572
      2        6          -0.055867675    0.092248110    0.035731015
      3        6          -0.014143426   -0.002002091    0.004283722
      4        6          -0.008313543   -0.014203747    0.000071170
      5        6           0.005161485   -0.013343913   -0.004206459
      6        6           0.107631010   -0.003808957   -0.036175623
      7        6           0.010201291    0.017429133   -0.000087524
      8        6          -0.107631331    0.003809136    0.036174656
      9        6          -0.005161455    0.013343893    0.004206556
     10        6           0.008313511    0.014203772   -0.000071274
     11        6           0.014143463    0.002002063   -0.004283613
     12        6           0.055867823   -0.092248187   -0.035730595
     13        1           0.012563439    0.000314807   -0.004079971
     14        1          -0.005859740    0.011138605    0.004022468
     15        1           0.005859749   -0.011138608   -0.004022438
     16        1          -0.012563447   -0.000314803    0.004079947
     17       17          -1.713454096   -2.719817692    0.053728325
     18       17           1.532555377    2.826097444    0.025830246
     19       17          -0.000331400   -0.000566169    0.000002798
     20       17           0.000331387    0.000566177   -0.000002837
     21       17          -1.532565928   -2.826091446   -0.025862245
     22       17           1.713464789    2.719811615   -0.053695897
 -------------------------------------------------------------------
 Cartesian Forces:  Max     2.826097444 RMS     0.792000313

 GradGradGradGradGradGradGradGradGradGradGradGradGradGradGradGradGradGrad
 Berny optimization.
 FormGI is forming the generalized inverse of G from B-inverse, IUseBI=4.
 Internal  Forces:  Max     3.026853434 RMS     0.394615621
 Search for a local minimum.
 Step number   1 out of a maximum of  132
 All quantities printed in internal units (Hartrees-Bohrs-Radians)
 Mixed Optimization -- RFO/linear search
 Second derivative matrix not updated -- first step.
 ITU=  0
     Eigenvalues ---    0.01036   0.01292   0.01426   0.01600   0.01677
     Eigenvalues ---    0.01713   0.01839   0.01901   0.01914   0.02070
     Eigenvalues ---    0.02070   0.02070   0.02070   0.02070   0.02070
     Eigenvalues ---    0.02070   0.02070   0.03828   0.04012   0.16000
     Eigenvalues ---    0.16000   0.16000   0.16000   0.23515   0.23515
     Eigenvalues ---    0.23526   0.23592   0.25000   0.25000   0.25000
     Eigenvalues ---    0.25000   0.25000   0.25000   0.25000   0.25000
     Eigenvalues ---    0.27753   0.28929   0.29119   0.29413   0.29456
     Eigenvalues ---    0.29539   0.29539   0.37230   0.37230   0.37230
     Eigenvalues ---    0.37230   0.38808   0.39336   0.40494   0.41386
     Eigenvalues ---    0.44379   0.44772   0.45090   0.45159   0.45389
     Eigenvalues ---    0.45389   0.45389   0.45389  16.13877  16.74783
 RFO step:  Lambda=-1.18179697D+00 EMin= 1.03631773D-02
 Linear search not attempted -- first point.
 Maximum step size (   0.300) exceeded in Quadratic search.
    -- Step size scaled by   0.972
 Iteration  1 RMS(Cart)=  0.02774176 RMS(Int)=  0.00033078
 Iteration  2 RMS(Cart)=  0.00037063 RMS(Int)=  0.00017942
 Iteration  3 RMS(Cart)=  0.00000004 RMS(Int)=  0.00017942
 Variable       Old X    -DE/DX   Delta X   Delta X   Delta X     New X
                                 (Linear)    (Quad)   (Total)
    R1        2.64826   0.21568   0.00000   0.01791   0.01759   2.66585
    R2        2.64826   0.21568   0.00000   0.01791   0.01759   2.66585
    R3        2.91018   0.43434   0.00000   0.00950   0.00875   2.91893
    R4        2.64826  -0.01016   0.00000  -0.00603  -0.00603   2.64223
    R5        3.32592   0.00407   0.00000   0.07174   0.07192   3.39784
    R6        2.64826  -0.09712   0.00000  -0.00986  -0.00972   2.63854
    R7        2.02201   0.01321   0.00000   0.00826   0.00826   2.03027
    R8        2.64826  -0.09712   0.00000  -0.00986  -0.00972   2.63854
    R9        3.32592   0.00066   0.00000   0.00043   0.00043   3.32635
   R10        2.64826  -0.01016   0.00000  -0.00603  -0.00603   2.64223
   R11        2.02201   0.01321   0.00000   0.00826   0.00826   2.03027
   R12        3.32592   0.00407   0.00000   0.07174   0.07192   3.39784
   R13        2.64826   0.21568   0.00000   0.01791   0.01759   2.66585
   R14        2.64826   0.21568   0.00000   0.01791   0.01759   2.66585
   R15        2.64826  -0.01016   0.00000  -0.00603  -0.00603   2.64223
   R16        3.32592   0.00407   0.00000   0.07174   0.07192   3.39784
   R17        2.64826  -0.09712   0.00000  -0.00986  -0.00972   2.63854
   R18        2.02201   0.01321   0.00000   0.00826   0.00826   2.03027
   R19        2.64826  -0.09712   0.00000  -0.00986  -0.00972   2.63854
   R20        3.32592   0.00066   0.00000   0.00043   0.00043   3.32635
   R21        2.64826  -0.01016   0.00000  -0.00603  -0.00603   2.64223
   R22        2.02201   0.01321   0.00000   0.00826   0.00826   2.03027
   R23        3.32592   0.00407   0.00000   0.07174   0.07192   3.39784
   R24        2.23252   3.02685   0.00000   0.16980   0.17018   2.40270
   R25        2.23252   3.02685   0.00000   0.16980   0.17018   2.40270
    A1        2.09440  -0.28211   0.00000  -0.01593  -0.01545   2.07894
    A2        2.09440   0.14105   0.00000   0.00797   0.00773   2.10212
    A3        2.09440   0.14105   0.00000   0.00797   0.00773   2.10212
    A4        2.09440   0.10199   0.00000   0.00351   0.00335   2.09775
    A5        2.09440   0.15994   0.00000   0.02286   0.02262   2.11702
    A6        2.09440  -0.26193   0.00000  -0.02637  -0.02597   2.06842
    A7        2.09440   0.05366   0.00000   0.00317   0.00307   2.09747
    A8        2.09440  -0.02680   0.00000  -0.00156  -0.00151   2.09288
    A9        2.09440  -0.02687   0.00000  -0.00161  -0.00156   2.09283
   A10        2.09440  -0.02920   0.00000   0.00257   0.00261   2.09700
   A11        2.09440   0.01460   0.00000  -0.00129  -0.00130   2.09309
   A12        2.09440   0.01460   0.00000  -0.00129  -0.00130   2.09309
   A13        2.09440   0.05366   0.00000   0.00317   0.00307   2.09747
   A14        2.09440  -0.02687   0.00000  -0.00161  -0.00156   2.09283
   A15        2.09440  -0.02680   0.00000  -0.00156  -0.00151   2.09288
   A16        2.09440   0.10199   0.00000   0.00351   0.00335   2.09775
   A17        2.09440   0.15994   0.00000   0.02286   0.02262   2.11702
   A18        2.09440  -0.26193   0.00000  -0.02637  -0.02597   2.06842
   A19        2.09440   0.14105   0.00000   0.00797   0.00773   2.10212
   A20        2.09440   0.14105   0.00000   0.00797   0.00773   2.10212
   A21        2.09440  -0.28211   0.00000  -0.01593  -0.01545   2.07894
   A22        2.09440   0.10199   0.00000   0.00351   0.00335   2.09775
   A23        2.09440   0.15994   0.00000   0.02286   0.02262   2.11702
   A24        2.09440  -0.26193   0.00000  -0.02637  -0.02597   2.06842
   A25        2.09440   0.05366   0.00000   0.00317   0.00307   2.09747
   A26        2.09440  -0.02680   0.00000  -0.00156  -0.00151   2.09288
   A27        2.09440  -0.02687   0.00000  -0.00161  -0.00156   2.09283
   A28        2.09440  -0.02920   0.00000   0.00257   0.00261   2.09700
   A29        2.09440   0.01460   0.00000  -0.00129  -0.00130   2.09309
   A30        2.09440   0.01460   0.00000  -0.00129  -0.00130   2.09309
   A31        2.09440   0.05366   0.00000   0.00317   0.00307   2.09747
   A32        2.09440  -0.02687   0.00000  -0.00161  -0.00156   2.09283
   A33        2.09440  -0.02680   0.00000  -0.00156  -0.00151   2.09288
   A34        2.09440   0.10199   0.00000   0.00351   0.00335   2.09775
   A35        2.09440   0.15994   0.00000   0.02286   0.02262   2.11702
   A36        2.09440  -0.26193   0.00000  -0.02637  -0.02597   2.06842
   A37        2.09440  -0.30099   0.00000  -0.03083  -0.03035   2.06404
   A38        2.09440  -0.30099   0.00000  -0.03083  -0.03035   2.06404
   A39        2.09440  -0.30099   0.00000  -0.03083  -0.03035   2.06404
   A40        2.09440  -0.30099   0.00000  -0.03083  -0.03035   2.06404
    D1        0.00000   0.00000   0.00000   0.00000   0.00000   0.00000
    D2        3.14159   0.00000   0.00000   0.00000   0.00000   3.14159
    D3       -3.14159   0.00000   0.00000   0.00000   0.00000  -3.14159
    D4       -0.00000   0.00000   0.00000   0.00000   0.00000  -0.00000
    D5       -0.00000  -0.00000   0.00000  -0.00000  -0.00000  -0.00000
    D6        3.14159  -0.00000   0.00000  -0.00000   0.00000   3.14159
    D7        3.14159  -0.00000   0.00000  -0.00000  -0.00000   3.14159
    D8        0.00000  -0.00000   0.00000  -0.00000  -0.00000   0.00000
    D9       -0.00000  -0.00000   0.00000  -0.00000  -0.00000  -0.00000
   D10        3.14159  -0.00000   0.00000  -0.00000  -0.00000   3.14159
   D11        3.14159  -0.00000   0.00000  -0.00000  -0.00000   3.14159
   D12       -0.00000  -0.00000   0.00000  -0.00000  -0.00000  -0.00000
   D13        0.00000  -0.00000   0.00000   0.00000   0.00000   0.00000
   D14        3.14159  -0.00000   0.00000   0.00000   0.00000   3.14159
   D15       -3.14159  -0.00000   0.00000  -0.00000  -0.00000  -3.14159
   D16        0.00000  -0.00000   0.00000  -0.00000  -0.00000   0.00000
   D17        0.00000  -0.00000   0.00000  -0.00000  -0.00000   0.00000
   D18       -3.14159  -0.00000   0.00000  -0.00000  -0.00000  -3.14159
   D19       -0.00000  -0.00000   0.00000  -0.00000  -0.00000  -0.00000
   D20        3.14159   0.00000   0.00000  -0.00000  -0.00000   3.14159
   D21        3.14159  -0.00000   0.00000  -0.00000  -0.00000   3.14159
   D22        0.00000   0.00000   0.00000  -0.00000  -0.00000   0.00000
   D23        0.00000   0.00000   0.00000  -0.00000  -0.00000   0.00000
   D24       -3.14159   0.00000   0.00000   0.00000   0.00000  -3.14159
   D25       -3.14159  -0.00000   0.00000  -0.00000  -0.00000  -3.14159
   D26        0.00000   0.00000   0.00000   0.00000   0.00000   0.00000
   D27       -0.00000   0.00000   0.00000   0.00000   0.00000  -0.00000
   D28        3.14159   0.00000   0.00000   0.00000   0.00000   3.14159
   D29        3.14159   0.00000   0.00000   0.00000   0.00000   3.14159
   D30       -0.00000   0.00000   0.00000   0.00000   0.00000  -0.00000
   D31        0.00001  -0.00000   0.00000  -0.00000  -0.00000   0.00001
   D32       -3.14158  -0.00000   0.00000  -0.00000  -0.00000  -3.14158
   D33        3.14159   0.00000   0.00000   0.00000   0.00000   3.14159
   D34        0.00000   0.00000   0.00000   0.00000   0.00000   0.00000
   D35        0.00000   0.00000   0.00000   0.00000   0.00000   0.00000
   D36       -3.14159   0.00000   0.00000   0.00000   0.00000  -3.14159
   D37       -3.14159  -0.00000   0.00000  -0.00000  -0.00000  -3.14159
   D38        0.00000  -0.00000   0.00000  -0.00000  -0.00000   0.00000
   D39       -0.00000  -0.00000   0.00000  -0.00000  -0.00000  -0.00000
   D40        3.14159  -0.00000   0.00000   0.00000   0.00000   3.14159
   D41       -0.00000  -0.00000   0.00000   0.00000   0.00000  -0.00000
   D42        3.14159  -0.00000   0.00000  -0.00000  -0.00000   3.14159
   D43        3.14159   0.00000   0.00000   0.00000   0.00000   3.14159
   D44       -0.00000   0.00000   0.00000   0.00000   0.00000  -0.00000
   D45        0.00000  -0.00000   0.00000  -0.00000  -0.00000   0.00000
   D46       -3.14159  -0.00000   0.00000  -0.00000  -0.00000  -3.14159
   D47       -0.00000  -0.00000   0.00000  -0.00000  -0.00000  -0.00000
   D48       -3.14159  -0.00000   0.00000  -0.00000  -0.00000  -3.14159
   D49        3.14159  -0.00000   0.00000  -0.00000  -0.00000   3.14159
   D50        0.00000   0.00000   0.00000  -0.00000  -0.00000   0.00000
   D51        0.00000   0.00000   0.00000  -0.00000  -0.00000   0.00000
   D52       -3.14159   0.00000   0.00000  -0.00000  -0.00000  -3.14159
   D53        3.14159  -0.00000   0.00000   0.00000   0.00000   3.14159
   D54        0.00000   0.00000   0.00000  -0.00000  -0.00000   0.00000
   D55        0.00000   0.00000   0.00000   0.00000   0.00000   0.00000
   D56       -3.14159   0.00000   0.00000  -0.00000  -0.00000  -3.14159
   D57        3.14159   0.00000   0.00000   0.00000   0.00000   3.14159
   D58       -0.00000   0.00000   0.00000  -0.00000  -0.00000  -0.00000
   D59        0.00001  -0.00000   0.00000  -0.00000  -0.00000   0.00001
   D60       -3.14158  -0.00000   0.00000  -0.00000  -0.00000  -3.14158
   D61       -0.00001   0.00000   0.00000   0.00000   0.00000  -0.00001
   D62       -0.00000  -0.00000   0.00000   0.00000   0.00000  -0.00000
         Item               Value     Threshold  Converged?
 Maximum Force            3.026853     0.000450     NO 
 RMS     Force            0.394616     0.000300     NO 
 Maximum Displacement     0.137583     0.001800     NO 
 RMS     Displacement     0.027570     0.001200     NO 
 Predicted change in Energy=-6.413933D-01
 GradGradGradGradGradGradGradGradGradGradGradGradGradGradGradGradGradGrad

                          Input orientation:                          
 ---------------------------------------------------------------------
 Center     Atomic      Atomic             Coordinates (Angstroms)
 Number     Number       Type             X           Y           Z
 ---------------------------------------------------------------------
      1          6           0        1.117520    0.314982   -0.002861
      2          6           0        2.459084    0.355793   -0.437181
      3          6           0        3.160426    1.565376   -0.441070
      4          6           0        2.536700    2.739680   -0.015034
      5          6           0        1.209273    2.711697    0.417035
      6          6           0        0.498066    1.507910    0.425263
      7          6           0        0.337276   -1.018083    0.003833
      8          6           0        0.956730   -2.211010   -0.424293
      9          6           0        0.245523   -3.414797   -0.416064
     10          6           0       -1.081902   -3.442781    0.016011
     11          6           0       -1.705627   -2.268477    0.442048
     12          6           0       -1.004286   -1.058895    0.438156
     13          1           0        4.181986    1.591317   -0.772756
     14          1           0        0.733103    3.617569    0.744041
     15          1           0        0.721692   -4.320669   -0.743072
     16          1           0       -2.727186   -2.294419    0.773739
     17         17           0       -1.851025    0.425982    0.995997
     18         17           0       -1.208775    1.523287    0.990477
     19         17           0       -1.971050   -4.961913    0.023643
     20         17           0        3.425850    4.258810   -0.022661
     21         17           0        2.663570   -2.226387   -0.989508
     22         17           0        3.305824   -1.129084   -0.995015
 ---------------------------------------------------------------------
                    Distance matrix (angstroms):
                    1          2          3          4          5
     1  C    0.000000
     2  C    1.410706   0.000000
     3  C    2.434948   1.398208   0.000000
     4  C    2.809515   2.422219   1.396256   0.000000
     5  C    2.434948   2.800356   2.420205   1.396256   0.000000
     6  C    1.410706   2.432442   2.800356   2.422219   1.398208
     7  C    1.544632   2.565950   3.852580   4.354147   3.852580
     8  C    2.565950   2.974175   4.372374   5.212785   5.000466
     9  C    3.852580   4.372374   5.770564   6.579354   6.257539
    10  C    4.354147   5.212785   6.579354   7.163663   6.579354
    11  C    3.852580   5.000466   6.257539   6.579354   5.770564
    12  C    2.565950   3.842199   5.000466   5.212785   4.372374
    13  H    3.407744   2.146514   1.074372   2.144725   3.392326
    14  H    3.407744   3.874722   3.392326   2.144725   1.074371
    15  H    4.711035   4.998139   6.378413   7.326173   7.144071
    16  H    4.711035   5.948727   7.144071   7.326173   6.378413
    17  Cl   3.134055   4.542682   5.336480   5.062362   3.863303
    18  Cl   2.803279   4.105415   4.597936   4.064388   2.754653
    19  Cl   6.114376   6.936602   8.315858   8.923891   8.315858
    20  Cl   4.569744   4.042277   2.738632   1.760228   2.738632
    21  Cl   3.134055   2.648496   3.863303   5.062362   5.336480
    22  Cl   2.803279   1.798057   2.754653   4.064388   4.597936
                    6          7          8          9         10
     6  C    0.000000
     7  C    2.565950   0.000000
     8  C    3.842199   1.410706   0.000000
     9  C    5.000466   2.434948   1.398208   0.000000
    10  C    5.212785   2.809515   2.422219   1.396256   0.000000
    11  C    4.372374   2.434948   2.800356   2.420205   1.396256
    12  C    2.974175   1.410706   2.432442   2.800356   2.422219
    13  H    3.874722   4.711035   4.998139   6.378413   7.326173
    14  H    2.146514   4.711035   5.948727   7.144071   7.326173
    15  H    5.948727   3.407744   2.146514   1.074372   2.144725
    16  H    4.998139   3.407744   3.874722   3.392326   2.144725
    17  Cl   2.648496   2.803279   4.105415   4.597936   4.064388
    18  Cl   1.798057   3.134055   4.542682   5.336480   5.062362
    19  Cl   6.936602   4.569744   4.042277   2.738632   1.760228
    20  Cl   4.042277   6.114376   6.936602   8.315858   8.923891
    21  Cl   4.542682   2.803279   1.798057   2.754653   4.064388
    22  Cl   4.105415   3.134055   2.648496   3.863303   5.062362
                   11         12         13         14         15
    11  C    0.000000
    12  C    1.398208   0.000000
    13  H    7.144071   5.948727   0.000000
    14  H    6.378413   4.998139   4.277986   0.000000
    15  H    3.392326   3.874722   6.850262   8.076339   0.000000
    16  H    1.074372   2.146514   8.076339   6.850262   4.277986
    17  Cl   2.754653   1.798057   6.394037   4.114295   5.672206
    18  Cl   3.863303   2.648496   5.672206   2.866643   6.394037
    19  Cl   2.738632   4.042277   9.024352   9.024352   2.872265
    20  Cl   8.315858   6.936602   2.872265   2.872265   9.024352
    21  Cl   4.597936   4.105415   4.114295   6.394037   2.866643
    22  Cl   5.336480   4.542682   2.866643   5.672206   4.114295
                   16         17         18         19         20
    16  H    0.000000
    17  Cl   2.866643   0.000000
    18  Cl   4.114295   1.271453   0.000000
    19  Cl   2.872265   5.476248   6.601033   0.000000
    20  Cl   9.024352   6.601033   5.476248  10.684119   0.000000
    21  Cl   5.672206   5.599898   5.742425   5.476248   6.601033
    22  Cl   6.394037   5.742425   5.599898   6.601033   5.476247
                   21         22
    21  Cl   0.000000
    22  Cl   1.271453   0.000000
 Stoichiometry    C12H4Cl6
 Framework group  C1[X(C12H4Cl6)]
 Deg. of freedom    60
 Full point group                 C1      NOp   1
 Largest Abelian subgroup         C1      NOp   1
 Largest concise Abelian subgroup C1      NOp   1
                         Standard orientation:                         
 ---------------------------------------------------------------------
 Center     Atomic      Atomic             Coordinates (Angstroms)
 Number     Number       Type             X           Y           Z
 ---------------------------------------------------------------------
      1          6           0       -0.772316    0.000000    0.000002
      2          6           0       -1.487087   -1.216221    0.000001
      3          6           0       -2.885282   -1.210103   -0.000000
      4          6           0       -3.581831    0.000000   -0.000001
      5          6           0       -2.885282    1.210103    0.000002
      6          6           0       -1.487087    1.216221    0.000003
      7          6           0        0.772316    0.000000    0.000003
      8          6           0        1.487087   -1.216221    0.000004
      9          6           0        2.885282   -1.210103    0.000003
     10          6           0        3.581831    0.000000    0.000001
     11          6           0        2.885282    1.210103   -0.000001
     12          6           0        1.487087    1.216221   -0.000000
     13          1           0       -3.425131   -2.138993   -0.000002
     14          1           0       -3.425131    2.138993    0.000004
     15          1           0        3.425131   -2.138993    0.000004
     16          1           0        3.425131    2.138993   -0.000005
     17         17           0        0.635727    2.799949   -0.000005
     18         17           0       -0.635727    2.799949    0.000006
     19         17           0        5.342060    0.000000   -0.000003
     20         17           0       -5.342060    0.000000   -0.000004
     21         17           0        0.635727   -2.799949    0.000002
     22         17           0       -0.635727   -2.799949   -0.000002
 ---------------------------------------------------------------------
 Rotational constants (GHZ):           0.4022701           0.1726232           0.1207896
 Standard basis: 6-311+G(d,p) (5D, 7F)
 There are   486 symmetry adapted cartesian basis functions of A   symmetry.
 There are   468 symmetry adapted basis functions of A   symmetry.
   468 basis functions,   782 primitive gaussians,   486 cartesian basis functions
    89 alpha electrons       89 beta electrons
       nuclear repulsion energy      2199.3806763936 Hartrees.
 NAtoms=   22 NActive=   22 NUniq=   22 SFac= 1.00D+00 NAtFMM=   60 NAOKFM=F Big=F
 Integral buffers will be    131072 words long.
 Raffenetti 2 integral format.
 Two-electron integral symmetry is turned on.
 One-electron integrals computed using PRISM.
 NBasis=   468 RedAO= T EigKep=  1.08D-06  NBF=   468
 NBsUse=   461 1.00D-06 EigRej=  9.08D-07 NBFU=   461
 Initial guess from the checkpoint file:  "/scratch/gour/Gau-104963.chk"
 B after Tr=     0.000000   -0.000000    0.000000
         Rot=    1.000000    0.000000    0.000000    0.000000 Ang=   0.00 deg.
 ExpMin= 4.38D-02 ExpMax= 1.06D+05 ExpMxC= 3.62D+03 IAcc=3 IRadAn=         5 AccDes= 0.00D+00
 Harris functional with IExCor=  402 and IRadAn=       5 diagonalized for initial guess.
 HarFok:  IExCor=  402 AccDes= 0.00D+00 IRadAn=         5 IDoV= 1 UseB2=F ITyADJ=14
 ICtDFT=  3500011 ScaDFX=  1.000000  1.000000  1.000000  1.000000
 FoFCou: FMM=F IPFlag=           0 FMFlag=      100000 FMFlg1=           0
         NFxFlg=           0 DoJE=T BraDBF=F KetDBF=T FulRan=T
         wScrn=  0.000000 ICntrl=       500 IOpCl=  0 I1Cent=   200000004 NGrid=           0
         NMat0=    1 NMatS0=      1 NMatT0=    0 NMatD0=    1 NMtDS0=    0 NMtDT0=    0
 Petite list used in FoFCou.
 Requested convergence on RMS density matrix=1.00D-08 within  32 cycles.
 Requested convergence on MAX density matrix=1.00D-06.
 Requested convergence on             energy=1.00D-06.
 No special actions if energy rises.
 SCF Done:  E(RB3LYP) =  -3218.83995054     A.U. after   16 cycles
            NFock= 16  Conv=0.33D-08     -V/T= 1.9991
 QCSCF skips out because SCF is already converged.
 Calling FoFJK, ICntrl=      2127 FMM=F ISym2X=0 I1Cent= 0 IOpClX= 0 NMat=1 NMatS=1 NMatT=0.
 ***** Axes restored to original set *****
 -------------------------------------------------------------------
 Center     Atomic                   Forces (Hartrees/Bohr)
 Number     Number              X              Y              Z
 -------------------------------------------------------------------
      1        6          -0.009044881   -0.015453396    0.000077634
      2        6          -0.060608343    0.080094288    0.035010199
      3        6          -0.010165583   -0.005480267    0.002319969
      4        6          -0.005993101   -0.010239228    0.000051267
      5        6           0.000189618   -0.011564047   -0.002234178
      6        6           0.099358792   -0.013887959   -0.035343122
      7        6           0.009044898    0.015453384   -0.000077572
      8        6          -0.099359069    0.013888113    0.035342292
      9        6          -0.000189593    0.011564029    0.002234264
     10        6           0.005993077    0.010239249   -0.000051357
     11        6           0.010165621    0.005480240   -0.002319855
     12        6           0.060608441   -0.080094339   -0.035009912
     13        1           0.010071640    0.000319894   -0.003258082
     14        1          -0.004638715    0.008962372    0.003211483
     15        1           0.004638726   -0.008962377   -0.003211446
     16        1          -0.010071654   -0.000319886    0.003258042
     17       17          -1.131150016   -1.738484564    0.046178314
     18       17           0.962056683    1.837828537    0.028188295
     19       17          -0.000838338   -0.001432286    0.000007150
     20       17           0.000838326    0.001432293   -0.000007185
     21       17          -0.962063431   -1.837824697   -0.028208768
     22       17           1.131156901    1.738480647   -0.046157434
 -------------------------------------------------------------------
 Cartesian Forces:  Max     1.837828537 RMS     0.511430469

 GradGradGradGradGradGradGradGradGradGradGradGradGradGradGradGradGradGrad
 Berny optimization.
 Using GEDIIS/GDIIS optimizer.
 FormGI is forming the generalized inverse of G from B-inverse, IUseBI=4.
 Internal  Forces:  Max     1.963670627 RMS     0.256106517
 Search for a local minimum.
 Step number   2 out of a maximum of  132
 All quantities printed in internal units (Hartrees-Bohrs-Radians)
 Mixed Optimization -- RFO/linear search
 Update second derivatives using D2CorX and points    1    2
 DE= -9.40D-01 DEPred=-6.41D-01 R= 1.47D+00
 TightC=F SS=  1.41D+00  RLast= 3.00D-01 DXNew= 5.0454D-01 8.9994D-01
 Trust test= 1.47D+00 RLast= 3.00D-01 DXMaxT set to 5.05D-01
 ITU=  1  0
 Use linear search instead of GDIIS.
 Linear search step of   0.600 exceeds DXMaxT=   0.505 but not scaled.
 Quartic linear search produced a step of  2.00000.
 Iteration  1 RMS(Cart)=  0.04380136 RMS(Int)=  0.01734473
 Iteration  2 RMS(Cart)=  0.01481569 RMS(Int)=  0.00102331
 Iteration  3 RMS(Cart)=  0.00006709 RMS(Int)=  0.00102184
 Iteration  4 RMS(Cart)=  0.00000009 RMS(Int)=  0.00102184
 Variable       Old X    -DE/DX   Delta X   Delta X   Delta X     New X
                                 (Linear)    (Quad)   (Total)
    R1        2.66585   0.13594   0.03517   0.00000   0.03333   2.69917
    R2        2.66585   0.13594   0.03517   0.00000   0.03333   2.69917
    R3        2.91893   0.25616   0.01751   0.00000   0.01340   2.93234
    R4        2.64223  -0.00991  -0.01206   0.00000  -0.01205   2.63018
    R5        3.39784   0.04110   0.14384   0.00000   0.14470   3.54254
    R6        2.63854  -0.06216  -0.01944   0.00000  -0.01865   2.61989
    R7        2.03027   0.01059   0.01652   0.00000   0.01652   2.04679
    R8        2.63854  -0.06216  -0.01944   0.00000  -0.01865   2.61989
    R9        3.32635   0.00166   0.00086   0.00000   0.00086   3.32721
   R10        2.64223  -0.00991  -0.01206   0.00000  -0.01205   2.63018
   R11        2.03027   0.01059   0.01652   0.00000   0.01652   2.04679
   R12        3.39784   0.04110   0.14384   0.00000   0.14470   3.54254
   R13        2.66585   0.13594   0.03517   0.00000   0.03333   2.69917
   R14        2.66585   0.13594   0.03517   0.00000   0.03333   2.69917
   R15        2.64223  -0.00991  -0.01206   0.00000  -0.01205   2.63018
   R16        3.39784   0.04110   0.14384   0.00000   0.14470   3.54254
   R17        2.63854  -0.06216  -0.01944   0.00000  -0.01865   2.61989
   R18        2.03027   0.01059   0.01652   0.00000   0.01652   2.04679
   R19        2.63854  -0.06216  -0.01944   0.00000  -0.01865   2.61989
   R20        3.32635   0.00166   0.00086   0.00000   0.00086   3.32721
   R21        2.64223  -0.00991  -0.01206   0.00000  -0.01205   2.63018
   R22        2.03027   0.01059   0.01652   0.00000   0.01652   2.04679
   R23        3.39784   0.04110   0.14384   0.00000   0.14470   3.54254
   R24        2.40270   1.96367   0.34035   0.00000   0.34240   2.74510
   R25        2.40270   1.96367   0.34035   0.00000   0.34240   2.74510
    A1        2.07894  -0.17483  -0.03091   0.00000  -0.02823   2.05071
    A2        2.10212   0.08741   0.01545   0.00000   0.01412   2.11624
    A3        2.10212   0.08741   0.01545   0.00000   0.01412   2.11624
    A4        2.09775   0.06272   0.00670   0.00000   0.00581   2.10355
    A5        2.11702   0.11421   0.04525   0.00000   0.04380   2.16082
    A6        2.06842  -0.17693  -0.05195   0.00000  -0.04960   2.01882
    A7        2.09747   0.03397   0.00614   0.00000   0.00558   2.10305
    A8        2.09288  -0.01692  -0.00302   0.00000  -0.00274   2.09014
    A9        2.09283  -0.01705  -0.00312   0.00000  -0.00284   2.08999
   A10        2.09700  -0.01856   0.00522   0.00000   0.00545   2.10246
   A11        2.09309   0.00928  -0.00261   0.00000  -0.00273   2.09036
   A12        2.09309   0.00928  -0.00261   0.00000  -0.00273   2.09036
   A13        2.09747   0.03397   0.00614   0.00000   0.00558   2.10305
   A14        2.09283  -0.01705  -0.00312   0.00000  -0.00284   2.08999
   A15        2.09288  -0.01692  -0.00302   0.00000  -0.00274   2.09014
   A16        2.09775   0.06272   0.00670   0.00000   0.00581   2.10355
   A17        2.11702   0.11421   0.04525   0.00000   0.04380   2.16082
   A18        2.06842  -0.17693  -0.05195   0.00000  -0.04960   2.01882
   A19        2.10212   0.08741   0.01545   0.00000   0.01412   2.11624
   A20        2.10212   0.08741   0.01545   0.00000   0.01412   2.11624
   A21        2.07894  -0.17483  -0.03091   0.00000  -0.02823   2.05071
   A22        2.09775   0.06272   0.00670   0.00000   0.00581   2.10355
   A23        2.11702   0.11421   0.04525   0.00000   0.04380   2.16082
   A24        2.06842  -0.17693  -0.05195   0.00000  -0.04960   2.01882
   A25        2.09747   0.03397   0.00614   0.00000   0.00558   2.10305
   A26        2.09288  -0.01692  -0.00302   0.00000  -0.00274   2.09014
   A27        2.09283  -0.01705  -0.00312   0.00000  -0.00284   2.08999
   A28        2.09700  -0.01856   0.00522   0.00000   0.00545   2.10246
   A29        2.09309   0.00928  -0.00261   0.00000  -0.00273   2.09036
   A30        2.09309   0.00928  -0.00261   0.00000  -0.00273   2.09036
   A31        2.09747   0.03397   0.00614   0.00000   0.00558   2.10305
   A32        2.09283  -0.01705  -0.00312   0.00000  -0.00284   2.08999
   A33        2.09288  -0.01692  -0.00302   0.00000  -0.00274   2.09014
   A34        2.09775   0.06272   0.00670   0.00000   0.00581   2.10355
   A35        2.11702   0.11421   0.04525   0.00000   0.04380   2.16082
   A36        2.06842  -0.17693  -0.05195   0.00000  -0.04960   2.01882
   A37        2.06404  -0.20163  -0.06070   0.00000  -0.05791   2.00613
   A38        2.06404  -0.20163  -0.06070   0.00000  -0.05791   2.00613
   A39        2.06404  -0.20163  -0.06070   0.00000  -0.05791   2.00613
   A40        2.06404  -0.20163  -0.06070   0.00000  -0.05791   2.00613
    D1        0.00000   0.00000   0.00000   0.00000   0.00000   0.00000
    D2        3.14159   0.00000   0.00000   0.00000   0.00000   3.14159
    D3       -3.14159   0.00000   0.00000   0.00000   0.00000  -3.14159
    D4       -0.00000   0.00000   0.00000   0.00000   0.00000  -0.00000
    D5       -0.00000  -0.00000  -0.00000   0.00000  -0.00000  -0.00000
    D6        3.14159  -0.00000   0.00000   0.00000   0.00000   3.14159
    D7        3.14159  -0.00000  -0.00000   0.00000  -0.00000   3.14159
    D8        0.00000  -0.00000  -0.00000   0.00000   0.00000   0.00000
    D9       -0.00000  -0.00000  -0.00000   0.00000  -0.00000  -0.00000
   D10        3.14159  -0.00000  -0.00000   0.00000  -0.00000   3.14159
   D11        3.14159  -0.00000  -0.00000   0.00000  -0.00000   3.14159
   D12       -0.00000  -0.00000  -0.00000   0.00000  -0.00000  -0.00000
   D13        0.00000  -0.00000   0.00000   0.00000   0.00000   0.00000
   D14        3.14159  -0.00000   0.00000   0.00000   0.00000   3.14159
   D15       -3.14159  -0.00000  -0.00000   0.00000  -0.00000  -3.14159
   D16        0.00000  -0.00000  -0.00000   0.00000  -0.00000   0.00000
   D17        0.00000  -0.00000  -0.00000   0.00000  -0.00000   0.00000
   D18       -3.14159  -0.00000  -0.00000   0.00000  -0.00000  -3.14159
   D19       -0.00000  -0.00000  -0.00000   0.00000  -0.00000  -0.00000
   D20        3.14159   0.00000  -0.00000   0.00000  -0.00000   3.14159
   D21        3.14159  -0.00000  -0.00000   0.00000  -0.00000   3.14159
   D22        0.00000  -0.00000  -0.00000   0.00000  -0.00000   0.00000
   D23        0.00000   0.00000  -0.00000   0.00000  -0.00000   0.00000
   D24       -3.14159   0.00000   0.00000   0.00000  -0.00000  -3.14159
   D25       -3.14159  -0.00000  -0.00000   0.00000  -0.00000  -3.14159
   D26        0.00000   0.00000   0.00000   0.00000   0.00000   0.00000
   D27       -0.00000   0.00000   0.00000   0.00000   0.00000  -0.00000
   D28        3.14159   0.00000   0.00000   0.00000   0.00000   3.14159
   D29        3.14159   0.00000   0.00000   0.00000   0.00000   3.14159
   D30       -0.00000   0.00000   0.00000   0.00000  -0.00000  -0.00000
   D31        0.00001  -0.00000  -0.00000   0.00000  -0.00000   0.00001
   D32       -3.14158  -0.00000  -0.00000   0.00000  -0.00000  -3.14158
   D33        3.14159   0.00000   0.00000   0.00000   0.00000   3.14159
   D34        0.00000   0.00000   0.00000   0.00000   0.00000   0.00000
[...]
                 (A) (A) (A) (A) (A) (A) (A) (A) (A) (A) (A) (A)
                 (A) (A) (A) (A) (A) (A) (A) (A) (A) (A) (A) (A)
                 (A) (A) (A) (A) (A) (A) (A) (A) (A) (A) (A) (A)
                 (A) (A) (A) (A) (A) (A) (A) (A) (A) (A) (A) (A)
                 (A) (A) (A) (A) (A) (A) (A) (A) (A) (A) (A) (A)
                 (A) (A) (A) (A) (A) (A) (A) (A) (A) (A) (A) (A)
                 (A) (A) (A) (A) (A) (A) (A) (A) (A) (A) (A) (A)
                 (A) (A) (A) (A) (A) (A) (A) (A) (A) (A) (A) (A)
                 (A) (A) (A) (A) (A) (A) (A) (A) (A) (A) (A) (A)
                 (A) (A) (A) (A) (A) (A) (A) (A) (A) (A) (A) (A)
                 (A) (A) (A) (A) (A) (A) (A) (A) (A) (A) (A) (A)
                 (A) (A) (A) (A) (A) (A) (A) (A) (A) (A) (A) (A)
                 (A) (A) (A) (A) (A) (A) (A) (A) (A) (A) (A) (A)
                 (A) (A) (A) (A) (A) (A) (A) (A) (A) (A) (A) (A)
                 (A) (A) (A) (A) (A) (A) (A) (A) (A) (A) (A) (A)
                 (A) (A) (A) (A) (A) (A) (A) (A) (A) (A) (A) (A)
                 (A) (A) (A) (A) (A) (A) (A) (A) (A) (A) (A) (A)
                 (A) (A) (A) (A) (A) (A) (A) (A) (A) (A) (A) (A)
                 (A) (A) (A) (A) (A) (A) (A) (A) (A) (A) (A) (A)
                 (A) (A) (A) (A) (A) (A) (A) (A) (A) (A) (A) (A)
                 (A) (A) (A) (A) (A) (A) (A) (A) (A) (A) (A) (A)
                 (A) (A) (A) (A) (A) (A) (A) (A) (A) (A) (A) (A)
                 (A) (A) (A) (A) (A) (A) (A) (A) (A) (A) (A) (A)
                 (A) (A) (A) (A) (A) (A) (A) (A) (A) (A) (A) (A)
                 (A) (A) (A) (A) (A) (A) (A) (A) (A) (A) (A) (A)
                 (A) (A) (A) (A) (A) (A) (A) (A) (A) (A) (A) (A)
                 (A) (A)
 The electronic state is 1-A.
 Alpha  occ. eigenvalues -- -101.57606-101.57606-101.57554-101.57554-101.57554
 Alpha  occ. eigenvalues -- -101.57554 -10.27412 -10.27412 -10.27412 -10.27412
 Alpha  occ. eigenvalues --  -10.27178 -10.27178 -10.23640 -10.23610 -10.21818
 Alpha  occ. eigenvalues --  -10.21818 -10.21818 -10.21817  -9.49059  -9.49059
 Alpha  occ. eigenvalues --   -9.49026  -9.49026  -9.49025  -9.49025  -7.25534
 Alpha  occ. eigenvalues --   -7.25534  -7.25500  -7.25500  -7.25500  -7.25500
 Alpha  occ. eigenvalues --   -7.24537  -7.24537  -7.24504  -7.24504  -7.24504
 Alpha  occ. eigenvalues --   -7.24504  -7.24496  -7.24496  -7.24455  -7.24455
 Alpha  occ. eigenvalues --   -7.24455  -7.24455  -0.95454  -0.93675  -0.90335
 Alpha  occ. eigenvalues --   -0.89894  -0.89892  -0.89387  -0.83673  -0.83460
 Alpha  occ. eigenvalues --   -0.80230  -0.76714  -0.76714  -0.74364  -0.65059
 Alpha  occ. eigenvalues --   -0.63878  -0.63876  -0.61837  -0.56549  -0.53612
 Alpha  occ. eigenvalues --   -0.53609  -0.52358  -0.49364  -0.48624  -0.46755
 Alpha  occ. eigenvalues --   -0.46697  -0.46697  -0.44640  -0.44639  -0.43305
 Alpha  occ. eigenvalues --   -0.41348  -0.41347  -0.40723  -0.39510  -0.38441
 Alpha  occ. eigenvalues --   -0.38440  -0.37746  -0.34370  -0.34334  -0.34333
 Alpha  occ. eigenvalues --   -0.34268  -0.33219  -0.33218  -0.32715  -0.32713
 Alpha  occ. eigenvalues --   -0.27662  -0.27531  -0.27527  -0.27509
 Alpha virt. eigenvalues --   -0.05945  -0.05646  -0.05641  -0.05138  -0.03717
 Alpha virt. eigenvalues --   -0.02710  -0.00556   0.00602   0.01203   0.01204
 Alpha virt. eigenvalues --    0.01295   0.01343   0.02102   0.02102   0.03926
 Alpha virt. eigenvalues --    0.04108   0.04469   0.04470   0.05492   0.06058
 Alpha virt. eigenvalues --    0.06377   0.06876   0.06877   0.08684   0.08735
 Alpha virt. eigenvalues --    0.08735   0.08906   0.08906   0.08968   0.09209
 Alpha virt. eigenvalues --    0.10173   0.10175   0.10718   0.11209   0.11284
 Alpha virt. eigenvalues --    0.11285   0.12050   0.12283   0.12697   0.12782
 Alpha virt. eigenvalues --    0.12786   0.13687   0.13946   0.14713   0.14716
 Alpha virt. eigenvalues --    0.15527   0.15528   0.15703   0.16629   0.16669
 Alpha virt. eigenvalues --    0.17344   0.17346   0.18221   0.18342   0.19053
 Alpha virt. eigenvalues --    0.19318   0.19599   0.19599   0.20418   0.20547
 Alpha virt. eigenvalues --    0.20548   0.20977   0.20978   0.21451   0.22671
 Alpha virt. eigenvalues --    0.23081   0.23186   0.23194   0.23496   0.24463
 Alpha virt. eigenvalues --    0.24464   0.24827   0.25726   0.26359   0.26361
 Alpha virt. eigenvalues --    0.26638   0.27031   0.27033   0.27234   0.27761
 Alpha virt. eigenvalues --    0.28365   0.28367   0.28954   0.30241   0.30339
 Alpha virt. eigenvalues --    0.30345   0.30634   0.31418   0.33137   0.33140
 Alpha virt. eigenvalues --    0.34149   0.36814   0.39217   0.39218   0.39346
 Alpha virt. eigenvalues --    0.43208   0.44337   0.44342   0.44344   0.45025
 Alpha virt. eigenvalues --    0.45823   0.46276   0.46284   0.47025   0.47029
 Alpha virt. eigenvalues --    0.47812   0.49385   0.49391   0.50036   0.50561
 Alpha virt. eigenvalues --    0.50902   0.50906   0.53225   0.53944   0.53947
 Alpha virt. eigenvalues --    0.54291   0.55683   0.56076   0.57653   0.57655
 Alpha virt. eigenvalues --    0.58621   0.59472   0.59476   0.59572   0.60926
 Alpha virt. eigenvalues --    0.61032   0.61035   0.62714   0.63483   0.63493
 Alpha virt. eigenvalues --    0.63747   0.64854   0.65697   0.66122   0.66126
 Alpha virt. eigenvalues --    0.67974   0.67977   0.69071   0.69287   0.69383
 Alpha virt. eigenvalues --    0.69387   0.70505   0.77309   0.77327   0.79594
 Alpha virt. eigenvalues --    0.81975   0.81984   0.81997   0.82818   0.82987
 Alpha virt. eigenvalues --    0.83506   0.83637   0.83639   0.83921   0.84049
 Alpha virt. eigenvalues --    0.84055   0.84592   0.85049   0.85462   0.86251
 Alpha virt. eigenvalues --    0.86259   0.86503   0.87138   0.88264   0.89521
 Alpha virt. eigenvalues --    0.89531   0.90594   0.90601   0.91625   0.92213
 Alpha virt. eigenvalues --    0.93554   0.94658   0.94941   0.95280   0.95291
 Alpha virt. eigenvalues --    0.95496   0.95818   0.96807   0.96819   0.97493
 Alpha virt. eigenvalues --    0.97897   0.98149   0.99371   0.99378   1.02397
 Alpha virt. eigenvalues --    1.02572   1.05340   1.05887   1.05906   1.06573
 Alpha virt. eigenvalues --    1.07748   1.09918   1.17345   1.17348   1.18272
 Alpha virt. eigenvalues --    1.18272   1.20503   1.21243   1.23795   1.23843
 Alpha virt. eigenvalues --    1.23854   1.24315   1.25979   1.25993   1.29031
 Alpha virt. eigenvalues --    1.29917   1.30738   1.32139   1.32429   1.32430
 Alpha virt. eigenvalues --    1.34093   1.35879   1.44085   1.44098   1.48076
 Alpha virt. eigenvalues --    1.48083   1.50306   1.54723   1.54728   1.54807
 Alpha virt. eigenvalues --    1.55275   1.57161   1.57440   1.59148   1.59910
 Alpha virt. eigenvalues --    1.59910   1.61258   1.66563   1.70624   1.72412
 Alpha virt. eigenvalues --    1.72414   1.79434   1.81128   1.81298   1.81307
 Alpha virt. eigenvalues --    1.82072   1.84926   1.85041   1.85045   1.91176
 Alpha virt. eigenvalues --    1.92216   1.93114   1.93116   1.94760   1.94792
 Alpha virt. eigenvalues --    1.98094   1.98624   1.98626   2.03895   2.04733
 Alpha virt. eigenvalues --    2.04739   2.05440   2.08383   2.08385   2.17615
 Alpha virt. eigenvalues --    2.18343   2.23135   2.23135   2.24154   2.24913
 Alpha virt. eigenvalues --    2.26283   2.26284   2.26604   2.29980   2.29983
 Alpha virt. eigenvalues --    2.31979   2.35040   2.38733   2.38734   2.39161
 Alpha virt. eigenvalues --    2.41526   2.41558   2.46026   2.46078   2.47595
 Alpha virt. eigenvalues --    2.47621   2.49842   2.52378   2.55097   2.55352
 Alpha virt. eigenvalues --    2.56046   2.56049   2.56554   2.63199   2.63202
 Alpha virt. eigenvalues --    2.65321   2.69400   2.69402   2.69823   2.69828
 Alpha virt. eigenvalues --    2.70179   2.71705   2.73756   2.73763   2.75521
 Alpha virt. eigenvalues --    2.76998   2.77282   2.79853   2.81665   2.81667
 Alpha virt. eigenvalues --    2.82683   2.87919   2.95945   2.95954   3.07948
 Alpha virt. eigenvalues --    3.09311   3.09312   3.11587   3.12449   3.12452
 Alpha virt. eigenvalues --    3.16507   3.21960   3.21965   3.23185   3.27212
 Alpha virt. eigenvalues --    3.32521   3.32525   3.43501   3.50933   3.56941
 Alpha virt. eigenvalues --    3.66563   3.69972   3.69975   3.76097   3.79301
 Alpha virt. eigenvalues --    3.92426   4.01759   4.07364   4.07364   4.35325
 Alpha virt. eigenvalues --    4.80201   4.80209   9.76524   9.76622   9.79887
 Alpha virt. eigenvalues --    9.79904   9.85550   9.85924  23.37381  23.52343
 Alpha virt. eigenvalues --   23.84847  23.84856  23.85569  23.86566  23.93158
 Alpha virt. eigenvalues --   24.03465  24.03465  24.06815  24.09885  24.11696
 Alpha virt. eigenvalues --   25.77728  25.81471  25.81472  25.92682  25.92683
 Alpha virt. eigenvalues --   25.99853  26.09712  26.09712  26.24074  26.27676
 Alpha virt. eigenvalues --   26.35982  26.36053  26.57347  26.59972  26.65479
 Alpha virt. eigenvalues --   26.68024  26.68068  27.05747 215.75585 215.75790
 Alpha virt. eigenvalues --  215.79615 215.79636 215.85905 215.87847
          Condensed to atoms (all electrons):
               1          2          3          4          5          6
     1  C   24.544615  -0.156672  -7.579654  -1.764664  -7.584149  -0.154980
     2  C   -0.156672  19.711241  -5.439514  -3.034692   6.856184  -2.242765
     3  C   -7.579654  -5.439514  30.809237  -0.632316 -10.055769   6.853546
     4  C   -1.764664  -3.034692  -0.632316  16.647873  -0.629463  -3.035502
     5  C   -7.584149   6.856184 -10.055769  -0.629463  30.814526  -5.438966
     6  C   -0.154980  -2.242765   6.853546  -3.035502  -5.438966  19.710426
     7  C   13.657917  -2.900017  -4.762641  -0.636079  -4.763243  -2.901502
     8  C   -2.900505  -1.597712  -1.084647  -0.066183  -1.084168  -1.601500
     9  C   -4.762701  -1.085137  -0.200704   0.018552  -0.201160  -1.082255
    10  C   -0.636080  -0.066206   0.018658  -0.034612   0.018318  -0.066184
    11  C   -4.763178  -1.083853  -0.201159   0.018424  -0.201501  -1.085941
    12  C   -2.901013  -1.601848  -1.081925  -0.066207  -1.086446  -1.596024
    13  H    0.108378   0.069357   0.085281   0.049467   0.053286  -0.026166
    14  H    0.108438  -0.026139   0.053241   0.049433   0.085348   0.069270
    15  H    0.021661  -0.000303  -0.000541   0.000103  -0.000539  -0.000306
    16  H    0.021659  -0.000304  -0.000539   0.000103  -0.000539  -0.000299
    17  Cl   0.482649   0.093891  -0.091771   0.053006  -0.091095   0.094609
    18  Cl  -0.059647  -0.798566   0.670143  -0.346473  -1.236991   0.140913
    19  Cl  -0.009306  -0.031591  -0.002041  -0.000189  -0.002056  -0.031595
    20  Cl  -0.112478  -0.157476   0.372580  -1.030734   0.372253  -0.157082
    21  Cl   0.483545   0.094410  -0.090860   0.053007  -0.091805   0.093931
    22  Cl  -0.059904   0.140422  -1.237870  -0.347005   0.669177  -0.799046
               7          8          9         10         11         12
     1  C   13.657917  -2.900505  -4.762701  -0.636080  -4.763178  -2.901013
     2  C   -2.900017  -1.597712  -1.085137  -0.066206  -1.083853  -1.601848
     3  C   -4.762641  -1.084647  -0.200704   0.018658  -0.201159  -1.081925
     4  C   -0.636079  -0.066183   0.018552  -0.034612   0.018424  -0.066207
     5  C   -4.763243  -1.084168  -0.201160   0.018318  -0.201501  -1.086446
     6  C   -2.901502  -1.601500  -1.082255  -0.066184  -1.085941  -1.596024
     7  C   24.544621  -0.156229  -7.580945  -1.764665  -7.582853  -0.155428
     8  C   -0.156229  19.710761  -5.439001  -3.034945   6.855743  -2.242764
     9  C   -7.580945  -5.439001  30.809991  -0.631565 -10.055768   6.853983
    10  C   -1.764665  -3.034945  -0.631565  16.647874  -0.630214  -3.035248
    11  C   -7.582853   6.855743 -10.055768  -0.630214  30.813756  -5.439469
    12  C   -0.155428  -2.242764   6.853983  -3.035248  -5.439469  19.710901
    13  H    0.021662  -0.000305  -0.000541   0.000103  -0.000539  -0.000308
    14  H    0.021658  -0.000302  -0.000539   0.000103  -0.000539  -0.000298
    15  H    0.108395   0.069331   0.085300   0.049459   0.053274  -0.026160
    16  H    0.108421  -0.026145   0.053253   0.049442   0.085328   0.069295
    17  Cl  -0.059758  -0.798759   0.669860  -0.346601  -1.237377   0.140758
    18  Cl   0.482088   0.093831  -0.092007   0.052995  -0.091258   0.094505
    19  Cl  -0.112479  -0.157358   0.372487  -1.030734   0.372347  -0.157200
    20  Cl  -0.009306  -0.031591  -0.002044  -0.000189  -0.002053  -0.031596
    21  Cl  -0.059794   0.140577  -1.237484  -0.346877   0.669460  -0.798853
    22  Cl   0.484106   0.094519  -0.090695   0.053017  -0.091570   0.093987
              13         14         15         16         17         18
     1  C    0.108378   0.108438   0.021661   0.021659   0.482649  -0.059647
     2  C    0.069357  -0.026139  -0.000303  -0.000304   0.093891  -0.798566
     3  C    0.085281   0.053241  -0.000541  -0.000539  -0.091771   0.670143
     4  C    0.049467   0.049433   0.000103   0.000103   0.053006  -0.346473
     5  C    0.053286   0.085348  -0.000539  -0.000539  -0.091095  -1.236991
     6  C   -0.026166   0.069270  -0.000306  -0.000299   0.094609   0.140913
     7  C    0.021662   0.021658   0.108395   0.108421  -0.059758   0.482088
     8  C   -0.000305  -0.000302   0.069331  -0.026145  -0.798759   0.093831
     9  C   -0.000541  -0.000539   0.085300   0.053253   0.669860  -0.092007
    10  C    0.000103   0.000103   0.049459   0.049442  -0.346601   0.052995
    11  C   -0.000539  -0.000539   0.053274   0.085328  -1.237377  -0.091258
    12  C   -0.000308  -0.000298  -0.026160   0.069295   0.140758   0.094505
    13  H    0.492995  -0.000222   0.000000   0.000000  -0.000527   0.000237
    14  H   -0.000222   0.492995   0.000000   0.000000  -0.000525  -0.007130
    15  H    0.000000   0.000000   0.492995  -0.000222   0.000237  -0.000527
    16  H    0.000000   0.000000  -0.000222   0.492995  -0.007131  -0.000525
    17  Cl  -0.000527  -0.000525   0.000237  -0.007131  17.802323  -0.001921
    18  Cl   0.000237  -0.007130  -0.000527  -0.000525  -0.001921  17.802128
    19  Cl  -0.000001  -0.000001  -0.013366  -0.013367  -0.029941   0.005566
    20  Cl  -0.013366  -0.013367  -0.000001  -0.000001   0.005569  -0.029934
    21  Cl  -0.000526  -0.000528  -0.007129   0.000238  -0.058608  -0.001301
    22  Cl  -0.007130   0.000238  -0.000527  -0.000529  -0.001342  -0.058608
              19         20         21         22
     1  C   -0.009306  -0.112478   0.483545  -0.059904
     2  C   -0.031591  -0.157476   0.094410   0.140422
     3  C   -0.002041   0.372580  -0.090860  -1.237870
     4  C   -0.000189  -1.030734   0.053007  -0.347005
     5  C   -0.002056   0.372253  -0.091805   0.669177
     6  C   -0.031595  -0.157082   0.093931  -0.799046
     7  C   -0.112479  -0.009306  -0.059794   0.484106
     8  C   -0.157358  -0.031591   0.140577   0.094519
     9  C    0.372487  -0.002044  -1.237484  -0.090695
    10  C   -1.030734  -0.000189  -0.346877   0.053017
    11  C    0.372347  -0.002053   0.669460  -0.091570
    12  C   -0.157200  -0.031596  -0.798853   0.093987
    13  H   -0.000001  -0.013366  -0.000526  -0.007130
    14  H   -0.000001  -0.013367  -0.000528   0.000238
    15  H   -0.013366  -0.000001  -0.007129  -0.000527
    16  H   -0.013367  -0.000001   0.000238  -0.000529
    17  Cl  -0.029941   0.005569  -0.058608  -0.001342
    18  Cl   0.005566  -0.029934  -0.001301  -0.058608
    19  Cl  17.430819   0.000015  -0.029948   0.005573
    20  Cl   0.000015  17.430819   0.005570  -0.029955
    21  Cl  -0.029948   0.005570  17.802502  -0.001979
    22  Cl   0.005573  -0.029955  -0.001979  17.802698
 Mulliken charges:
               1
     1  C    0.016069
     2  C   -0.742708
     3  C   -0.400736
     4  C    0.734151
     5  C   -0.401202
     6  C   -0.742582
     7  C    0.016069
     8  C   -0.742647
     9  C   -0.400879
    10  C    0.734151
    11  C   -0.401060
    12  C   -0.742642
    13  H    0.168866
    14  H    0.168868
    15  H    0.168867
    16  H    0.168867
    17  Cl   0.382454
    18  Cl   0.382485
    19  Cl   0.434368
    20  Cl   0.434368
    21  Cl   0.382452
    22  Cl   0.382422
 Sum of Mulliken charges =  -0.00000
 Mulliken charges with hydrogens summed into heavy atoms:
               1
     1  C    0.016069
     2  C   -0.742708
     3  C   -0.231870
     4  C    0.734151
     5  C   -0.232334
     6  C   -0.742582
     7  C    0.016069
     8  C   -0.742647
     9  C   -0.232012
    10  C    0.734151
    11  C   -0.232193
    12  C   -0.742642
    17  Cl   0.382454
    18  Cl   0.382485
    19  Cl   0.434368
    20  Cl   0.434368
    21  Cl   0.382452
    22  Cl   0.382422
 Electronic spatial extent (au):  <R**2>=           7579.5013
 Charge=             -0.0000 electrons
 Dipole moment (field-independent basis, Debye):
    X=             -0.0000    Y=             -0.0001    Z=              0.0003  Tot=              0.0003
 Quadrupole moment (field-independent basis, Debye-Ang):
   XX=           -142.9462   YY=           -144.8055   ZZ=           -144.8110
   XY=             -0.0003   XZ=              0.0000   YZ=              0.0000
 Traceless Quadrupole moment (field-independent basis, Debye-Ang):
   XX=              1.2414   YY=             -0.6180   ZZ=             -0.6234
   XY=             -0.0003   XZ=              0.0000   YZ=              0.0000
 Octapole moment (field-independent basis, Debye-Ang**2):
  XXX=             -0.0000  YYY=              0.0009  ZZZ=              0.0009  XYY=             -0.0002
  XXY=              0.0019  XXZ=             -0.0044  XZZ=              0.0002  YZZ=             -0.0008
  YYZ=              0.0021  XYZ=             12.3994
 Hexadecapole moment (field-independent basis, Debye-Ang**3):
 XXXX=          -7022.8178 YYYY=          -1523.3753 ZZZZ=          -1521.3173 XXXY=             -0.0442
 XXXZ=              0.0136 YYYX=             -0.0085 YYYZ=             -0.0007 ZZZX=              0.0035
 ZZZY=              0.0007 XXYY=          -1385.6435 XXZZ=          -1385.3909 YYZZ=           -478.1456
 XXYZ=              0.0000 YYXZ=             -0.0030 ZZXY=              0.0068
 N-N= 2.062831949792D+03 E-N=-1.175472448508D+04  KE= 3.212695707669D+03
 1\1\GINC-LOCALHOST\FOpt\RB3LYP\6-311+G(d,p)\C12H4Cl6\GOUR\17-Mar-2022\
 0\\# opt b3lyp/6-311+g(d,p) scf=xqc\\Title Card Required\\0,1\C,1.1031
 653483,0.2910349301,-0.0027563271\C,2.4143658823,0.3792759913,0.483746
 4491\C,3.1326010554,1.5696805674,0.4858843673\C,2.5203484365,2.7114673
 291,-0.0151565569\C,1.2227916432,2.6827604571,-0.5102022823\C,0.536219
 005,1.4738856527,-0.4957811359\C,0.351137168,-0.9938461635,0.003766042
 2\C,0.3988228969,-1.8805523298,-1.0802806757\C,-0.2960632759,-3.084681
 9459,-1.0924912179\C,-1.0651402687,-3.4148085786,0.0161566438\C,-1.149
 3805739,-2.5741681979,1.1187828008\C,-0.4403652284,-1.3784879977,1.094
 2940724\H,4.1425382252,1.6013055688,0.8690373104\H,0.7543758798,3.5760
 137084,-0.8981000308\H,-0.2364029923,-3.7448031586,-1.9459900087\H,-1.
 7502625139,-2.8391008804,1.9769965208\Cl,-0.557459503,-0.3300699115,2.
 4923751788\Cl,-1.0987362477,1.4550206181,-1.1235613016\Cl,-1.949588676
 6,-4.9267136565,0.0238998112\Cl,3.4053746848,4.2230340671,-0.022932546
 5\Cl,1.3636428558,-1.4793898462,-2.4858829648\Cl,3.2007877564,-1.05096
 75601,1.1189242112\\Version=EM64L-G16RevB.01\State=1-A\HF=-3221.140765
 4\RMSD=8.095e-09\RMSF=5.730e-06\Dipole=0.0001011,-0.000059,0.0000116\Q
 uadrupole=-0.1095099,0.569426,-0.4599161,0.6041132,-0.0020513,-0.00618
 29\PG=C01 [X(C12H4Cl6)]\\@


 HERE WE GO......
 SLIDING DOWN THE RAZOR BLADE OF LIFE......
                                 TOM LEHRER
 Job cpu time:       0 days 21 hours 10 minutes 33.9 seconds.
 Elapsed time:       0 days  5 hours 18 minutes 33.2 seconds.
 File lengths (MBytes):  RWF=    147 Int=      0 D2E=      0 Chk=     23 Scr=      1
 Normal termination of Gaussian 16 at Thu Mar 17 16:38:35 2022.
