 Entering Gaussian System, Link 0=g16
 Input=2,2prime,3,5prime-Ttetrachlorobiphenyl.gjf
 Output=2,2prime,3,5prime-Ttetrachlorobiphenyl.log
 Initial command:
 /usr/local/g16/l1.exe "/scratch/pkc/Gau-34781.inp" -scrdir="/scratch/pkc/"
 Entering Link 1 = /usr/local/g16/l1.exe PID=     34782.
  
 Copyright (c) 1988-2017, Gaussian, Inc.  All Rights Reserved.
  
 This is part of the Gaussian(R) 16 program.  It is based on
 the Gaussian(R) 09 system (copyright 2009, Gaussian, Inc.),
 the Gaussian(R) 03 system (copyright 2003, Gaussian, Inc.),
 the Gaussian(R) 98 system (copyright 1998, Gaussian, Inc.),
 the Gaussian(R) 94 system (copyright 1995, Gaussian, Inc.),
 the Gaussian 92(TM) system (copyright 1992, Gaussian, Inc.),
 the Gaussian 90(TM) system (copyright 1990, Gaussian, Inc.),
 the Gaussian 88(TM) system (copyright 1988, Gaussian, Inc.),
 the Gaussian 86(TM) system (copyright 1986, Carnegie Mellon
 University), and the Gaussian 82(TM) system (copyright 1983,
 Carnegie Mellon University). Gaussian is a federally registered
 trademark of Gaussian, Inc.
  
 This software contains proprietary and confidential information,
 including trade secrets, belonging to Gaussian, Inc.
  
 This software is provided under written license and may be
 used, copied, transmitted, or stored only in accord with that
 written license.
  
 The following legend is applicable only to US Government
 contracts under FAR:
  
                    RESTRICTED RIGHTS LEGEND
  
 Use, reproduction and disclosure by the US Government is
 subject to restrictions as set forth in subparagraphs (a)
 and (c) of the Commercial Computer Software - Restricted
 Rights clause in FAR 52.227-19.
  
 Gaussian, Inc.
 340 Quinnipiac St., Bldg. 40, Wallingford CT 06492
  
  
 ---------------------------------------------------------------
 Warning -- This program may not be used in any manner that
 competes with the business of Gaussian, Inc. or will provide
 assistance to any competitor of Gaussian, Inc.  The licensee
 of this program is prohibited from giving any competitor of
 Gaussian, Inc. access to this program.  By using this program,
 the user acknowledges that Gaussian, Inc. is engaged in the
 business of creating and licensing software in the field of
 computational chemistry and represents and warrants to the
 licensee that it is not a competitor of Gaussian, Inc. and that
 it will not use this program in any manner prohibited above.
 ---------------------------------------------------------------
  

 Cite this work as:
 Gaussian 16, Revision B.01,
 M. J. Frisch, G. W. Trucks, H. B. Schlegel, G. E. Scuseria, 
 M. A. Robb, J. R. Cheeseman, G. Scalmani, V. Barone, 
 G. A. Petersson, H. Nakatsuji, X. Li, M. Caricato, A. V. Marenich, 
 J. Bloino, B. G. Janesko, R. Gomperts, B. Mennucci, H. P. Hratchian, 
 J. V. Ortiz, A. F. Izmaylov, J. L. Sonnenberg, D. Williams-Young, 
 F. Ding, F. Lipparini, F. Egidi, J. Goings, B. Peng, A. Petrone, 
 T. Henderson, D. Ranasinghe, V. G. Zakrzewski, J. Gao, N. Rega, 
 G. Zheng, W. Liang, M. Hada, M. Ehara, K. Toyota, R. Fukuda, 
 J. Hasegawa, M. Ishida, T. Nakajima, Y. Honda, O. Kitao, H. Nakai, 
 T. Vreven, K. Throssell, J. A. Montgomery, Jr., J. E. Peralta, 
 F. Ogliaro, M. J. Bearpark, J. J. Heyd, E. N. Brothers, K. N. Kudin, 
 V. N. Staroverov, T. A. Keith, R. Kobayashi, J. Normand, 
 K. Raghavachari, A. P. Rendell, J. C. Burant, S. S. Iyengar, 
 J. Tomasi, M. Cossi, J. M. Millam, M. Klene, C. Adamo, R. Cammi, 
 J. W. Ochterski, R. L. Martin, K. Morokuma, O. Farkas, 
 J. B. Foresman, and D. J. Fox, Gaussian, Inc., Wallingford CT, 2016.
 
 ******************************************
 Gaussian 16:  EM64L-G16RevB.01 20-Dec-2017
                15-Mar-2022 
 ******************************************
 %mem=10GB
 %nprocshared=4
 Will use up to    4 processors via shared memory.
 --------------------------------
 # opt b3lyp/6-311+g(d,p) scf=xqc
 --------------------------------
 1/18=20,19=15,26=3,38=1/1,3;
 2/9=110,12=2,17=6,18=5,40=1/2;
 3/5=4,6=6,7=111,11=2,25=1,30=1,71=1,74=-5/1,2,3;
 4//1;
 5/5=2,8=3,13=1,38=5/2,8;
 6/7=2,8=2,9=2,10=2,28=1/1;
 7//1,2,3,16;
 1/18=20,19=15,26=3/3(2);
 2/9=110/2;
 99//99;
 2/9=110/2;
 3/5=4,6=6,7=111,11=2,25=1,30=1,71=1,74=-5/1,2,3;
 4/5=5,16=3,69=1/1;
 5/5=2,8=3,13=1,38=5/2,8;
 7//1,2,3,16;
 1/18=20,19=15,26=3/3(-5);
 2/9=110/2;
 6/7=2,8=2,9=2,10=2,19=2,28=1/1;
 99/9=1/99;
 -------------------
 Title Card Required
 -------------------
 Symbolic Z-matrix:
 Charge =  0 Multiplicity = 1
 C                    -0.66092   1.27981   1.06331 
 C                     0.67146   1.30969   0.62996 
 C                     1.37936   2.51915   0.62389 
 C                     0.75487   3.69871   1.05117 
 C                    -0.57751   3.66882   1.48451 
 C                    -1.28541   2.45937   1.49058 
 C                    -1.43882  -0.04926   1.06998 
 C                    -0.81434  -1.22882   0.64271 
 C                    -1.52223  -2.43828   0.64878 
 C                    -2.85461  -2.46816   1.08213 
 C                    -3.4791   -1.2886    1.50941 
 C                    -2.7712   -0.07915   1.50334 
 H                     1.14827   0.40907   0.30373 
 H                     1.29536   4.62215   1.04653 
 H                    -1.05432   4.56945   1.81074 
 H                     0.20297  -1.20601   0.31184 
 H                    -1.04542  -3.3389    0.32255 
 H                    -3.3951   -3.39161   1.08677 
 Cl                   -3.55549   1.40225   2.03995 
 Cl                   -2.95873   2.42184   2.03482 
 Cl                   -5.15241  -1.32613   2.05365 
 Cl                    3.05268   2.55668   0.07966 
 

 GradGradGradGradGradGradGradGradGradGradGradGradGradGradGradGradGradGrad
 Berny optimization.
 Initialization pass.
                           ----------------------------
                           !    Initial Parameters    !
                           ! (Angstroms and Degrees)  !
 --------------------------                            --------------------------
 ! Name  Definition              Value          Derivative Info.                !
 --------------------------------------------------------------------------------
 ! R1    R(1,2)                  1.4014         estimate D2E/DX2                !
 ! R2    R(1,6)                  1.4014         estimate D2E/DX2                !
 ! R3    R(1,7)                  1.54           estimate D2E/DX2                !
 ! R4    R(2,3)                  1.4014         estimate D2E/DX2                !
 ! R5    R(2,13)                 1.07           estimate D2E/DX2                !
 ! R6    R(3,4)                  1.4014         estimate D2E/DX2                !
 ! R7    R(3,22)                 1.76           estimate D2E/DX2                !
 ! R8    R(4,5)                  1.4014         estimate D2E/DX2                !
 ! R9    R(4,14)                 1.07           estimate D2E/DX2                !
 ! R10   R(5,6)                  1.4014         estimate D2E/DX2                !
 ! R11   R(5,15)                 1.07           estimate D2E/DX2                !
 ! R12   R(6,20)                 1.76           estimate D2E/DX2                !
 ! R13   R(7,8)                  1.4014         estimate D2E/DX2                !
 ! R14   R(7,12)                 1.4014         estimate D2E/DX2                !
 ! R15   R(8,9)                  1.4014         estimate D2E/DX2                !
 ! R16   R(8,16)                 1.07           estimate D2E/DX2                !
 ! R17   R(9,10)                 1.4014         estimate D2E/DX2                !
 ! R18   R(9,17)                 1.07           estimate D2E/DX2                !
 ! R19   R(10,11)                1.4014         estimate D2E/DX2                !
 ! R20   R(10,18)                1.07           estimate D2E/DX2                !
 ! R21   R(11,12)                1.4014         estimate D2E/DX2                !
 ! R22   R(11,21)                1.76           estimate D2E/DX2                !
 ! R23   R(12,19)                1.76           estimate D2E/DX2                !
 ! R24   R(19,20)                1.1814         estimate D2E/DX2                !
 ! A1    A(2,1,6)              120.0            estimate D2E/DX2                !
 ! A2    A(2,1,7)              120.0            estimate D2E/DX2                !
 ! A3    A(6,1,7)              120.0            estimate D2E/DX2                !
 ! A4    A(1,2,3)              120.0            estimate D2E/DX2                !
 ! A5    A(1,2,13)             120.0            estimate D2E/DX2                !
 ! A6    A(3,2,13)             120.0            estimate D2E/DX2                !
 ! A7    A(2,3,4)              120.0            estimate D2E/DX2                !
 ! A8    A(2,3,22)             120.0            estimate D2E/DX2                !
 ! A9    A(4,3,22)             120.0            estimate D2E/DX2                !
 ! A10   A(3,4,5)              120.0            estimate D2E/DX2                !
 ! A11   A(3,4,14)             120.0            estimate D2E/DX2                !
 ! A12   A(5,4,14)             120.0            estimate D2E/DX2                !
 ! A13   A(4,5,6)              120.0            estimate D2E/DX2                !
 ! A14   A(4,5,15)             120.0            estimate D2E/DX2                !
 ! A15   A(6,5,15)             120.0            estimate D2E/DX2                !
 ! A16   A(1,6,5)              120.0            estimate D2E/DX2                !
 ! A17   A(1,6,20)             120.0            estimate D2E/DX2                !
 ! A18   A(5,6,20)             120.0            estimate D2E/DX2                !
 ! A19   A(1,7,8)              120.0            estimate D2E/DX2                !
 ! A20   A(1,7,12)             120.0            estimate D2E/DX2                !
 ! A21   A(8,7,12)             120.0            estimate D2E/DX2                !
 ! A22   A(7,8,9)              120.0            estimate D2E/DX2                !
 ! A23   A(7,8,16)             120.0            estimate D2E/DX2                !
 ! A24   A(9,8,16)             120.0            estimate D2E/DX2                !
 ! A25   A(8,9,10)             120.0            estimate D2E/DX2                !
 ! A26   A(8,9,17)             120.0            estimate D2E/DX2                !
 ! A27   A(10,9,17)            120.0            estimate D2E/DX2                !
 ! A28   A(9,10,11)            120.0            estimate D2E/DX2                !
 ! A29   A(9,10,18)            120.0            estimate D2E/DX2                !
 ! A30   A(11,10,18)           120.0            estimate D2E/DX2                !
 ! A31   A(10,11,12)           120.0            estimate D2E/DX2                !
 ! A32   A(10,11,21)           120.0            estimate D2E/DX2                !
 ! A33   A(12,11,21)           120.0            estimate D2E/DX2                !
 ! A34   A(7,12,11)            120.0            estimate D2E/DX2                !
 ! A35   A(7,12,19)            120.0            estimate D2E/DX2                !
 ! A36   A(11,12,19)           120.0            estimate D2E/DX2                !
 ! A37   A(12,19,20)           120.0            estimate D2E/DX2                !
 ! A38   A(6,20,19)            120.0            estimate D2E/DX2                !
 ! D1    D(6,1,2,3)              0.0001         estimate D2E/DX2                !
 ! D2    D(6,1,2,13)           180.0            estimate D2E/DX2                !
 ! D3    D(7,1,2,3)           -180.0            estimate D2E/DX2                !
 ! D4    D(7,1,2,13)            -0.0001         estimate D2E/DX2                !
 ! D5    D(2,1,6,5)             -0.0001         estimate D2E/DX2                !
 ! D6    D(2,1,6,20)           180.0            estimate D2E/DX2                !
 ! D7    D(7,1,6,5)            180.0            estimate D2E/DX2                !
 ! D8    D(7,1,6,20)             0.0            estimate D2E/DX2                !
 ! D9    D(2,1,7,8)             -0.0001         estimate D2E/DX2                !
 ! D10   D(2,1,7,12)           179.9998         estimate D2E/DX2                !
 ! D11   D(6,1,7,8)            179.9999         estimate D2E/DX2                !
 ! D12   D(6,1,7,12)            -0.0002         estimate D2E/DX2                !
 ! D13   D(1,2,3,4)              0.0            estimate D2E/DX2                !
 ! D14   D(1,2,3,22)           180.0            estimate D2E/DX2                !
 ! D15   D(13,2,3,4)          -179.9999         estimate D2E/DX2                !
 ! D16   D(13,2,3,22)            0.0001         estimate D2E/DX2                !
 ! D17   D(2,3,4,5)             -0.0001         estimate D2E/DX2                !
 ! D18   D(2,3,4,14)           180.0            estimate D2E/DX2                !
 ! D19   D(22,3,4,5)           179.9999         estimate D2E/DX2                !
 ! D20   D(22,3,4,14)            0.0            estimate D2E/DX2                !
 ! D21   D(3,4,5,6)              0.0001         estimate D2E/DX2                !
 ! D22   D(3,4,5,15)          -179.9999         estimate D2E/DX2                !
 ! D23   D(14,4,5,6)          -180.0            estimate D2E/DX2                !
 ! D24   D(14,4,5,15)            0.0            estimate D2E/DX2                !
 ! D25   D(4,5,6,1)              0.0            estimate D2E/DX2                !
 ! D26   D(4,5,6,20)           179.9999         estimate D2E/DX2                !
 ! D27   D(15,5,6,1)           180.0            estimate D2E/DX2                !
 ! D28   D(15,5,6,20)           -0.0001         estimate D2E/DX2                !
 ! D29   D(1,6,20,19)            0.0006         estimate D2E/DX2                !
 ! D30   D(5,6,20,19)         -179.9994         estimate D2E/DX2                !
 ! D31   D(1,7,8,9)            179.9999         estimate D2E/DX2                !
 ! D32   D(1,7,8,16)             0.0001         estimate D2E/DX2                !
 ! D33   D(12,7,8,9)             0.0001         estimate D2E/DX2                !
 ! D34   D(12,7,8,16)         -179.9998         estimate D2E/DX2                !
 ! D35   D(1,7,12,11)         -179.9999         estimate D2E/DX2                !
 ! D36   D(1,7,12,19)            0.0            estimate D2E/DX2                !
 ! D37   D(8,7,12,11)           -0.0001         estimate D2E/DX2                !
 ! D38   D(8,7,12,19)          179.9999         estimate D2E/DX2                !
 ! D39   D(7,8,9,10)             0.0            estimate D2E/DX2                !
 ! D40   D(7,8,9,17)           180.0            estimate D2E/DX2                !
 ! D41   D(16,8,9,10)          179.9998         estimate D2E/DX2                !
 ! D42   D(16,8,9,17)           -0.0002         estimate D2E/DX2                !
 ! D43   D(8,9,10,11)            0.0            estimate D2E/DX2                !
 ! D44   D(8,9,10,18)         -179.9999         estimate D2E/DX2                !
 ! D45   D(17,9,10,11)         180.0            estimate D2E/DX2                !
 ! D46   D(17,9,10,18)           0.0001         estimate D2E/DX2                !
 ! D47   D(9,10,11,12)           0.0            estimate D2E/DX2                !
 ! D48   D(9,10,11,21)        -179.9998         estimate D2E/DX2                !
 ! D49   D(18,10,11,12)        179.9999         estimate D2E/DX2                !
 ! D50   D(18,10,11,21)          0.0001         estimate D2E/DX2                !
 ! D51   D(10,11,12,7)           0.0            estimate D2E/DX2                !
 ! D52   D(10,11,12,19)       -179.9999         estimate D2E/DX2                !
 ! D53   D(21,11,12,7)         179.9999         estimate D2E/DX2                !
 ! D54   D(21,11,12,19)         -0.0001         estimate D2E/DX2                !
 ! D55   D(7,12,19,20)           0.0005         estimate D2E/DX2                !
 ! D56   D(11,12,19,20)       -179.9995         estimate D2E/DX2                !
 ! D57   D(12,19,20,6)          -0.0008         estimate D2E/DX2                !
 --------------------------------------------------------------------------------
 Trust Radius=3.00D-01 FncErr=1.00D-07 GrdErr=1.00D-06 EigMax=2.50D+02 EigMin=1.00D-04
 Number of steps in this run=    129 maximum allowed number of steps=    132.
 GradGradGradGradGradGradGradGradGradGradGradGradGradGradGradGradGradGrad

                          Input orientation:                          
 ---------------------------------------------------------------------
 Center     Atomic      Atomic             Coordinates (Angstroms)
 Number     Number       Type             X           Y           Z
 ---------------------------------------------------------------------
      1          6           0       -0.660919    1.279808    1.063311
      2          6           0        0.671462    1.309694    0.629964
      3          6           0        1.379356    2.519145    0.623892
      4          6           0        0.754868    3.698710    1.051167
      5          6           0       -0.577513    3.668825    1.484512
      6          6           0       -1.285407    2.459374    1.490584
      7          6           0       -1.438824   -0.049259    1.069985
      8          6           0       -0.814336   -1.228824    0.642710
      9          6           0       -1.522229   -2.438275    0.648784
     10          6           0       -2.854609   -2.468162    1.082134
     11          6           0       -3.479097   -1.288597    1.509409
     12          6           0       -2.771204   -0.079146    1.503335
     13          1           0        1.148273    0.409070    0.303732
     14          1           0        1.295361    4.622153    1.046531
     15          1           0       -1.054324    4.569449    1.810743
     16          1           0        0.202966   -1.206006    0.311840
     17          1           0       -1.045419   -3.338899    0.322550
     18          1           0       -3.395101   -3.391605    1.086774
     19         17           0       -3.555488    1.402254    2.039947
     20         17           0       -2.958727    2.421841    2.034818
     21         17           0       -5.152414   -1.326132    2.053652
     22         17           0        3.052676    2.556678    0.079658
 ---------------------------------------------------------------------
                    Distance matrix (angstroms):
                    1          2          3          4          5
     1  C    0.000000
     2  C    1.401400   0.000000
     3  C    2.427296   1.401400   0.000000
     4  C    2.802800   2.427296   1.401400   0.000000
     5  C    2.427296   2.802800   2.427296   1.401400   0.000000
     6  C    1.401400   2.427296   2.802800   2.427296   1.401400
     7  C    1.540000   2.548270   3.838989   4.342800   3.838989
     8  C    2.548270   2.941400   4.342800   5.187469   4.975106
     9  C    3.838989   4.342800   5.744200   6.558176   6.235992
    10  C    4.342800   5.187469   6.558176   7.145600   6.558176
    11  C    3.838989   4.975106   6.235992   6.558176   5.744200
    12  C    2.548270   3.813607   4.975106   5.187469   4.342800
    13  H    2.146700   1.070000   2.146700   3.396345   3.872800
    14  H    3.872800   3.396345   2.146700   1.070000   2.146700
    15  H    3.396345   3.872800   3.396345   2.146700   1.070000
    16  H    2.736837   2.578650   3.918930   4.990735   5.074276
    17  H    4.693509   4.965039   6.347206   7.300676   7.118798
    18  H    5.412800   6.232802   7.612271   8.215600   7.612271
    19  Cl   3.057342   4.456874   5.254079   4.983028   3.783409
    20  Cl   2.743718   4.048303   4.562800   4.048303   2.743718
    21  Cl   5.286324   6.549198   7.713260   7.819846   6.797295
    22  Cl   4.048303   2.743718   1.760000   2.743718   4.048303
                    6          7          8          9         10
     6  C    0.000000
     7  C    2.548270   0.000000
     8  C    3.813607   1.401400   0.000000
     9  C    4.975106   2.427296   1.401400   0.000000
    10  C    5.187469   2.802800   2.427296   1.401400   0.000000
    11  C    4.342800   2.427296   2.802800   2.427296   1.401400
    12  C    2.941400   1.401400   2.427296   2.802800   2.427296
    13  H    3.396345   2.736837   2.578650   3.918930   4.990735
    14  H    3.396345   5.412800   6.232802   7.612271   8.215600
    15  H    2.146700   4.693509   5.919617   7.118798   7.300676
    16  H    4.127917   2.146700   1.070000   2.146700   3.396345
    17  H    5.919617   3.396345   2.146700   1.070000   2.146700
    18  H    6.232802   3.872800   3.396345   2.146700   1.070000
    19  Cl   2.563702   2.743718   4.048303   4.562800   4.048303
    20  Cl   1.760000   3.057342   4.456874   5.254079   4.983028
    21  Cl   5.440665   4.048303   4.562800   4.048303   2.743718
    22  Cl   4.562800   5.286324   5.440665   6.797295   7.819846
                   11         12         13         14         15
    11  C    0.000000
    12  C    1.401400   0.000000
    13  H    5.074276   4.127917   0.000000
    14  H    7.612271   6.232802   4.280590   0.000000
    15  H    6.347206   4.965039   4.942800   2.471400   0.000000
    16  H    3.872800   3.396345   1.871400   5.974992   6.097816
    17  H    3.396345   3.872800   4.342800   8.329571   8.047159
    18  H    2.146700   3.396345   5.974992   9.285600   8.329571
    19  Cl   2.743718   1.760000   5.111382   5.906383   4.042212
    20  Cl   3.783409   2.563702   4.890332   4.890332   2.879094
    21  Cl   1.760000   2.743718   6.765486   8.830073   7.184095
    22  Cl   7.713260   6.549198   2.879094   2.879094   4.890332
                   16         17         18         19         20
    16  H    0.000000
    17  H    2.471400   0.000000
    18  H    4.280590   2.471400   0.000000
    19  Cl   4.890332   5.632800   4.890332   0.000000
    20  Cl   5.111382   6.307038   5.906383   1.181400   0.000000
    21  Cl   5.632800   4.890332   2.879094   3.161400   4.342800
    22  Cl   4.725732   7.184095   8.830073   6.988795   6.322800
                   21         22
    21  Cl   0.000000
    22  Cl   9.289584   0.000000
 Stoichiometry    C12H6Cl4
 Framework group  C1[X(C12H6Cl4)]
 Deg. of freedom    60
 Full point group                 C1      NOp   1
 Largest Abelian subgroup         C1      NOp   1
 Largest concise Abelian subgroup C1      NOp   1
                         Standard orientation:                         
 ---------------------------------------------------------------------
 Center     Atomic      Atomic             Coordinates (Angstroms)
 Number     Number       Type             X           Y           Z
 ---------------------------------------------------------------------
      1          6           0        0.967853    0.161693    0.000002
      2          6           0        2.166846    0.887184    0.000001
      3          6           0        3.394636    0.211571   -0.000001
      4          6           0        3.423433   -1.189533   -0.000002
      5          6           0        2.224440   -1.915024    0.000001
      6          6           0        0.996650   -1.239411    0.000003
      7          6           0       -0.381367    0.904126    0.000003
      8          6           0       -0.410164    2.305230    0.000004
      9          6           0       -1.637954    2.980843    0.000004
     10          6           0       -2.836947    2.255352    0.000002
     11          6           0       -2.808151    0.854248    0.000001
     12          6           0       -1.580360    0.178635    0.000001
     13          1           0        2.144859    1.956958   -0.000001
     14          1           0        4.360878   -1.705379   -0.000004
     15          1           0        2.246427   -2.984798    0.000003
     16          1           0        0.505294    2.859158    0.000003
     17          1           0       -1.659941    4.050617    0.000005
     18          1           0       -3.774392    2.771198    0.000000
     19         17           0       -1.544195   -1.580994   -0.000003
     20         17           0       -0.509150   -2.150545    0.000006
     21         17           0       -4.313951   -0.056887   -0.000006
     22         17           0        4.900436    1.122705   -0.000004
 ---------------------------------------------------------------------
 Rotational constants (GHZ):           0.7424719           0.2192697           0.1692779
 Standard basis: 6-311+G(d,p) (5D, 7F)
 There are   436 symmetry adapted cartesian basis functions of A   symmetry.
 There are   420 symmetry adapted basis functions of A   symmetry.
   420 basis functions,   692 primitive gaussians,   436 cartesian basis functions
    73 alpha electrons       73 beta electrons
       nuclear repulsion energy      1569.8405772550 Hartrees.
 NAtoms=   22 NActive=   22 NUniq=   22 SFac= 1.00D+00 NAtFMM=   60 NAOKFM=F Big=F
 Integral buffers will be    131072 words long.
 Raffenetti 2 integral format.
 Two-electron integral symmetry is turned on.
 One-electron integrals computed using PRISM.
 NBasis=   420 RedAO= T EigKep=  1.08D-06  NBF=   420
 NBsUse=   415 1.00D-06 EigRej=  9.36D-07 NBFU=   415
 ExpMin= 4.38D-02 ExpMax= 1.06D+05 ExpMxC= 3.62D+03 IAcc=3 IRadAn=         5 AccDes= 0.00D+00
 Harris functional with IExCor=  402 and IRadAn=       5 diagonalized for initial guess.
 HarFok:  IExCor=  402 AccDes= 0.00D+00 IRadAn=         5 IDoV= 1 UseB2=F ITyADJ=14
 ICtDFT=  3500011 ScaDFX=  1.000000  1.000000  1.000000  1.000000
 FoFCou: FMM=F IPFlag=           0 FMFlag=      100000 FMFlg1=           0
         NFxFlg=           0 DoJE=T BraDBF=F KetDBF=T FulRan=T
         wScrn=  0.000000 ICntrl=       500 IOpCl=  0 I1Cent=   200000004 NGrid=           0
         NMat0=    1 NMatS0=      1 NMatT0=    0 NMatD0=    1 NMtDS0=    0 NMtDT0=    0
 Petite list used in FoFCou.
 Requested convergence on RMS density matrix=1.00D-08 within  32 cycles.
 Requested convergence on MAX density matrix=1.00D-06.
 Requested convergence on             energy=1.00D-06.
 No special actions if energy rises.
 SCF Done:  E(RB3LYP) =  -2300.27883072     A.U. after   20 cycles
            NFock= 20  Conv=0.46D-08     -V/T= 1.9993
 QCSCF skips out because SCF is already converged.

 **********************************************************************

            Population analysis using the SCF Density.

 **********************************************************************

 Orbital symmetries:
       Occupied  (A) (A) (A) (A) (A) (A) (A) (A) (A) (A) (A) (A)
                 (A) (A) (A) (A) (A) (A) (A) (A) (A) (A) (A) (A)
                 (A) (A) (A) (A) (A) (A) (A) (A) (A) (A) (A) (A)
                 (A) (A) (A) (A) (A) (A) (A) (A) (A) (A) (A) (A)
                 (A) (A) (A) (A) (A) (A) (A) (A) (A) (A) (A) (A)
                 (A) (A) (A) (A) (A) (A) (A) (A) (A) (A) (A) (A)
                 (A)
       Virtual   (A) (A) (A) (A) (A) (A) (A) (A) (A) (A) (A) (A)
                 (A) (A) (A) (A) (A) (A) (A) (A) (A) (A) (A) (A)
                 (A) (A) (A) (A) (A) (A) (A) (A) (A) (A) (A) (A)
                 (A) (A) (A) (A) (A) (A) (A) (A) (A) (A) (A) (A)
                 (A) (A) (A) (A) (A) (A) (A) (A) (A) (A) (A) (A)
                 (A) (A) (A) (A) (A) (A) (A) (A) (A) (A) (A) (A)
                 (A) (A) (A) (A) (A) (A) (A) (A) (A) (A) (A) (A)
                 (A) (A) (A) (A) (A) (A) (A) (A) (A) (A) (A) (A)
                 (A) (A) (A) (A) (A) (A) (A) (A) (A) (A) (A) (A)
                 (A) (A) (A) (A) (A) (A) (A) (A) (A) (A) (A) (A)
                 (A) (A) (A) (A) (A) (A) (A) (A) (A) (A) (A) (A)
                 (A) (A) (A) (A) (A) (A) (A) (A) (A) (A) (A) (A)
                 (A) (A) (A) (A) (A) (A) (A) (A) (A) (A) (A) (A)
                 (A) (A) (A) (A) (A) (A) (A) (A) (A) (A) (A) (A)
                 (A) (A) (A) (A) (A) (A) (A) (A) (A) (A) (A) (A)
                 (A) (A) (A) (A) (A) (A) (A) (A) (A) (A) (A) (A)
                 (A) (A) (A) (A) (A) (A) (A) (A) (A) (A) (A) (A)
                 (A) (A) (A) (A) (A) (A) (A) (A) (A) (A) (A) (A)
                 (A) (A) (A) (A) (A) (A) (A) (A) (A) (A) (A) (A)
                 (A) (A) (A) (A) (A) (A) (A) (A) (A) (A) (A) (A)
                 (A) (A) (A) (A) (A) (A) (A) (A) (A) (A) (A) (A)
                 (A) (A) (A) (A) (A) (A) (A) (A) (A) (A) (A) (A)
                 (A) (A) (A) (A) (A) (A) (A) (A) (A) (A) (A) (A)
                 (A) (A) (A) (A) (A) (A) (A) (A) (A) (A) (A) (A)
                 (A) (A) (A) (A) (A) (A) (A) (A) (A) (A) (A) (A)
                 (A) (A) (A) (A) (A) (A) (A) (A) (A) (A) (A) (A)
                 (A) (A) (A) (A) (A) (A) (A) (A) (A) (A) (A) (A)
                 (A) (A) (A) (A) (A) (A) (A) (A) (A) (A) (A) (A)
                 (A) (A) (A) (A) (A) (A)
 The electronic state is 1-A.
 Alpha  occ. eigenvalues -- -101.65693-101.65328-101.55812-101.55749 -10.24521
 Alpha  occ. eigenvalues --  -10.24287 -10.20627 -10.20489 -10.19550 -10.19452
 Alpha  occ. eigenvalues --  -10.19279 -10.19172 -10.18832 -10.18517 -10.17040
 Alpha  occ. eigenvalues --  -10.17018  -9.64331  -9.62183  -9.47285  -9.47190
 Alpha  occ. eigenvalues --   -7.42724  -7.37789  -7.37712  -7.37325  -7.37091
 Alpha  occ. eigenvalues --   -7.36643  -7.23718  -7.23651  -7.22779  -7.22748
 Alpha  occ. eigenvalues --   -7.22673  -7.22644  -1.38736  -0.90530  -0.89790
 Alpha  occ. eigenvalues --   -0.86405  -0.84421  -0.81471  -0.79766  -0.77941
 Alpha  occ. eigenvalues --   -0.73810  -0.71958  -0.71700  -0.70286  -0.65904
 Alpha  occ. eigenvalues --   -0.62549  -0.59745  -0.59089  -0.57568  -0.51320
 Alpha  occ. eigenvalues --   -0.49804  -0.49015  -0.47430  -0.46410  -0.44841
 Alpha  occ. eigenvalues --   -0.44087  -0.41660  -0.41333  -0.40443  -0.40117
 Alpha  occ. eigenvalues --   -0.38529  -0.36506  -0.35692  -0.34888  -0.33971
 Alpha  occ. eigenvalues --   -0.32248  -0.31912  -0.30302  -0.28666  -0.26612
 Alpha  occ. eigenvalues --   -0.24555  -0.20695  -0.15579
 Alpha virt. eigenvalues --   -0.06199  -0.04818  -0.02155  -0.01343   0.00284
 Alpha virt. eigenvalues --    0.00564   0.00750   0.00788   0.01268   0.02187
 Alpha virt. eigenvalues --    0.02346   0.02716   0.03618   0.04626   0.05051
 Alpha virt. eigenvalues --    0.05226   0.06428   0.06498   0.06898   0.07313
 Alpha virt. eigenvalues --    0.07944   0.08234   0.08588   0.09382   0.09898
 Alpha virt. eigenvalues --    0.10021   0.10586   0.10978   0.11473   0.11793
 Alpha virt. eigenvalues --    0.12078   0.12543   0.12947   0.13634   0.14012
 Alpha virt. eigenvalues --    0.14223   0.15547   0.15550   0.15674   0.15995
 Alpha virt. eigenvalues --    0.16028   0.16446   0.17200   0.17366   0.17528
 Alpha virt. eigenvalues --    0.18007   0.18434   0.18602   0.19123   0.19638
 Alpha virt. eigenvalues --    0.19837   0.20213   0.20855   0.21118   0.21367
 Alpha virt. eigenvalues --    0.21626   0.22246   0.22500   0.23214   0.23374
 Alpha virt. eigenvalues --    0.23690   0.24037   0.24496   0.25080   0.25661
 Alpha virt. eigenvalues --    0.26147   0.26409   0.26841   0.27509   0.28228
 Alpha virt. eigenvalues --    0.28436   0.28830   0.29013   0.29796   0.30529
 Alpha virt. eigenvalues --    0.31164   0.31933   0.32423   0.33341   0.34482
 Alpha virt. eigenvalues --    0.35427   0.36242   0.36472   0.37303   0.38766
 Alpha virt. eigenvalues --    0.39525   0.41965   0.43903   0.44251   0.44540
 Alpha virt. eigenvalues --    0.45861   0.45885   0.46245   0.46592   0.47191
 Alpha virt. eigenvalues --    0.49113   0.49476   0.50150   0.51819   0.52753
 Alpha virt. eigenvalues --    0.52914   0.53636   0.54736   0.54995   0.55269
 Alpha virt. eigenvalues --    0.55436   0.55951   0.57130   0.58441   0.58745
 Alpha virt. eigenvalues --    0.59427   0.59464   0.61955   0.62109   0.62164
 Alpha virt. eigenvalues --    0.62883   0.63534   0.64089   0.65932   0.66364
 Alpha virt. eigenvalues --    0.67376   0.67432   0.68390   0.68503   0.70135
 Alpha virt. eigenvalues --    0.71518   0.71721   0.71823   0.72544   0.74024
 Alpha virt. eigenvalues --    0.74372   0.78978   0.80052   0.80173   0.81678
 Alpha virt. eigenvalues --    0.82711   0.83475   0.84045   0.84381   0.85227
 Alpha virt. eigenvalues --    0.85344   0.86314   0.86365   0.86605   0.87018
 Alpha virt. eigenvalues --    0.87597   0.89435   0.89595   0.91203   0.91830
 Alpha virt. eigenvalues --    0.92770   0.93309   0.93681   0.95334   0.96038
 Alpha virt. eigenvalues --    0.96401   0.97561   0.97648   0.99029   0.99655
 Alpha virt. eigenvalues --    1.00522   1.01051   1.02987   1.04123   1.05428
 Alpha virt. eigenvalues --    1.06402   1.06681   1.07534   1.09964   1.10530
 Alpha virt. eigenvalues --    1.11523   1.13140   1.15841   1.19809   1.21558
 Alpha virt. eigenvalues --    1.23068   1.24622   1.26622   1.27014   1.27154
 Alpha virt. eigenvalues --    1.29006   1.29039   1.30581   1.33084   1.35774
 Alpha virt. eigenvalues --    1.36855   1.41742   1.44314   1.44688   1.47571
 Alpha virt. eigenvalues --    1.50539   1.50906   1.51093   1.52581   1.52843
 Alpha virt. eigenvalues --    1.55431   1.56773   1.58451   1.58944   1.60829
 Alpha virt. eigenvalues --    1.62550   1.63857   1.66864   1.67937   1.70331
 Alpha virt. eigenvalues --    1.70965   1.73706   1.74768   1.75110   1.78654
 Alpha virt. eigenvalues --    1.80018   1.83969   1.84696   1.86514   1.87910
 Alpha virt. eigenvalues --    1.89365   1.90535   1.91773   1.92234   1.93152
 Alpha virt. eigenvalues --    1.94810   1.95929   1.96559   1.97054   1.98796
 Alpha virt. eigenvalues --    2.00191   2.02921   2.04296   2.05433   2.07606
 Alpha virt. eigenvalues --    2.09544   2.10162   2.14280   2.16137   2.19285
 Alpha virt. eigenvalues --    2.22815   2.24053   2.25145   2.27298   2.28186
 Alpha virt. eigenvalues --    2.28578   2.30208   2.31340   2.33658   2.35182
 Alpha virt. eigenvalues --    2.37070   2.37189   2.41084   2.41887   2.43795
 Alpha virt. eigenvalues --    2.45071   2.46979   2.48246   2.51834   2.55447
 Alpha virt. eigenvalues --    2.55917   2.60629   2.62948   2.64688   2.65240
 Alpha virt. eigenvalues --    2.67121   2.69676   2.70531   2.70872   2.72617
 Alpha virt. eigenvalues --    2.74406   2.74839   2.75661   2.76533   2.76830
 Alpha virt. eigenvalues --    2.77636   2.80125   2.80843   2.83367   2.85542
 Alpha virt. eigenvalues --    2.86153   2.86617   2.87161   2.91417   2.93653
 Alpha virt. eigenvalues --    2.96001   3.03475   3.07573   3.09104   3.11244
 Alpha virt. eigenvalues --    3.15077   3.16437   3.20372   3.22711   3.24013
 Alpha virt. eigenvalues --    3.34430   3.35527   3.39184   3.40546   3.47324
 Alpha virt. eigenvalues --    3.52997   3.56945   3.59290   3.66610   3.75310
 Alpha virt. eigenvalues --    3.79084   3.91205   3.98864   4.06936   4.08238
 Alpha virt. eigenvalues --    4.12688   4.21105   4.49284   4.81715   4.84878
 Alpha virt. eigenvalues --    9.76195   9.78560   9.82630  10.55639  23.43743
 Alpha virt. eigenvalues --   23.58911  23.86547  23.89355  23.92519  23.94665
 Alpha virt. eigenvalues --   24.02430  24.02978  24.04801  24.06426  24.13110
 Alpha virt. eigenvalues --   24.14461  25.41652  25.82649  25.83080  25.97900
 Alpha virt. eigenvalues --   26.14736  26.21153  26.21447  26.61236  26.64711
 Alpha virt. eigenvalues --   27.10546  27.41756  28.45508 215.76773 215.78134
 Alpha virt. eigenvalues --  215.91458 216.87591
          Condensed to atoms (all electrons):
               1          2          3          4          5          6
     1  C   19.737756  -3.139355  -2.602083   2.129020   4.574684 -11.620366
     2  C   -3.139355  15.067767   0.077626  -4.623909  -1.299362   3.486876
     3  C   -2.602083   0.077626  19.535664  -7.654356  -1.269902   3.579415
     4  C    2.129020  -4.623909  -7.654356  22.321704   2.743623 -11.272213
     5  C    4.574684  -1.299362  -1.269902   2.743623  24.550964 -28.019701
     6  C  -11.620366   3.486876   3.579415 -11.272213 -28.019701  68.218568
     7  C    3.247080  -1.625675  -0.739323   0.291493  -0.490393  -2.508289
     8  C   -1.317640   0.394415  -2.769545   0.206641   1.894838  -4.237939
     9  C    0.118345  -1.308374   0.370295   0.217268   0.091525  -0.974195
    10  C   -1.818416   0.032532  -0.589277   0.157574   0.499239  -0.385912
    11  C    0.046107   0.277128   0.218770  -0.417845  -0.720321   0.863996
    12  C   -3.295865   0.363270  -0.640821  -1.841634 -10.373229  20.475080
    13  H    0.191306   0.105761  -0.164747   0.144263   0.021256  -0.121785
    14  H    0.102874  -0.006493   0.010993   0.409342  -0.016207  -0.159983
    15  H    0.082025  -0.019925  -0.055940  -0.037067   0.256137   0.184315
    16  H    0.091850  -0.019888   0.004006  -0.000341   0.012024  -0.018584
    17  H   -0.001540   0.007964  -0.000462  -0.000084  -0.000029   0.002574
    18  H    0.002638   0.001686   0.000343   0.000057   0.001003  -0.001491
    19  Cl   0.238976  -0.395539  -0.607348   0.190462   0.916603  -3.256807
    20  Cl   0.450177  -1.315195  -1.276361   4.397615  13.328031 -29.371663
    21  Cl   0.211931  -0.009702   0.041630  -0.052470  -0.324362   0.427113
    22  Cl  -0.604895   0.544307  -0.444365  -0.559029   0.277434   0.242257
               7          8          9         10         11         12
     1  C    3.247080  -1.317640   0.118345  -1.818416   0.046107  -3.295865
     2  C   -1.625675   0.394415  -1.308374   0.032532   0.277128   0.363270
     3  C   -0.739323  -2.769545   0.370295  -0.589277   0.218770  -0.640821
     4  C    0.291493   0.206641   0.217268   0.157574  -0.417845  -1.841634
     5  C   -0.490393   1.894838   0.091525   0.499239  -0.720321 -10.373229
     6  C   -2.508289  -4.237939  -0.974195  -0.385912   0.863996  20.475080
     7  C   19.299168  -7.036027  -0.128022  -5.520789   3.798318  -4.055962
     8  C   -7.036027  18.168510  -2.949331   4.292327  -2.332418  -1.198597
     9  C   -0.128022  -2.949331  10.744754   0.214254  -1.078170   0.072337
    10  C   -5.520789   4.292327   0.214254  19.856509  -9.729285  -3.519921
    11  C    3.798318  -2.332418  -1.078170  -9.729285  21.660740  -3.513387
    12  C   -4.055962  -1.198597   0.072337  -3.519921  -3.513387  46.126287
    13  H    0.022401   0.055846   0.060153   0.004077  -0.019475   0.004456
    14  H    0.002121   0.005291   0.000320   0.000029  -0.000171  -0.004884
    15  H    0.006361  -0.003955   0.000298  -0.000219   0.001408   0.029590
    16  H    0.039030   0.292038  -0.044057  -0.000168  -0.046382  -0.023384
    17  H    0.009784  -0.011296   0.386256  -0.008356  -0.028799  -0.006229
    18  H    0.087994  -0.080248  -0.043670   0.379798  -0.011901   0.025897
    19  Cl  -0.275870   0.628105   0.608888   3.061017  -1.059491 -13.505767
    20  Cl   2.360048   2.460660  -0.148448   2.140140  -2.193427 -22.624217
    21  Cl  -0.336722  -0.221137   0.163357  -2.689878  -0.155407   4.386891
    22  Cl  -0.105162  -0.081316  -0.011054  -0.007887   0.006914  -0.053437
              13         14         15         16         17         18
     1  C    0.191306   0.102874   0.082025   0.091850  -0.001540   0.002638
     2  C    0.105761  -0.006493  -0.019925  -0.019888   0.007964   0.001686
     3  C   -0.164747   0.010993  -0.055940   0.004006  -0.000462   0.000343
     4  C    0.144263   0.409342  -0.037067  -0.000341  -0.000084   0.000057
     5  C    0.021256  -0.016207   0.256137   0.012024  -0.000029   0.001003
     6  C   -0.121785  -0.159983   0.184315  -0.018584   0.002574  -0.001491
     7  C    0.022401   0.002121   0.006361   0.039030   0.009784   0.087994
     8  C    0.055846   0.005291  -0.003955   0.292038  -0.011296  -0.080248
     9  C    0.060153   0.000320   0.000298  -0.044057   0.386256  -0.043670
    10  C    0.004077   0.000029  -0.000219  -0.000168  -0.008356   0.379798
    11  C   -0.019475  -0.000171   0.001408  -0.046382  -0.028799  -0.011901
    12  C    0.004456  -0.004884   0.029590  -0.023384  -0.006229   0.025897
    13  H    0.561883  -0.000268   0.000040   0.005198  -0.000025   0.000002
    14  H   -0.000268   0.523010  -0.009214   0.000002  -0.000000   0.000000
    15  H    0.000040  -0.009214   0.532644  -0.000001   0.000000  -0.000000
    16  H    0.005198   0.000002  -0.000001   0.575823  -0.007424  -0.000145
    17  H   -0.000025  -0.000000   0.000000  -0.007424   0.534396  -0.007991
    18  H    0.000002   0.000000  -0.000000  -0.000145  -0.007991   0.530095
    19  Cl   0.014631  -0.000439   0.027054   0.014130   0.000666   0.015784
    20  Cl   0.017611   0.010649  -0.128638   0.013108  -0.001515   0.007357
    21  Cl  -0.000454  -0.000005   0.000177  -0.001810   0.000428  -0.043158
    22  Cl  -0.033890  -0.009590   0.001109  -0.000705   0.000022  -0.000000
              19         20         21         22
     1  C    0.238976   0.450177   0.211931  -0.604895
     2  C   -0.395539  -1.315195  -0.009702   0.544307
     3  C   -0.607348  -1.276361   0.041630  -0.444365
     4  C    0.190462   4.397615  -0.052470  -0.559029
     5  C    0.916603  13.328031  -0.324362   0.277434
     6  C   -3.256807 -29.371663   0.427113   0.242257
     7  C   -0.275870   2.360048  -0.336722  -0.105162
     8  C    0.628105   2.460660  -0.221137  -0.081316
     9  C    0.608888  -0.148448   0.163357  -0.011054
    10  C    3.061017   2.140140  -2.689878  -0.007887
    11  C   -1.059491  -2.193427  -0.155407   0.006914
    12  C  -13.505767 -22.624217   4.386891  -0.053437
    13  H    0.014631   0.017611  -0.000454  -0.033890
    14  H   -0.000439   0.010649  -0.000005  -0.009590
    15  H    0.027054  -0.128638   0.000177   0.001109
    16  H    0.014130   0.013108  -0.001810  -0.000705
    17  H    0.000666  -0.001515   0.000428   0.000022
    18  H    0.015784   0.007357  -0.043158  -0.000000
    19  Cl  28.900915   2.718231  -2.096720  -0.005641
    20  Cl   2.718231  48.011253  -2.196707  -0.041682
    21  Cl  -2.096720  -2.196707  19.355015   0.000103
    22  Cl  -0.005641  -0.041682   0.000103  17.466757
 Mulliken charges:
               1
     1  C   -0.824607
     2  C   -0.595916
     3  C    0.975788
     4  C   -0.750113
     5  C   -0.653854
     6  C    0.468734
     7  C   -0.341565
     8  C   -0.159221
     9  C   -0.362730
    10  C   -0.367387
    11  C    0.433097
    12  C   -0.826472
    13  H    0.131761
    14  H    0.142623
    15  H    0.133801
    16  H    0.115679
    17  H    0.131661
    18  H    0.135953
    19  Cl   0.868159
    20  Cl   0.382974
    21  Cl   0.541889
    22  Cl   0.419748
 Sum of Mulliken charges =  -0.00000
 Mulliken charges with hydrogens summed into heavy atoms:
               1
     1  C   -0.824607
     2  C   -0.464155
     3  C    0.975788
     4  C   -0.607490
     5  C   -0.520053
     6  C    0.468734
     7  C   -0.341565
     8  C   -0.043542
     9  C   -0.231069
    10  C   -0.231434
    11  C    0.433097
    12  C   -0.826472
    19  Cl   0.868159
    20  Cl   0.382974
    21  Cl   0.541889
    22  Cl   0.419748
 Electronic spatial extent (au):  <R**2>=           5672.3500
 Charge=             -0.0000 electrons
 Dipole moment (field-independent basis, Debye):
    X=             -0.7724    Y=             -1.7282    Z=              0.0000  Tot=              1.8929
 Quadrupole moment (field-independent basis, Debye-Ang):
   XX=           -131.5908   YY=           -105.0504   ZZ=           -123.1821
   XY=             -2.4652   XZ=             -0.0000   YZ=             -0.0000
 Traceless Quadrupole moment (field-independent basis, Debye-Ang):
   XX=            -11.6497   YY=             14.8907   ZZ=             -3.2410
   XY=             -2.4652   XZ=             -0.0000   YZ=             -0.0000
 Octapole moment (field-independent basis, Debye-Ang**2):
  XXX=            -19.2087  YYY=            -14.7105  ZZZ=             -0.0001  XYY=            -16.8223
  XXY=            -22.1847  XXZ=             -0.0000  XZZ=             -7.0987  YZZ=            -13.0528
  YYZ=              0.0000  XYZ=              0.0000
 Hexadecapole moment (field-independent basis, Debye-Ang**3):
 XXXX=          -5837.2192 YYYY=          -1695.0434 ZZZZ=           -148.3763 XXXY=            -42.9562
 XXXZ=              0.0001 YYYX=             28.8877 YYYZ=             -0.0001 ZZZX=              0.0001
 ZZZY=             -0.0001 XXYY=          -1153.0180 XXZZ=          -1001.7703 YYZZ=           -355.2220
 XXYZ=              0.0000 YYXZ=              0.0000 ZZXY=             34.4355
 N-N= 1.569840577255D+03 E-N=-8.584133455067D+03  KE= 2.301790483989D+03
 Calling FoFJK, ICntrl=      2127 FMM=F ISym2X=0 I1Cent= 0 IOpClX= 0 NMat=1 NMatS=1 NMatT=0.
 ***** Axes restored to original set *****
 -------------------------------------------------------------------
 Center     Atomic                   Forces (Hartrees/Bohr)
 Number     Number              X              Y              Z
 -------------------------------------------------------------------
      1        6           0.002828804   -0.025032934   -0.005633352
      2        6           0.000543688    0.013752924    0.002404014
      3        6          -0.013479024   -0.000580041    0.004331906
      4        6          -0.004010234   -0.007944439   -0.000171054
      5        6           0.006819084   -0.024577955   -0.006862409
      6        6           0.102441869   -0.005970112   -0.034871871
      7        6           0.025882357    0.007092724   -0.007195045
      8        6          -0.015730520   -0.004604383    0.004317774
      9        6          -0.007959165    0.016580446    0.005736115
     10        6           0.003308142    0.008582877    0.000522063
     11        6           0.029826920    0.005644061   -0.008766682
     12        6           0.049484137   -0.095927071   -0.034318391
     13        1           0.006804590   -0.004031338   -0.002998994
     14        1           0.005715529    0.007977822   -0.000384691
     15        1          -0.005561696    0.011316907    0.003957778
     16        1           0.007487798   -0.003596650   -0.003142487
     17        1           0.003247221   -0.008342140   -0.002636513
     18        1          -0.005759548   -0.008714126    0.000260881
     19       17          -1.717060194   -2.708860381    0.056974309
     20       17           1.533459779    2.828408426    0.025966221
     21       17          -0.006028104   -0.001175275    0.001765270
     22       17          -0.002261434    0.000000656    0.000745158
 -------------------------------------------------------------------
 Cartesian Forces:  Max     2.828408426 RMS     0.559641734

 GradGradGradGradGradGradGradGradGradGradGradGradGradGradGradGradGradGrad
 Berny optimization.
 FormGI is forming the generalized inverse of G from B-inverse, IUseBI=4.
 Internal  Forces:  Max     3.116961399 RMS     0.292517037
 Search for a local minimum.
 Step number   1 out of a maximum of  129
 All quantities printed in internal units (Hartrees-Bohrs-Radians)
 Mixed Optimization -- RFO/linear search
 Second derivative matrix not updated -- first step.
 ITU=  0
     Eigenvalues ---    0.01035   0.01214   0.01489   0.01712   0.01738
     Eigenvalues ---    0.01829   0.02070   0.02070   0.02070   0.02070
     Eigenvalues ---    0.02070   0.02070   0.02070   0.02070   0.02070
     Eigenvalues ---    0.02070   0.02070   0.02070   0.03966   0.16000
     Eigenvalues ---    0.16000   0.16000   0.16000   0.16000   0.16000
     Eigenvalues ---    0.22099   0.22443   0.23499   0.23548   0.24620
     Eigenvalues ---    0.24915   0.25000   0.25000   0.25000   0.25000
     Eigenvalues ---    0.25000   0.28334   0.29044   0.29447   0.29539
     Eigenvalues ---    0.29539   0.37230   0.37230   0.37230   0.37230
     Eigenvalues ---    0.37230   0.37230   0.39961   0.40775   0.41427
     Eigenvalues ---    0.41548   0.44573   0.45130   0.45389   0.45389
     Eigenvalues ---    0.45389   0.45389   0.45389   0.45389  16.61567
 RFO step:  Lambda=-6.28103896D-01 EMin= 1.03510895D-02
 Linear search not attempted -- first point.
 Iteration  1 RMS(Cart)=  0.03319920 RMS(Int)=  0.00052541
 Iteration  2 RMS(Cart)=  0.00127946 RMS(Int)=  0.00024011
 Iteration  3 RMS(Cart)=  0.00000066 RMS(Int)=  0.00024011
 Variable       Old X    -DE/DX   Delta X   Delta X   Delta X     New X
                                 (Linear)    (Quad)   (Total)
    R1        2.64826   0.01790   0.00000   0.00199   0.00192   2.65019
    R2        2.64826   0.10231   0.00000   0.01713   0.01680   2.66507
    R3        2.91018   0.11885   0.00000  -0.01336  -0.01388   2.89630
    R4        2.64826  -0.01207   0.00000  -0.00887  -0.00886   2.63940
    R5        2.02201   0.00734   0.00000   0.00734   0.00734   2.02934
    R6        2.64826  -0.03067   0.00000  -0.01151  -0.01143   2.63683
    R7        3.32592  -0.00238   0.00000  -0.00258  -0.00258   3.32334
    R8        2.64826  -0.02528   0.00000  -0.00881  -0.00874   2.63952
    R9        2.02201   0.00977   0.00000   0.00977   0.00977   2.03178
   R10        2.64826  -0.00631   0.00000  -0.00811  -0.00812   2.64014
   R11        2.02201   0.01321   0.00000   0.01321   0.01321   2.03521
   R12        3.32592   0.04793   0.00000   0.12281   0.12307   3.44899
   R13        2.64826   0.01830   0.00000   0.00235   0.00228   2.65054
   R14        2.64826   0.10245   0.00000   0.01732   0.01696   2.66522
   R15        2.64826  -0.00996   0.00000  -0.00693  -0.00692   2.64134
   R16        2.02201   0.00801   0.00000   0.00801   0.00801   2.03002
   R17        2.64826  -0.03065   0.00000  -0.01149  -0.01141   2.63685
   R18        2.02201   0.00927   0.00000   0.00927   0.00927   2.03128
   R19        2.64826  -0.02662   0.00000  -0.01005  -0.00997   2.63829
   R20        2.02201   0.01043   0.00000   0.01043   0.01043   2.03243
   R21        2.64826  -0.00931   0.00000  -0.01088  -0.01088   2.63738
   R22        3.32592   0.00630   0.00000   0.00682   0.00682   3.33274
   R23        3.32592   0.06127   0.00000   0.13734   0.13756   3.46348
   R24        2.23252   3.11696   0.00000   0.18077   0.18129   2.41381
    A1        2.09440  -0.07956   0.00000  -0.00975  -0.00946   2.08493
    A2        2.09440  -0.16820   0.00000  -0.00401  -0.00335   2.09105
    A3        2.09440   0.24777   0.00000   0.01376   0.01281   2.10721
    A4        2.09440   0.04375   0.00000   0.00282   0.00266   2.09705
    A5        2.09440  -0.01763   0.00000   0.00398   0.00407   2.09846
    A6        2.09440  -0.02613   0.00000  -0.00680  -0.00672   2.08767
    A7        2.09440   0.01289   0.00000   0.00701   0.00699   2.10138
    A8        2.09440  -0.00636   0.00000  -0.00340  -0.00339   2.09100
    A9        2.09440  -0.00653   0.00000  -0.00361  -0.00359   2.09080
   A10        2.09440  -0.01163   0.00000  -0.00569  -0.00566   2.08874
   A11        2.09440   0.00484   0.00000   0.00161   0.00159   2.09599
   A12        2.09440   0.00679   0.00000   0.00408   0.00407   2.09846
   A13        2.09440   0.02238   0.00000   0.00955   0.00949   2.10388
   A14        2.09440  -0.01158   0.00000  -0.00527  -0.00524   2.08916
   A15        2.09440  -0.01080   0.00000  -0.00428  -0.00425   2.09015
   A16        2.09440   0.01217   0.00000  -0.00394  -0.00401   2.09039
   A17        2.09440   0.07098   0.00000   0.03287   0.03271   2.12710
   A18        2.09440  -0.08315   0.00000  -0.02893  -0.02870   2.06569
   A19        2.09440  -0.16746   0.00000  -0.00323  -0.00254   2.09186
   A20        2.09440   0.24524   0.00000   0.01094   0.00997   2.10436
   A21        2.09440  -0.07778   0.00000  -0.00770  -0.00743   2.08697
   A22        2.09440   0.04633   0.00000   0.00591   0.00572   2.10011
   A23        2.09440  -0.01930   0.00000   0.00195   0.00205   2.09645
   A24        2.09440  -0.02704   0.00000  -0.00787  -0.00777   2.08663
   A25        2.09440   0.00802   0.00000   0.00156   0.00152   2.09592
   A26        2.09440  -0.00295   0.00000   0.00057   0.00059   2.09498
   A27        2.09440  -0.00507   0.00000  -0.00213  -0.00211   2.09228
   A28        2.09440  -0.01141   0.00000  -0.00539  -0.00535   2.08905
   A29        2.09440   0.00632   0.00000   0.00347   0.00345   2.09785
   A30        2.09440   0.00509   0.00000   0.00191   0.00190   2.09629
   A31        2.09440   0.02842   0.00000   0.01614   0.01610   2.11049
   A32        2.09440  -0.01597   0.00000  -0.01008  -0.01005   2.08434
   A33        2.09440  -0.01245   0.00000  -0.00607  -0.00604   2.08835
   A34        2.09440   0.00641   0.00000  -0.01052  -0.01056   2.08383
   A35        2.09440   0.06776   0.00000   0.02934   0.02911   2.12351
   A36        2.09440  -0.07417   0.00000  -0.01881  -0.01855   2.07585
   A37        2.09440  -0.31545   0.00000  -0.04292  -0.04179   2.05261
   A38        2.09440  -0.31630   0.00000  -0.04399  -0.04281   2.05159
    D1        0.00000   0.00000   0.00000   0.00000   0.00000   0.00000
    D2        3.14159   0.00000   0.00000   0.00000   0.00000   3.14159
    D3       -3.14159   0.00000   0.00000   0.00000   0.00000  -3.14159
    D4       -0.00000   0.00000   0.00000   0.00000   0.00000  -0.00000
    D5       -0.00000  -0.00000   0.00000  -0.00000  -0.00000  -0.00000
    D6        3.14159  -0.00000   0.00000   0.00000   0.00000   3.14159
    D7        3.14159  -0.00000   0.00000  -0.00000  -0.00000   3.14159
    D8        0.00000  -0.00000   0.00000   0.00000   0.00000   0.00000
    D9       -0.00000  -0.00000   0.00000  -0.00000  -0.00000  -0.00000
   D10        3.14159  -0.00000   0.00000  -0.00000  -0.00000   3.14159
   D11        3.14159  -0.00000   0.00000  -0.00000  -0.00000   3.14159
   D12       -0.00000  -0.00000   0.00000  -0.00000  -0.00000  -0.00000
   D13        0.00000  -0.00000   0.00000   0.00000   0.00000   0.00000
   D14        3.14159  -0.00000   0.00000   0.00000   0.00000   3.14159
   D15       -3.14159   0.00000   0.00000  -0.00000  -0.00000  -3.14159
   D16        0.00000   0.00000   0.00000  -0.00000  -0.00000   0.00000
   D17       -0.00000  -0.00000   0.00000   0.00000   0.00000  -0.00000
   D18        3.14159   0.00000   0.00000  -0.00000  -0.00000   3.14159
   D19        3.14159  -0.00000   0.00000   0.00000   0.00000   3.14159
   D20        0.00000   0.00000   0.00000  -0.00000  -0.00000   0.00000
   D21        0.00000   0.00000   0.00000  -0.00000  -0.00000   0.00000
   D22       -3.14159   0.00000   0.00000  -0.00000  -0.00000  -3.14159
   D23       -3.14159  -0.00000   0.00000  -0.00000  -0.00000  -3.14159
   D24        0.00000   0.00000   0.00000  -0.00000  -0.00000   0.00000
   D25       -0.00000   0.00000   0.00000   0.00000   0.00000  -0.00000
   D26        3.14159   0.00000   0.00000   0.00000   0.00000   3.14159
   D27        3.14159  -0.00000   0.00000   0.00000   0.00000   3.14159
   D28       -0.00000   0.00000   0.00000  -0.00000  -0.00000  -0.00000
   D29        0.00001  -0.00000   0.00000  -0.00000  -0.00000   0.00001
   D30       -3.14158  -0.00000   0.00000  -0.00000  -0.00000  -3.14158
   D31        3.14159   0.00000   0.00000   0.00000   0.00000   3.14159
   D32        0.00000   0.00000   0.00000   0.00000   0.00000   0.00000
   D33        0.00000   0.00000   0.00000   0.00000   0.00000   0.00000
   D34       -3.14159   0.00000   0.00000  -0.00000  -0.00000  -3.14159
   D35       -3.14159  -0.00000   0.00000  -0.00000  -0.00000  -3.14159
   D36        0.00000  -0.00000   0.00000   0.00000   0.00000   0.00000
   D37       -0.00000  -0.00000   0.00000  -0.00000  -0.00000  -0.00000
   D38        3.14159  -0.00000   0.00000   0.00000   0.00000   3.14159
   D39       -0.00000  -0.00000   0.00000   0.00000   0.00000  -0.00000
   D40        3.14159  -0.00000   0.00000  -0.00000  -0.00000   3.14159
   D41        3.14159   0.00000   0.00000   0.00000   0.00000   3.14159
   D42       -0.00000   0.00000   0.00000   0.00000   0.00000  -0.00000
   D43       -0.00000  -0.00000   0.00000  -0.00000  -0.00000  -0.00000
   D44       -3.14159  -0.00000   0.00000  -0.00000  -0.00000  -3.14159
   D45        3.14159  -0.00000   0.00000   0.00000   0.00000   3.14159
   D46        0.00000   0.00000   0.00000  -0.00000  -0.00000   0.00000
   D47        0.00000   0.00000   0.00000  -0.00000  -0.00000   0.00000
   D48       -3.14159   0.00000   0.00000  -0.00000  -0.00000  -3.14159
   D49        3.14159  -0.00000   0.00000   0.00000   0.00000   3.14159
   D50        0.00000   0.00000   0.00000  -0.00000  -0.00000   0.00000
   D51        0.00000   0.00000   0.00000   0.00000   0.00000   0.00000
   D52       -3.14159   0.00000   0.00000  -0.00000  -0.00000  -3.14159
   D53        3.14159   0.00000   0.00000   0.00000   0.00000   3.14159
   D54       -0.00000   0.00000   0.00000  -0.00000  -0.00000  -0.00000
   D55        0.00001  -0.00000   0.00000  -0.00000  -0.00000   0.00001
   D56       -3.14158  -0.00000   0.00000  -0.00000  -0.00000  -3.14158
   D57       -0.00001   0.00000   0.00000   0.00000   0.00000  -0.00001
         Item               Value     Threshold  Converged?
 Maximum Force            3.116961     0.000450     NO 
 RMS     Force            0.292517     0.000300     NO 
 Maximum Displacement     0.197206     0.001800     NO 
 RMS     Displacement     0.032471     0.001200     NO 
 Predicted change in Energy=-3.366200D-01
 GradGradGradGradGradGradGradGradGradGradGradGradGradGradGradGradGradGrad

                          Input orientation:                          
 ---------------------------------------------------------------------
 Center     Atomic      Atomic             Coordinates (Angstroms)
 Number     Number       Type             X           Y           Z
 ---------------------------------------------------------------------
      1          6           0       -0.668000    1.279194    1.065529
      2          6           0        0.665187    1.304646    0.631084
      3          6           0        1.377325    2.506137    0.622118
      4          6           0        0.770680    3.689683    1.044262
      5          6           0       -0.556922    3.669810    1.477913
      6          6           0       -1.281355    2.475287    1.492237
      7          6           0       -1.442049   -0.043621    1.072106
      8          6           0       -0.813892   -1.222293    0.643790
      9          6           0       -1.510472   -2.434084    0.645698
     10          6           0       -2.837521   -2.477434    1.074763
     11          6           0       -3.464989   -1.305565    1.501575
     12          6           0       -2.783383   -0.087695    1.505742
     13          1           0        1.144484    0.401214    0.303506
     14          1           0        1.323524    4.611786    1.035305
     15          1           0       -1.025540    4.583092    1.803822
     16          1           0        0.207463   -1.198743    0.311723
     17          1           0       -1.024455   -3.334535    0.316463
     18          1           0       -3.375200   -3.408902    1.076968
     19         17           0       -3.659845    1.417123    2.077121
     20         17           0       -3.011959    2.517932    2.070402
     21         17           0       -5.142445   -1.368519    2.042407
     22         17           0        3.048716    2.527584    0.075499
 ---------------------------------------------------------------------
                    Distance matrix (angstroms):
                    1          2          3          4          5
     1  C    0.000000
     2  C    1.402418   0.000000
     3  C    2.425975   1.396711   0.000000
     4  C    2.807260   2.422859   1.395351   0.000000
     5  C    2.428465   2.793684   2.414090   1.396773   0.000000
     6  C    1.410292   2.429200   2.797613   2.426167   1.397101
     7  C    1.532656   2.540229   3.827875   4.339873   3.838970
     8  C    2.540981   2.928012   4.324707   5.176751   4.969352
     9  C    3.830725   4.325715   5.722387   6.546987   6.233728
    10  C    4.338106   5.173968   6.542614   7.145164   6.569038
    11  C    3.833310   4.962792   6.224992   6.565252   5.762965
    12  C    2.556760   3.820507   4.981992   5.207006   4.367693
    13  H    2.153283   1.073882   2.141596   3.391531   3.867523
    14  H    3.882428   3.396171   2.146479   1.075170   2.149256
    15  H    3.404211   3.870669   3.388794   2.145114   1.076988
    16  H    2.734014   2.564850   3.897571   4.974991   5.064295
    17  H    4.687714   4.947311   6.322613   7.286415   7.115364
    18  H    5.413623   6.224233   7.601387   8.220663   7.629654
    19  Cl   3.161247   4.561751   5.355004   5.085359   3.880950
    20  Cl   2.835205   4.130993   4.622065   4.090760   2.775801
    21  Cl   5.290117   6.547231   7.716060   7.845173   6.835966
    22  Cl   4.043836   2.735957   1.758636   2.734671   4.033865
                    6          7          8          9         10
     6  C    0.000000
     7  C    2.558755   0.000000
     8  C    3.822366   1.402606   0.000000
     9  C    4.987088   2.429161   1.397736   0.000000
    10  C    5.208203   2.805494   2.419956   1.395362   0.000000
    11  C    4.366141   2.422650   2.787659   2.413755   1.396123
    12  C    2.970715   1.410376   2.430877   2.804553   2.428893
    13  H    3.405812   2.734735   2.566477   3.899333   4.973712
    14  H    3.399825   5.415031   6.225617   7.604447   8.220273
    15  H    2.146012   4.702697   5.923931   7.128617   7.325696
    16  H    4.136265   2.152529   1.074239   2.142174   3.389574
    17  H    5.933168   3.402279   2.147801   1.074905   2.144027
    18  H    6.259419   3.881008   3.395468   2.147900   1.075518
    19  Cl   2.668148   2.839445   4.137681   4.636871   4.104694
    20  Cl   1.825126   3.165875   4.566837   5.367188   5.096607
    21  Cl   5.475906   4.048429   4.551251   4.034533   2.734722
    22  Cl   4.556248   5.269847   5.413342   6.762357   7.790797
                   11         12         13         14         15
    11  C    0.000000
    12  C    1.395640   0.000000
    13  H    5.059219   4.136731   0.000000
    14  H    7.626422   6.258843   4.277441   0.000000
    15  H    6.381109   4.999512   4.944498   2.471749   0.000000
    16  H    3.861873   3.406650   1.854167   5.960822   6.097235
    17  H    3.387833   3.879456   4.319755   8.317076   8.056120
    18  H    2.147645   3.400663   5.961776   9.295762   8.361890
    19  Cl   2.789669   1.832795   5.221049   6.010426   4.127665
    20  Cl   3.892034   2.675889   4.987829   4.924639   2.877814
    21  Cl   1.763611   2.737461   6.758787   8.864934   7.240684
    22  Cl   7.691234   6.549706   2.863484   2.870785   4.879730
                   16         17         18         19         20
    16  H    0.000000
    17  H    2.465615   0.000000
    18  H    4.278538   2.471822   0.000000
    19  Cl   4.991539   5.711695   4.936785   0.000000
    20  Cl   5.222193   6.424784   6.020483   1.277333   0.000000
    21  Cl   5.625443   4.878724   2.866774   3.155806   4.432184
    22  Cl   4.691911   7.142355   8.804062   7.088328   6.380557
                   21         22
    21  Cl   0.000000
    22  Cl   9.281350   0.000000
 Stoichiometry    C12H6Cl4
 Framework group  C1[X(C12H6Cl4)]
 Deg. of freedom    60
 Full point group                 C1      NOp   1
 Largest Abelian subgroup         C1      NOp   1
 Largest concise Abelian subgroup C1      NOp   1
                         Standard orientation:                         
 ---------------------------------------------------------------------
 Center     Atomic      Atomic             Coordinates (Angstroms)
 Number     Number       Type             X           Y           Z
 ---------------------------------------------------------------------
      1          6           0        0.973536    0.165029    0.000002
      2          6           0        2.174428    0.889346    0.000001
      3          6           0        3.398943    0.217509   -0.000001
      4          6           0        3.439090   -1.177264   -0.000002
      5          6           0        2.245914   -1.903423    0.000001
      6          6           0        1.013860   -1.244686    0.000003
      7          6           0       -0.365715    0.910309    0.000003
      8          6           0       -0.384295    2.312791    0.000005
      9          6           0       -1.599997    3.002525    0.000004
     10          6           0       -2.804203    2.297597    0.000003
     11          6           0       -2.788349    0.901565    0.000001
     12          6           0       -1.583011    0.198023    0.000001
     13          1           0        2.158248    1.963106   -0.000001
     14          1           0        4.384481   -1.689343   -0.000004
     15          1           0        2.276448   -2.979978    0.000003
     16          1           0        0.537698    2.864080    0.000003
     17          1           0       -1.608723    4.077394    0.000006
     18          1           0       -3.740674    2.826521    0.000001
     19         17           0       -1.625692   -1.634275   -0.000004
     20         17           0       -0.507866   -2.252374    0.000006
     21         17           0       -4.314531    0.017770   -0.000006
     22         17           0        4.899344    1.134895   -0.000004
 ---------------------------------------------------------------------
 Rotational constants (GHZ):           0.7132528           0.2185847           0.1673105
 Standard basis: 6-311+G(d,p) (5D, 7F)
 There are   436 symmetry adapted cartesian basis functions of A   symmetry.
 There are   420 symmetry adapted basis functions of A   symmetry.
   420 basis functions,   692 primitive gaussians,   436 cartesian basis functions
    73 alpha electrons       73 beta electrons
       nuclear repulsion energy      1548.9425828260 Hartrees.
 NAtoms=   22 NActive=   22 NUniq=   22 SFac= 1.00D+00 NAtFMM=   60 NAOKFM=F Big=F
 Integral buffers will be    131072 words long.
 Raffenetti 2 integral format.
 Two-electron integral symmetry is turned on.
 One-electron integrals computed using PRISM.
 NBasis=   420 RedAO= T EigKep=  1.03D-06  NBF=   420
 NBsUse=   416 1.00D-06 EigRej=  3.58D-07 NBFU=   416
 Initial guess from the checkpoint file:  "/scratch/pkc/Gau-34782.chk"
 B after Tr=    -0.000000    0.000000    0.000000
         Rot=    0.999997   -0.000000   -0.000000    0.002424 Ang=  -0.28 deg.
 ExpMin= 4.38D-02 ExpMax= 1.06D+05 ExpMxC= 3.62D+03 IAcc=3 IRadAn=         5 AccDes= 0.00D+00
 Harris functional with IExCor=  402 and IRadAn=       5 diagonalized for initial guess.
 HarFok:  IExCor=  402 AccDes= 0.00D+00 IRadAn=         5 IDoV= 1 UseB2=F ITyADJ=14
 ICtDFT=  3500011 ScaDFX=  1.000000  1.000000  1.000000  1.000000
 FoFCou: FMM=F IPFlag=           0 FMFlag=      100000 FMFlg1=           0
         NFxFlg=           0 DoJE=T BraDBF=F KetDBF=T FulRan=T
         wScrn=  0.000000 ICntrl=       500 IOpCl=  0 I1Cent=   200000004 NGrid=           0
         NMat0=    1 NMatS0=      1 NMatT0=    0 NMatD0=    1 NMtDS0=    0 NMtDT0=    0
 Petite list used in FoFCou.
 Requested convergence on RMS density matrix=1.00D-08 within  32 cycles.
 Requested convergence on MAX density matrix=1.00D-06.
 Requested convergence on             energy=1.00D-06.
 No special actions if energy rises.
 SCF Done:  E(RB3LYP) =  -2300.78839333     A.U. after   18 cycles
            NFock= 18  Conv=0.69D-08     -V/T= 2.0004
 QCSCF skips out because SCF is already converged.
 Calling FoFJK, ICntrl=      2127 FMM=F ISym2X=0 I1Cent= 0 IOpClX= 0 NMat=1 NMatS=1 NMatT=0.
 ***** Axes restored to original set *****
 -------------------------------------------------------------------
 Center     Atomic                   Forces (Hartrees/Bohr)
 Number     Number              X              Y              Z
 -------------------------------------------------------------------
      1        6          -0.001214715   -0.020321319   -0.003416362
      2        6           0.000849833    0.009562629    0.001516152
      3        6          -0.009693841   -0.001382729    0.002934104
      4        6          -0.000548328   -0.002045037   -0.000203631
      5        6          -0.000496275   -0.017898299   -0.003197854
      6        6           0.084928754   -0.017818295   -0.031327087
      7        6           0.019047865    0.008303450   -0.004715950
      8        6          -0.010791017   -0.003387784    0.002918942
      9        6          -0.003774295    0.011355549    0.003376089
     10        6          -0.000217491    0.002062097    0.000458964
     11        6           0.024463878    0.008978888   -0.006373457
     12        6           0.052352676   -0.075282696   -0.031386421
     13        1           0.005074200   -0.001889527   -0.002026650
     14        1           0.003682526    0.004785533   -0.000314452
     15        1          -0.003321564    0.007700727    0.002540613
     16        1           0.004656813   -0.003240138   -0.002142853
     17        1           0.002091180   -0.005281345   -0.001680803
     18        1          -0.003677216   -0.005329038    0.000210587
     19       17          -1.106615526   -1.688198436    0.047539041
     20       17           0.951222318    1.790333109    0.022838059
     21       17          -0.007223707   -0.000999266    0.002192220
     22       17          -0.000796068   -0.000008075    0.000260749
 -------------------------------------------------------------------
 Cartesian Forces:  Max     1.790333109 RMS     0.352655813

 GradGradGradGradGradGradGradGradGradGradGradGradGradGradGradGradGradGrad
 Berny optimization.
 Using GEDIIS/GDIIS optimizer.
 FormGI is forming the generalized inverse of G from B-inverse, IUseBI=4.
 Internal  Forces:  Max     1.969864666 RMS     0.184867081
 Search for a local minimum.
 Step number   2 out of a maximum of  129
 All quantities printed in internal units (Hartrees-Bohrs-Radians)
 Mixed Optimization -- RFO/linear search
 Update second derivatives using D2CorX and points    1    2
 DE= -5.10D-01 DEPred=-3.37D-01 R= 1.51D+00
 TightC=F SS=  1.41D+00  RLast= 2.78D-01 DXNew= 5.0454D-01 8.3344D-01
 Trust test= 1.51D+00 RLast= 2.78D-01 DXMaxT set to 5.05D-01
 ITU=  1  0
 Use linear search instead of GDIIS.
 Linear search step of   0.556 exceeds DXMaxT=   0.505 but not scaled.
 Quartic linear search produced a step of  2.00000.
 Iteration  1 RMS(Cart)=  0.04143050 RMS(Int)=  0.01656798
 Iteration  2 RMS(Cart)=  0.02356303 RMS(Int)=  0.00132825
 Iteration  3 RMS(Cart)=  0.00024089 RMS(Int)=  0.00132218
 Iteration  4 RMS(Cart)=  0.00000013 RMS(Int)=  0.00132218
 Variable       Old X    -DE/DX   Delta X   Delta X   Delta X     New X
                                 (Linear)    (Quad)   (Total)
    R1        2.65019   0.01241   0.00385   0.00000   0.00350   2.65368
    R2        2.66507   0.06064   0.03361   0.00000   0.03182   2.69689
    R3        2.89630   0.06150  -0.02776   0.00000  -0.03046   2.86584
    R4        2.63940  -0.00804  -0.01772   0.00000  -0.01764   2.62177
    R5        2.02934   0.00447   0.01467   0.00000   0.01467   2.04402
    R6        2.63683  -0.01891  -0.02286   0.00000  -0.02243   2.61440
    R7        3.32334  -0.00084  -0.00516   0.00000  -0.00516   3.31818
    R8        2.63952  -0.01434  -0.01749   0.00000  -0.01713   2.62238
    R9        2.03178   0.00600   0.01954   0.00000   0.01954   2.05132
   R10        2.64014  -0.00547  -0.01625   0.00000  -0.01632   2.62382
   R11        2.03521   0.00874   0.02641   0.00000   0.02641   2.06162
   R12        3.44899   0.05826   0.24614   0.00000   0.24727   3.69626
   R13        2.65054   0.01243   0.00456   0.00000   0.00414   2.65468
   R14        2.66522   0.06081   0.03392   0.00000   0.03198   2.69721
   R15        2.64134  -0.00675  -0.01385   0.00000  -0.01382   2.62751
   R16        2.03002   0.00502   0.01602   0.00000   0.01602   2.04604
   R17        2.63685  -0.01860  -0.02282   0.00000  -0.02237   2.61448
   R18        2.03128   0.00588   0.01854   0.00000   0.01854   2.04981
   R19        2.63829  -0.01545  -0.01995   0.00000  -0.01953   2.61876
   R20        2.03243   0.00645   0.02085   0.00000   0.02085   2.05329
   R21        2.63738  -0.00854  -0.02177   0.00000  -0.02177   2.61560
   R22        3.33274   0.00758   0.01365   0.00000   0.01365   3.34639
   R23        3.46348   0.07060   0.27513   0.00000   0.27612   3.73961
   R24        2.41381   1.96986   0.36258   0.00000   0.36528   2.77909
    A1        2.08493  -0.04831  -0.01893   0.00000  -0.01742   2.06751
    A2        2.09105  -0.09930  -0.00669   0.00000  -0.00302   2.08803
    A3        2.10721   0.14762   0.02562   0.00000   0.02045   2.12765
    A4        2.09705   0.02698   0.00531   0.00000   0.00441   2.10146
    A5        2.09846  -0.00977   0.00813   0.00000   0.00858   2.10705
    A6        2.08767  -0.01721  -0.01344   0.00000  -0.01299   2.07468
    A7        2.10138   0.00805   0.01397   0.00000   0.01387   2.11525
    A8        2.09100  -0.00402  -0.00678   0.00000  -0.00673   2.08427
    A9        2.09080  -0.00403  -0.00719   0.00000  -0.00714   2.08367
   A10        2.08874  -0.00895  -0.01132   0.00000  -0.01114   2.07759
   A11        2.09599   0.00372   0.00319   0.00000   0.00310   2.09909
   A12        2.09846   0.00523   0.00813   0.00000   0.00805   2.10651
   A13        2.10388   0.01571   0.01898   0.00000   0.01863   2.12251
   A14        2.08916  -0.00844  -0.01048   0.00000  -0.01030   2.07885
   A15        2.09015  -0.00727  -0.00850   0.00000  -0.00832   2.08182
   A16        2.09039   0.00653  -0.00802   0.00000  -0.00833   2.08205
   A17        2.12710   0.05630   0.06542   0.00000   0.06432   2.19143
   A18        2.06569  -0.06283  -0.05740   0.00000  -0.05599   2.00970
   A19        2.09186  -0.09902  -0.00508   0.00000  -0.00126   2.09060
   A20        2.10436   0.14558   0.01993   0.00000   0.01464   2.11900
   A21        2.08697  -0.04656  -0.01485   0.00000  -0.01338   2.07359
   A22        2.10011   0.02863   0.01143   0.00000   0.01036   2.11047
   A23        2.09645  -0.01086   0.00410   0.00000   0.00464   2.10109
   A24        2.08663  -0.01777  -0.01554   0.00000  -0.01500   2.07163
   A25        2.09592   0.00436   0.00305   0.00000   0.00285   2.09877
   A26        2.09498  -0.00149   0.00118   0.00000   0.00127   2.09625
   A27        2.09228  -0.00287  -0.00422   0.00000  -0.00412   2.08816
   A28        2.08905  -0.00903  -0.01070   0.00000  -0.01049   2.07856
   A29        2.09785   0.00508   0.00691   0.00000   0.00680   2.10465
   A30        2.09629   0.00395   0.00379   0.00000   0.00369   2.09998
   A31        2.11049   0.02081   0.03219   0.00000   0.03192   2.14241
   A32        2.08434  -0.01164  -0.02011   0.00000  -0.01997   2.06437
   A33        2.08835  -0.00917  -0.01209   0.00000  -0.01195   2.07640
   A34        2.08383   0.00178  -0.02112   0.00000  -0.02127   2.06257
   A35        2.12351   0.05327   0.05822   0.00000   0.05678   2.18029
   A36        2.07585  -0.05505  -0.03710   0.00000  -0.03552   2.04033
   A37        2.05261  -0.20156  -0.08357   0.00000  -0.07717   1.97544
   A38        2.05159  -0.20120  -0.08562   0.00000  -0.07902   1.97257
    D1        0.00000   0.00000   0.00000   0.00000   0.00000   0.00000
    D2        3.14159   0.00000   0.00000   0.00000   0.00000   3.14159
    D3       -3.14159   0.00000   0.00000   0.00000   0.00000  -3.14159
    D4       -0.00000   0.00000   0.00000   0.00000   0.00000  -0.00000
    D5       -0.00000  -0.00000  -0.00000   0.00000  -0.00000  -0.00000
    D6        3.14159  -0.00000   0.00000   0.00000   0.00000   3.14159
    D7        3.14159  -0.00000  -0.00000   0.00000  -0.00000   3.14159
    D8        0.00000  -0.00000   0.00000   0.00000   0.00000   0.00000
    D9       -0.00000  -0.00000  -0.00000   0.00000  -0.00000  -0.00000
   D10        3.14159  -0.00000  -0.00000   0.00000  -0.00000   3.14159
   D11        3.14159  -0.00000  -0.00000   0.00000  -0.00000   3.14159
   D12       -0.00000  -0.00000  -0.00000   0.00000  -0.00000  -0.00000
   D13        0.00000  -0.00000   0.00000   0.00000   0.00000   0.00000
   D14        3.14159  -0.00000   0.00000   0.00000   0.00000   3.14159
   D15       -3.14159   0.00000  -0.00000   0.00000  -0.00000  -3.14159
   D16        0.00000   0.00000  -0.00000   0.00000  -0.00000   0.00000
   D17       -0.00000  -0.00000   0.00000   0.00000   0.00000  -0.00000
   D18        3.14159   0.00000  -0.00000   0.00000  -0.00000   3.14159
   D19        3.14159  -0.00000   0.00000   0.00000   0.00000   3.14159
   D20        0.00000   0.00000  -0.00000   0.00000  -0.00000   0.00000
   D21        0.00000   0.00000  -0.00000   0.00000  -0.00000   0.00000
   D22       -3.14159   0.00000  -0.00000   0.00000  -0.00000  -3.14159
   D23       -3.14159  -0.00000  -0.00000   0.00000  -0.00000  -3.14159
   D24        0.00000   0.00000  -0.00000   0.00000  -0.00000   0.00000
   D25       -0.00000   0.00000   0.00000   0.00000   0.00000  -0.00000
   D26        3.14159   0.00000   0.00000   0.00000   0.00000   3.14159
   D27        3.14159  -0.00000   0.00000   0.00000   0.00000   3.14159
   D28       -0.00000   0.00000  -0.00000   0.00000  -0.00000  -0.00000
   D29        0.00001  -0.00000  -0.00000   0.00000  -0.00000   0.00001
   D30       -3.14158  -0.00000  -0.00000   0.00000  -0.00000  -3.14158
   D31        3.14159   0.00000   0.00000   0.00000   0.00000   3.14159
   D32        0.00000   0.00000   0.00000   0.00000   0.00000   0.00000
   D33        0.00000   0.00000   0.00000   0.00000   0.00000   0.00000
   D34       -3.14159   0.00000  -0.00000   0.00000  -0.00000  -3.14159
   D35       -3.14159  -0.00000  -0.00000   0.00000  -0.00000  -3.14159
   D36        0.00000  -0.00000   0.00000   0.00000   0.00000   0.00000
   D37       -0.00000  -0.00000  -0.00000   0.00000  -0.00000  -0.00000
   D38        3.14159  -0.00000   0.00000   0.00000   0.00000   3.14159
   D39       -0.00000  -0.00000   0.00000   0.00000   0.00000  -0.00000
   D40        3.14159  -0.00000  -0.00000   0.00000  -0.00000   3.14159
   D41        3.14159   0.00000   0.00000   0.00000   0.00000   3.14159
   D42       -0.00000   0.00000   0.00000   0.00000   0.00000  -0.00000
   D43       -0.00000  -0.00000  -0.00000   0.00000  -0.00000  -0.00000
   D44       -3.14159  -0.00000  -0.00000   0.00000  -0.00000  -3.14159
   D45        3.14159  -0.00000   0.00000   0.00000   0.00000   3.14159
   D46        0.00000   0.00000  -0.00000   0.00000  -0.00000   0.00000
   D47        0.00000   0.00000  -0.00000   0.00000  -0.00000   0.00000
   D48       -3.14159   0.00000  -0.00000   0.00000  -0.00000  -3.14159
   D49        3.14159  -0.00000   0.00000   0.00000   0.00000   3.14159
   D50        0.00000   0.00000  -0.00000   0.00000  -0.00000   0.00000
   D51        0.00000   0.00000   0.00000   0.00000   0.00000   0.00000
   D52       -3.14159   0.00000  -0.00000   0.00000  -0.00000  -3.14159
   D53        3.14159   0.00000   0.00000   0.00000   0.00000   3.14159
   D54       -0.00000   0.00000  -0.00000   0.00000  -0.00000  -0.00000
   D55        0.00001  -0.00000  -0.00000   0.00000  -0.00000   0.00001
   D56       -3.14158  -0.00000  -0.00000   0.00000  -0.00000  -3.14158
   D57       -0.00001   0.00000   0.00000   0.00000   0.00000  -0.00001
         Item               Value     Threshold  Converged?
 Maximum Force            1.969865     0.000450     NO 
 RMS     Force            0.184867     0.000300     NO 
 Maximum Displacement     0.380188     0.001800     NO 
 RMS     Displacement     0.060048     0.001200     NO 
 Predicted change in Energy=-3.684526D-01
 GradGradGradGradGradGradGradGradGradGradGradGradGradGradGradGradGradGrad

                          Input orientation:                          
 ---------------------------------------------------------------------
 Center     Atomic      Atomic             Coordinates (Angstroms)
 Number     Number       Type             X           Y           Z
 ---------------------------------------------------------------------
      1          6           0       -0.677111    1.273638    1.067487
      2          6           0        0.657695    1.295528    0.631840
[...]

 **********************************************************************

            Population analysis using the SCF Density.

 **********************************************************************

 Orbital symmetries:
       Occupied  (A) (A) (A) (A) (A) (A) (A) (A) (A) (A) (A) (A)
                 (A) (A) (A) (A) (A) (A) (A) (A) (A) (A) (A) (A)
                 (A) (A) (A) (A) (A) (A) (A) (A) (A) (A) (A) (A)
                 (A) (A) (A) (A) (A) (A) (A) (A) (A) (A) (A) (A)
                 (A) (A) (A) (A) (A) (A) (A) (A) (A) (A) (A) (A)
                 (A) (A) (A) (A) (A) (A) (A) (A) (A) (A) (A) (A)
                 (A)
       Virtual   (A) (A) (A) (A) (A) (A) (A) (A) (A) (A) (A) (A)
                 (A) (A) (A) (A) (A) (A) (A) (A) (A) (A) (A) (A)
                 (A) (A) (A) (A) (A) (A) (A) (A) (A) (A) (A) (A)
                 (A) (A) (A) (A) (A) (A) (A) (A) (A) (A) (A) (A)
                 (A) (A) (A) (A) (A) (A) (A) (A) (A) (A) (A) (A)
                 (A) (A) (A) (A) (A) (A) (A) (A) (A) (A) (A) (A)
                 (A) (A) (A) (A) (A) (A) (A) (A) (A) (A) (A) (A)
                 (A) (A) (A) (A) (A) (A) (A) (A) (A) (A) (A) (A)
                 (A) (A) (A) (A) (A) (A) (A) (A) (A) (A) (A) (A)
                 (A) (A) (A) (A) (A) (A) (A) (A) (A) (A) (A) (A)
                 (A) (A) (A) (A) (A) (A) (A) (A) (A) (A) (A) (A)
                 (A) (A) (A) (A) (A) (A) (A) (A) (A) (A) (A) (A)
                 (A) (A) (A) (A) (A) (A) (A) (A) (A) (A) (A) (A)
                 (A) (A) (A) (A) (A) (A) (A) (A) (A) (A) (A) (A)
                 (A) (A) (A) (A) (A) (A) (A) (A) (A) (A) (A) (A)
                 (A) (A) (A) (A) (A) (A) (A) (A) (A) (A) (A) (A)
                 (A) (A) (A) (A) (A) (A) (A) (A) (A) (A) (A) (A)
                 (A) (A) (A) (A) (A) (A) (A) (A) (A) (A) (A) (A)
                 (A) (A) (A) (A) (A) (A) (A) (A) (A) (A) (A) (A)
                 (A) (A) (A) (A) (A) (A) (A) (A) (A) (A) (A) (A)
                 (A) (A) (A) (A) (A) (A) (A) (A) (A) (A) (A) (A)
                 (A) (A) (A) (A) (A) (A) (A) (A) (A) (A) (A) (A)
                 (A) (A) (A) (A) (A) (A) (A) (A) (A) (A) (A) (A)
                 (A) (A) (A) (A) (A) (A) (A) (A) (A) (A) (A) (A)
                 (A) (A) (A) (A) (A) (A) (A) (A) (A) (A) (A) (A)
                 (A) (A) (A) (A) (A) (A) (A) (A) (A) (A) (A) (A)
                 (A) (A) (A) (A) (A) (A) (A) (A) (A) (A) (A) (A)
                 (A) (A) (A) (A) (A) (A) (A) (A) (A) (A) (A) (A)
                 (A) (A) (A) (A) (A) (A) (A) (A)
 The electronic state is 1-A.
 Alpha  occ. eigenvalues -- -101.56715-101.56690-101.56653-101.56536 -10.26382
 Alpha  occ. eigenvalues --  -10.26176 -10.25824 -10.25699 -10.22474 -10.22339
 Alpha  occ. eigenvalues --  -10.21024 -10.21004 -10.20940 -10.20769 -10.20451
 Alpha  occ. eigenvalues --  -10.20375  -9.48176  -9.48164  -9.48107  -9.48007
 Alpha  occ. eigenvalues --   -7.24656  -7.24645  -7.24572  -7.24472  -7.23658
 Alpha  occ. eigenvalues --   -7.23649  -7.23600  -7.23587  -7.23580  -7.23554
 Alpha  occ. eigenvalues --   -7.23488  -7.23445  -0.93654  -0.92119  -0.89074
 Alpha  occ. eigenvalues --   -0.87204  -0.85912  -0.83819  -0.80558  -0.76109
 Alpha  occ. eigenvalues --   -0.75026  -0.73695  -0.66664  -0.63537  -0.62437
 Alpha  occ. eigenvalues --   -0.60470  -0.54487  -0.52750  -0.51496  -0.51069
 Alpha  occ. eigenvalues --   -0.49222  -0.47370  -0.45716  -0.45501  -0.45323
 Alpha  occ. eigenvalues --   -0.43137  -0.42712  -0.41454  -0.39719  -0.39536
 Alpha  occ. eigenvalues --   -0.38630  -0.37999  -0.35838  -0.35128  -0.33996
 Alpha  occ. eigenvalues --   -0.33115  -0.32912  -0.32709  -0.31873  -0.28793
 Alpha  occ. eigenvalues --   -0.27576  -0.26423  -0.25848
 Alpha virt. eigenvalues --   -0.05178  -0.04959  -0.04216  -0.03625  -0.02030
 Alpha virt. eigenvalues --   -0.00695  -0.00148   0.00668   0.01036   0.02011
 Alpha virt. eigenvalues --    0.02239   0.02721   0.03256   0.03968   0.04774
 Alpha virt. eigenvalues --    0.04929   0.05394   0.05911   0.06486   0.06640
 Alpha virt. eigenvalues --    0.06775   0.08146   0.08264   0.09058   0.09132
 Alpha virt. eigenvalues --    0.09555   0.09925   0.10391   0.10496   0.11045
 Alpha virt. eigenvalues --    0.11823   0.11915   0.12235   0.12615   0.12986
 Alpha virt. eigenvalues --    0.13243   0.13482   0.14163   0.14593   0.14855
 Alpha virt. eigenvalues --    0.15583   0.15717   0.16176   0.16336   0.17065
 Alpha virt. eigenvalues --    0.17353   0.17916   0.18151   0.18266   0.19018
 Alpha virt. eigenvalues --    0.19225   0.19290   0.19654   0.20140   0.20391
 Alpha virt. eigenvalues --    0.20784   0.21297   0.21505   0.21804   0.22317
 Alpha virt. eigenvalues --    0.22712   0.23233   0.23266   0.24325   0.24697
 Alpha virt. eigenvalues --    0.24829   0.24982   0.25916   0.26103   0.26389
 Alpha virt. eigenvalues --    0.27053   0.27129   0.27920   0.27983   0.28813
 Alpha virt. eigenvalues --    0.29185   0.29999   0.30300   0.30407   0.31024
 Alpha virt. eigenvalues --    0.31946   0.32511   0.32772   0.33645   0.34254
 Alpha virt. eigenvalues --    0.35213   0.42174   0.43011   0.43187   0.43441
 Alpha virt. eigenvalues --    0.44605   0.45287   0.46089   0.46518   0.47080
 Alpha virt. eigenvalues --    0.47875   0.48646   0.48998   0.50896   0.51061
 Alpha virt. eigenvalues --    0.51454   0.52086   0.52933   0.53684   0.54004
 Alpha virt. eigenvalues --    0.54703   0.56254   0.56863   0.57394   0.58050
 Alpha virt. eigenvalues --    0.58347   0.58875   0.59354   0.60993   0.61267
 Alpha virt. eigenvalues --    0.62481   0.63529   0.64253   0.64614   0.64886
 Alpha virt. eigenvalues --    0.65531   0.66369   0.67080   0.67886   0.68730
 Alpha virt. eigenvalues --    0.69137   0.69217   0.69883   0.70350   0.71185
 Alpha virt. eigenvalues --    0.73179   0.73359   0.75263   0.78561   0.80595
 Alpha virt. eigenvalues --    0.81036   0.82297   0.82322   0.82967   0.83890
 Alpha virt. eigenvalues --    0.84008   0.84389   0.84782   0.85353   0.85722
 Alpha virt. eigenvalues --    0.85847   0.86064   0.86852   0.87453   0.88385
 Alpha virt. eigenvalues --    0.88991   0.89843   0.90423   0.90707   0.92010
 Alpha virt. eigenvalues --    0.92646   0.94586   0.94798   0.95484   0.95778
 Alpha virt. eigenvalues --    0.96598   0.97258   0.98070   0.98531   0.99558
 Alpha virt. eigenvalues --    0.99838   1.00225   1.01374   1.03066   1.03456
 Alpha virt. eigenvalues --    1.04753   1.05495   1.05597   1.12252   1.13058
 Alpha virt. eigenvalues --    1.14209   1.15512   1.18998   1.21891   1.23428
 Alpha virt. eigenvalues --    1.24669   1.25282   1.25659   1.26897   1.27537
 Alpha virt. eigenvalues --    1.29107   1.31821   1.32312   1.34138   1.36505
 Alpha virt. eigenvalues --    1.39046   1.40016   1.43559   1.48223   1.49055
 Alpha virt. eigenvalues --    1.49395   1.50352   1.54881   1.55763   1.56074
 Alpha virt. eigenvalues --    1.56736   1.58892   1.60226   1.61154   1.63457
 Alpha virt. eigenvalues --    1.64699   1.66137   1.67599   1.69203   1.70707
 Alpha virt. eigenvalues --    1.71718   1.72449   1.78471   1.78936   1.81266
 Alpha virt. eigenvalues --    1.82171   1.83671   1.85123   1.87116   1.87834
 Alpha virt. eigenvalues --    1.90306   1.90946   1.93242   1.94007   1.94241
 Alpha virt. eigenvalues --    1.94840   1.96688   1.97604   1.99193   2.03115
 Alpha virt. eigenvalues --    2.03662   2.04664   2.05198   2.07904   2.14267
 Alpha virt. eigenvalues --    2.15076   2.17791   2.18818   2.25460   2.26038
 Alpha virt. eigenvalues --    2.26982   2.27404   2.28838   2.30009   2.32110
 Alpha virt. eigenvalues --    2.32474   2.34215   2.36160   2.37600   2.39325
 Alpha virt. eigenvalues --    2.42351   2.45195   2.45257   2.46158   2.49822
 Alpha virt. eigenvalues --    2.52427   2.53929   2.55199   2.55557   2.58428
 Alpha virt. eigenvalues --    2.59651   2.61369   2.67514   2.67978   2.68722
 Alpha virt. eigenvalues --    2.69278   2.70217   2.71912   2.72265   2.73747
 Alpha virt. eigenvalues --    2.74957   2.75257   2.76518   2.76976   2.78198
 Alpha virt. eigenvalues --    2.79178   2.82447   2.83754   2.85232   2.85621
 Alpha virt. eigenvalues --    2.88155   2.90946   2.98619   2.99384   3.07998
 Alpha virt. eigenvalues --    3.09358   3.10041   3.13277   3.14563   3.18030
 Alpha virt. eigenvalues --    3.21346   3.23901   3.28012   3.34522   3.35525
 Alpha virt. eigenvalues --    3.38976   3.41851   3.51351   3.54605   3.59489
 Alpha virt. eigenvalues --    3.67794   3.72787   3.78825   3.87061   3.94853
 Alpha virt. eigenvalues --    4.04046   4.04885   4.09813   4.12310   4.34716
 Alpha virt. eigenvalues --    4.81510   4.82284   9.77749   9.78058   9.81775
 Alpha virt. eigenvalues --    9.84030  23.41644  23.56363  23.85064  23.88637
 Alpha virt. eigenvalues --   23.89153  23.93737  23.98069  24.01447  24.04024
 Alpha virt. eigenvalues --   24.09113  24.13638  24.16053  25.80776  25.82441
 Alpha virt. eigenvalues --   25.88162  25.97017  26.10609  26.15752  26.23755
 Alpha virt. eigenvalues --   26.32663  26.57250  26.60526  26.70467  26.87877
 Alpha virt. eigenvalues --  215.76965 215.77390 215.82015 215.84289
          Condensed to atoms (all electrons):
               1          2          3          4          5          6
     1  C   35.108027   5.940543  -5.992314  -2.573257  -5.319527  -5.920806
     2  C    5.940543  28.825943  -2.753892 -10.745264  -1.476153  -0.685721
     3  C   -5.992314  -2.753892  19.723290  -1.002591  -1.893172  -3.754471
     4  C   -2.573257 -10.745264  -1.002591  18.198902   2.292411  -1.107783
     5  C   -5.319527  -1.476153  -1.893172   2.292411  20.731882  -8.139928
     6  C   -5.920806  -0.685721  -3.754471  -1.107783  -8.139928  34.568256
     7  C    0.741822  -7.464124   1.772265   0.886963  -0.420012  -6.699996
     8  C   -0.988499   0.712850   0.800010   0.011350  -1.622116  -2.297632
     9  C    2.307534   0.996569   0.253487  -0.045893  -0.622709  -0.548811
    10  C   -4.858947  -1.270183  -0.232265   0.037707   0.665164   1.406701
    11  C   -0.359999  -0.410920  -0.157585  -0.086276   0.447415   0.287701
    12  C  -12.269963  -6.083612  -0.749677   0.545455   3.406552  -0.767518
    13  H   -0.033293   0.124590   0.006237   0.077763  -0.014894  -0.068763
    14  H    0.026627   0.044563   0.043362   0.308963  -0.045122  -0.030408
    15  H    0.106026  -0.038072  -0.030741  -0.044412   0.309069   0.038892
    16  H    0.113196   0.045960  -0.028890   0.000325   0.012835   0.063936
    17  H   -0.000470  -0.002896  -0.000912  -0.000006   0.000603   0.004036
    18  H    0.020208   0.001416  -0.000115   0.000001  -0.000221  -0.001932
    19  Cl  -1.490230  -0.749135   0.504236  -0.103664  -0.107674  -0.230033
    20  Cl   1.293409   0.434117   0.132525  -0.026820  -1.448865   0.029093
    21  Cl  -0.034537   0.019216   0.016323  -0.000456  -0.012372  -0.087192
    22  Cl  -0.317704   0.984128  -1.437807  -0.045356   0.064596   0.290906
               7          8          9         10         11         12
     1  C    0.741822  -0.988499   2.307534  -4.858947  -0.359999 -12.269963
     2  C   -7.464124   0.712850   0.996569  -1.270183  -0.410920  -6.083612
     3  C    1.772265   0.800010   0.253487  -0.232265  -0.157585  -0.749677
     4  C    0.886963   0.011350  -0.045893   0.037707  -0.086276   0.545455
     5  C   -0.420012  -1.622116  -0.622709   0.665164   0.447415   3.406552
     6  C   -6.699996  -2.297632  -0.548811   1.406701   0.287701  -0.767518
     7  C   25.061764  -4.626057  -2.271756  -3.385398  -0.099356   3.442885
     8  C   -4.626057  19.053158  -1.289358   3.139237  -1.521105  -6.056741
     9  C   -2.271756  -1.289358   9.679274  -0.525825  -0.747732  -1.484244
    10  C   -3.385398   3.139237  -0.525825  20.110494  -6.229878  -2.811722
    11  C   -0.099356  -1.521105  -0.747732  -6.229878  16.841927  -2.421554
    12  C    3.442885  -6.056741  -1.484244  -2.811722  -2.421554  34.058913
    13  H    0.157004   0.005261  -0.015392   0.011858  -0.003909   0.117935
    14  H    0.005629  -0.000727  -0.000152   0.000019   0.000201   0.001767
    15  H    0.016888   0.000926  -0.000287   0.000002  -0.000593  -0.000157
    16  H   -0.026067   0.309331  -0.052911  -0.020102  -0.002079  -0.060347
    17  H    0.007992   0.007820   0.363759   0.006007  -0.022160  -0.014641
    18  H    0.060267  -0.059677  -0.030919   0.242007   0.094038   0.027078
    19  Cl  -0.469530   0.197483   0.087022   1.091445   0.449831  -0.513756
    20  Cl  -0.359349   0.444847   0.327627  -0.469720   0.001304  -1.705914
    21  Cl  -0.369436   0.105621   0.028888  -0.346640  -0.801279   0.953901
    22  Cl  -0.257072   0.017661   0.015720  -0.005630   0.006642  -0.108663
              13         14         15         16         17         18
     1  C   -0.033293   0.026627   0.106026   0.113196  -0.000470   0.020208
     2  C    0.124590   0.044563  -0.038072   0.045960  -0.002896   0.001416
     3  C    0.006237   0.043362  -0.030741  -0.028890  -0.000912  -0.000115
     4  C    0.077763   0.308963  -0.044412   0.000325  -0.000006   0.000001
     5  C   -0.014894  -0.045122   0.309069   0.012835   0.000603  -0.000221
     6  C   -0.068763  -0.030408   0.038892   0.063936   0.004036  -0.001932
     7  C    0.157004   0.005629   0.016888  -0.026067   0.007992   0.060267
     8  C    0.005261  -0.000727   0.000926   0.309331   0.007820  -0.059677
     9  C   -0.015392  -0.000152  -0.000287  -0.052911   0.363759  -0.030919
    10  C    0.011858   0.000019   0.000002  -0.020102   0.006007   0.242007
    11  C   -0.003909   0.000201  -0.000593  -0.002079  -0.022160   0.094038
    12  C    0.117935   0.001767  -0.000157  -0.060347  -0.014641   0.027078
    13  H    0.512421  -0.000293   0.000048  -0.000387   0.000007  -0.000003
    14  H   -0.000293   0.506714  -0.007842  -0.000003   0.000000  -0.000000
    15  H    0.000048  -0.007842   0.507804   0.000000   0.000000  -0.000000
    16  H   -0.000387  -0.000003   0.000000   0.529556  -0.006895  -0.000238
    17  H    0.000007   0.000000   0.000000  -0.006895   0.526044  -0.007584
    18  H   -0.000003  -0.000000  -0.000000  -0.000238  -0.007584   0.508941
    19  Cl  -0.002726  -0.000124  -0.000915  -0.003695   0.000982  -0.002358
    20  Cl  -0.002381   0.000670  -0.011834  -0.004791  -0.000675   0.000154
    21  Cl   0.000238   0.000000  -0.000005   0.000116  -0.000293  -0.004487
    22  Cl  -0.017416  -0.008967   0.000778   0.000423  -0.000002   0.000001
              19         20         21         22
     1  C   -1.490230   1.293409  -0.034537  -0.317704
     2  C   -0.749135   0.434117   0.019216   0.984128
     3  C    0.504236   0.132525   0.016323  -1.437807
     4  C   -0.103664  -0.026820  -0.000456  -0.045356
     5  C   -0.107674  -1.448865  -0.012372   0.064596
     6  C   -0.230033   0.029093  -0.087192   0.290906
     7  C   -0.469530  -0.359349  -0.369436  -0.257072
     8  C    0.197483   0.444847   0.105621   0.017661
     9  C    0.087022   0.327627   0.028888   0.015720
    10  C    1.091445  -0.469720  -0.346640  -0.005630
    11  C    0.449831   0.001304  -0.801279   0.006642
    12  C   -0.513756  -1.705914   0.953901  -0.108663
    13  H   -0.002726  -0.002381   0.000238  -0.017416
    14  H   -0.000124   0.000670   0.000000  -0.008967
    15  H   -0.000915  -0.011834  -0.000005   0.000778
    16  H   -0.003695  -0.004791   0.000116   0.000423
    17  H    0.000982  -0.000675  -0.000293  -0.000002
    18  H   -0.002358   0.000154  -0.004487   0.000001
    19  Cl  17.989368   0.050655  -0.209553  -0.011291
    20  Cl   0.050655  17.903932   0.002476  -0.009377
    21  Cl  -0.209553   0.002476  17.279334   0.000199
    22  Cl  -0.011291  -0.009377   0.000199  17.422593
 Mulliken charges:
               1
     1  C    0.502152
     2  C   -0.449923
     3  C    0.782697
     4  C   -0.578064
     5  C   -0.807761
     6  C   -0.348529
     7  C    0.294675
     8  C   -0.343643
     9  C   -0.423890
    10  C   -0.554332
    11  C    0.735365
    12  C   -1.505979
    13  H    0.146096
    14  H    0.155122
    15  H    0.154423
    16  H    0.130727
    17  H    0.139286
    18  H    0.153422
    19  Cl   0.523662
    20  Cl   0.418919
    21  Cl   0.459939
    22  Cl   0.415638
 Sum of Mulliken charges =  -0.00000
 Mulliken charges with hydrogens summed into heavy atoms:
               1
     1  C    0.502152
     2  C   -0.303827
     3  C    0.782697
     4  C   -0.422942
     5  C   -0.653338
     6  C   -0.348529
     7  C    0.294675
     8  C   -0.212916
     9  C   -0.284604
    10  C   -0.400911
    11  C    0.735365
    12  C   -1.505979
    19  Cl   0.523662
    20  Cl   0.418919
    21  Cl   0.459939
    22  Cl   0.415638
 Electronic spatial extent (au):  <R**2>=           5652.5875
 Charge=             -0.0000 electrons
 Dipole moment (field-independent basis, Debye):
    X=              0.5704    Y=             -0.2947    Z=              2.2788  Tot=              2.3676
 Quadrupole moment (field-independent basis, Debye-Ang):
   XX=           -116.7719   YY=           -122.1284   ZZ=           -115.3647
   XY=             -6.3234   XZ=             -7.4480   YZ=              2.5803
 Traceless Quadrupole moment (field-independent basis, Debye-Ang):
   XX=              1.3164   YY=             -4.0401   ZZ=              2.7237
   XY=             -6.3234   XZ=             -7.4480   YZ=              2.5803
 Octapole moment (field-independent basis, Debye-Ang**2):
  XXX=             -2.6353  YYY=             -1.4642  ZZZ=              3.5673  XYY=              5.8070
  XXY=            -24.1953  XXZ=              4.3877  XZZ=            -17.9303  YZZ=              2.6162
  YYZ=             -9.4940  XYZ=              0.4758
 Hexadecapole moment (field-independent basis, Debye-Ang**3):
 XXXX=          -5014.6725 YYYY=          -1392.3771 ZZZZ=           -938.5795 XXXY=            -96.8996
 XXXZ=            -73.1842 YYYX=             25.9157 YYYZ=              0.3895 ZZZX=             -6.0758
 ZZZY=             -1.7484 XXYY=          -1076.2481 XXZZ=           -992.3177 YYZZ=           -423.7872
 XXYZ=             25.7697 YYXZ=              6.0463 ZZXY=             -5.9605
 N-N= 1.469901825794D+03 E-N=-8.384468879191D+03  KE= 2.295551375679D+03
 1\1\GINC-DAMODAR\FOpt\RB3LYP\6-311+G(d,p)\C12H6Cl4\PKC\15-Mar-2022\0\\
 # opt b3lyp/6-311+g(d,p) scf=xqc\\Title Card Required\\0,1\C,-0.721092
 0926,1.287445968,1.0961021824\C,0.608404119,1.2501824452,1.5308310797\
 C,1.365029752,2.4143600863,1.581274218\C,0.8246874283,3.6379732686,1.2
 013228483\C,-0.4942969723,3.6865738461,0.7633941897\C,-1.2555764462,2.
 5222963705,0.7114533777\C,-1.5019358466,0.0162876971,1.0256209077\C,-1
 .3633243934,-0.811830251,-0.0908403991\C,-2.0632003899,-2.0103403545,-
 0.1828851556\C,-2.9125574939,-2.4003433242,0.8452154762\C,-3.059440007
 3,-1.5896025375,1.9677861127\C,-2.3569726247,-0.3826078621,2.064325655
 3\H,1.0429833891,0.3070447569,1.8361917384\H,1.4223422531,4.5391423562
 ,1.2448235521\H,-0.9333064055,4.6281142228,0.4597065817\H,-0.704323130
 8,-0.5008642392,-0.8925513551\H,-1.9497343075,-2.6420655408,-1.0556114
 764\H,-3.4652714898,-3.3292914646,0.7903599315\Cl,-2.529765578,0.63168
 5635,3.4747816572\Cl,-2.9120880204,2.6311000656,0.1422531594\Cl,-4.131
 5578002,-2.1190819809,3.2428373314\Cl,3.0303460576,2.3359170766,2.1336
 409668\\Version=EM64L-G16RevB.01\State=1-A\HF=-2301.9000224\RMSD=7.853
 e-09\RMSF=2.572e-06\Dipole=0.3196656,-0.150553,-0.8618468\Quadrupole=-
 6.3293563,7.5918565,-1.2625002,1.5166129,0.1241854,3.3947018\PG=C01 [X
 (C12H6Cl4)]\\@


 DO NOT LET SELFISH MEN OR GREEDY INTERESTS SKIN YOUR COUNTRY OF ITS
 BEAUTY, ITS RICHES, OR ITS ROMANCE. -- THEODORE ROOSEVELT
 Job cpu time:       1 days  2 hours 51 minutes 19.9 seconds.
 Elapsed time:       0 days  6 hours 44 minutes  1.4 seconds.
 File lengths (MBytes):  RWF=    120 Int=      0 D2E=      0 Chk=     19 Scr=      1
 Normal termination of Gaussian 16 at Tue Mar 15 18:05:23 2022.
