 Entering Gaussian System, Link 0=g16
 Input=2,2prime,3,3prime,4,6-Hexachlorobiphenyl.gjf
 Output=2,2prime,3,3prime,4,6-Hexachlorobiphenyl.log
 Initial command:
 /home/apps/g16/l1.exe "./Gau-16021.inp" -scrdir="./"
 Entering Link 1 = /home/apps/g16/l1.exe PID=     16022.
  
 Copyright (c) 1988-2017, Gaussian, Inc.  All Rights Reserved.
  
 This is part of the Gaussian(R) 16 program.  It is based on
 the Gaussian(R) 09 system (copyright 2009, Gaussian, Inc.),
 the Gaussian(R) 03 system (copyright 2003, Gaussian, Inc.),
 the Gaussian(R) 98 system (copyright 1998, Gaussian, Inc.),
 the Gaussian(R) 94 system (copyright 1995, Gaussian, Inc.),
 the Gaussian 92(TM) system (copyright 1992, Gaussian, Inc.),
 the Gaussian 90(TM) system (copyright 1990, Gaussian, Inc.),
 the Gaussian 88(TM) system (copyright 1988, Gaussian, Inc.),
 the Gaussian 86(TM) system (copyright 1986, Carnegie Mellon
 University), and the Gaussian 82(TM) system (copyright 1983,
 Carnegie Mellon University). Gaussian is a federally registered
 trademark of Gaussian, Inc.
  
 This software contains proprietary and confidential information,
 including trade secrets, belonging to Gaussian, Inc.
  
 This software is provided under written license and may be
 used, copied, transmitted, or stored only in accord with that
 written license.
  
 The following legend is applicable only to US Government
 contracts under FAR:
  
                    RESTRICTED RIGHTS LEGEND
  
 Use, reproduction and disclosure by the US Government is
 subject to restrictions as set forth in subparagraphs (a)
 and (c) of the Commercial Computer Software - Restricted
 Rights clause in FAR 52.227-19.
  
 Gaussian, Inc.
 340 Quinnipiac St., Bldg. 40, Wallingford CT 06492
  
  
 ---------------------------------------------------------------
 Warning -- This program may not be used in any manner that
 competes with the business of Gaussian, Inc. or will provide
 assistance to any competitor of Gaussian, Inc.  The licensee
 of this program is prohibited from giving any competitor of
 Gaussian, Inc. access to this program.  By using this program,
 the user acknowledges that Gaussian, Inc. is engaged in the
 business of creating and licensing software in the field of
 computational chemistry and represents and warrants to the
 licensee that it is not a competitor of Gaussian, Inc. and that
 it will not use this program in any manner prohibited above.
 ---------------------------------------------------------------
  

 Cite this work as:
 Gaussian 16, Revision B.01,
 M. J. Frisch, G. W. Trucks, H. B. Schlegel, G. E. Scuseria, 
 M. A. Robb, J. R. Cheeseman, G. Scalmani, V. Barone, 
 G. A. Petersson, H. Nakatsuji, X. Li, M. Caricato, A. V. Marenich, 
 J. Bloino, B. G. Janesko, R. Gomperts, B. Mennucci, H. P. Hratchian, 
 J. V. Ortiz, A. F. Izmaylov, J. L. Sonnenberg, D. Williams-Young, 
 F. Ding, F. Lipparini, F. Egidi, J. Goings, B. Peng, A. Petrone, 
 T. Henderson, D. Ranasinghe, V. G. Zakrzewski, J. Gao, N. Rega, 
 G. Zheng, W. Liang, M. Hada, M. Ehara, K. Toyota, R. Fukuda, 
 J. Hasegawa, M. Ishida, T. Nakajima, Y. Honda, O. Kitao, H. Nakai, 
 T. Vreven, K. Throssell, J. A. Montgomery, Jr., J. E. Peralta, 
 F. Ogliaro, M. J. Bearpark, J. J. Heyd, E. N. Brothers, K. N. Kudin, 
 V. N. Staroverov, T. A. Keith, R. Kobayashi, J. Normand, 
 K. Raghavachari, A. P. Rendell, J. C. Burant, S. S. Iyengar, 
 J. Tomasi, M. Cossi, J. M. Millam, M. Klene, C. Adamo, R. Cammi, 
 J. W. Ochterski, R. L. Martin, K. Morokuma, O. Farkas, 
 J. B. Foresman, and D. J. Fox, Gaussian, Inc., Wallingford CT, 2016.
 
 ******************************************
 Gaussian 16:  EM64L-G16RevB.01 20-Dec-2017
                 3-Apr-2022 
 ******************************************
 %mem=32GB
 %nprocshared=16
 Will use up to   16 processors via shared memory.
 --------------------------------
 # opt b3lyp/6-311+g(d,p) scf=xqc
 --------------------------------
 1/18=20,19=15,26=3,38=1/1,3;
 2/9=110,12=2,17=6,18=5,40=1/2;
 3/5=4,6=6,7=111,11=2,25=1,30=1,71=1,74=-5/1,2,3;
 4//1;
 5/5=2,8=3,13=1,38=5/2,8;
 6/7=2,8=2,9=2,10=2,28=1/1;
 7//1,2,3,16;
 1/18=20,19=15,26=3/3(2);
 2/9=110/2;
 99//99;
 2/9=110/2;
 3/5=4,6=6,7=111,11=2,25=1,30=1,71=1,74=-5/1,2,3;
 4/5=5,16=3,69=1/1;
 5/5=2,8=3,13=1,38=5/2,8;
 7//1,2,3,16;
 1/18=20,19=15,26=3/3(-5);
 2/9=110/2;
 6/7=2,8=2,9=2,10=2,19=2,28=1/1;
 99/9=1/99;
 -------------------
 Title Card Required
 -------------------
 Symbolic Z-matrix:
 Charge =  0 Multiplicity = 1
 C                    -0.12017   0.60704  -0.00392 
 C                     1.21221   0.63693  -0.43726 
 C                     1.92011   1.84638  -0.44333 
 C                     1.29562   3.02594  -0.01606 
 C                    -0.03676   2.99606   0.41728 
 C                    -0.74466   1.78661   0.42336 
 C                    -1.14635  -1.14621   0.00489 
 C                    -0.52186  -2.32577  -0.42239 
 C                    -1.22975  -3.53522  -0.41631 
 C                    -2.56213  -3.56511   0.01704 
 C                    -3.18662  -2.38554   0.44431 
 C                    -2.47873  -1.17609   0.43824 
 H                     1.68902  -0.2637   -0.76349 
 H                     2.93741   1.8692   -0.7742 
 H                     1.83611   3.94938  -0.0207 
 H                    -0.75294  -4.43585  -0.74255 
 Cl                   -3.26301   0.30531   0.97485 
 Cl                   -2.41798   1.74907   0.96759 
 Cl                   -4.85994  -2.42308   0.98855 
 Cl                   -0.82105   4.47746   0.95389 
 Cl                   -3.45116  -5.08404   0.02467 
 Cl                    1.15146  -2.28824  -0.96662 
 

 GradGradGradGradGradGradGradGradGradGradGradGradGradGradGradGradGradGrad
 Berny optimization.
 Initialization pass.
                           ----------------------------
                           !    Initial Parameters    !
                           ! (Angstroms and Degrees)  !
 --------------------------                            --------------------------
 ! Name  Definition              Value          Derivative Info.                !
 --------------------------------------------------------------------------------
 ! R1    R(1,2)                  1.4014         estimate D2E/DX2                !
 ! R2    R(1,6)                  1.4014         estimate D2E/DX2                !
 ! R3    R(2,3)                  1.4014         estimate D2E/DX2                !
 ! R4    R(2,13)                 1.07           estimate D2E/DX2                !
 ! R5    R(3,4)                  1.4014         estimate D2E/DX2                !
 ! R6    R(3,14)                 1.07           estimate D2E/DX2                !
 ! R7    R(4,5)                  1.4014         estimate D2E/DX2                !
 ! R8    R(4,15)                 1.07           estimate D2E/DX2                !
 ! R9    R(5,6)                  1.4014         estimate D2E/DX2                !
 ! R10   R(5,20)                 1.76           estimate D2E/DX2                !
 ! R11   R(6,18)                 1.76           estimate D2E/DX2                !
 ! R12   R(7,8)                  1.4014         estimate D2E/DX2                !
 ! R13   R(7,12)                 1.4014         estimate D2E/DX2                !
 ! R14   R(8,9)                  1.4014         estimate D2E/DX2                !
 ! R15   R(8,22)                 1.76           estimate D2E/DX2                !
 ! R16   R(9,10)                 1.4014         estimate D2E/DX2                !
 ! R17   R(9,16)                 1.07           estimate D2E/DX2                !
 ! R18   R(10,11)                1.4014         estimate D2E/DX2                !
 ! R19   R(10,21)                1.76           estimate D2E/DX2                !
 ! R20   R(11,12)                1.4014         estimate D2E/DX2                !
 ! R21   R(11,19)                1.76           estimate D2E/DX2                !
 ! R22   R(12,17)                1.76           estimate D2E/DX2                !
 ! R23   R(17,18)                1.6729         estimate D2E/DX2                !
 ! A1    A(2,1,6)              120.0            estimate D2E/DX2                !
 ! A2    A(1,2,3)              120.0            estimate D2E/DX2                !
 ! A3    A(1,2,13)             120.0            estimate D2E/DX2                !
 ! A4    A(3,2,13)             120.0            estimate D2E/DX2                !
 ! A5    A(2,3,4)              120.0            estimate D2E/DX2                !
 ! A6    A(2,3,14)             120.0            estimate D2E/DX2                !
 ! A7    A(4,3,14)             120.0            estimate D2E/DX2                !
 ! A8    A(3,4,5)              120.0            estimate D2E/DX2                !
 ! A9    A(3,4,15)             120.0            estimate D2E/DX2                !
 ! A10   A(5,4,15)             120.0            estimate D2E/DX2                !
 ! A11   A(4,5,6)              120.0            estimate D2E/DX2                !
 ! A12   A(4,5,20)             120.0            estimate D2E/DX2                !
 ! A13   A(6,5,20)             120.0            estimate D2E/DX2                !
 ! A14   A(1,6,5)              120.0            estimate D2E/DX2                !
 ! A15   A(1,6,18)             120.0            estimate D2E/DX2                !
 ! A16   A(5,6,18)             120.0            estimate D2E/DX2                !
 ! A17   A(8,7,12)             120.0            estimate D2E/DX2                !
 ! A18   A(7,8,9)              120.0            estimate D2E/DX2                !
 ! A19   A(7,8,22)             120.0            estimate D2E/DX2                !
 ! A20   A(9,8,22)             120.0            estimate D2E/DX2                !
 ! A21   A(8,9,10)             120.0            estimate D2E/DX2                !
 ! A22   A(8,9,16)             120.0            estimate D2E/DX2                !
 ! A23   A(10,9,16)            120.0            estimate D2E/DX2                !
 ! A24   A(9,10,11)            120.0            estimate D2E/DX2                !
 ! A25   A(9,10,21)            120.0            estimate D2E/DX2                !
 ! A26   A(11,10,21)           120.0            estimate D2E/DX2                !
 ! A27   A(10,11,12)           120.0            estimate D2E/DX2                !
 ! A28   A(10,11,19)           120.0            estimate D2E/DX2                !
 ! A29   A(12,11,19)           120.0            estimate D2E/DX2                !
 ! A30   A(7,12,11)            120.0            estimate D2E/DX2                !
 ! A31   A(7,12,17)            120.0            estimate D2E/DX2                !
 ! A32   A(11,12,17)           120.0            estimate D2E/DX2                !
 ! A33   A(12,17,18)           120.0            estimate D2E/DX2                !
 ! A34   A(6,18,17)            120.0            estimate D2E/DX2                !
 ! D1    D(6,1,2,3)              0.0001         estimate D2E/DX2                !
 ! D2    D(6,1,2,13)           180.0            estimate D2E/DX2                !
 ! D3    D(2,1,6,5)             -0.0001         estimate D2E/DX2                !
 ! D4    D(2,1,6,18)           180.0            estimate D2E/DX2                !
 ! D5    D(1,2,3,4)              0.0            estimate D2E/DX2                !
 ! D6    D(1,2,3,14)           180.0            estimate D2E/DX2                !
 ! D7    D(13,2,3,4)          -179.9999         estimate D2E/DX2                !
 ! D8    D(13,2,3,14)            0.0001         estimate D2E/DX2                !
 ! D9    D(2,3,4,5)             -0.0001         estimate D2E/DX2                !
 ! D10   D(2,3,4,15)           180.0            estimate D2E/DX2                !
 ! D11   D(14,3,4,5)           179.9999         estimate D2E/DX2                !
 ! D12   D(14,3,4,15)            0.0            estimate D2E/DX2                !
 ! D13   D(3,4,5,6)              0.0001         estimate D2E/DX2                !
 ! D14   D(3,4,5,20)          -179.9999         estimate D2E/DX2                !
 ! D15   D(15,4,5,6)          -180.0            estimate D2E/DX2                !
 ! D16   D(15,4,5,20)            0.0            estimate D2E/DX2                !
 ! D17   D(4,5,6,1)              0.0            estimate D2E/DX2                !
 ! D18   D(4,5,6,18)           179.9999         estimate D2E/DX2                !
 ! D19   D(20,5,6,1)           180.0            estimate D2E/DX2                !
 ! D20   D(20,5,6,18)           -0.0001         estimate D2E/DX2                !
 ! D21   D(1,6,18,17)            0.0004         estimate D2E/DX2                !
 ! D22   D(5,6,18,17)         -179.9996         estimate D2E/DX2                !
 ! D23   D(12,7,8,9)             0.0001         estimate D2E/DX2                !
 ! D24   D(12,7,8,22)         -179.9998         estimate D2E/DX2                !
 ! D25   D(8,7,12,11)           -0.0001         estimate D2E/DX2                !
 ! D26   D(8,7,12,17)          179.9999         estimate D2E/DX2                !
 ! D27   D(7,8,9,10)             0.0            estimate D2E/DX2                !
 ! D28   D(7,8,9,16)           180.0            estimate D2E/DX2                !
 ! D29   D(22,8,9,10)          179.9998         estimate D2E/DX2                !
 ! D30   D(22,8,9,16)           -0.0002         estimate D2E/DX2                !
 ! D31   D(8,9,10,11)            0.0            estimate D2E/DX2                !
 ! D32   D(8,9,10,21)         -179.9999         estimate D2E/DX2                !
 ! D33   D(16,9,10,11)         180.0            estimate D2E/DX2                !
 ! D34   D(16,9,10,21)           0.0001         estimate D2E/DX2                !
 ! D35   D(9,10,11,12)           0.0            estimate D2E/DX2                !
 ! D36   D(9,10,11,19)        -179.9998         estimate D2E/DX2                !
 ! D37   D(21,10,11,12)        179.9999         estimate D2E/DX2                !
 ! D38   D(21,10,11,19)          0.0001         estimate D2E/DX2                !
 ! D39   D(10,11,12,7)           0.0            estimate D2E/DX2                !
 ! D40   D(10,11,12,17)       -179.9999         estimate D2E/DX2                !
 ! D41   D(19,11,12,7)         179.9999         estimate D2E/DX2                !
 ! D42   D(19,11,12,17)         -0.0001         estimate D2E/DX2                !
 ! D43   D(7,12,17,18)           0.0004         estimate D2E/DX2                !
 ! D44   D(11,12,17,18)       -179.9997         estimate D2E/DX2                !
 ! D45   D(12,17,18,6)          -0.0006         estimate D2E/DX2                !
 --------------------------------------------------------------------------------
 Trust Radius=3.00D-01 FncErr=1.00D-07 GrdErr=1.00D-06 EigMax=2.50D+02 EigMin=1.00D-04
 Number of steps in this run=    112 maximum allowed number of steps=    132.
 GradGradGradGradGradGradGradGradGradGradGradGradGradGradGradGradGradGrad

                          Input orientation:                          
 ---------------------------------------------------------------------
 Center     Atomic      Atomic             Coordinates (Angstroms)
 Number     Number       Type             X           Y           Z
 ---------------------------------------------------------------------
      1          6           0       -0.120169    0.607040   -0.003916
      2          6           0        1.212212    0.636926   -0.437263
      3          6           0        1.920106    1.846377   -0.443335
      4          6           0        1.295619    3.025942   -0.016060
      5          6           0       -0.036763    2.996057    0.417284
      6          6           0       -0.744657    1.786606    0.423357
      7          6           0       -1.146346   -1.146206    0.004888
      8          6           0       -0.521859   -2.325771   -0.422387
      9          6           0       -1.229752   -3.535223   -0.416313
     10          6           0       -2.562132   -3.565109    0.017037
     11          6           0       -3.186619   -2.385544    0.444312
     12          6           0       -2.478726   -1.176093    0.438238
     13          1           0        1.689023   -0.263698   -0.763494
     14          1           0        2.937409    1.869196   -0.774204
     15          1           0        1.836111    3.949385   -0.020696
     16          1           0       -0.752942   -4.435847   -0.742547
     17         17           0       -3.263011    0.305307    0.974850
     18         17           0       -2.417977    1.749073    0.967590
     19         17           0       -4.859937   -2.423079    0.988555
     20         17           0       -0.821050    4.477458    0.953890
     21         17           0       -3.451165   -5.084044    0.024668
     22         17           0        1.151461   -2.288238   -0.966621
 ---------------------------------------------------------------------
                    Distance matrix (angstroms):
                    1          2          3          4          5
     1  C    0.000000
     2  C    1.401400   0.000000
     3  C    2.427296   1.401400   0.000000
     4  C    2.802800   2.427296   1.401400   0.000000
     5  C    2.427296   2.802800   2.427296   1.401400   0.000000
     6  C    1.401400   2.427296   2.802800   2.427296   1.401400
     7  C    2.031500   2.989625   4.308084   4.834300   4.308084
     8  C    2.989625   3.432900   4.834300   5.666495   5.409457
     9  C    4.308084   4.834300   6.235700   7.041774   6.691466
    10  C    4.834300   5.666495   7.041774   7.637100   7.041774
    11  C    4.308084   5.409457   6.691466   7.041774   6.235700
    12  C    2.989625   4.204351   5.409457   5.666495   4.834300
    13  H    2.146700   1.070000   2.146700   3.396345   3.872800
    14  H    3.396345   2.146700   1.070000   2.146700   3.396345
    15  H    3.872800   3.396345   2.146700   1.070000   2.146700
    16  H    5.135824   5.448675   6.833817   7.771916   7.555879
    17  Cl   3.305523   4.704429   5.590246   5.400450   4.237887
    18  Cl   2.743718   4.048303   4.562800   4.048303   2.743718
    19  Cl   5.712445   6.947487   8.139259   8.282025   7.277114
    20  Cl   4.048303   4.562800   4.048303   2.743718   1.760000
    21  Cl   6.594300   7.395266   8.780678   9.397100   8.780678
    22  Cl   3.305523   2.973298   4.237887   5.400450   5.590246
                    6          7          8          9         10
     6  C    0.000000
     7  C    2.989625   0.000000
     8  C    4.204351   1.401400   0.000000
     9  C    5.409457   2.427296   1.401400   0.000000
    10  C    5.666495   2.802800   2.427296   1.401400   0.000000
    11  C    4.834300   2.427296   2.802800   2.427296   1.401400
    12  C    3.432900   1.401400   2.427296   2.802800   2.427296
    13  H    3.396345   3.067336   3.042450   4.398029   5.438829
    14  H    3.872800   5.135824   5.448675   6.833817   7.771916
    15  H    3.396345   5.904300   6.715576   8.097863   8.707100
    16  H    6.330744   3.396345   2.146700   1.070000   2.146700
    17  Cl   2.973298   2.743718   4.048303   4.562800   4.048303
    18  Cl   1.760000   3.305523   4.704429   5.590246   5.400450
    19  Cl   5.914087   4.048303   4.562800   4.048303   2.743718
    20  Cl   2.743718   5.712445   6.947487   8.139259   8.282025
    21  Cl   7.395266   4.562800   4.048303   2.743718   1.760000
    22  Cl   4.704429   2.743718   1.760000   2.743718   4.048303
                   11         12         13         14         15
    11  C    0.000000
    12  C    1.401400   0.000000
    13  H    5.452790   4.432466   0.000000
    14  H    7.555879   6.330744   2.471400   0.000000
    15  H    8.097863   6.715576   4.280590   2.471400   0.000000
    16  H    3.396345   3.872800   4.834300   7.305700   8.805474
    17  Cl   2.743718   1.760000   5.279038   6.629490   6.345980
    18  Cl   4.237887   2.973298   4.890332   5.632800   4.890332
    19  Cl   1.760000   2.743718   7.114877   9.073563   9.298599
    20  Cl   7.277114   5.914087   5.632800   4.890333   2.879094
    21  Cl   2.743718   4.048303   7.090731   9.476266  10.467100
    22  Cl   4.562800   4.048303   2.104518   4.528895   6.345980
                   16         17         18         19         20
    16  H    0.000000
    17  Cl   5.632800   0.000000
    18  Cl   6.629490   1.672900   0.000000
    19  Cl   4.890332   3.161400   4.834300   0.000000
    20  Cl   9.073563   4.834300   3.161400   7.995700   0.000000
    21  Cl   2.879094   5.475705   6.974816   3.161400   9.960084
    22  Cl   2.879094   5.475705   5.725552   6.322800   7.304369
                   21         22
    21  Cl   0.000000
    22  Cl   5.475705   0.000000
 Stoichiometry    C12H4Cl6
 Framework group  C1[X(C12H4Cl6)]
 Deg. of freedom    60
 Full point group                 C1      NOp   1
 Largest Abelian subgroup         C1      NOp   1
 Largest concise Abelian subgroup C1      NOp   1
                         Standard orientation:                         
 ---------------------------------------------------------------------
 Center     Atomic      Atomic             Coordinates (Angstroms)
 Number     Number       Type             X           Y           Z
 ---------------------------------------------------------------------
      1          6           0       -1.497993    0.926241   -0.000000
      2          6           0       -2.054911    2.212228    0.000002
      3          6           0       -3.447069    2.372916    0.000005
      4          6           0       -4.282307    1.247616    0.000005
      5          6           0       -3.725388   -0.038371    0.000001
      6          6           0       -2.333231   -0.199059   -0.000001
      7          6           0        0.520109    0.693304   -0.000002
      8          6           0        1.355347    1.818604   -0.000003
      9          6           0        2.747504    1.657916   -0.000004
     10          6           0        3.304423    0.371929   -0.000003
     11          6           0        2.469185   -0.753371   -0.000001
     12          6           0        1.077028   -0.592683   -0.000001
     13          1           0       -1.417189    3.071419    0.000004
     14          1           0       -3.872289    3.354795    0.000007
     15          1           0       -5.345250    1.370305    0.000008
     16          1           0        3.385227    2.517108   -0.000004
     17         17           0        0.028063   -2.005932    0.000003
     18         17           0       -1.633803   -1.814114   -0.000005
     19         17           0        3.168612   -2.368425    0.000005
     20         17           0       -4.774353   -1.451620   -0.000002
     21         17           0        5.052815    0.170123   -0.000000
     22         17           0        0.655920    3.433659   -0.000000
 ---------------------------------------------------------------------
 Rotational constants (GHZ):           0.4162412           0.1572944           0.1141558
 Standard basis: 6-311+G(d,p) (5D, 7F)
 There are   486 symmetry adapted cartesian basis functions of A   symmetry.
 There are   468 symmetry adapted basis functions of A   symmetry.
   468 basis functions,   782 primitive gaussians,   486 cartesian basis functions
    89 alpha electrons       89 beta electrons
       nuclear repulsion energy      2070.5588374449 Hartrees.
 NAtoms=   22 NActive=   22 NUniq=   22 SFac= 1.00D+00 NAtFMM=   60 NAOKFM=F Big=F
 Integral buffers will be    131072 words long.
 Raffenetti 2 integral format.
 Two-electron integral symmetry is turned on.
 One-electron integrals computed using PRISM.
 NBasis=   468 RedAO= T EigKep=  1.20D-06  NBF=   468
 NBsUse=   462 1.00D-06 EigRej=  7.36D-07 NBFU=   462
 ExpMin= 4.38D-02 ExpMax= 1.06D+05 ExpMxC= 3.62D+03 IAcc=3 IRadAn=         5 AccDes= 0.00D+00
 Harris functional with IExCor=  402 and IRadAn=       5 diagonalized for initial guess.
 HarFok:  IExCor=  402 AccDes= 0.00D+00 IRadAn=         5 IDoV= 1 UseB2=F ITyADJ=14
 ICtDFT=  3500011 ScaDFX=  1.000000  1.000000  1.000000  1.000000
 FoFCou: FMM=F IPFlag=           0 FMFlag=      100000 FMFlg1=           0
         NFxFlg=           0 DoJE=T BraDBF=F KetDBF=T FulRan=T
         wScrn=  0.000000 ICntrl=       500 IOpCl=  0 I1Cent=   200000004 NGrid=           0
         NMat0=    1 NMatS0=      1 NMatT0=    0 NMatD0=    1 NMtDS0=    0 NMtDT0=    0
 Petite list used in FoFCou.
 Requested convergence on RMS density matrix=1.00D-08 within  32 cycles.
 Requested convergence on MAX density matrix=1.00D-06.
 Requested convergence on             energy=1.00D-06.
 No special actions if energy rises.
 EnCoef did     4 forward-backward iterations
 EnCoef did     4 forward-backward iterations
 EnCoef did     6 forward-backward iterations
 EnCoef did     6 forward-backward iterations
 Restarting incremental Fock formation.
 SCF Done:  E(RB3LYP) =  -3220.56461027     A.U. after   27 cycles
            NFock= 27  Conv=0.67D-08     -V/T= 2.0020
 QCSCF skips out because SCF is already converged.

 **********************************************************************

            Population analysis using the SCF Density.

 **********************************************************************

 Orbital symmetries:
       Occupied  (A) (A) (A) (A) (A) (A) (A) (A) (A) (A) (A) (A)
                 (A) (A) (A) (A) (A) (A) (A) (A) (A) (A) (A) (A)
                 (A) (A) (A) (A) (A) (A) (A) (A) (A) (A) (A) (A)
                 (A) (A) (A) (A) (A) (A) (A) (A) (A) (A) (A) (A)
                 (A) (A) (A) (A) (A) (A) (A) (A) (A) (A) (A) (A)
                 (A) (A) (A) (A) (A) (A) (A) (A) (A) (A) (A) (A)
                 (A) (A) (A) (A) (A) (A) (A) (A) (A) (A) (A) (A)
                 (A) (A) (A) (A) (A)
       Virtual   (A) (A) (A) (A) (A) (A) (A) (A) (A) (A) (A) (A)
                 (A) (A) (A) (A) (A) (A) (A) (A) (A) (A) (A) (A)
                 (A) (A) (A) (A) (A) (A) (A) (A) (A) (A) (A) (A)
                 (A) (A) (A) (A) (A) (A) (A) (A) (A) (A) (A) (A)
                 (A) (A) (A) (A) (A) (A) (A) (A) (A) (A) (A) (A)
                 (A) (A) (A) (A) (A) (A) (A) (A) (A) (A) (A) (A)
                 (A) (A) (A) (A) (A) (A) (A) (A) (A) (A) (A) (A)
                 (A) (A) (A) (A) (A) (A) (A) (A) (A) (A) (A) (A)
                 (A) (A) (A) (A) (A) (A) (A) (A) (A) (A) (A) (A)
                 (A) (A) (A) (A) (A) (A) (A) (A) (A) (A) (A) (A)
                 (A) (A) (A) (A) (A) (A) (A) (A) (A) (A) (A) (A)
                 (A) (A) (A) (A) (A) (A) (A) (A) (A) (A) (A) (A)
                 (A) (A) (A) (A) (A) (A) (A) (A) (A) (A) (A) (A)
                 (A) (A) (A) (A) (A) (A) (A) (A) (A) (A) (A) (A)
                 (A) (A) (A) (A) (A) (A) (A) (A) (A) (A) (A) (A)
                 (A) (A) (A) (A) (A) (A) (A) (A) (A) (A) (A) (A)
                 (A) (A) (A) (A) (A) (A) (A) (A) (A) (A) (A) (A)
                 (A) (A) (A) (A) (A) (A) (A) (A) (A) (A) (A) (A)
                 (A) (A) (A) (A) (A) (A) (A) (A) (A) (A) (A) (A)
                 (A) (A) (A) (A) (A) (A) (A) (A) (A) (A) (A) (A)
                 (A) (A) (A) (A) (A) (A) (A) (A) (A) (A) (A) (A)
                 (A) (A) (A) (A) (A) (A) (A) (A) (A) (A) (A) (A)
                 (A) (A) (A) (A) (A) (A) (A) (A) (A) (A) (A) (A)
                 (A) (A) (A) (A) (A) (A) (A) (A) (A) (A) (A) (A)
                 (A) (A) (A) (A) (A) (A) (A) (A) (A) (A) (A) (A)
                 (A) (A) (A) (A) (A) (A) (A) (A) (A) (A) (A) (A)
                 (A) (A) (A) (A) (A) (A) (A) (A) (A) (A) (A) (A)
                 (A) (A) (A) (A) (A) (A) (A) (A) (A) (A) (A) (A)
                 (A) (A) (A) (A) (A) (A) (A) (A) (A) (A) (A) (A)
                 (A) (A) (A) (A) (A) (A) (A) (A) (A) (A) (A) (A)
                 (A) (A) (A) (A) (A) (A) (A) (A) (A) (A) (A) (A)
                 (A)
 The electronic state is 1-A.
 Alpha  occ. eigenvalues -- -101.64411-101.62620-101.57724-101.56693-101.55843
 Alpha  occ. eigenvalues -- -101.55794 -10.29005 -10.28479 -10.26599 -10.26204
 Alpha  occ. eigenvalues --  -10.26073 -10.23865 -10.23786 -10.23392 -10.21849
 Alpha  occ. eigenvalues --  -10.21347 -10.21228 -10.20381  -9.56842  -9.55252
 Alpha  occ. eigenvalues --   -9.49181  -9.48257  -9.47363  -9.47257  -7.33309
 Alpha  occ. eigenvalues --   -7.32365  -7.32067  -7.31933  -7.30535  -7.30104
 Alpha  occ. eigenvalues --   -7.25668  -7.24695  -7.24657  -7.24602  -7.23801
 Alpha  occ. eigenvalues --   -7.23737  -7.23721  -7.23700  -7.22853  -7.22806
 Alpha  occ. eigenvalues --   -7.22750  -7.22687  -1.12350  -0.93609  -0.92899
 Alpha  occ. eigenvalues --   -0.89452  -0.87687  -0.86554  -0.85263  -0.83196
 Alpha  occ. eigenvalues --   -0.79089  -0.76578  -0.74701  -0.73269  -0.68225
 Alpha  occ. eigenvalues --   -0.64199  -0.62118  -0.60697  -0.58891  -0.54951
 Alpha  occ. eigenvalues --   -0.52858  -0.52743  -0.51291  -0.50879  -0.49599
 Alpha  occ. eigenvalues --   -0.47945  -0.46308  -0.45172  -0.44309  -0.43793
 Alpha  occ. eigenvalues --   -0.43161  -0.42493  -0.41181  -0.40354  -0.38513
 Alpha  occ. eigenvalues --   -0.36508  -0.36059  -0.35490  -0.34221  -0.33950
 Alpha  occ. eigenvalues --   -0.33482  -0.32587  -0.32131  -0.31079  -0.29383
 Alpha  occ. eigenvalues --   -0.27775  -0.25882  -0.25495  -0.12671
 Alpha virt. eigenvalues --   -0.09382  -0.06672  -0.05559  -0.05394  -0.04339
 Alpha virt. eigenvalues --   -0.02768  -0.01499  -0.00542  -0.00045   0.00204
 Alpha virt. eigenvalues --    0.00780   0.01730   0.02515   0.03105   0.03667
 Alpha virt. eigenvalues --    0.03743   0.04082   0.05066   0.05530   0.05669
 Alpha virt. eigenvalues --    0.05841   0.06633   0.07156   0.07421   0.07752
 Alpha virt. eigenvalues --    0.08027   0.08259   0.08726   0.09333   0.09581
 Alpha virt. eigenvalues --    0.09725   0.10331   0.10611   0.10803   0.11045
 Alpha virt. eigenvalues --    0.11562   0.12082   0.12665   0.12960   0.13339
 Alpha virt. eigenvalues --    0.13693   0.14139   0.14442   0.14768   0.15066
 Alpha virt. eigenvalues --    0.15196   0.15462   0.15593   0.16404   0.16953
 Alpha virt. eigenvalues --    0.17054   0.17361   0.17817   0.18097   0.18959
 Alpha virt. eigenvalues --    0.19249   0.19684   0.20577   0.20669   0.20950
 Alpha virt. eigenvalues --    0.21214   0.21406   0.21561   0.22404   0.22551
 Alpha virt. eigenvalues --    0.23099   0.23569   0.24005   0.24563   0.24607
 Alpha virt. eigenvalues --    0.25268   0.25575   0.25770   0.26626   0.26943
 Alpha virt. eigenvalues --    0.27482   0.28009   0.28256   0.28654   0.29043
 Alpha virt. eigenvalues --    0.29837   0.30220   0.30950   0.31701   0.32002
 Alpha virt. eigenvalues --    0.33536   0.34039   0.34651   0.34747   0.35231
 Alpha virt. eigenvalues --    0.38392   0.38888   0.39952   0.40461   0.41450
 Alpha virt. eigenvalues --    0.42369   0.42690   0.43049   0.44010   0.44461
 Alpha virt. eigenvalues --    0.44610   0.45287   0.46388   0.46680   0.47605
 Alpha virt. eigenvalues --    0.47724   0.48584   0.48999   0.49256   0.49703
 Alpha virt. eigenvalues --    0.50364   0.51144   0.52181   0.52583   0.53368
 Alpha virt. eigenvalues --    0.53681   0.54117   0.55594   0.57010   0.57121
 Alpha virt. eigenvalues --    0.57556   0.58192   0.58395   0.59449   0.59556
 Alpha virt. eigenvalues --    0.59722   0.60787   0.61400   0.61432   0.62064
 Alpha virt. eigenvalues --    0.62829   0.63600   0.64784   0.65458   0.66534
 Alpha virt. eigenvalues --    0.67250   0.68753   0.69382   0.70205   0.70280
 Alpha virt. eigenvalues --    0.72464   0.75324   0.76409   0.77741   0.78578
 Alpha virt. eigenvalues --    0.80000   0.80619   0.81702   0.81821   0.82873
 Alpha virt. eigenvalues --    0.83680   0.84220   0.84457   0.84568   0.84934
 Alpha virt. eigenvalues --    0.85349   0.86217   0.86583   0.86889   0.87042
 Alpha virt. eigenvalues --    0.87174   0.87911   0.88374   0.88808   0.89334
 Alpha virt. eigenvalues --    0.89467   0.90667   0.91925   0.92829   0.93822
 Alpha virt. eigenvalues --    0.94333   0.94962   0.95270   0.95396   0.96056
 Alpha virt. eigenvalues --    0.96259   0.96311   0.97055   0.97261   0.98514
 Alpha virt. eigenvalues --    0.99472   0.99965   1.00046   1.01647   1.04818
 Alpha virt. eigenvalues --    1.04930   1.05190   1.07469   1.07846   1.09699
 Alpha virt. eigenvalues --    1.10812   1.13322   1.14006   1.17517   1.20264
 Alpha virt. eigenvalues --    1.21158   1.22299   1.22750   1.23976   1.24135
 Alpha virt. eigenvalues --    1.24816   1.24996   1.27182   1.27286   1.28055
 Alpha virt. eigenvalues --    1.29599   1.30142   1.30425   1.31659   1.32763
 Alpha virt. eigenvalues --    1.34701   1.40773   1.43459   1.47516   1.48897
 Alpha virt. eigenvalues --    1.49224   1.50849   1.51237   1.54286   1.56844
 Alpha virt. eigenvalues --    1.57540   1.59782   1.60501   1.61693   1.63414
 Alpha virt. eigenvalues --    1.66667   1.68636   1.71386   1.71446   1.74026
 Alpha virt. eigenvalues --    1.76808   1.78045   1.79913   1.81791   1.82900
 Alpha virt. eigenvalues --    1.85385   1.86073   1.86569   1.86826   1.87135
 Alpha virt. eigenvalues --    1.87315   1.87529   1.89291   1.91378   1.94910
 Alpha virt. eigenvalues --    1.96037   1.98109   2.00738   2.02201   2.05305
 Alpha virt. eigenvalues --    2.06267   2.10873   2.15228   2.16493   2.19154
 Alpha virt. eigenvalues --    2.20791   2.21760   2.23416   2.24138   2.25396
 Alpha virt. eigenvalues --    2.26776   2.27346   2.28683   2.28751   2.29870
 Alpha virt. eigenvalues --    2.29893   2.32408   2.32756   2.35226   2.37565
 Alpha virt. eigenvalues --    2.39058   2.42066   2.42879   2.44130   2.44811
 Alpha virt. eigenvalues --    2.46805   2.52997   2.53467   2.56193   2.56794
 Alpha virt. eigenvalues --    2.58046   2.59736   2.59965   2.60258   2.61553
 Alpha virt. eigenvalues --    2.61697   2.64628   2.67960   2.70456   2.72034
 Alpha virt. eigenvalues --    2.73662   2.74115   2.74242   2.74811   2.76698
 Alpha virt. eigenvalues --    2.77044   2.77925   2.78231   2.80777   2.84619
 Alpha virt. eigenvalues --    2.85853   2.87166   2.88304   2.94058   3.04647
 Alpha virt. eigenvalues --    3.07293   3.09401   3.10349   3.13184   3.15727
 Alpha virt. eigenvalues --    3.18229   3.19873   3.24808   3.27105   3.31779
 Alpha virt. eigenvalues --    3.35088   3.37142   3.39813   3.50688   3.51705
 Alpha virt. eigenvalues --    3.66252   3.70651   3.70989   3.76777   3.92355
 Alpha virt. eigenvalues --    3.98126   4.03492   4.07065   4.13585   4.79980
 Alpha virt. eigenvalues --    4.81184   9.67871   9.77121   9.78271   9.81611
 Alpha virt. eigenvalues --    9.83581   9.97936  23.30601  23.40884  23.79711
 Alpha virt. eigenvalues --   23.84958  23.85379  23.87670  23.94958  23.96258
 Alpha virt. eigenvalues --   23.99006  24.01801  24.05757  24.11695  25.73710
 Alpha virt. eigenvalues --   25.78321  25.81511  25.83790  25.87231  25.98519
 Alpha virt. eigenvalues --   26.09152  26.13738  26.18874  26.22462  26.35611
 Alpha virt. eigenvalues --   26.48353  26.58307  26.71311  26.73327  26.93758
 Alpha virt. eigenvalues --   26.96478  27.01090 215.68586 215.76637 215.78666
 Alpha virt. eigenvalues --  215.81691 215.83984 216.04051
          Condensed to atoms (all electrons):
               1          2          3          4          5          6
     1  C   22.478043  -3.024439  -2.984254   1.495668  -3.255764   2.114088
     2  C   -3.024439  15.206855  -2.610851   0.807308  -1.180829  -3.528509
     3  C   -2.984254  -2.610851  11.095005   0.019315  -0.384960   1.672839
     4  C    1.495668   0.807308   0.019315  13.161975  -4.886487  -4.827844
     5  C   -3.255764  -1.180829  -0.384960  -4.886487  19.407644  -2.756426
     6  C    2.114088  -3.528509   1.672839  -4.827844  -2.756426  20.072082
     7  C    4.607664  -0.734762  -1.709027   0.867156  -1.840644  -1.165264
     8  C   -2.926502   2.131909  -0.324747   0.450883  -0.242643  -1.626425
     9  C   -3.310829   0.301591   0.390949   0.045811  -0.458802  -0.334051
    10  C    0.814743  -0.091418   0.134487   0.010188  -0.098508  -0.430571
    11  C   -2.791445   0.294811  -0.145747   0.164429   0.208635  -0.099209
    12  C   -4.244279  -1.673819   0.388398  -0.393834   1.131429  -2.327473
    13  H    0.046848   0.247767  -0.023182  -0.024066  -0.010042   0.050607
    14  H   -0.001908   0.010110   0.398348  -0.039639  -0.053112   0.025059
    15  H    0.017088  -0.009301  -0.046241   0.362792   0.000710   0.014142
    16  H    0.000633  -0.000712  -0.000724   0.000174   0.000132   0.000657
    17  Cl   3.939048   1.704361  -0.824140   1.524811  -4.363230   7.561965
    18  Cl  -6.022950  -1.539022   1.480147  -1.209657   4.605302  -7.839755
    19  Cl  -0.119001  -0.006992  -0.001776   0.002275   0.005249  -0.193459
    20  Cl  -0.659644   0.170341   0.017012  -1.086130  -0.052374   0.897909
    21  Cl  -0.091097  -0.001269  -0.000564   0.000641  -0.005420   0.006516
    22  Cl   0.323979  -0.126067  -0.477868  -0.033587   0.083040  -0.070437
               7          8          9         10         11         12
     1  C    4.607664  -2.926502  -3.310829   0.814743  -2.791445  -4.244279
     2  C   -0.734762   2.131909   0.301591  -0.091418   0.294811  -1.673819
     3  C   -1.709027  -0.324747   0.390949   0.134487  -0.145747   0.388398
     4  C    0.867156   0.450883   0.045811   0.010188   0.164429  -0.393834
     5  C   -1.840644  -0.242643  -0.458802  -0.098508   0.208635   1.131429
     6  C   -1.165264  -1.626425  -0.334051  -0.430571  -0.099209  -2.327473
     7  C   20.985187  -2.478165  -5.054035   4.042821  -3.975612   0.661349
     8  C   -2.478165  23.563015   3.406980  -8.894011   0.660460  -4.815770
     9  C   -5.054035   3.406980  26.973175  -4.273184 -11.989727   0.256473
    10  C    4.042821  -8.894011  -4.273184  25.560473  -7.270488  -1.328856
    11  C   -3.975612   0.660460 -11.989727  -7.270488  29.757932  -1.025656
    12  C    0.661349  -4.815770   0.256473  -1.328856  -1.025656  32.660802
    13  H    0.043009  -0.032667   0.029961   0.012071  -0.004363   0.005866
    14  H   -0.000804   0.002139  -0.001450  -0.000257   0.000504   0.000094
    15  H    0.002245  -0.000087   0.000030  -0.000013   0.000011   0.001471
    16  H    0.031364  -0.143875   0.084450   0.201020   0.025475   0.120585
    17  Cl  -9.724322  -3.123827  -0.161502  -1.707813   4.834026 -30.162362
    18  Cl   3.174228   0.883540  -0.200941   0.667611  -1.492039  17.225603
    19  Cl  -0.788662   0.980737   1.241015   0.066386  -2.025758   0.715490
    20  Cl  -0.152962  -0.056834  -0.005150  -0.000826  -0.028221   0.073538
    21  Cl  -0.299435  -0.800418  -0.445760  -1.164837   1.332618   0.282243
    22  Cl  -0.009069  -0.279625  -0.080328  -0.655489   0.269809   0.006466
              13         14         15         16         17         18
     1  C    0.046848  -0.001908   0.017088   0.000633   3.939048  -6.022950
     2  C    0.247767   0.010110  -0.009301  -0.000712   1.704361  -1.539022
     3  C   -0.023182   0.398348  -0.046241  -0.000724  -0.824140   1.480147
     4  C   -0.024066  -0.039639   0.362792   0.000174   1.524811  -1.209657
     5  C   -0.010042  -0.053112   0.000710   0.000132  -4.363230   4.605302
     6  C    0.050607   0.025059   0.014142   0.000657   7.561965  -7.839755
     7  C    0.043009  -0.000804   0.002245   0.031364  -9.724322   3.174228
     8  C   -0.032667   0.002139  -0.000087  -0.143875  -3.123827   0.883540
     9  C    0.029961  -0.001450   0.000030   0.084450  -0.161502  -0.200941
    10  C    0.012071  -0.000257  -0.000013   0.201020  -1.707813   0.667611
    11  C   -0.004363   0.000504   0.000011   0.025475   4.834026  -1.492039
    12  C    0.005866   0.000094   0.001471   0.120585 -30.162362  17.225603
    13  H    0.572532  -0.009070  -0.000367   0.000040  -0.003499   0.005943
    14  H   -0.009070   0.530316  -0.005649  -0.000000  -0.004093   0.010416
    15  H   -0.000367  -0.005649   0.502576  -0.000000  -0.002660   0.007167
    16  H    0.000040  -0.000000  -0.000000   0.513208   0.025057  -0.004361
    17  Cl  -0.003499  -0.004093  -0.002660   0.025057  96.966589 -48.904545
    18  Cl   0.005943   0.010416   0.007167  -0.004361 -48.904545  54.806460
    19  Cl  -0.000029   0.000002   0.000001  -0.006737  -1.541434   0.030785
    20  Cl   0.000571   0.000372   0.000382  -0.000003  -0.867618   0.256238
    21  Cl   0.000114  -0.000001   0.000000   0.012036   0.471701  -0.092278
    22  Cl  -0.054706  -0.000398   0.000192  -0.019585  -0.065926   0.016025
              19         20         21         22
     1  C   -0.119001  -0.659644  -0.091097   0.323979
     2  C   -0.006992   0.170341  -0.001269  -0.126067
     3  C   -0.001776   0.017012  -0.000564  -0.477868
     4  C    0.002275  -1.086130   0.000641  -0.033587
     5  C    0.005249  -0.052374  -0.005420   0.083040
     6  C   -0.193459   0.897909   0.006516  -0.070437
     7  C   -0.788662  -0.152962  -0.299435  -0.009069
     8  C    0.980737  -0.056834  -0.800418  -0.279625
     9  C    1.241015  -0.005150  -0.445760  -0.080328
    10  C    0.066386  -0.000826  -1.164837  -0.655489
    11  C   -2.025758  -0.028221   1.332618   0.269809
    12  C    0.715490   0.073538   0.282243   0.006466
    13  H   -0.000029   0.000571   0.000114  -0.054706
    14  H    0.000002   0.000372  -0.000001  -0.000398
    15  H    0.000001   0.000382   0.000000   0.000192
    16  H   -0.006737  -0.000003   0.012036  -0.019585
    17  Cl  -1.541434  -0.867618   0.471701  -0.065926
    18  Cl   0.030785   0.256238  -0.092278   0.016025
    19  Cl  18.455926  -0.002344  -0.432156   0.011584
    20  Cl  -0.002344  17.896730  -0.000144   0.000892
    21  Cl  -0.432156  -0.000144  17.786683  -0.029067
    22  Cl   0.011584   0.000892  -0.029067  17.655651
 Mulliken charges:
               1
     1  C   -0.405691
     2  C   -0.347062
     3  C   -0.062419
     4  C   -0.412182
     5  C    0.147101
     6  C   -1.216443
     7  C   -0.482262
     8  C   -0.334070
     9  C   -0.414677
    10  C    0.406470
    11  C   -0.700443
    12  C   -1.557759
    13  H    0.146664
    14  H    0.139021
    15  H    0.155513
    16  H    0.161167
    17  Cl   1.429415
    18  Cl   1.136083
    19  Cl   0.608899
    20  Cl   0.598265
    21  Cl   0.469895
    22  Cl   0.534513
 Sum of Mulliken charges =  -0.00000
 Mulliken charges with hydrogens summed into heavy atoms:
               1
     1  C   -0.405691
     2  C   -0.200398
     3  C    0.076602
     4  C   -0.256668
     5  C    0.147101
     6  C   -1.216443
     7  C   -0.482262
     8  C   -0.334070
     9  C   -0.253509
    10  C    0.406470
    11  C   -0.700443
    12  C   -1.557759
    17  Cl   1.429415
    18  Cl   1.136083
    19  Cl   0.608899
    20  Cl   0.598265
    21  Cl   0.469895
    22  Cl   0.534513
 Electronic spatial extent (au):  <R**2>=           8230.6018
 Charge=             -0.0000 electrons
 Dipole moment (field-independent basis, Debye):
    X=             -3.8547    Y=              0.9667    Z=              0.0000  Tot=              3.9740
 Quadrupole moment (field-independent basis, Debye-Ang):
   XX=           -150.5843   YY=           -138.9237   ZZ=           -147.5642
   XY=             -3.3179   XZ=             -0.0000   YZ=              0.0000
 Traceless Quadrupole moment (field-independent basis, Debye-Ang):
   XX=             -4.8935   YY=              6.7670   ZZ=             -1.8735
   XY=             -3.3179   XZ=             -0.0000   YZ=              0.0000
 Octapole moment (field-independent basis, Debye-Ang**2):
  XXX=            -62.9047  YYY=            -17.4962  ZZZ=             -0.0000  XYY=            -23.5809
  XXY=             46.3625  XXZ=              0.0001  XZZ=              5.7253  YZZ=            -14.8239
  YYZ=              0.0001  XYZ=             -0.0001
 Hexadecapole moment (field-independent basis, Debye-Ang**3):
 XXXX=          -7842.4991 YYYY=          -2878.2368 ZZZZ=           -173.5306 XXXY=           -100.5368
 XXXZ=             -0.0005 YYYX=            -23.9951 YYYZ=              0.0003 ZZZX=              0.0002
 ZZZY=             -0.0000 XXYY=          -1711.3746 XXZZ=          -1380.2307 YYZZ=           -543.0203
 XXYZ=              0.0002 YYXZ=             -0.0002 ZZXY=             19.1191
 N-N= 2.070558837445D+03 E-N=-1.176952450258D+04  KE= 3.214022992290D+03
 Calling FoFJK, ICntrl=      2127 FMM=F ISym2X=0 I1Cent= 0 IOpClX= 0 NMat=1 NMatS=1 NMatT=0.
 ***** Axes restored to original set *****
 -------------------------------------------------------------------
 Center     Atomic                   Forces (Hartrees/Bohr)
 Number     Number              X              Y              Z
 -------------------------------------------------------------------
      1        6          -0.016674959   -0.031828078   -0.000483715
      2        6          -0.006820071    0.019643176    0.005936104
      3        6          -0.021829576    0.003864468    0.007917738
      4        6          -0.003785564   -0.015000727   -0.001570344
      5        6          -0.008688924    0.001374111    0.003120823
      6        6           0.026964780   -0.023113693   -0.013224360
      7        6          -0.012827133    0.025450981    0.009005792
      8        6          -0.023271580    0.014420422    0.010375389
      9        6          -0.003480770    0.009238082    0.002881716
     10        6           0.002739638    0.009515915    0.000884551
     11        6           0.025960993    0.010703368   -0.006542951
     12        6           0.036046859   -0.147135187   -0.039508970
     13        1           0.001515047    0.005461556    0.000526532
     14        1           0.009323616    0.000962249   -0.002890949
     15        1           0.002178633    0.008912309    0.000956031
     16        1           0.003819906   -0.008200407   -0.002798641
     17       17          -0.224747831   -0.358490578    0.006720117
     18       17           0.211000498    0.506728443    0.025648969
     19       17          -0.010421757   -0.002482874    0.002967208
     20       17           0.007814905    0.003431310   -0.001930173
     21       17           0.003175891   -0.006710981   -0.002306690
     22       17           0.002007400   -0.026743862   -0.005684176
 -------------------------------------------------------------------
 Cartesian Forces:  Max     0.506728443 RMS     0.088224441

 GradGradGradGradGradGradGradGradGradGradGradGradGradGradGradGradGradGrad
 Berny optimization.
 FormGI is forming the generalized inverse of G from B-inverse, IUseBI=4.
 Internal  Forces:  Max     0.516057185 RMS     0.056325836
 Search for a local minimum.
 Step number   1 out of a maximum of  112
 All quantities printed in internal units (Hartrees-Bohrs-Radians)
 Mixed Optimization -- RFO/linear search
 Second derivative matrix not updated -- first step.
 ITU=  0
     Eigenvalues ---    0.00238   0.00238   0.01655   0.01655   0.02070
     Eigenvalues ---    0.02070   0.02070   0.02070   0.02070   0.02070
     Eigenvalues ---    0.02070   0.02070   0.02070   0.02070   0.02070
     Eigenvalues ---    0.02070   0.02070   0.02070   0.04301   0.16000
     Eigenvalues ---    0.16000   0.16000   0.16000   0.22076   0.23331
     Eigenvalues ---    0.23485   0.24905   0.25000   0.25000   0.25000
     Eigenvalues ---    0.25000   0.25000   0.25000   0.25000   0.25000
     Eigenvalues ---    0.25000   0.25000   0.29539   0.29539   0.29539
     Eigenvalues ---    0.29539   0.29539   0.29539   0.37230   0.37230
     Eigenvalues ---    0.37230   0.37230   0.41539   0.41665   0.41990
     Eigenvalues ---    0.42170   0.45389   0.45389   0.45389   0.45389
     Eigenvalues ---    0.45389   0.45389   0.45389   0.45389   1.32680
 RFO step:  Lambda=-2.72609990D-01 EMin= 2.37799085D-03
 Linear search not attempted -- first point.
 Maximum step size (   0.300) exceeded in Quadratic search.
    -- Step size scaled by   0.546
 Iteration  1 RMS(Cart)=  0.21257941 RMS(Int)=  0.00452259
 Iteration  2 RMS(Cart)=  0.00856520 RMS(Int)=  0.00002814
 Iteration  3 RMS(Cart)=  0.00006327 RMS(Int)=  0.00002084
 Iteration  4 RMS(Cart)=  0.00000000 RMS(Int)=  0.00002084
 Variable       Old X    -DE/DX   Delta X   Delta X   Delta X     New X
                                 (Linear)    (Quad)   (Total)
    R1        2.64826  -0.00334   0.00000  -0.00237  -0.00234   2.64592
    R2        2.64826   0.00124   0.00000   0.00128   0.00130   2.64957
    R3        2.64826  -0.00403   0.00000  -0.00324  -0.00323   2.64503
    R4        2.02201  -0.00408   0.00000  -0.00346  -0.00346   2.01855
    R5        2.64826  -0.01836   0.00000  -0.01416  -0.01418   2.63408
    R6        2.02201   0.00978   0.00000   0.00829   0.00829   2.03029
    R7        2.64826  -0.01797   0.00000  -0.01366  -0.01369   2.63457
    R8        2.02201   0.00879   0.00000   0.00745   0.00745   2.02945
    R9        2.64826  -0.00051   0.00000  -0.00018  -0.00018   2.64808
   R10        3.32592  -0.00118   0.00000  -0.00114  -0.00114   3.32478
   R11        3.32592  -0.00956   0.00000  -0.00919  -0.00919   3.31672
   R12        2.64826   0.01410   0.00000   0.01102   0.01104   2.65930
   R13        2.64826  -0.00994   0.00000  -0.00709  -0.00706   2.64120
   R14        2.64826  -0.01180   0.00000  -0.00884  -0.00886   2.63941
   R15        3.32592   0.00310   0.00000   0.00298   0.00298   3.32890
   R16        2.64826  -0.02611   0.00000  -0.02002  -0.02006   2.62821
   R17        2.02201   0.00946   0.00000   0.00801   0.00801   2.03002
   R18        2.64826  -0.01467   0.00000  -0.01145  -0.01147   2.63679
   R19        3.32592   0.00418   0.00000   0.00402   0.00402   3.32994
   R20        2.64826  -0.00964   0.00000  -0.00728  -0.00727   2.64099
   R21        3.32592   0.01088   0.00000   0.01047   0.01047   3.33638
   R22        3.32592   0.12259   0.00000   0.11794   0.11794   3.44386
   R23        3.16132   0.51606   0.00000   0.17632   0.17632   3.33764
    A1        2.09440  -0.03353   0.00000  -0.03431  -0.03422   2.06017
    A2        2.09440   0.01416   0.00000   0.01541   0.01544   2.10984
    A3        2.09440  -0.00307   0.00000  -0.00264  -0.00266   2.09174
    A4        2.09440  -0.01109   0.00000  -0.01277  -0.01279   2.08161
    A5        2.09440   0.00679   0.00000   0.00651   0.00648   2.10087
    A6        2.09440  -0.00262   0.00000  -0.00228  -0.00226   2.09213
    A7        2.09440  -0.00417   0.00000  -0.00423  -0.00421   2.09018
    A8        2.09440  -0.00575   0.00000  -0.00729  -0.00736   2.08704
    A9        2.09440   0.00571   0.00000   0.00723   0.00726   2.10165
   A10        2.09440   0.00004   0.00000   0.00007   0.00010   2.09450
   A11        2.09440  -0.00373   0.00000  -0.00399  -0.00403   2.09037
   A12        2.09440  -0.01255   0.00000  -0.01308  -0.01306   2.08133
   A13        2.09440   0.01629   0.00000   0.01707   0.01709   2.11149
   A14        2.09440   0.02206   0.00000   0.02367   0.02369   2.11809
   A15        2.09440  -0.00661   0.00000  -0.00721  -0.00722   2.08717
   A16        2.09440  -0.01545   0.00000  -0.01646  -0.01647   2.07793
   A17        2.09440  -0.03071   0.00000  -0.03060  -0.03052   2.06387
   A18        2.09440   0.01492   0.00000   0.01612   0.01612   2.11052
   A19        2.09440   0.03784   0.00000   0.03931   0.03931   2.13370
   A20        2.09440  -0.05276   0.00000  -0.05543  -0.05543   2.03897
   A21        2.09440   0.00358   0.00000   0.00333   0.00328   2.09768
   A22        2.09440  -0.00132   0.00000  -0.00107  -0.00104   2.09336
   A23        2.09440  -0.00227   0.00000  -0.00227  -0.00224   2.09215
   A24        2.09440  -0.00810   0.00000  -0.00971  -0.00977   2.08463
   A25        2.09440  -0.00685   0.00000  -0.00654  -0.00652   2.08788
   A26        2.09440   0.01495   0.00000   0.01625   0.01628   2.11068
   A27        2.09440   0.00790   0.00000   0.00751   0.00750   2.10190
   A28        2.09440  -0.00775   0.00000  -0.00773  -0.00773   2.08667
   A29        2.09440  -0.00015   0.00000   0.00022   0.00022   2.09462
   A30        2.09440   0.01240   0.00000   0.01334   0.01339   2.10778
   A31        2.09440   0.01003   0.00000   0.01030   0.01028   2.10467
   A32        2.09440  -0.02243   0.00000  -0.02364  -0.02366   2.07073
   A33        2.09440   0.15466   0.00000   0.16172   0.16172   2.25611
   A34        2.09440  -0.07933   0.00000  -0.08295  -0.08295   2.01144
    D1        0.00000   0.00000   0.00000   0.00000   0.00000   0.00000
    D2        3.14159   0.00000   0.00000   0.00000   0.00000   3.14159
    D3       -0.00000  -0.00000   0.00000  -0.00000  -0.00000  -0.00000
    D4        3.14159   0.00000   0.00000   0.00000   0.00000   3.14159
    D5        0.00000  -0.00000   0.00000  -0.00000  -0.00000   0.00000
    D6        3.14159  -0.00000   0.00000  -0.00000  -0.00000   3.14159
    D7       -3.14159  -0.00000   0.00000  -0.00000  -0.00000  -3.14159
    D8        0.00000  -0.00000   0.00000  -0.00000  -0.00000   0.00000
    D9       -0.00000   0.00000   0.00000   0.00000   0.00000  -0.00000
   D10        3.14159  -0.00000   0.00000  -0.00000  -0.00000   3.14159
   D11        3.14159   0.00000   0.00000   0.00000   0.00000   3.14159
   D12        0.00000  -0.00000   0.00000  -0.00000  -0.00000   0.00000
   D13        0.00000  -0.00000   0.00000  -0.00000  -0.00000   0.00000
   D14       -3.14159  -0.00000   0.00000  -0.00000  -0.00000  -3.14159
   D15       -3.14159  -0.00000   0.00000  -0.00000  -0.00000  -3.14159
   D16        0.00000  -0.00000   0.00000  -0.00000  -0.00000   0.00000
   D17       -0.00000   0.00000   0.00000   0.00000   0.00000  -0.00000
   D18        3.14159  -0.00000   0.00000  -0.00000  -0.00000   3.14159
   D19        3.14159   0.00000   0.00000   0.00000   0.00000   3.14159
   D20       -0.00000  -0.00000   0.00000  -0.00000  -0.00000  -0.00000
   D21        0.00001  -0.00000   0.00000  -0.00000  -0.00000   0.00001
   D22       -3.14159  -0.00000   0.00000  -0.00000  -0.00000  -3.14159
   D23        0.00000   0.00000   0.00000   0.00000   0.00000   0.00000
   D24       -3.14159  -0.00000   0.00000  -0.00000  -0.00000  -3.14159
   D25       -0.00000  -0.00000   0.00000  -0.00000  -0.00000  -0.00000
   D26        3.14159   0.00000   0.00000   0.00000   0.00000   3.14159
   D27       -0.00000  -0.00000   0.00000  -0.00000  -0.00000  -0.00000
   D28        3.14159  -0.00000   0.00000  -0.00000  -0.00000   3.14159
   D29        3.14159   0.00000   0.00000   0.00000   0.00000   3.14159
   D30       -0.00000   0.00000   0.00000   0.00000   0.00000  -0.00000
   D31       -0.00000   0.00000   0.00000   0.00000   0.00000  -0.00000
   D32       -3.14159  -0.00000   0.00000  -0.00000  -0.00000  -3.14159
   D33        3.14159   0.00000   0.00000   0.00000   0.00000   3.14159
   D34        0.00000   0.00000   0.00000   0.00000   0.00000   0.00000
   D35        0.00000  -0.00000   0.00000  -0.00000  -0.00000   0.00000
   D36       -3.14159  -0.00000   0.00000  -0.00000  -0.00000  -3.14159
   D37        3.14159   0.00000   0.00000   0.00000   0.00000   3.14159
   D38        0.00000  -0.00000   0.00000  -0.00000  -0.00000   0.00000
   D39        0.00000   0.00000   0.00000   0.00000   0.00000   0.00000
   D40       -3.14159  -0.00000   0.00000  -0.00000  -0.00000  -3.14159
   D41        3.14159   0.00000   0.00000   0.00000   0.00000   3.14159
   D42       -0.00000  -0.00000   0.00000  -0.00000  -0.00000  -0.00000
   D43        0.00001  -0.00000   0.00000  -0.00000  -0.00000   0.00001
   D44       -3.14159   0.00000   0.00000   0.00000   0.00000  -3.14159
   D45       -0.00001  -0.00000   0.00000  -0.00000  -0.00000  -0.00001
         Item               Value     Threshold  Converged?
 Maximum Force            0.516057     0.000450     NO 
 RMS     Force            0.056326     0.000300     NO 
 Maximum Displacement     1.065341     0.001800     NO 
 RMS     Displacement     0.217404     0.001200     NO 
 Predicted change in Energy=-1.205344D-01
 GradGradGradGradGradGradGradGradGradGradGradGradGradGradGradGradGradGrad

                          Input orientation:                          
 ---------------------------------------------------------------------
 Center     Atomic      Atomic             Coordinates (Angstroms)
 Number     Number       Type             X           Y           Z
 ---------------------------------------------------------------------
      1          6           0       -0.051986    0.759048    0.002171
      2          6           0        1.280042    0.849813   -0.419625
      3          6           0        1.954295    2.076371   -0.411402
      4          6           0        1.307163    3.233446    0.019108
      5          6           0       -0.019170    3.163016    0.442844
      6          6           0       -0.688548    1.931969    0.432172
      7          6           0       -1.064990   -1.392753   -0.068222
      8          6           0       -0.562014   -2.644435   -0.469009
      9          6           0       -1.361871   -3.788405   -0.420337
     10          6           0       -2.675658   -3.704577    0.028246
     11          6           0       -3.186208   -2.469217    0.428464
     12          6           0       -2.386946   -1.323786    0.380262
     13          1           0        1.792946   -0.025825   -0.753053
     14          1           0        2.976387    2.127325   -0.738563
     15          1           0        1.823808    4.174925    0.025716
     16          1           0       -0.961719   -4.735979   -0.730134
     17         17           0       -3.103308    0.264460    0.914562
     18         17           0       -2.358035    1.864778    0.969570
     19         17           0       -4.853585   -2.359258    0.998453
     20         17           0       -0.827642    4.628786    0.984480
     21         17           0       -3.671615   -5.157195    0.083562
     22         17           0        1.087488   -2.851993   -1.051430
 ---------------------------------------------------------------------
                    Distance matrix (angstroms):
                    1          2          3          4          5
     1  C    0.000000
     2  C    1.400160   0.000000
     3  C    2.435476   1.399689   0.000000
     4  C    2.823157   2.423825   1.393894   0.000000
     5  C    2.444245   2.789751   2.409377   1.394156   0.000000
     6  C    1.402090   2.402492   2.777965   2.418125   1.401306
     7  C    2.379366   3.263704   4.611798   5.199659   4.702123
     8  C    3.473592   3.950365   5.349873   6.187210   5.903613
     9  C    4.751173   5.337863   6.737406   7.524842   7.132334
    10  C    5.177671   6.049018   7.419509   7.999944   7.375137
    11  C    4.519598   5.628730   6.913213   7.271748   6.461608
    12  C    3.151697   4.337183   5.570833   5.877520   5.073626
    13  H    2.142466   1.068170   2.135881   3.384533   3.857802
    14  H    3.404690   2.147404   1.074385   2.140999   3.382564
    15  H    3.897098   3.398585   2.147563   1.073940   2.143483
    16  H    5.617758   6.026855   7.417064   8.319911   8.041045
    17  Cl   3.222987   4.619140   5.533584   5.391565   4.258645
    18  Cl   2.734294   4.024379   4.532995   4.026203   2.726381
    19  Cl   5.811349   7.066150   8.246802   8.378083   7.360421
    20  Cl   4.067118   4.549119   4.025231   2.726960   1.759398
    21  Cl   6.936157   7.801042   9.177164   9.756805   9.093698
    22  Cl   3.930406   3.760269   5.044775   6.182788   6.295862
                    6          7          8          9         10
     6  C    0.000000
     7  C    3.383176   0.000000
     8  C    4.666007   1.407240   0.000000
     9  C    5.822613   2.439523   1.396713   0.000000
    10  C    5.990193   2.819235   2.416330   1.390787   0.000000
    11  C    5.060509   2.430028   2.778948   2.406018   1.395331
    12  C    3.672492   1.397663   2.407437   2.786769   2.423929
    13  H    3.375726   3.241185   3.533219   4.921441   5.840553
    14  H    3.852342   5.401207   5.946649   7.342862   8.157493
    15  H    3.392343   6.273198   7.241586   8.588489   9.073684
    16  H    6.774003   3.409685   2.145345   1.074241   2.139280
    17  Cl   2.973946   2.804810   4.102940   4.608717   4.089216
    18  Cl   1.755135   3.655200   5.062431   5.906154   5.657268
    19  Cl   6.006900   4.052824   4.544486   4.030818   2.737618
    20  Cl   2.756304   6.117471   7.421788   8.550323   8.589207
    21  Cl   7.699121   4.581327   4.035953   2.731742   1.762127
    22  Cl   5.314289   2.780151   1.761576   2.697130   4.006727
                   11         12         13         14         15
    11  C    0.000000
    12  C    1.397552   0.000000
    13  H    5.670812   4.521128   0.000000
    14  H    7.776100   6.475128   2.456990   0.000000
    15  H    8.331091   6.934838   4.272439   2.470876   0.000000
    16  H    3.380667   3.860999   5.456579   7.912881   9.366679
    17  Cl   2.777796   1.822410   5.180590   6.570068   6.352815
    18  Cl   4.445467   3.242694   4.875700   5.607380   4.869851
    19  Cl   1.765539   2.745664   7.258723   9.189947   9.393048
    20  Cl   7.500242   6.183011   5.617108   4.867939   2.855767
    21  Cl   2.753144   4.053816   7.542699   9.896265  10.830119
    22  Cl   4.538841   4.056704   2.928126   5.334738   7.147026
                   16         17         18         19         20
    16  H    0.000000
    17  Cl   5.682941   0.000000
    18  Cl   6.957635   1.766204   0.000000
    19  Cl   4.876827   3.155060   4.906229   0.000000
    20  Cl   9.521382   4.922488   3.159441   8.064811   0.000000
    21  Cl   2.860605   5.514334   7.198514   3.172149  10.230604
    22  Cl   2.802121   5.580338   6.180938   6.304059   7.985907
                   21         22
    21  Cl   0.000000
    22  Cl   5.408440   0.000000
 Stoichiometry    C12H4Cl6
 Framework group  C1[X(C12H4Cl6)]
 Deg. of freedom    60
 Full point group                 C1      NOp   1
 Largest Abelian subgroup         C1      NOp   1
 Largest concise Abelian subgroup C1      NOp   1
                         Standard orientation:                         
 ---------------------------------------------------------------------
 Center     Atomic      Atomic             Coordinates (Angstroms)
 Number     Number       Type             X           Y           Z
 ---------------------------------------------------------------------
      1          6           0       -1.662039    0.973788    0.000003
      2          6           0       -2.229053    2.254000    0.000007
      3          6           0       -3.618321    2.424479    0.000010
      4          6           0       -4.464298    1.316659    0.000008
      5          6           0       -3.918331    0.033853    0.000002
      6          6           0       -2.526637   -0.129991   -0.000001
      7          6           0        0.713710    0.842651   -0.000005
      8          6           0        1.700208    1.846217   -0.000005
      9          6           0        3.057846    1.518150   -0.000004
     10          6           0        3.455250    0.185349   -0.000002
     11          6           0        2.486733   -0.819103   -0.000001
     12          6           0        1.127948   -0.492216   -0.000002
     13          1           0       -1.597235    3.115273    0.000011
     14          1           0       -4.035952    3.414372    0.000014
     15          1           0       -5.530345    1.446628    0.000011
     16          1           0        3.797648    2.297051   -0.000005
     17         17           0       -0.095517   -1.842887    0.000002
     18         17           0       -1.859451   -1.753370   -0.000007
     19         17           0        2.987763   -2.512058    0.000007
     20         17           0       -4.994099   -1.358340   -0.000004
     21         17           0        5.172050   -0.211750    0.000002
     22         17           0        1.296772    3.560973   -0.000004
 ---------------------------------------------------------------------
 Rotational constants (GHZ):           0.4085737           0.1444047           0.1066949
 Standard basis: 6-311+G(d,p) (5D, 7F)
 There are   486 symmetry adapted cartesian basis functions of A   symmetry.
 There are   468 symmetry adapted basis functions of A   symmetry.
   468 basis functions,   782 primitive gaussians,   486 cartesian basis functions
    89 alpha electrons       89 beta electrons
       nuclear repulsion energy      2023.2179996027 Hartrees.
 NAtoms=   22 NActive=   22 NUniq=   22 SFac= 1.00D+00 NAtFMM=   60 NAOKFM=F Big=F
 Integral buffers will be    131072 words long.
 Raffenetti 2 integral format.
 Two-electron integral symmetry is turned on.
 One-electron integrals computed using PRISM.
 NBasis=   468 RedAO= T EigKep=  1.06D-06  NBF=   468
 NBsUse=   463 1.00D-06 EigRej=  5.97D-07 NBFU=   463
 Initial guess from the checkpoint file:  "./Gau-16022.chk"
 B after Tr=    -0.000000    0.000000   -0.000000
         Rot=    0.999632   -0.000000    0.000000    0.027136 Ang=  -3.11 deg.
 ExpMin= 4.38D-02 ExpMax= 1.06D+05 ExpMxC= 3.62D+03 IAcc=3 IRadAn=         5 AccDes= 0.00D+00
 Harris functional with IExCor=  402 and IRadAn=       5 diagonalized for initial guess.
 HarFok:  IExCor=  402 AccDes= 0.00D+00 IRadAn=         5 IDoV= 1 UseB2=F ITyADJ=14
 ICtDFT=  3500011 ScaDFX=  1.000000  1.000000  1.000000  1.000000
 FoFCou: FMM=F IPFlag=           0 FMFlag=      100000 FMFlg1=           0
         NFxFlg=           0 DoJE=T BraDBF=F KetDBF=T FulRan=T
         wScrn=  0.000000 ICntrl=       500 IOpCl=  0 I1Cent=   200000004 NGrid=           0
         NMat0=    1 NMatS0=      1 NMatT0=    0 NMatD0=    1 NMtDS0=    0 NMtDT0=    0
 Petite list used in FoFCou.
 Requested convergence on RMS density matrix=1.00D-08 within  32 cycles.
 Requested convergence on MAX density matrix=1.00D-06.
 Requested convergence on             energy=1.00D-06.
 No special actions if energy rises.
 SCF Done:  E(RB3LYP) =  -3220.66983541     A.U. after   20 cycles
            NFock= 20  Conv=0.44D-08     -V/T= 2.0023
 QCSCF skips out because SCF is already converged.
 Calling FoFJK, ICntrl=      2127 FMM=F ISym2X=0 I1Cent= 0 IOpClX= 0 NMat=1 NMatS=1 NMatT=0.
 ***** Axes restored to original set *****
 -------------------------------------------------------------------
 Center     Atomic                   Forces (Hartrees/Bohr)
 Number     Number              X              Y              Z
 -------------------------------------------------------------------
      1        6          -0.004704036   -0.017246169   -0.001689308
      2        6          -0.011439456    0.006764175    0.005039212
      3        6          -0.012000165   -0.000816537    0.003800290
      4        6          -0.002096643   -0.009802201   -0.001150440
      5        6          -0.008659544    0.002111135    0.003249522
      6        6           0.016621486   -0.027630024   -0.010664902
      7        6          -0.039867395    0.005594630    0.014185547
      8        6          -0.007121525    0.022499875    0.006572109
      9        6          -0.001155677    0.003644102    0.001065051
     10        6          -0.000582292   -0.001000021    0.000004066
     11        6           0.004438379    0.008837256    0.000197460
     12        6           0.033447150   -0.098671063   -0.029550696
     13        1           0.003631865   -0.009246715   -0.002933214
     14        1           0.006391431    0.000562425   -0.002000032
     15        1           0.000763760    0.005956029    0.000866958
     16        1           0.002288211   -0.004951931   -0.001683890
     17       17          -0.091242833   -0.267043318   -0.020090381
     18       17           0.101068855    0.375507170    0.037223174
     19       17          -0.002549524   -0.001057975    0.000641215
     20       17           0.004319143    0.002280558   -0.000994603
     21       17           0.005140968    0.001301521   -0.001449339
     22       17           0.003307842    0.002407078   -0.000637799
 -------------------------------------------------------------------
 Cartesian Forces:  Max     0.375507170 RMS     0.061452489

 GradGradGradGradGradGradGradGradGradGradGradGradGradGradGradGradGradGrad
 Berny optimization.
 Using GEDIIS/GDIIS optimizer.
 FormGI is forming the generalized inverse of G from B-inverse, IUseBI=4.
 Internal  Forces:  Max     0.338170416 RMS     0.042934142
 Search for a local minimum.
 Step number   2 out of a maximum of  112
 All quantities printed in internal units (Hartrees-Bohrs-Radians)
 Mixed Optimization -- RFO/linear search
 Update second derivatives using D2CorX and points    1    2
 DE= -1.05D-01 DEPred=-1.21D-01 R= 8.73D-01
 TightC=F SS=  1.41D+00  RLast= 3.00D-01 DXNew= 5.0454D-01 9.0000D-01
 Trust test= 8.73D-01 RLast= 3.00D-01 DXMaxT set to 5.05D-01
 ITU=  1  0
 Use linear search instead of GDIIS.
 Linear search step of   0.600 exceeds DXMaxT=   0.505 but not scaled.
 Quartic linear search produced a step of  2.00000.
 Iteration  1 RMS(Cart)=  0.21365246 RMS(Int)=  0.02152055
 Iteration  2 RMS(Cart)=  0.20803141 RMS(Int)=  0.00322455
 Iteration  3 RMS(Cart)=  0.00697659 RMS(Int)=  0.00012293
 Iteration  4 RMS(Cart)=  0.00000780 RMS(Int)=  0.00012291
 Iteration  5 RMS(Cart)=  0.00000000 RMS(Int)=  0.00012291
 Variable       Old X    -DE/DX   Delta X   Delta X   Delta X     New X
                                 (Linear)    (Quad)   (Total)
    R1        2.64592  -0.01262  -0.00469   0.00000  -0.00451   2.64141
    R2        2.64957   0.00613   0.00261   0.00000   0.00277   2.65234
    R3        2.64503   0.00017  -0.00647   0.00000  -0.00646   2.63857
    R4        2.01855   0.01024  -0.00692   0.00000  -0.00692   2.01163
    R5        2.63408   0.00165  -0.02837   0.00000  -0.02854   2.60554
    R6        2.03029   0.00672   0.01657   0.00000   0.01657   2.04687
    R7        2.63457  -0.00283  -0.02738   0.00000  -0.02756   2.60701
    R8        2.02945   0.00559   0.01489   0.00000   0.01489   2.04435
    R9        2.64808  -0.00530  -0.00036   0.00000  -0.00036   2.64772
   R10        3.32478  -0.00039  -0.00228   0.00000  -0.00228   3.32250
   R11        3.31672  -0.00664  -0.01839   0.00000  -0.01839   3.29834
   R12        2.65930  -0.02806   0.02207   0.00000   0.02218   2.68147
   R13        2.64120  -0.05123  -0.01412   0.00000  -0.01393   2.62727
   R14        2.63941  -0.00087  -0.01771   0.00000  -0.01780   2.62161
   R15        3.32890   0.00302   0.00596   0.00000   0.00596   3.33485
   R16        2.62821   0.00333  -0.04011   0.00000  -0.04030   2.58790
   R17        2.03002   0.00571   0.01603   0.00000   0.01603   2.04605
   R18        2.63679   0.00642  -0.02294   0.00000  -0.02305   2.61375
   R19        3.32994  -0.00402   0.00804   0.00000   0.00804   3.33798
   R20        2.64099  -0.00905  -0.01454   0.00000  -0.01446   2.62653
   R21        3.33638   0.00255   0.02093   0.00000   0.02093   3.35732
   R22        3.44386   0.05559   0.23588   0.00000   0.23588   3.67973
   R23        3.33764   0.33817   0.35264   0.00000   0.35264   3.69028
    A1        2.06017  -0.00545  -0.06844   0.00000  -0.06793   1.99225
    A2        2.10984  -0.00319   0.03088   0.00000   0.03105   2.14089
    A3        2.09174   0.00002  -0.00531   0.00000  -0.00539   2.08635
    A4        2.08161   0.00317  -0.02557   0.00000  -0.02566   2.05595
    A5        2.10087   0.00514   0.01295   0.00000   0.01276   2.11363
    A6        2.09213  -0.00232  -0.00452   0.00000  -0.00443   2.08771
    A7        2.09018  -0.00282  -0.00843   0.00000  -0.00833   2.08185
    A8        2.08704   0.00231  -0.01472   0.00000  -0.01511   2.07193
    A9        2.10165   0.00123   0.01452   0.00000   0.01471   2.11637
   A10        2.09450  -0.00354   0.00020   0.00000   0.00040   2.09489
   A11        2.09037  -0.01314  -0.00805   0.00000  -0.00828   2.08208
   A12        2.08133  -0.00169  -0.02613   0.00000  -0.02601   2.05532
   A13        2.11149   0.01483   0.03418   0.00000   0.03430   2.14578
   A14        2.11809   0.01433   0.04738   0.00000   0.04751   2.16559
   A15        2.08717  -0.04201  -0.01444   0.00000  -0.01451   2.07266
   A16        2.07793   0.02769  -0.03294   0.00000  -0.03300   2.04493
   A17        2.06387   0.01087  -0.06105   0.00000  -0.06060   2.00327
   A18        2.11052  -0.00512   0.03225   0.00000   0.03225   2.14277
   A19        2.13370  -0.00215   0.07861   0.00000   0.07861   2.21231
   A20        2.03897   0.00727  -0.11086   0.00000  -0.11086   1.92811
   A21        2.09768  -0.00346   0.00656   0.00000   0.00625   2.10393
   A22        2.09336   0.00154  -0.00208   0.00000  -0.00193   2.09143
   A23        2.09215   0.00192  -0.00448   0.00000  -0.00433   2.08783
   A24        2.08463  -0.00176  -0.01954   0.00000  -0.01987   2.06475
   A25        2.08788  -0.00535  -0.01303   0.00000  -0.01286   2.07502
   A26        2.11068   0.00712   0.03257   0.00000   0.03273   2.14341
   A27        2.10190  -0.01724   0.01500   0.00000   0.01495   2.11684
   A28        2.08667   0.00655  -0.01545   0.00000  -0.01542   2.07125
   A29        2.09462   0.01068   0.00045   0.00000   0.00048   2.09510
   A30        2.10778   0.01671   0.02677   0.00000   0.02703   2.13481
   A31        2.10467  -0.07533   0.02055   0.00000   0.02043   2.12510
   A32        2.07073   0.05862  -0.04733   0.00000  -0.04745   2.02328
   A33        2.25611  -0.03654   0.32344   0.00000   0.32344   2.57955
   A34        2.01144  -0.22754  -0.16591   0.00000  -0.16591   1.84553
    D1        0.00000  -0.00000   0.00000   0.00000   0.00000   0.00000
    D2        3.14159   0.00000   0.00000   0.00000   0.00000   3.14159
    D3       -0.00000   0.00000  -0.00000   0.00000  -0.00000  -0.00000
    D4        3.14159  -0.00000   0.00000   0.00000   0.00000   3.14159
    D5        0.00000  -0.00000  -0.00000   0.00000  -0.00000   0.00000
    D6        3.14159   0.00000  -0.00000   0.00000  -0.00000   3.14159
    D7       -3.14159  -0.00000  -0.00000   0.00000  -0.00000  -3.14159
    D8        0.00000  -0.00000  -0.00000   0.00000  -0.00000   0.00000
    D9       -0.00000   0.00000   0.00000   0.00000   0.00000  -0.00000
   D10        3.14159   0.00000  -0.00000   0.00000  -0.00000   3.14159
   D11        3.14159   0.00000   0.00000   0.00000   0.00000   3.14159
   D12        0.00000  -0.00000  -0.00000   0.00000  -0.00000   0.00000
   D13        0.00000  -0.00000  -0.00000   0.00000  -0.00000   0.00000
   D14       -3.14159  -0.00000  -0.00000   0.00000  -0.00000  -3.14159
   D15       -3.14159  -0.00000  -0.00000   0.00000  -0.00000  -3.14159
   D16        0.00000  -0.00000  -0.00000   0.00000  -0.00000   0.00000
   D17       -0.00000   0.00000   0.00000   0.00000   0.00000   0.00000
   D18        3.14159   0.00000  -0.00000   0.00000  -0.00000   3.14159
   D19        3.14159   0.00000   0.00000   0.00000   0.00000   3.14159
   D20       -0.00000   0.00000  -0.00000   0.00000  -0.00000  -0.00000
   D21        0.00001   0.00000  -0.00000   0.00000  -0.00000   0.00001
   D22       -3.14159   0.00000  -0.00000   0.00000  -0.00000  -3.14159
   D23        0.00000   0.00000   0.00000   0.00000   0.00000   0.00000
   D24       -3.14159  -0.00000  -0.00000   0.00000  -0.00000  -3.14159
   D25       -0.00000  -0.00000  -0.00000   0.00000  -0.00000  -0.00000
   D26        3.14159   0.00000   0.00000   0.00000   0.00000   3.14159
   D27       -0.00000  -0.00000  -0.00000   0.00000  -0.00000  -0.00000
   D28        3.14159  -0.00000  -0.00000   0.00000  -0.00000   3.14159
   D29        3.14159   0.00000   0.00000   0.00000   0.00000   3.14159
   D30       -0.00000   0.00000   0.00000   0.00000   0.00000  -0.00000
   D31       -0.00000   0.00000   0.00000   0.00000   0.00000   0.00000
   D32       -3.14159  -0.00000  -0.00000   0.00000  -0.00000  -3.14159
   D33        3.14159   0.00000   0.00000   0.00000   0.00000  -3.14159
   D34        0.00000  -0.00000   0.00000   0.00000   0.00000   0.00000
   D35        0.00000   0.00000  -0.00000   0.00000  -0.00000  -0.00000
   D36       -3.14159  -0.00000  -0.00000   0.00000  -0.00000  -3.14159
   D37        3.14159   0.00000   0.00000   0.00000   0.00000   3.14159
   D38        0.00000  -0.00000  -0.00000   0.00000  -0.00000   0.00000
   D39        0.00000  -0.00000   0.00000   0.00000   0.00000   0.00000
   D40       -3.14159  -0.00000  -0.00000   0.00000  -0.00000   3.14159
   D41        3.14159   0.00000   0.00000   0.00000   0.00000   3.14159
   D42       -0.00000   0.00000  -0.00000   0.00000  -0.00000  -0.00000
   D43        0.00001   0.00000  -0.00000   0.00000  -0.00000   0.00001
   D44       -3.14159   0.00000   0.00000   0.00000   0.00000  -3.14159
   D45       -0.00001   0.00000  -0.00000   0.00000  -0.00000  -0.00002
         Item               Value     Threshold  Converged?
 Maximum Force            0.338170     0.000450     NO 
 RMS     Force            0.042934     0.000300     NO 
 Maximum Displacement     2.012102     0.001800     NO 
 RMS     Displacement     0.404619     0.001200     NO 
 Predicted change in Energy=-1.071794D-02
 GradGradGradGradGradGradGradGradGradGradGradGradGradGradGradGradGradGrad

                          Input orientation:                          
 ---------------------------------------------------------------------
 Center     Atomic      Atomic             Coordinates (Angstroms)
 Number     Number       Type             X           Y           Z
 ---------------------------------------------------------------------
      1          6           0        0.067538    1.026908    0.013100
      2          6           0        1.391032    1.239674   -0.382968
      3          6           0        1.995755    2.497655   -0.345935
      4          6           0        1.304176    3.607789    0.090400
      5          6           0       -0.006384    3.456015    0.493659
      6          6           0       -0.594681    2.185184    0.448801
      7          6           0       -0.891731   -1.881499   -0.217102
      8          6           0       -0.646706   -3.238283   -0.552644
      9          6           0       -1.608367   -4.229610   -0.421992
     10          6           0       -2.859337   -3.928314    0.046743
     11          6           0       -3.134647   -2.615485    0.384008
     12          6           0       -2.173304   -1.620095    0.254224
     13          1           0        1.973691    0.418770   -0.729097
     14          1           0        3.025228    2.606300   -0.664692
     15          1           0        1.770200    4.583634    0.120140
     16          1           0       -1.369674   -5.250498   -0.692364
     17         17           0       -2.728449    0.172546    0.773797
     18         17           0       -2.254968    2.056727    0.971660
     19         17           0       -4.754445   -2.213550    0.993162
     20         17           0       -0.864535    4.887972    1.045309
     21         17           0       -4.049990   -5.224575    0.195573
     22         17           0        0.858430   -3.916751   -1.175949
 ---------------------------------------------------------------------
                    Distance matrix (angstroms):
                    1          2          3          4          5
     1  C    0.000000
     2  C    1.397775   0.000000
     3  C    2.451535   1.396272   0.000000
     4  C    2.862900   2.416524   1.378792   0.000000
     5  C    2.477290   2.762863   2.373170   1.379572   0.000000
     6  C    1.403558   2.351358   2.727564   2.399565   1.401113
     7  C    3.071159   3.870431   5.247014   5.920206   5.456929
     8  C    4.361429   4.922730   6.318727   7.147597   6.805761
     9  C    5.534342   6.237867   7.632271   8.376770   7.904024
    10  C    5.755168   6.705102   8.063447   8.609854   7.928896
    11  C    4.864009   5.994353   7.279975   7.649738   6.830898
    12  C    3.476513   4.613977   5.890425   6.280961   5.524470
    13  H    2.134035   1.064509   2.114015   3.360010   3.826315
    14  H    3.420791   2.148867   1.083155   2.129593   3.354768
[...]
                 (A) (A) (A) (A) (A) (A) (A) (A) (A) (A) (A) (A)
                 (A) (A) (A) (A) (A) (A) (A) (A) (A) (A) (A) (A)
                 (A) (A) (A) (A) (A) (A) (A) (A) (A) (A) (A) (A)
                 (A) (A) (A) (A) (A) (A) (A) (A) (A) (A) (A) (A)
                 (A) (A) (A) (A) (A) (A) (A) (A) (A) (A) (A) (A)
                 (A) (A) (A) (A) (A) (A) (A) (A) (A) (A) (A) (A)
                 (A) (A) (A) (A) (A) (A) (A) (A) (A) (A) (A) (A)
                 (A) (A) (A) (A) (A) (A) (A) (A) (A) (A) (A) (A)
                 (A) (A) (A) (A) (A) (A) (A) (A) (A) (A) (A) (A)
                 (A) (A) (A) (A) (A) (A) (A) (A) (A) (A) (A) (A)
                 (A) (A) (A) (A) (A) (A) (A) (A) (A) (A) (A) (A)
                 (A) (A) (A) (A) (A) (A) (A) (A) (A) (A) (A) (A)
                 (A) (A) (A) (A) (A) (A) (A) (A) (A) (A) (A) (A)
                 (A) (A) (A) (A) (A) (A) (A) (A) (A) (A) (A) (A)
                 (A) (A) (A) (A) (A) (A) (A) (A) (A) (A) (A) (A)
                 (A) (A) (A) (A) (A) (A) (A) (A) (A) (A) (A) (A)
                 (A) (A) (A) (A) (A) (A) (A) (A) (A) (A) (A) (A)
                 (A) (A) (A) (A) (A) (A) (A) (A) (A) (A) (A) (A)
                 (A) (A) (A) (A) (A) (A) (A) (A) (A) (A) (A) (A)
                 (A) (A) (A) (A) (A) (A) (A) (A) (A) (A) (A) (A)
                 (A) (A) (A) (A) (A) (A) (A) (A) (A) (A) (A) (A)
                 (A) (A) (A) (A) (A) (A) (A) (A) (A) (A) (A) (A)
                 (A) (A) (A) (A) (A) (A) (A) (A) (A) (A) (A) (A)
                 (A) (A) (A) (A) (A) (A) (A) (A) (A) (A) (A) (A)
                 (A) (A) (A) (A) (A) (A) (A) (A) (A) (A) (A) (A)
                 (A) (A) (A) (A) (A) (A) (A) (A) (A) (A) (A) (A)
                 (A) (A) (A)
 The electronic state is 1-A.
 Alpha  occ. eigenvalues -- -101.57975-101.57898-101.57804-101.57664-101.57078
 Alpha  occ. eigenvalues -- -101.56944 -10.28104 -10.27888 -10.27827 -10.27428
 Alpha  occ. eigenvalues --  -10.26719 -10.26440 -10.23901 -10.22858 -10.22275
 Alpha  occ. eigenvalues --  -10.21059 -10.20786 -10.20638  -9.49432  -9.49361
 Alpha  occ. eigenvalues --   -9.49281  -9.49133  -9.48553  -9.48404  -7.25925
 Alpha  occ. eigenvalues --   -7.25865  -7.25772  -7.25612  -7.25033  -7.24910
 Alpha  occ. eigenvalues --   -7.24886  -7.24847  -7.24840  -7.24764  -7.24759
 Alpha  occ. eigenvalues --   -7.24684  -7.24612  -7.24560  -7.24036  -7.23972
 Alpha  occ. eigenvalues --   -7.23886  -7.23828  -0.96133  -0.93580  -0.91103
 Alpha  occ. eigenvalues --   -0.90585  -0.87600  -0.87220  -0.86108  -0.83797
 Alpha  occ. eigenvalues --   -0.80039  -0.75814  -0.75351  -0.74525  -0.66382
 Alpha  occ. eigenvalues --   -0.63931  -0.62823  -0.61564  -0.55226  -0.54860
 Alpha  occ. eigenvalues --   -0.52787  -0.51617  -0.49590  -0.48217  -0.47025
 Alpha  occ. eigenvalues --   -0.46398  -0.45903  -0.45737  -0.43901  -0.43406
 Alpha  occ. eigenvalues --   -0.42113  -0.40353  -0.39777  -0.39646  -0.38765
 Alpha  occ. eigenvalues --   -0.36278  -0.35903  -0.35642  -0.35319  -0.34472
 Alpha  occ. eigenvalues --   -0.34251  -0.33887  -0.32889  -0.32132  -0.32119
 Alpha  occ. eigenvalues --   -0.27832  -0.27806  -0.26872  -0.26663
 Alpha virt. eigenvalues --   -0.06144  -0.05850  -0.05129  -0.04624  -0.04333
 Alpha virt. eigenvalues --   -0.02057  -0.00655  -0.00025   0.00754   0.01148
 Alpha virt. eigenvalues --    0.01885   0.02388   0.02563   0.02659   0.03432
 Alpha virt. eigenvalues --    0.04186   0.04661   0.05350   0.05702   0.06148
 Alpha virt. eigenvalues --    0.06304   0.06543   0.07210   0.07547   0.08103
 Alpha virt. eigenvalues --    0.08477   0.08656   0.08958   0.09296   0.09661
 Alpha virt. eigenvalues --    0.10249   0.10695   0.10966   0.11285   0.11654
 Alpha virt. eigenvalues --    0.12009   0.12336   0.12563   0.12939   0.13015
 Alpha virt. eigenvalues --    0.13822   0.14108   0.14288   0.14679   0.14715
 Alpha virt. eigenvalues --    0.15032   0.15961   0.16473   0.16732   0.16967
 Alpha virt. eigenvalues --    0.17670   0.17957   0.18196   0.18437   0.18864
 Alpha virt. eigenvalues --    0.19114   0.19385   0.19578   0.19811   0.20168
 Alpha virt. eigenvalues --    0.20731   0.20784   0.21333   0.21870   0.22386
 Alpha virt. eigenvalues --    0.22670   0.23074   0.23388   0.23852   0.24306
 Alpha virt. eigenvalues --    0.24742   0.24828   0.25422   0.25563   0.26211
 Alpha virt. eigenvalues --    0.26376   0.26773   0.26945   0.27442   0.27866
 Alpha virt. eigenvalues --    0.28402   0.28690   0.29156   0.29503   0.30004
 Alpha virt. eigenvalues --    0.30347   0.31079   0.31323   0.31888   0.32354
 Alpha virt. eigenvalues --    0.33137   0.33824   0.35757   0.39239   0.41096
 Alpha virt. eigenvalues --    0.42733   0.43275   0.43675   0.43852   0.44875
 Alpha virt. eigenvalues --    0.45558   0.46067   0.46308   0.46503   0.46659
 Alpha virt. eigenvalues --    0.47489   0.48219   0.48650   0.49092   0.49647
 Alpha virt. eigenvalues --    0.50902   0.51199   0.51300   0.52481   0.53202
 Alpha virt. eigenvalues --    0.53929   0.54542   0.56648   0.56748   0.57520
 Alpha virt. eigenvalues --    0.57885   0.57998   0.58610   0.60069   0.60297
 Alpha virt. eigenvalues --    0.61020   0.61269   0.62093   0.62623   0.63360
 Alpha virt. eigenvalues --    0.63882   0.64232   0.64641   0.65397   0.66469
 Alpha virt. eigenvalues --    0.67922   0.68140   0.68410   0.68926   0.69240
 Alpha virt. eigenvalues --    0.70348   0.71272   0.73136   0.76043   0.78523
 Alpha virt. eigenvalues --    0.79778   0.80169   0.81054   0.81529   0.81809
 Alpha virt. eigenvalues --    0.82295   0.82846   0.83640   0.84025   0.84136
 Alpha virt. eigenvalues --    0.84425   0.84603   0.84675   0.85100   0.85470
 Alpha virt. eigenvalues --    0.86156   0.86533   0.87558   0.87986   0.88886
 Alpha virt. eigenvalues --    0.89474   0.89721   0.90134   0.90230   0.91373
 Alpha virt. eigenvalues --    0.92087   0.92738   0.93281   0.94633   0.94777
 Alpha virt. eigenvalues --    0.95051   0.95311   0.96038   0.96473   0.97014
 Alpha virt. eigenvalues --    0.97631   0.98675   0.98976   1.00095   1.00892
 Alpha virt. eigenvalues --    1.02202   1.02872   1.04955   1.05125   1.05523
 Alpha virt. eigenvalues --    1.06135   1.10176   1.10879   1.15641   1.15835
 Alpha virt. eigenvalues --    1.17826   1.19258   1.21564   1.23568   1.24470
 Alpha virt. eigenvalues --    1.24955   1.25577   1.26350   1.27325   1.27931
 Alpha virt. eigenvalues --    1.28403   1.29867   1.30270   1.31263   1.33931
 Alpha virt. eigenvalues --    1.35776   1.36972   1.37985   1.40956   1.44714
 Alpha virt. eigenvalues --    1.45689   1.47595   1.49022   1.50946   1.54890
 Alpha virt. eigenvalues --    1.55117   1.56828   1.57944   1.58901   1.60732
 Alpha virt. eigenvalues --    1.62451   1.65090   1.66009   1.67338   1.71631
 Alpha virt. eigenvalues --    1.74775   1.75285   1.76266   1.77574   1.79056
 Alpha virt. eigenvalues --    1.81635   1.81980   1.82389   1.85086   1.86576
 Alpha virt. eigenvalues --    1.87817   1.88030   1.90643   1.92384   1.93014
 Alpha virt. eigenvalues --    1.93859   1.95954   1.98735   2.00125   2.01830
 Alpha virt. eigenvalues --    2.03838   2.04916   2.06705   2.11972   2.17106
 Alpha virt. eigenvalues --    2.18512   2.20018   2.22842   2.24726   2.24805
 Alpha virt. eigenvalues --    2.25444   2.26879   2.27813   2.28264   2.30044
 Alpha virt. eigenvalues --    2.30766   2.32192   2.32717   2.34856   2.37439
 Alpha virt. eigenvalues --    2.39083   2.40965   2.42205   2.43082   2.43764
 Alpha virt. eigenvalues --    2.46693   2.47741   2.48839   2.51366   2.51701
 Alpha virt. eigenvalues --    2.52894   2.55176   2.55966   2.58147   2.60687
 Alpha virt. eigenvalues --    2.63052   2.65639   2.66878   2.68752   2.69415
 Alpha virt. eigenvalues --    2.70206   2.72279   2.74143   2.74876   2.74962
 Alpha virt. eigenvalues --    2.77210   2.77370   2.78040   2.82450   2.83388
 Alpha virt. eigenvalues --    2.83588   2.85655   2.89688   2.96501   2.97728
 Alpha virt. eigenvalues --    3.05864   3.08612   3.09439   3.11747   3.13443
 Alpha virt. eigenvalues --    3.14075   3.17667   3.20513   3.21500   3.23394
 Alpha virt. eigenvalues --    3.27307   3.35167   3.38703   3.40310   3.50433
 Alpha virt. eigenvalues --    3.51862   3.62690   3.69071   3.72459   3.76016
 Alpha virt. eigenvalues --    3.89412   3.94968   4.01463   4.04533   4.09755
 Alpha virt. eigenvalues --    4.32683   4.80143   4.81701   9.75322   9.78278
 Alpha virt. eigenvalues --    9.79206   9.81012   9.83488   9.85324  23.33346
 Alpha virt. eigenvalues --   23.51620  23.81294  23.83768  23.88558  23.89379
 Alpha virt. eigenvalues --   23.93722  23.95001  24.01947  24.06689  24.09671
 Alpha virt. eigenvalues --   24.15451  25.77389  25.79687  25.83691  25.86631
 Alpha virt. eigenvalues --   25.94973  25.98644  26.09232  26.14002  26.16611
 Alpha virt. eigenvalues --   26.21855  26.33441  26.37780  26.49161  26.59403
 Alpha virt. eigenvalues --   26.63917  26.71279  26.84105  27.04257 215.74441
 Alpha virt. eigenvalues --  215.77653 215.78751 215.80974 215.84379 215.85907
          Condensed to atoms (all electrons):
               1          2          3          4          5          6
     1  C   30.505387  -5.848707  -2.357082  -6.477572   1.869757   1.070752
     2  C   -5.848707  18.884021  -2.377401   4.716031  -2.124641  -3.075863
     3  C   -2.357082  -2.377401  11.994272  -2.185720   0.707285  -4.119889
     4  C   -6.477572   4.716031  -2.185720  25.847028 -10.619081   0.797310
     5  C    1.869757  -2.124641   0.707285 -10.619081  21.603428  -6.741242
     6  C    1.070752  -3.075863  -4.119889   0.797310  -6.741242  45.989055
     7  C    8.363264  -2.340091   3.522670  -6.474733   1.660372 -15.009614
     8  C   -7.013542  -0.525314   0.255240   0.346801  -0.663989  -4.588983
     9  C   -4.897273  -0.564121  -0.194288   0.279778  -0.131021  -0.202173
    10  C   -0.741979  -0.236203  -0.129089   0.120885  -0.041168   0.546227
    11  C   -4.541049   0.053127   0.635103  -0.494070   0.048409  -4.033281
    12  C   -1.546500  -1.414552   0.036070  -0.072935  -0.571505  -2.250148
    13  H   -0.014623   0.290047  -0.041299  -0.033348  -0.002992  -0.120861
    14  H    0.010287   0.029127   0.338162   0.027886  -0.043137  -0.003393
    15  H    0.087621  -0.068459  -0.021390   0.207054   0.122131   0.002884
    16  H    0.023559  -0.000259  -0.000237  -0.000010  -0.000290   0.001383
    17  Cl  -0.694429   0.299161   0.214305  -0.269644   0.181375  -0.393913
    18  Cl  -1.346175   0.143740  -0.091714   1.763590   0.335346   0.056157
    19  Cl  -0.216511   0.011058   0.017069  -0.008602   0.001823  -0.143043
    20  Cl  -0.247391   0.130918   0.028994  -0.590326  -0.805204   1.046893
    21  Cl  -0.056729  -0.004102   0.002255  -0.000860   0.000501  -0.047769
    22  Cl   0.178400   0.358051   0.311465  -0.370742   0.181531  -0.889887
               7          8          9         10         11         12
     1  C    8.363264  -7.013542  -4.897273  -0.741979  -4.541049  -1.546500
     2  C   -2.340091  -0.525314  -0.564121  -0.236203   0.053127  -1.414552
     3  C    3.522670   0.255240  -0.194288  -0.129089   0.635103   0.036070
     4  C   -6.474733   0.346801   0.279778   0.120885  -0.494070  -0.072935
     5  C    1.660372  -0.663989  -0.131021  -0.041168   0.048409  -0.571505
     6  C  -15.009614  -4.588983  -0.202173   0.546227  -4.033281  -2.250148
     7  C   38.724700 -11.260812  -9.838296   0.704422  -2.890034   1.799515
     8  C  -11.260812  38.379896  -3.734416  -6.302058   7.358774  -5.905899
     9  C   -9.838296  -3.734416  30.185813   3.465134 -12.244132   5.272266
    10  C    0.704422  -6.302058   3.465134  22.501664  -8.366981  -4.346730
    11  C   -2.890034   7.358774 -12.244132  -8.366981  32.349675  -3.232197
    12  C    1.799515  -5.905899   5.272266  -4.346730  -3.232197  22.458739
    13  H    0.127194   0.050474   0.019222   0.006160   0.011688   0.072018
    14  H   -0.010966   0.000894   0.000285   0.000090  -0.000540   0.001065
    15  H    0.021620  -0.000701  -0.000094   0.000037   0.000161   0.001366
    16  H    0.160118   0.024430   0.093641   0.019104   0.048778  -0.016617
    17  Cl  -0.163596   0.209654   0.997848   0.745495  -0.658787  -2.317286
    18  Cl  -1.577790  -0.230919  -0.255024  -0.078086  -0.140107  -0.389152
    19  Cl  -0.914286   0.628670   0.055680  -0.696067   0.078748   0.589271
    20  Cl   0.045472  -0.057990  -0.010221  -0.001141   0.002889  -0.055328
    21  Cl   0.064157  -0.458290   0.007344  -0.435548   0.382650  -0.140458
    22  Cl   0.841324  -0.154572  -1.556680  -0.795306   0.909502  -0.428300
              13         14         15         16         17         18
     1  C   -0.014623   0.010287   0.087621   0.023559  -0.694429  -1.346175
     2  C    0.290047   0.029127  -0.068459  -0.000259   0.299161   0.143740
     3  C   -0.041299   0.338162  -0.021390  -0.000237   0.214305  -0.091714
     4  C   -0.033348   0.027886   0.207054  -0.000010  -0.269644   1.763590
     5  C   -0.002992  -0.043137   0.122131  -0.000290   0.181375   0.335346
     6  C   -0.120861  -0.003393   0.002884   0.001383  -0.393913   0.056157
     7  C    0.127194  -0.010966   0.021620   0.160118  -0.163596  -1.577790
     8  C    0.050474   0.000894  -0.000701   0.024430   0.209654  -0.230919
     9  C    0.019222   0.000285  -0.000094   0.093641   0.997848  -0.255024
    10  C    0.006160   0.000090   0.000037   0.019104   0.745495  -0.078086
    11  C    0.011688  -0.000540   0.000161   0.048778  -0.658787  -0.140107
    12  C    0.072018   0.001065   0.001366  -0.016617  -2.317286  -0.389152
    13  H    0.533866  -0.006947  -0.000216  -0.000001  -0.009896  -0.004592
    14  H   -0.006947   0.525388  -0.007592   0.000000  -0.000862   0.001206
    15  H   -0.000216  -0.007592   0.508359  -0.000000  -0.000220  -0.003405
    16  H   -0.000001   0.000000  -0.000000   0.489662   0.000644  -0.000706
    17  Cl  -0.009896  -0.000862  -0.000220   0.000644  18.624361   0.056793
    18  Cl  -0.004592   0.001206  -0.003405  -0.000706   0.056793  18.527040
    19  Cl   0.000523   0.000001   0.000000  -0.000884  -0.363929  -0.007998
    20  Cl  -0.000097  -0.000313  -0.003682  -0.000006   0.005829  -0.332212
    21  Cl   0.000139  -0.000000   0.000000  -0.007514  -0.013033   0.005245
    22  Cl  -0.007821  -0.000868  -0.000063  -0.008118  -0.067810   0.026298
              19         20         21         22
     1  C   -0.216511  -0.247391  -0.056729   0.178400
     2  C    0.011058   0.130918  -0.004102   0.358051
     3  C    0.017069   0.028994   0.002255   0.311465
     4  C   -0.008602  -0.590326  -0.000860  -0.370742
     5  C    0.001823  -0.805204   0.000501   0.181531
     6  C   -0.143043   1.046893  -0.047769  -0.889887
     7  C   -0.914286   0.045472   0.064157   0.841324
     8  C    0.628670  -0.057990  -0.458290  -0.154572
     9  C    0.055680  -0.010221   0.007344  -1.556680
    10  C   -0.696067  -0.001141  -0.435548  -0.795306
    11  C    0.078748   0.002889   0.382650   0.909502
    12  C    0.589271  -0.055328  -0.140458  -0.428300
    13  H    0.000523  -0.000097   0.000139  -0.007821
    14  H    0.000001  -0.000313  -0.000000  -0.000868
    15  H    0.000000  -0.003682   0.000000  -0.000063
    16  H   -0.000884  -0.000006  -0.007514  -0.008118
    17  Cl  -0.363929   0.005829  -0.013033  -0.067810
    18  Cl  -0.007998  -0.332212   0.005245   0.026298
    19  Cl  17.554317   0.000161  -0.187126   0.007732
    20  Cl   0.000161  17.374055   0.000008   0.005204
    21  Cl  -0.187126   0.000008  17.402379  -0.042800
    22  Cl   0.007732   0.005204  -0.042800  18.071856
 Mulliken charges:
               1
     1  C   -0.109464
     2  C   -0.335568
     3  C   -0.544781
     4  C   -0.508720
     5  C    1.032312
     6  C   -1.890604
     7  C    0.445391
     8  C   -0.357346
     9  C   -0.749271
    10  C    0.061137
    11  C    0.721675
    12  C   -1.542704
    13  H    0.131361
    14  H    0.140227
    15  H    0.154590
    16  H    0.173324
    17  Cl   0.617939
    18  Cl   0.542465
    19  Cl   0.593393
    20  Cl   0.463488
    21  Cl   0.529551
    22  Cl   0.431604
 Sum of Mulliken charges =  -0.00000
 Mulliken charges with hydrogens summed into heavy atoms:
               1
     1  C   -0.109464
     2  C   -0.204207
     3  C   -0.404554
     4  C   -0.354129
     5  C    1.032312
     6  C   -1.890604
     7  C    0.445391
     8  C   -0.357346
     9  C   -0.575946
    10  C    0.061137
    11  C    0.721675
    12  C   -1.542704
    17  Cl   0.617939
    18  Cl   0.542465
    19  Cl   0.593393
    20  Cl   0.463488
    21  Cl   0.529551
    22  Cl   0.431604
 Electronic spatial extent (au):  <R**2>=           7606.8572
 Charge=              0.0000 electrons
 Dipole moment (field-independent basis, Debye):
    X=             -0.4954    Y=              0.8021    Z=              2.4332  Tot=              2.6094
 Quadrupole moment (field-independent basis, Debye-Ang):
   XX=           -143.2284   YY=           -145.4895   ZZ=           -139.3761
   XY=              3.2349   XZ=             -7.7836   YZ=             -0.4101
 Traceless Quadrupole moment (field-independent basis, Debye-Ang):
   XX=             -0.5304   YY=             -2.7915   ZZ=              3.3219
   XY=              3.2349   XZ=             -7.7836   YZ=             -0.4101
 Octapole moment (field-independent basis, Debye-Ang**2):
  XXX=            -15.0607  YYY=             -5.3824  ZZZ=              1.3591  XYY=             15.6363
  XXY=              1.4673  XXZ=             21.2177  XZZ=            -13.5396  YZZ=             -2.8111
  YYZ=             -9.7943  XYZ=              1.0651
 Hexadecapole moment (field-independent basis, Debye-Ang**3):
 XXXX=          -6875.5153 YYYY=          -1870.0907 ZZZZ=          -1012.3508 XXXY=              6.2978
 XXXZ=            -93.9338 YYYX=            -17.1305 YYYZ=             -6.4130 ZZZX=            -12.7086
 ZZZY=              3.1020 XXYY=          -1473.9744 XXZZ=          -1297.0549 YYZZ=           -525.2413
 XXYZ=             -7.8742 YYXZ=             10.9727 ZZXY=             -1.1999
 N-N= 2.071297114147D+03 E-N=-1.177184906412D+04  KE= 3.212689559656D+03
 1\1\GINC-CN157\FOpt\RB3LYP\6-311+G(d,p)\C12H4Cl6\20CY91R06\03-Apr-2022
 \0\\# opt b3lyp/6-311+g(d,p) scf=xqc\\Title Card Required\\0,1\C,-0.27
 40777584,0.3911516207,0.0709758853\C,0.9874254499,0.3710919788,0.66817
 52483\C,1.7504563978,1.5299104072,0.7557934452\C,1.260315338,2.7259743
 035,0.2453018675\C,0.0040227879,2.7622614155,-0.354015229\C,-0.7674484
 59,1.5981455377,-0.4441734129\C,-1.066745463,-0.870832736,-0.016096010
 2\C,-0.9415768389,-1.7355562146,-1.1087204787\C,-1.6553559854,-2.92265
 07384,-1.193600646\C,-2.5226253329,-3.2735742189,-0.1673883899\C,-2.68
 36040164,-2.4433419184,0.9482151987\C,-1.9491768854,-1.2493021685,1.00
 73338395\H,1.3652473288,-0.56360728,1.064601027\H,2.7282295775,1.50440
 29007,1.2213030261\H,1.8414190519,3.6371439151,0.3051197731\H,-1.54067
 26552,-3.5714829474,-2.0501957215\Cl,-2.1349133104,-0.1934177509,2.382
 2008782\Cl,-2.3434185159,1.6322674138,-1.192856977\Cl,-3.7669383007,-2
 .8874657135,2.229629473\Cl,-0.5768152425,4.2847501131,-0.9844647807\Cl
 ,-3.4003379327,-4.7733250676,-0.3103272647\Cl,0.1354244149,-1.33202885
 19,-2.4289775713\\Version=EM64L-G16RevB.01\State=1-A\HF=-3221.129439\R
 MSD=1.505e-09\RMSF=1.369e-05\Dipole=0.9874161,-0.2208292,0.1737851\Qua
 drupole=4.2373403,-2.0755907,-2.1617496,2.5930734,3.3897986,3.6006113\
 PG=C01 [X(C12H4Cl6)]\\@


 TIMES HAVE CHANGED. IN THE BIBLE WHEN AN ASS
 SPOKE IT WAS CONSIDERED A MIRACLE.
 Job cpu time:       1 days 15 hours 56 minutes 18.4 seconds.
 Elapsed time:       0 days  9 hours 59 minutes 28.4 seconds.
 File lengths (MBytes):  RWF=    147 Int=      0 D2E=      0 Chk=     23 Scr=      1
 Normal termination of Gaussian 16 at Sun Apr  3 10:38:08 2022.
