 Entering Gaussian System, Link 0=g16
 Input=2,2prime,4,6-Tetrachlorobiphenyl.gjf
 Output=2,2prime,4,6-Tetrachlorobiphenyl.log
 Initial command:
 /home/apps/g16/l1.exe "./Gau-212401.inp" -scrdir="./"
 Entering Link 1 = /home/apps/g16/l1.exe PID=    212402.
  
 Copyright (c) 1988-2017, Gaussian, Inc.  All Rights Reserved.
  
 This is part of the Gaussian(R) 16 program.  It is based on
 the Gaussian(R) 09 system (copyright 2009, Gaussian, Inc.),
 the Gaussian(R) 03 system (copyright 2003, Gaussian, Inc.),
 the Gaussian(R) 98 system (copyright 1998, Gaussian, Inc.),
 the Gaussian(R) 94 system (copyright 1995, Gaussian, Inc.),
 the Gaussian 92(TM) system (copyright 1992, Gaussian, Inc.),
 the Gaussian 90(TM) system (copyright 1990, Gaussian, Inc.),
 the Gaussian 88(TM) system (copyright 1988, Gaussian, Inc.),
 the Gaussian 86(TM) system (copyright 1986, Carnegie Mellon
 University), and the Gaussian 82(TM) system (copyright 1983,
 Carnegie Mellon University). Gaussian is a federally registered
 trademark of Gaussian, Inc.
  
 This software contains proprietary and confidential information,
 including trade secrets, belonging to Gaussian, Inc.
  
 This software is provided under written license and may be
 used, copied, transmitted, or stored only in accord with that
 written license.
  
 The following legend is applicable only to US Government
 contracts under FAR:
  
                    RESTRICTED RIGHTS LEGEND
  
 Use, reproduction and disclosure by the US Government is
 subject to restrictions as set forth in subparagraphs (a)
 and (c) of the Commercial Computer Software - Restricted
 Rights clause in FAR 52.227-19.
  
 Gaussian, Inc.
 340 Quinnipiac St., Bldg. 40, Wallingford CT 06492
  
  
 ---------------------------------------------------------------
 Warning -- This program may not be used in any manner that
 competes with the business of Gaussian, Inc. or will provide
 assistance to any competitor of Gaussian, Inc.  The licensee
 of this program is prohibited from giving any competitor of
 Gaussian, Inc. access to this program.  By using this program,
 the user acknowledges that Gaussian, Inc. is engaged in the
 business of creating and licensing software in the field of
 computational chemistry and represents and warrants to the
 licensee that it is not a competitor of Gaussian, Inc. and that
 it will not use this program in any manner prohibited above.
 ---------------------------------------------------------------
  

 Cite this work as:
 Gaussian 16, Revision B.01,
 M. J. Frisch, G. W. Trucks, H. B. Schlegel, G. E. Scuseria, 
 M. A. Robb, J. R. Cheeseman, G. Scalmani, V. Barone, 
 G. A. Petersson, H. Nakatsuji, X. Li, M. Caricato, A. V. Marenich, 
 J. Bloino, B. G. Janesko, R. Gomperts, B. Mennucci, H. P. Hratchian, 
 J. V. Ortiz, A. F. Izmaylov, J. L. Sonnenberg, D. Williams-Young, 
 F. Ding, F. Lipparini, F. Egidi, J. Goings, B. Peng, A. Petrone, 
 T. Henderson, D. Ranasinghe, V. G. Zakrzewski, J. Gao, N. Rega, 
 G. Zheng, W. Liang, M. Hada, M. Ehara, K. Toyota, R. Fukuda, 
 J. Hasegawa, M. Ishida, T. Nakajima, Y. Honda, O. Kitao, H. Nakai, 
 T. Vreven, K. Throssell, J. A. Montgomery, Jr., J. E. Peralta, 
 F. Ogliaro, M. J. Bearpark, J. J. Heyd, E. N. Brothers, K. N. Kudin, 
 V. N. Staroverov, T. A. Keith, R. Kobayashi, J. Normand, 
 K. Raghavachari, A. P. Rendell, J. C. Burant, S. S. Iyengar, 
 J. Tomasi, M. Cossi, J. M. Millam, M. Klene, C. Adamo, R. Cammi, 
 J. W. Ochterski, R. L. Martin, K. Morokuma, O. Farkas, 
 J. B. Foresman, and D. J. Fox, Gaussian, Inc., Wallingford CT, 2016.
 
 ******************************************
 Gaussian 16:  EM64L-G16RevB.01 20-Dec-2017
                 3-Apr-2022 
 ******************************************
 %mem=32GB
 %nprocshared=16
 Will use up to   16 processors via shared memory.
 --------------------------------
 # opt b3lyp/6-311+g(d,p) scf=xqc
 --------------------------------
 1/18=20,19=15,26=3,38=1/1,3;
 2/9=110,12=2,17=6,18=5,40=1/2;
 3/5=4,6=6,7=111,11=2,25=1,30=1,71=1,74=-5/1,2,3;
 4//1;
 5/5=2,8=3,13=1,38=5/2,8;
 6/7=2,8=2,9=2,10=2,28=1/1;
 7//1,2,3,16;
 1/18=20,19=15,26=3/3(2);
 2/9=110/2;
 99//99;
 2/9=110/2;
 3/5=4,6=6,7=111,11=2,25=1,30=1,71=1,74=-5/1,2,3;
 4/5=5,16=3,69=1/1;
 5/5=2,8=3,13=1,38=5/2,8;
 7//1,2,3,16;
 1/18=20,19=15,26=3/3(-5);
 2/9=110/2;
 6/7=2,8=2,9=2,10=2,19=2,28=1/1;
 99/9=1/99;
 -------------------
 Title Card Required
 -------------------
 Symbolic Z-matrix:
 Charge =  0 Multiplicity = 1
 C                    -0.45682   2.11332   0.90127 
 C                     0.87556   2.1432    0.46793 
 C                     1.58346   3.35265   0.46186 
 C                     0.95897   4.53222   0.88913 
 C                    -0.37341   4.50233   1.32247 
 C                    -1.08131   3.29288   1.32855 
 C                    -1.483     0.36007   0.91008 
 C                    -0.85851  -0.8195    0.4828 
 C                    -1.5664   -2.02895   0.48888 
 C                    -2.89878  -2.05883   0.92223 
 C                    -3.52327  -0.87927   1.3495 
 C                    -2.81538   0.33018   1.34343 
 H                     1.35237   1.24258   0.1417 
 H                     2.60076   3.37547   0.13099 
 H                     1.49946   5.45566   0.88449 
 H                    -0.85022   5.40296   1.64871 
 H                    -1.08959  -2.92957   0.16264 
 H                    -4.54057  -0.90209   1.68038 
 Cl                   -3.59966   1.81158   1.88004 
 Cl                   -2.75463   3.25535   1.87278 
 Cl                   -3.78781  -3.57777   0.92986 
 Cl                    0.81481  -0.78196  -0.06143 
 

 GradGradGradGradGradGradGradGradGradGradGradGradGradGradGradGradGradGrad
 Berny optimization.
 Initialization pass.
                           ----------------------------
                           !    Initial Parameters    !
                           ! (Angstroms and Degrees)  !
 --------------------------                            --------------------------
 ! Name  Definition              Value          Derivative Info.                !
 --------------------------------------------------------------------------------
 ! R1    R(1,2)                  1.4014         estimate D2E/DX2                !
 ! R2    R(1,6)                  1.4014         estimate D2E/DX2                !
 ! R3    R(2,3)                  1.4014         estimate D2E/DX2                !
 ! R4    R(2,13)                 1.07           estimate D2E/DX2                !
 ! R5    R(3,4)                  1.4014         estimate D2E/DX2                !
 ! R6    R(3,14)                 1.07           estimate D2E/DX2                !
 ! R7    R(4,5)                  1.4014         estimate D2E/DX2                !
 ! R8    R(4,15)                 1.07           estimate D2E/DX2                !
 ! R9    R(5,6)                  1.4014         estimate D2E/DX2                !
 ! R10   R(5,16)                 1.07           estimate D2E/DX2                !
 ! R11   R(6,20)                 1.76           estimate D2E/DX2                !
 ! R12   R(7,8)                  1.4014         estimate D2E/DX2                !
 ! R13   R(7,12)                 1.4014         estimate D2E/DX2                !
 ! R14   R(8,9)                  1.4014         estimate D2E/DX2                !
 ! R15   R(8,22)                 1.76           estimate D2E/DX2                !
 ! R16   R(9,10)                 1.4014         estimate D2E/DX2                !
 ! R17   R(9,17)                 1.07           estimate D2E/DX2                !
 ! R18   R(10,11)                1.4014         estimate D2E/DX2                !
 ! R19   R(10,21)                1.76           estimate D2E/DX2                !
 ! R20   R(11,12)                1.4014         estimate D2E/DX2                !
 ! R21   R(11,18)                1.07           estimate D2E/DX2                !
 ! R22   R(12,19)                1.76           estimate D2E/DX2                !
 ! R23   R(19,20)                1.6729         estimate D2E/DX2                !
 ! A1    A(2,1,6)              120.0            estimate D2E/DX2                !
 ! A2    A(1,2,3)              120.0            estimate D2E/DX2                !
 ! A3    A(1,2,13)             120.0            estimate D2E/DX2                !
 ! A4    A(3,2,13)             120.0            estimate D2E/DX2                !
 ! A5    A(2,3,4)              120.0            estimate D2E/DX2                !
 ! A6    A(2,3,14)             120.0            estimate D2E/DX2                !
 ! A7    A(4,3,14)             120.0            estimate D2E/DX2                !
 ! A8    A(3,4,5)              120.0            estimate D2E/DX2                !
 ! A9    A(3,4,15)             120.0            estimate D2E/DX2                !
 ! A10   A(5,4,15)             120.0            estimate D2E/DX2                !
 ! A11   A(4,5,6)              120.0            estimate D2E/DX2                !
 ! A12   A(4,5,16)             120.0            estimate D2E/DX2                !
 ! A13   A(6,5,16)             120.0            estimate D2E/DX2                !
 ! A14   A(1,6,5)              120.0            estimate D2E/DX2                !
 ! A15   A(1,6,20)             120.0            estimate D2E/DX2                !
 ! A16   A(5,6,20)             120.0            estimate D2E/DX2                !
 ! A17   A(8,7,12)             120.0            estimate D2E/DX2                !
 ! A18   A(7,8,9)              120.0            estimate D2E/DX2                !
 ! A19   A(7,8,22)             120.0            estimate D2E/DX2                !
 ! A20   A(9,8,22)             120.0            estimate D2E/DX2                !
 ! A21   A(8,9,10)             120.0            estimate D2E/DX2                !
 ! A22   A(8,9,17)             120.0            estimate D2E/DX2                !
 ! A23   A(10,9,17)            120.0            estimate D2E/DX2                !
 ! A24   A(9,10,11)            120.0            estimate D2E/DX2                !
 ! A25   A(9,10,21)            120.0            estimate D2E/DX2                !
 ! A26   A(11,10,21)           120.0            estimate D2E/DX2                !
 ! A27   A(10,11,12)           120.0            estimate D2E/DX2                !
 ! A28   A(10,11,18)           120.0            estimate D2E/DX2                !
 ! A29   A(12,11,18)           120.0            estimate D2E/DX2                !
 ! A30   A(7,12,11)            120.0            estimate D2E/DX2                !
 ! A31   A(7,12,19)            120.0            estimate D2E/DX2                !
 ! A32   A(11,12,19)           120.0            estimate D2E/DX2                !
 ! A33   A(12,19,20)           120.0            estimate D2E/DX2                !
 ! A34   A(6,20,19)            120.0            estimate D2E/DX2                !
 ! D1    D(6,1,2,3)              0.0001         estimate D2E/DX2                !
 ! D2    D(6,1,2,13)           180.0            estimate D2E/DX2                !
 ! D3    D(2,1,6,5)             -0.0001         estimate D2E/DX2                !
 ! D4    D(2,1,6,20)           180.0            estimate D2E/DX2                !
 ! D5    D(1,2,3,4)              0.0            estimate D2E/DX2                !
 ! D6    D(1,2,3,14)           180.0            estimate D2E/DX2                !
 ! D7    D(13,2,3,4)          -179.9999         estimate D2E/DX2                !
 ! D8    D(13,2,3,14)            0.0001         estimate D2E/DX2                !
 ! D9    D(2,3,4,5)             -0.0001         estimate D2E/DX2                !
 ! D10   D(2,3,4,15)           180.0            estimate D2E/DX2                !
 ! D11   D(14,3,4,5)           179.9999         estimate D2E/DX2                !
 ! D12   D(14,3,4,15)            0.0            estimate D2E/DX2                !
 ! D13   D(3,4,5,6)              0.0001         estimate D2E/DX2                !
 ! D14   D(3,4,5,16)          -179.9999         estimate D2E/DX2                !
 ! D15   D(15,4,5,6)          -180.0            estimate D2E/DX2                !
 ! D16   D(15,4,5,16)            0.0            estimate D2E/DX2                !
 ! D17   D(4,5,6,1)              0.0            estimate D2E/DX2                !
 ! D18   D(4,5,6,20)           179.9999         estimate D2E/DX2                !
 ! D19   D(16,5,6,1)           180.0            estimate D2E/DX2                !
 ! D20   D(16,5,6,20)           -0.0001         estimate D2E/DX2                !
 ! D21   D(1,6,20,19)            0.0004         estimate D2E/DX2                !
 ! D22   D(5,6,20,19)         -179.9996         estimate D2E/DX2                !
 ! D23   D(12,7,8,9)             0.0001         estimate D2E/DX2                !
 ! D24   D(12,7,8,22)         -179.9998         estimate D2E/DX2                !
 ! D25   D(8,7,12,11)           -0.0001         estimate D2E/DX2                !
 ! D26   D(8,7,12,19)          179.9999         estimate D2E/DX2                !
 ! D27   D(7,8,9,10)             0.0            estimate D2E/DX2                !
 ! D28   D(7,8,9,17)           180.0            estimate D2E/DX2                !
 ! D29   D(22,8,9,10)          179.9998         estimate D2E/DX2                !
 ! D30   D(22,8,9,17)           -0.0002         estimate D2E/DX2                !
 ! D31   D(8,9,10,11)            0.0            estimate D2E/DX2                !
 ! D32   D(8,9,10,21)         -179.9999         estimate D2E/DX2                !
 ! D33   D(17,9,10,11)         180.0            estimate D2E/DX2                !
 ! D34   D(17,9,10,21)           0.0001         estimate D2E/DX2                !
 ! D35   D(9,10,11,12)           0.0            estimate D2E/DX2                !
 ! D36   D(9,10,11,18)        -179.9998         estimate D2E/DX2                !
 ! D37   D(21,10,11,12)        179.9999         estimate D2E/DX2                !
 ! D38   D(21,10,11,18)          0.0001         estimate D2E/DX2                !
 ! D39   D(10,11,12,7)           0.0            estimate D2E/DX2                !
 ! D40   D(10,11,12,19)       -179.9999         estimate D2E/DX2                !
 ! D41   D(18,11,12,7)         179.9999         estimate D2E/DX2                !
 ! D42   D(18,11,12,19)         -0.0001         estimate D2E/DX2                !
 ! D43   D(7,12,19,20)           0.0004         estimate D2E/DX2                !
 ! D44   D(11,12,19,20)       -179.9997         estimate D2E/DX2                !
 ! D45   D(12,19,20,6)          -0.0006         estimate D2E/DX2                !
 --------------------------------------------------------------------------------
 Trust Radius=3.00D-01 FncErr=1.00D-07 GrdErr=1.00D-06 EigMax=2.50D+02 EigMin=1.00D-04
 Number of steps in this run=    112 maximum allowed number of steps=    132.
 GradGradGradGradGradGradGradGradGradGradGradGradGradGradGradGradGradGrad

                          Input orientation:                          
 ---------------------------------------------------------------------
 Center     Atomic      Atomic             Coordinates (Angstroms)
 Number     Number       Type             X           Y           Z
 ---------------------------------------------------------------------
      1          6           0       -0.456818    2.113317    0.901274
      2          6           0        0.875563    2.143202    0.467927
      3          6           0        1.583457    3.352653    0.461855
      4          6           0        0.958970    4.532218    0.889130
      5          6           0       -0.373412    4.502333    1.322475
      6          6           0       -1.081306    3.292882    1.328547
      7          6           0       -1.482995    0.360070    0.910078
      8          6           0       -0.858508   -0.819495    0.482803
      9          6           0       -1.566401   -2.028947    0.488877
     10          6           0       -2.898781   -2.058833    0.922227
     11          6           0       -3.523268   -0.879268    1.349503
     12          6           0       -2.815375    0.330183    1.343428
     13          1           0        1.352374    1.242578    0.141696
     14          1           0        2.600760    3.375472    0.130986
     15          1           0        1.499462    5.455661    0.884494
     16          1           0       -0.850223    5.402957    1.648706
     17          1           0       -1.089591   -2.929571    0.162643
     18          1           0       -4.540569   -0.902088    1.680377
     19         17           0       -3.599660    1.811583    1.880040
     20         17           0       -2.754626    3.255349    1.872781
     21         17           0       -3.787814   -3.577768    0.929859
     22         17           0        0.814812   -0.781962   -0.061431
 ---------------------------------------------------------------------
                    Distance matrix (angstroms):
                    1          2          3          4          5
     1  C    0.000000
     2  C    1.401400   0.000000
     3  C    2.427296   1.401400   0.000000
     4  C    2.802800   2.427296   1.401400   0.000000
     5  C    2.427296   2.802800   2.427296   1.401400   0.000000
     6  C    1.401400   2.427296   2.802800   2.427296   1.401400
     7  C    2.031500   2.989625   4.308084   4.834300   4.308084
     8  C    2.989625   3.432900   4.834300   5.666495   5.409457
     9  C    4.308084   4.834300   6.235700   7.041774   6.691466
    10  C    4.834300   5.666495   7.041774   7.637100   7.041774
    11  C    4.308084   5.409457   6.691466   7.041774   6.235700
    12  C    2.989625   4.204351   5.409457   5.666495   4.834300
    13  H    2.146700   1.070000   2.146700   3.396345   3.872800
    14  H    3.396345   2.146700   1.070000   2.146700   3.396345
    15  H    3.872800   3.396345   2.146700   1.070000   2.146700
    16  H    3.396345   3.872800   3.396345   2.146700   1.070000
    17  H    5.135824   5.448675   6.833817   7.771916   7.555879
    18  H    5.135824   6.330744   7.555879   7.771916   6.833817
    19  Cl   3.305523   4.704429   5.590246   5.400450   4.237887
    20  Cl   2.743718   4.048303   4.562800   4.048303   2.743718
    21  Cl   6.594300   7.395266   8.780678   9.397100   8.780678
    22  Cl   3.305523   2.973298   4.237887   5.400450   5.590246
                    6          7          8          9         10
     6  C    0.000000
     7  C    2.989625   0.000000
     8  C    4.204351   1.401400   0.000000
     9  C    5.409457   2.427296   1.401400   0.000000
    10  C    5.666495   2.802800   2.427296   1.401400   0.000000
    11  C    4.834300   2.427296   2.802800   2.427296   1.401400
    12  C    3.432900   1.401400   2.427296   2.802800   2.427296
    13  H    3.396345   3.067336   3.042450   4.398029   5.438829
    14  H    3.872800   5.135824   5.448675   6.833817   7.771916
    15  H    3.396345   5.904300   6.715576   8.097863   8.707100
    16  H    2.146700   5.135824   6.330744   7.555879   7.771916
    17  H    6.330744   3.396345   2.146700   1.070000   2.146700
    18  H    5.448675   3.396345   3.872800   3.396345   2.146700
    19  Cl   2.973298   2.743718   4.048303   4.562800   4.048303
    20  Cl   1.760000   3.305523   4.704429   5.590246   5.400450
    21  Cl   7.395266   4.562800   4.048303   2.743718   1.760000
    22  Cl   4.704429   2.743718   1.760000   2.743718   4.048303
                   11         12         13         14         15
    11  C    0.000000
    12  C    1.401400   0.000000
    13  H    5.452790   4.432467   0.000000
    14  H    7.555879   6.330744   2.471400   0.000000
    15  H    8.097863   6.715576   4.280590   2.471400   0.000000
    16  H    6.833817   5.448675   4.942800   4.280590   2.471400
    17  H    3.396345   3.872800   4.834300   7.305700   8.805474
    18  H    1.070000   2.146700   6.457082   8.467391   8.805474
    19  Cl   2.743718   1.760000   5.279038   6.629490   6.345980
    20  Cl   4.237887   2.973298   4.890332   5.632800   4.890332
    21  Cl   2.743718   4.048303   7.090731   9.476266  10.467100
    22  Cl   4.562800   4.048303   2.104518   4.528895   6.345980
                   16         17         18         19         20
    16  H    0.000000
    17  H    8.467391   0.000000
    18  H    7.305700   4.280590   0.000000
    19  Cl   4.528895   5.632800   2.879094   0.000000
    20  Cl   2.879094   6.629490   4.528895   1.672900   0.000000
    21  Cl   9.476266   2.879094   2.879094   5.475705   6.974816
    22  Cl   6.629490   2.879094   5.632800   5.475705   5.725552
                   21         22
    21  Cl   0.000000
    22  Cl   5.475705   0.000000
 Stoichiometry    C12H6Cl4
 Framework group  C1[X(C12H6Cl4)]
 Deg. of freedom    60
 Full point group                 C1      NOp   1
 Largest Abelian subgroup         C1      NOp   1
 Largest concise Abelian subgroup C1      NOp   1
                         Standard orientation:                         
 ---------------------------------------------------------------------
 Center     Atomic      Atomic             Coordinates (Angstroms)
 Number     Number       Type             X           Y           Z
 ---------------------------------------------------------------------
      1          6           0       -1.676816    0.493014   -0.000001
      2          6           0       -2.238688    1.776845    0.000001
      3          6           0       -3.631454    1.932165    0.000003
      4          6           0       -4.462348    0.803654    0.000004
      5          6           0       -3.900476   -0.480177    0.000000
      6          6           0       -2.507710   -0.635497   -0.000002
      7          6           0        0.342169    0.267858   -0.000002
      8          6           0        1.173063    1.396369   -0.000003
      9          6           0        2.565829    1.241049   -0.000003
     10          6           0        3.127701   -0.042782   -0.000001
     11          6           0        2.296807   -1.171293    0.000000
     12          6           0        0.904041   -1.015972    0.000000
     13          1           0       -1.604281    2.638488    0.000003
     14          1           0       -4.060455    2.912398    0.000005
     15          1           0       -5.525756    0.922244    0.000006
     16          1           0       -4.534882   -1.341820   -0.000002
     17          1           0        3.200235    2.102692   -0.000004
     18          1           0        2.725808   -2.151526    0.000004
     19         17           0       -0.139469   -2.433255    0.000004
     20         17           0       -1.802062   -2.247844   -0.000005
     21         17           0        4.876858   -0.237846    0.000002
     22         17           0        0.467415    3.008716   -0.000001
 ---------------------------------------------------------------------
 Rotational constants (GHZ):           0.5604552           0.2431651           0.1695865
 Standard basis: 6-311+G(d,p) (5D, 7F)
 There are   436 symmetry adapted cartesian basis functions of A   symmetry.
 There are   420 symmetry adapted basis functions of A   symmetry.
   420 basis functions,   692 primitive gaussians,   436 cartesian basis functions
    73 alpha electrons       73 beta electrons
       nuclear repulsion energy      1500.4830317872 Hartrees.
 NAtoms=   22 NActive=   22 NUniq=   22 SFac= 1.00D+00 NAtFMM=   60 NAOKFM=F Big=F
 Integral buffers will be    131072 words long.
 Raffenetti 2 integral format.
 Two-electron integral symmetry is turned on.
 One-electron integrals computed using PRISM.
 NBasis=   420 RedAO= T EigKep=  1.35D-06  NBF=   420
 NBsUse=   415 1.00D-06 EigRej=  9.96D-07 NBFU=   415
 ExpMin= 4.38D-02 ExpMax= 1.06D+05 ExpMxC= 3.62D+03 IAcc=3 IRadAn=         5 AccDes= 0.00D+00
 Harris functional with IExCor=  402 and IRadAn=       5 diagonalized for initial guess.
 HarFok:  IExCor=  402 AccDes= 0.00D+00 IRadAn=         5 IDoV= 1 UseB2=F ITyADJ=14
 ICtDFT=  3500011 ScaDFX=  1.000000  1.000000  1.000000  1.000000
 FoFCou: FMM=F IPFlag=           0 FMFlag=      100000 FMFlg1=           0
         NFxFlg=           0 DoJE=T BraDBF=F KetDBF=T FulRan=T
         wScrn=  0.000000 ICntrl=       500 IOpCl=  0 I1Cent=   200000004 NGrid=           0
         NMat0=    1 NMatS0=      1 NMatT0=    0 NMatD0=    1 NMtDS0=    0 NMtDT0=    0
 Petite list used in FoFCou.
 Requested convergence on RMS density matrix=1.00D-08 within  32 cycles.
 Requested convergence on MAX density matrix=1.00D-06.
 Requested convergence on             energy=1.00D-06.
 No special actions if energy rises.
 EnCoef did     3 forward-backward iterations
 EnCoef did     4 forward-backward iterations
 EnCoef did     5 forward-backward iterations
 EnCoef did     6 forward-backward iterations
 Restarting incremental Fock formation.
 SCF Done:  E(RB3LYP) =  -2301.32758590     A.U. after   29 cycles
            NFock= 29  Conv=0.25D-08     -V/T= 2.0019
 QCSCF skips out because SCF is already converged.

 **********************************************************************

            Population analysis using the SCF Density.

 **********************************************************************

 Orbital symmetries:
       Occupied  (A) (A) (A) (A) (A) (A) (A) (A) (A) (A) (A) (A)
                 (A) (A) (A) (A) (A) (A) (A) (A) (A) (A) (A) (A)
                 (A) (A) (A) (A) (A) (A) (A) (A) (A) (A) (A) (A)
                 (A) (A) (A) (A) (A) (A) (A) (A) (A) (A) (A) (A)
                 (A) (A) (A) (A) (A) (A) (A) (A) (A) (A) (A) (A)
                 (A) (A) (A) (A) (A) (A) (A) (A) (A) (A) (A) (A)
                 (A)
       Virtual   (A) (A) (A) (A) (A) (A) (A) (A) (A) (A) (A) (A)
                 (A) (A) (A) (A) (A) (A) (A) (A) (A) (A) (A) (A)
                 (A) (A) (A) (A) (A) (A) (A) (A) (A) (A) (A) (A)
                 (A) (A) (A) (A) (A) (A) (A) (A) (A) (A) (A) (A)
                 (A) (A) (A) (A) (A) (A) (A) (A) (A) (A) (A) (A)
                 (A) (A) (A) (A) (A) (A) (A) (A) (A) (A) (A) (A)
                 (A) (A) (A) (A) (A) (A) (A) (A) (A) (A) (A) (A)
                 (A) (A) (A) (A) (A) (A) (A) (A) (A) (A) (A) (A)
                 (A) (A) (A) (A) (A) (A) (A) (A) (A) (A) (A) (A)
                 (A) (A) (A) (A) (A) (A) (A) (A) (A) (A) (A) (A)
                 (A) (A) (A) (A) (A) (A) (A) (A) (A) (A) (A) (A)
                 (A) (A) (A) (A) (A) (A) (A) (A) (A) (A) (A) (A)
                 (A) (A) (A) (A) (A) (A) (A) (A) (A) (A) (A) (A)
                 (A) (A) (A) (A) (A) (A) (A) (A) (A) (A) (A) (A)
                 (A) (A) (A) (A) (A) (A) (A) (A) (A) (A) (A) (A)
                 (A) (A) (A) (A) (A) (A) (A) (A) (A) (A) (A) (A)
                 (A) (A) (A) (A) (A) (A) (A) (A) (A) (A) (A) (A)
                 (A) (A) (A) (A) (A) (A) (A) (A) (A) (A) (A) (A)
                 (A) (A) (A) (A) (A) (A) (A) (A) (A) (A) (A) (A)
                 (A) (A) (A) (A) (A) (A) (A) (A) (A) (A) (A) (A)
                 (A) (A) (A) (A) (A) (A) (A) (A) (A) (A) (A) (A)
                 (A) (A) (A) (A) (A) (A) (A) (A) (A) (A) (A) (A)
                 (A) (A) (A) (A) (A) (A) (A) (A) (A) (A) (A) (A)
                 (A) (A) (A) (A) (A) (A) (A) (A) (A) (A) (A) (A)
                 (A) (A) (A) (A) (A) (A) (A) (A) (A) (A) (A) (A)
                 (A) (A) (A) (A) (A) (A) (A) (A) (A) (A) (A) (A)
                 (A) (A) (A) (A) (A) (A) (A) (A) (A) (A) (A) (A)
                 (A) (A) (A) (A) (A) (A) (A) (A) (A) (A) (A) (A)
                 (A) (A) (A) (A) (A) (A)
 The electronic state is 1-A.
 Alpha  occ. eigenvalues -- -101.61459-101.60621-101.56219-101.55887 -10.26988
 Alpha  occ. eigenvalues --  -10.26108 -10.25151 -10.23504 -10.22895 -10.22605
 Alpha  occ. eigenvalues --  -10.21181 -10.20483 -10.20446 -10.19946 -10.19704
 Alpha  occ. eigenvalues --  -10.19272  -9.54045  -9.53340  -9.47782  -9.47327
 Alpha  occ. eigenvalues --   -7.30518  -7.30084  -7.29547  -7.29110  -7.28657
 Alpha  occ. eigenvalues --   -7.28206  -7.24222  -7.23785  -7.23262  -7.23222
 Alpha  occ. eigenvalues --   -7.22815  -7.22778  -1.10290  -0.91535  -0.89719
 Alpha  occ. eigenvalues --   -0.87997  -0.85872  -0.82553  -0.77933  -0.77035
 Alpha  occ. eigenvalues --   -0.74541  -0.73429  -0.66761  -0.63422  -0.61898
 Alpha  occ. eigenvalues --   -0.59778  -0.57650  -0.53358  -0.51655  -0.51060
 Alpha  occ. eigenvalues --   -0.50866  -0.49181  -0.47659  -0.47285  -0.45704
 Alpha  occ. eigenvalues --   -0.43826  -0.43235  -0.42107  -0.41194  -0.40255
 Alpha  occ. eigenvalues --   -0.39740  -0.38412  -0.37034  -0.35192  -0.33467
 Alpha  occ. eigenvalues --   -0.32445  -0.31939  -0.31062  -0.28421  -0.27666
 Alpha  occ. eigenvalues --   -0.25886  -0.24799  -0.11260
 Alpha virt. eigenvalues --   -0.07521  -0.05419  -0.04502  -0.03860  -0.03716
 Alpha virt. eigenvalues --   -0.01722  -0.00750   0.00555   0.00761   0.01219
 Alpha virt. eigenvalues --    0.02024   0.02814   0.03312   0.03915   0.04136
 Alpha virt. eigenvalues --    0.04947   0.05784   0.05807   0.06278   0.06360
 Alpha virt. eigenvalues --    0.07371   0.07878   0.08176   0.08230   0.08918
 Alpha virt. eigenvalues --    0.09274   0.09632   0.10426   0.10861   0.10906
 Alpha virt. eigenvalues --    0.11197   0.11491   0.11863   0.12337   0.13118
 Alpha virt. eigenvalues --    0.13370   0.14155   0.14620   0.14879   0.15020
 Alpha virt. eigenvalues --    0.15462   0.15691   0.16204   0.16581   0.17051
 Alpha virt. eigenvalues --    0.17532   0.17715   0.18410   0.18690   0.18760
 Alpha virt. eigenvalues --    0.18815   0.19751   0.20152   0.20736   0.20868
 Alpha virt. eigenvalues --    0.21322   0.21869   0.22198   0.22438   0.23723
 Alpha virt. eigenvalues --    0.23912   0.23995   0.24048   0.24486   0.24708
 Alpha virt. eigenvalues --    0.24881   0.25063   0.26385   0.26825   0.27178
 Alpha virt. eigenvalues --    0.28310   0.28951   0.29192   0.29262   0.30365
 Alpha virt. eigenvalues --    0.30706   0.30876   0.32387   0.32575   0.34190
 Alpha virt. eigenvalues --    0.34241   0.35122   0.38275   0.38988   0.40332
 Alpha virt. eigenvalues --    0.40427   0.41628   0.42495   0.42784   0.44324
 Alpha virt. eigenvalues --    0.44890   0.45982   0.46082   0.46975   0.47293
 Alpha virt. eigenvalues --    0.48187   0.48849   0.50232   0.50664   0.51490
 Alpha virt. eigenvalues --    0.52080   0.52719   0.53152   0.53880   0.54083
 Alpha virt. eigenvalues --    0.55090   0.56137   0.57289   0.58308   0.58320
 Alpha virt. eigenvalues --    0.58539   0.59249   0.59854   0.60406   0.60792
 Alpha virt. eigenvalues --    0.61757   0.62664   0.64223   0.64462   0.64614
 Alpha virt. eigenvalues --    0.65017   0.66212   0.66402   0.66853   0.69329
 Alpha virt. eigenvalues --    0.70341   0.70380   0.71260   0.72076   0.76644
 Alpha virt. eigenvalues --    0.76654   0.77002   0.79569   0.80200   0.80404
 Alpha virt. eigenvalues --    0.81555   0.82870   0.83161   0.83618   0.84360
 Alpha virt. eigenvalues --    0.84740   0.84898   0.85170   0.86123   0.86243
 Alpha virt. eigenvalues --    0.87308   0.87689   0.87948   0.89415   0.89981
 Alpha virt. eigenvalues --    0.91238   0.91562   0.91764   0.93789   0.94861
 Alpha virt. eigenvalues --    0.95338   0.96219   0.97174   0.97716   0.98173
 Alpha virt. eigenvalues --    0.98270   0.98503   1.00183   1.01023   1.01185
 Alpha virt. eigenvalues --    1.04198   1.06109   1.06597   1.07505   1.08957
 Alpha virt. eigenvalues --    1.10037   1.10591   1.12531   1.12941   1.14828
 Alpha virt. eigenvalues --    1.16873   1.18778   1.21074   1.22660   1.22950
 Alpha virt. eigenvalues --    1.25952   1.26196   1.27151   1.28585   1.30374
 Alpha virt. eigenvalues --    1.30610   1.30764   1.31229   1.32828   1.42162
 Alpha virt. eigenvalues --    1.46283   1.49648   1.49854   1.50852   1.51931
 Alpha virt. eigenvalues --    1.52613   1.55099   1.56575   1.56847   1.57024
 Alpha virt. eigenvalues --    1.60806   1.61506   1.61599   1.65002   1.65330
 Alpha virt. eigenvalues --    1.68704   1.69258   1.70202   1.73699   1.74280
 Alpha virt. eigenvalues --    1.76018   1.80619   1.81855   1.83175   1.83716
 Alpha virt. eigenvalues --    1.85278   1.87863   1.88719   1.89055   1.89389
 Alpha virt. eigenvalues --    1.90376   1.92341   1.93511   1.94277   1.96497
 Alpha virt. eigenvalues --    1.96502   1.97562   2.01120   2.02654   2.03628
 Alpha virt. eigenvalues --    2.06322   2.07233   2.09418   2.10290   2.18565
 Alpha virt. eigenvalues --    2.19103   2.22835   2.24380   2.26639   2.27618
 Alpha virt. eigenvalues --    2.28312   2.28828   2.29285   2.30404   2.31387
 Alpha virt. eigenvalues --    2.31804   2.36423   2.38181   2.39920   2.41575
 Alpha virt. eigenvalues --    2.44702   2.46134   2.52212   2.54155   2.54991
 Alpha virt. eigenvalues --    2.55937   2.58050   2.59825   2.61531   2.61620
 Alpha virt. eigenvalues --    2.63479   2.63612   2.65459   2.67098   2.68594
 Alpha virt. eigenvalues --    2.70090   2.72112   2.73049   2.74390   2.75357
 Alpha virt. eigenvalues --    2.75824   2.76596   2.77229   2.78480   2.78819
 Alpha virt. eigenvalues --    2.79239   2.83938   2.85150   2.85384   2.87169
 Alpha virt. eigenvalues --    2.87700   2.89159   2.99122   3.05488   3.07075
 Alpha virt. eigenvalues --    3.11698   3.12362   3.18159   3.19980   3.22306
 Alpha virt. eigenvalues --    3.28591   3.31754   3.34467   3.36009   3.37966
 Alpha virt. eigenvalues --    3.44178   3.51961   3.54769   3.63434   3.70857
 Alpha virt. eigenvalues --    3.73981   3.80656   3.87433   4.00893   4.04022
 Alpha virt. eigenvalues --    4.10195   4.11113   4.17673   4.81018   4.81508
 Alpha virt. eigenvalues --    9.71227   9.77929   9.83944   9.98421  23.38148
 Alpha virt. eigenvalues --   23.48824  23.82702  23.86342  23.88930  23.92114
 Alpha virt. eigenvalues --   23.98177  24.00941  24.02528  24.05001  24.08258
 Alpha virt. eigenvalues --   24.14314  25.77161  25.82549  25.84293  25.95989
 Alpha virt. eigenvalues --   26.09596  26.25595  26.34748  26.60072  26.68772
 Alpha virt. eigenvalues --   26.76614  26.93599  27.00346 215.72888 215.77529
 Alpha virt. eigenvalues --  215.84348 216.04383
          Condensed to atoms (all electrons):
               1          2          3          4          5          6
     1  C   19.413674  -2.619020  -3.065469   1.454841  -4.478150   0.310576
     2  C   -2.619020  15.972897  -0.726577   1.596889  -0.964426  -6.879816
     3  C   -3.065469  -0.726577   9.259176  -0.767488  -0.258087   1.818215
     4  C    1.454841   1.596889  -0.767488   9.854299  -1.031246  -3.758825
     5  C   -4.478150  -0.964426  -0.258087  -1.031246  13.010834  -0.933857
     6  C    0.310576  -6.879816   1.818215  -3.758825  -0.933857  20.066036
     7  C    4.904663   4.138374  -1.066289   0.998326  -2.129084  -7.057004
     8  C   -1.046630   1.791310   0.153853   0.149962   0.366735  -0.759055
     9  C   -1.962718   0.550757   0.059624   0.049866   0.157335   0.151750
    10  C    0.230555   0.151731   0.089869  -0.054753  -0.146392  -0.535581
    11  C   -1.825420  -0.642704  -0.055601   0.022363  -0.285241   1.817830
    12  C   -2.579745  -5.981964   0.130222  -0.879541   1.596016   1.807823
    13  H   -0.034373   0.377037  -0.060928  -0.002893  -0.009919   0.026969
    14  H   -0.008045  -0.047237   0.432177  -0.028845  -0.032971   0.029713
    15  H   -0.002150   0.010251  -0.003346   0.382099  -0.064955   0.018587
    16  H   -0.050814  -0.026174   0.012063  -0.125012   0.494508  -0.069187
    17  H   -0.014689   0.006902  -0.000662   0.000259  -0.000106  -0.002513
    18  H    0.001085  -0.000944  -0.000058   0.000174   0.000004   0.011271
    19  Cl   1.442570   2.967242  -1.006889   1.861882  -2.720279   8.932030
    20  Cl  -4.792811  -2.542288   1.688262  -3.449388   3.352153  -8.147525
    21  Cl  -0.072793   0.013857  -0.000041   0.000549  -0.003419  -0.012141
    22  Cl   0.830936  -0.803043  -0.523210  -0.067551   0.079230   0.181061
               7          8          9         10         11         12
     1  C    4.904663  -1.046630  -1.962718   0.230555  -1.825420  -2.579745
     2  C    4.138374   1.791310   0.550757   0.151731  -0.642704  -5.981964
     3  C   -1.066289   0.153853   0.059624   0.089869  -0.055601   0.130222
     4  C    0.998326   0.149962   0.049866  -0.054753   0.022363  -0.879541
     5  C   -2.129084   0.366735   0.157335  -0.146392  -0.285241   1.596016
     6  C   -7.057004  -0.759055   0.151750  -0.535581   1.817830   1.807823
     7  C   27.763431   1.323702  -2.994116   2.151109  -8.920647  -5.716623
     8  C    1.323702  14.790346   1.133721  -4.770150  -2.596743  -3.243501
     9  C   -2.994116   1.133721  12.333740   1.249486  -2.679061  -1.936728
    10  C    2.151109  -4.770150   1.249486  17.931318  -1.188655  -4.062578
    11  C   -8.920647  -2.596743  -2.679061  -1.188655  16.276685   0.350119
    12  C   -5.716623  -3.243501  -1.936728  -4.062578   0.350119  38.353264
    13  H    0.014430   0.011645   0.028723   0.013118  -0.004677  -0.020217
    14  H    0.001103   0.000835  -0.000738  -0.000028  -0.000098  -0.002980
    15  H   -0.001022  -0.000142  -0.000010   0.000014   0.000004   0.001712
    16  H   -0.007188   0.000377  -0.000049   0.000249  -0.000587   0.025054
    17  H    0.003768  -0.062453   0.319422  -0.023837   0.018874   0.081035
    18  H   -0.080033   0.011022  -0.005651  -0.073143   0.494371  -0.182136
    19  Cl  -9.178329  -0.153325   0.400673  -5.182201   8.720345 -29.566317
    20  Cl   2.937046   0.027687  -0.278651   1.484890  -4.041842  18.720506
    21  Cl  -0.260109  -0.020739   0.008389  -1.306897   0.435779   0.163576
    22  Cl  -0.332279  -0.758840  -0.103765  -0.374936   0.167929   0.632085
              13         14         15         16         17         18
     1  C   -0.034373  -0.008045  -0.002150  -0.050814  -0.014689   0.001085
     2  C    0.377037  -0.047237   0.010251  -0.026174   0.006902  -0.000944
     3  C   -0.060928   0.432177  -0.003346   0.012063  -0.000662  -0.000058
     4  C   -0.002893  -0.028845   0.382099  -0.125012   0.000259   0.000174
     5  C   -0.009919  -0.032971  -0.064955   0.494508  -0.000106   0.000004
     6  C    0.026969   0.029713   0.018587  -0.069187  -0.002513   0.011271
     7  C    0.014430   0.001103  -0.001022  -0.007188   0.003768  -0.080033
     8  C    0.011645   0.000835  -0.000142   0.000377  -0.062453   0.011022
     9  C    0.028723  -0.000738  -0.000010  -0.000049   0.319422  -0.005651
    10  C    0.013118  -0.000028   0.000014   0.000249  -0.023837  -0.073143
    11  C   -0.004677  -0.000098   0.000004  -0.000587   0.018874   0.494371
    12  C   -0.020217  -0.002980   0.001712   0.025054   0.081035  -0.182136
    13  H    0.582116  -0.009103  -0.000416   0.000097   0.000028   0.000000
    14  H   -0.009103   0.534713  -0.006062  -0.000139  -0.000000  -0.000000
    15  H   -0.000416  -0.006062   0.526733  -0.006203  -0.000000  -0.000000
    16  H    0.000097  -0.000139  -0.006203   0.521049  -0.000000  -0.000000
    17  H    0.000028  -0.000000  -0.000000  -0.000000   0.509486  -0.000096
    18  H    0.000000  -0.000000  -0.000000  -0.000000  -0.000096   0.523339
    19  Cl  -0.010702  -0.002339  -0.002484  -0.067837   0.021152   0.189628
    20  Cl   0.014049   0.008310   0.010158   0.144028  -0.004107  -0.039429
    21  Cl   0.000042  -0.000000   0.000000  -0.000001  -0.000007   0.004072
    22  Cl  -0.054976  -0.000391   0.000187  -0.000059  -0.010998   0.000989
              19         20         21         22
     1  C    1.442570  -4.792811  -0.072793   0.830936
     2  C    2.967242  -2.542288   0.013857  -0.803043
     3  C   -1.006889   1.688262  -0.000041  -0.523210
     4  C    1.861882  -3.449388   0.000549  -0.067551
     5  C   -2.720279   3.352153  -0.003419   0.079230
     6  C    8.932030  -8.147525  -0.012141   0.181061
     7  C   -9.178329   2.937046  -0.260109  -0.332279
     8  C   -0.153325   0.027687  -0.020739  -0.758840
     9  C    0.400673  -0.278651   0.008389  -0.103765
    10  C   -5.182201   1.484890  -1.306897  -0.374936
    11  C    8.720345  -4.041842   0.435779   0.167929
    12  C  -29.566317  18.720506   0.163576   0.632085
    13  H   -0.010702   0.014049   0.000042  -0.054976
    14  H   -0.002339   0.008310  -0.000000  -0.000391
    15  H   -0.002484   0.010158   0.000000   0.000187
    16  H   -0.067837   0.144028  -0.000001  -0.000059
    17  H    0.021152  -0.004107  -0.000007  -0.010998
    18  H    0.189628  -0.039429   0.004072   0.000989
    19  Cl  89.331255 -50.589634   0.236880   0.068985
    20  Cl -50.589634  61.390243  -0.057057  -0.049922
    21  Cl   0.236880  -0.057057  17.462483  -0.013800
    22  Cl   0.068985  -0.049922  -0.013800  17.576689
 Mulliken charges:
               1
     1  C   -0.036073
     2  C   -0.343053
     3  C   -0.108813
     4  C   -0.205967
     5  C    0.001315
     6  C   -1.016359
     7  C   -0.493227
     8  C   -0.349618
     9  C   -0.481999
    10  C    0.416812
    11  C   -0.063026
    12  C   -1.689082
    13  H    0.139947
    14  H    0.132126
    15  H    0.137044
    16  H    0.155824
    17  H    0.158542
    18  H    0.145536
    19  Cl   1.307692
    20  Cl   1.215324
    21  Cl   0.421378
    22  Cl   0.555678
 Sum of Mulliken charges =  -0.00000
 Mulliken charges with hydrogens summed into heavy atoms:
               1
     1  C   -0.036073
     2  C   -0.203106
     3  C    0.023313
     4  C   -0.068922
     5  C    0.157140
     6  C   -1.016359
     7  C   -0.493227
     8  C   -0.349618
     9  C   -0.323457
    10  C    0.416812
    11  C    0.082510
    12  C   -1.689082
    19  Cl   1.307692
    20  Cl   1.215324
    21  Cl   0.421378
    22  Cl   0.555678
 Electronic spatial extent (au):  <R**2>=           5709.0907
 Charge=             -0.0000 electrons
 Dipole moment (field-independent basis, Debye):
    X=             -3.0700    Y=             -0.6324    Z=              0.0000  Tot=              3.1345
 Quadrupole moment (field-independent basis, Debye-Ang):
   XX=           -117.2488   YY=           -114.7332   ZZ=           -124.4177
   XY=             -2.7119   XZ=             -0.0000   YZ=              0.0000
 Traceless Quadrupole moment (field-independent basis, Debye-Ang):
   XX=              1.5511   YY=              4.0667   ZZ=             -5.6178
   XY=             -2.7119   XZ=             -0.0000   YZ=              0.0000
 Octapole moment (field-independent basis, Debye-Ang**2):
  XXX=            -80.6875  YYY=             -9.6648  ZZZ=              0.0000  XYY=             -3.5432
  XXY=             19.5826  XXZ=              0.0002  XZZ=              9.8074  YZZ=             -8.5764
  YYZ=              0.0000  XYZ=              0.0000
 Hexadecapole moment (field-independent basis, Debye-Ang**3):
 XXXX=          -5153.8901 YYYY=          -2184.8542 ZZZZ=           -148.1989 XXXY=            -34.4906
 XXXZ=             -0.0006 YYYX=            -36.8763 YYYZ=              0.0002 ZZZX=              0.0001
 ZZZY=             -0.0000 XXYY=          -1213.4237 XXZZ=           -977.2063 YYZZ=           -409.2780
 XXYZ=             -0.0001 YYXZ=             -0.0003 ZZXY=             16.7026
 N-N= 1.500483031787D+03 E-N=-8.444959039255D+03  KE= 2.297005462979D+03
 Calling FoFJK, ICntrl=      2127 FMM=F ISym2X=0 I1Cent= 0 IOpClX= 0 NMat=1 NMatS=1 NMatT=0.
 ***** Axes restored to original set *****
 -------------------------------------------------------------------
 Center     Atomic                   Forces (Hartrees/Bohr)
 Number     Number              X              Y              Z
 -------------------------------------------------------------------
      1        6          -0.023389068   -0.032530737    0.001596397
      2        6          -0.006548807    0.019790047    0.005874313
      3        6          -0.018249111    0.004388920    0.006836613
      4        6          -0.005406306   -0.019469647   -0.001875650
      5        6          -0.000554431   -0.002855439   -0.000353424
      6        6           0.037172334   -0.012465125   -0.014587501
      7        6          -0.000510023    0.033575499    0.006473610
      8        6          -0.025991270    0.013738614    0.011143376
      9        6          -0.001938713    0.005276875    0.001629754
     10        6           0.010180643    0.014251439   -0.000677639
     11        6           0.012522277   -0.004291599   -0.004931646
     12        6           0.025391891   -0.117866641   -0.030501685
     13        1           0.001675224    0.005731185    0.000524399
     14        1           0.009289021   -0.000322121   -0.003120776
     15        1           0.003103359    0.009310499    0.000726166
     16        1          -0.002459207    0.006903219    0.002106706
     17        1           0.004187183   -0.007699765   -0.002825601
     18        1          -0.008775180   -0.004151188    0.002111395
     19       17          -0.250853008   -0.422166056    0.003362159
     20       17           0.240285045    0.540315029    0.022308543
     21       17          -0.000237071   -0.002704999   -0.000429895
     22       17           0.001105217   -0.026758008   -0.005389615
 -------------------------------------------------------------------
 Cartesian Forces:  Max     0.540315029 RMS     0.096560145

 GradGradGradGradGradGradGradGradGradGradGradGradGradGradGradGradGradGrad
 Berny optimization.
 FormGI is forming the generalized inverse of G from B-inverse, IUseBI=4.
 Internal  Forces:  Max     0.566314824 RMS     0.059706620
 Search for a local minimum.
 Step number   1 out of a maximum of  112
 All quantities printed in internal units (Hartrees-Bohrs-Radians)
 Mixed Optimization -- RFO/linear search
 Second derivative matrix not updated -- first step.
 ITU=  0
     Eigenvalues ---    0.00238   0.00238   0.01655   0.01655   0.02070
     Eigenvalues ---    0.02070   0.02070   0.02070   0.02070   0.02070
     Eigenvalues ---    0.02070   0.02070   0.02070   0.02070   0.02070
     Eigenvalues ---    0.02070   0.02070   0.02070   0.04301   0.16000
     Eigenvalues ---    0.16000   0.16000   0.16000   0.16000   0.16000
     Eigenvalues ---    0.22000   0.22408   0.23478   0.23493   0.24406
     Eigenvalues ---    0.25000   0.25000   0.25000   0.25000   0.25000
     Eigenvalues ---    0.25000   0.25000   0.29539   0.29539   0.29539
     Eigenvalues ---    0.29539   0.37230   0.37230   0.37230   0.37230
     Eigenvalues ---    0.37230   0.37230   0.41408   0.41554   0.41941
     Eigenvalues ---    0.42118   0.45389   0.45389   0.45389   0.45389
     Eigenvalues ---    0.45389   0.45389   0.45389   0.45389   1.32680
 RFO step:  Lambda=-2.78492337D-01 EMin= 2.37799083D-03
 Linear search not attempted -- first point.
 Maximum step size (   0.300) exceeded in Quadratic search.
    -- Step size scaled by   0.578
 Iteration  1 RMS(Cart)=  0.19338760 RMS(Int)=  0.00382830
 Iteration  2 RMS(Cart)=  0.00676421 RMS(Int)=  0.00003258
 Iteration  3 RMS(Cart)=  0.00004205 RMS(Int)=  0.00002986
 Iteration  4 RMS(Cart)=  0.00000000 RMS(Int)=  0.00002986
 Variable       Old X    -DE/DX   Delta X   Delta X   Delta X     New X
                                 (Linear)    (Quad)   (Total)
    R1        2.64826  -0.00172   0.00000  -0.00125  -0.00121   2.64705
    R2        2.64826  -0.00183   0.00000  -0.00121  -0.00116   2.64710
    R3        2.64826  -0.00296   0.00000  -0.00246  -0.00247   2.64580
    R4        2.02201  -0.00424   0.00000  -0.00376  -0.00376   2.01824
    R5        2.64826  -0.01585   0.00000  -0.01274  -0.01279   2.63548
    R6        2.02201   0.00979   0.00000   0.00869   0.00869   2.03070
    R7        2.64826  -0.01597   0.00000  -0.01272  -0.01275   2.63551
    R8        2.02201   0.00960   0.00000   0.00852   0.00852   2.03053
    R9        2.64826  -0.00603   0.00000  -0.00464  -0.00463   2.64363
   R10        2.02201   0.00755   0.00000   0.00670   0.00670   2.02871
   R11        3.32592  -0.00485   0.00000  -0.00489  -0.00489   3.32103
   R12        2.64826   0.01598   0.00000   0.01313   0.01317   2.66143
   R13        2.64826   0.00017   0.00000   0.00073   0.00078   2.64904
   R14        2.64826  -0.00980   0.00000  -0.00780  -0.00781   2.64045
   R15        3.32592   0.00215   0.00000   0.00216   0.00216   3.32808
   R16        2.64826  -0.02521   0.00000  -0.02049  -0.02053   2.62773
   R17        2.02201   0.00921   0.00000   0.00818   0.00818   2.03018
   R18        2.64826  -0.01941   0.00000  -0.01584  -0.01588   2.63238
   R19        3.32592   0.00245   0.00000   0.00247   0.00247   3.32839
   R20        2.64826   0.00114   0.00000   0.00097   0.00098   2.64924
   R21        2.02201   0.00909   0.00000   0.00807   0.00807   2.03007
   R22        3.32592   0.09556   0.00000   0.09623   0.09623   3.42215
   R23        3.16132   0.56631   0.00000   0.20387   0.20387   3.36520
    A1        2.09440  -0.03557   0.00000  -0.03833  -0.03822   2.05618
    A2        2.09440   0.01469   0.00000   0.01690   0.01692   2.11131
    A3        2.09440  -0.00306   0.00000  -0.00280  -0.00281   2.09159
    A4        2.09440  -0.01163   0.00000  -0.01410  -0.01411   2.08029
    A5        2.09440   0.00531   0.00000   0.00550   0.00544   2.09983
    A6        2.09440  -0.00320   0.00000  -0.00347  -0.00344   2.09095
    A7        2.09440  -0.00211   0.00000  -0.00203  -0.00200   2.09240
    A8        2.09440  -0.00582   0.00000  -0.00740  -0.00748   2.08691
    A9        2.09440   0.00510   0.00000   0.00658   0.00662   2.10102
   A10        2.09440   0.00072   0.00000   0.00082   0.00086   2.09525
   A11        2.09440  -0.00512   0.00000  -0.00605  -0.00608   2.08832
   A12        2.09440   0.00147   0.00000   0.00159   0.00160   2.09600
   A13        2.09440   0.00365   0.00000   0.00446   0.00447   2.09887
   A14        2.09440   0.02651   0.00000   0.02938   0.02942   2.12382
   A15        2.09440  -0.01203   0.00000  -0.01335  -0.01337   2.08103
   A16        2.09440  -0.01448   0.00000  -0.01603  -0.01606   2.07834
   A17        2.09440  -0.03598   0.00000  -0.03722  -0.03710   2.05730
   A18        2.09440   0.01852   0.00000   0.02074   0.02076   2.11516
   A19        2.09440   0.03603   0.00000   0.03915   0.03914   2.13354
   A20        2.09440  -0.05455   0.00000  -0.05989  -0.05991   2.03449
   A21        2.09440   0.00225   0.00000   0.00144   0.00137   2.09577
   A22        2.09440  -0.00122   0.00000  -0.00085  -0.00082   2.09358
   A23        2.09440  -0.00102   0.00000  -0.00059  -0.00055   2.09384
   A24        2.09440  -0.00297   0.00000  -0.00500  -0.00510   2.08930
   A25        2.09440  -0.00058   0.00000   0.00024   0.00029   2.09469
   A26        2.09440   0.00355   0.00000   0.00476   0.00480   2.09920
   A27        2.09440   0.00409   0.00000   0.00387   0.00383   2.09822
   A28        2.09440  -0.00611   0.00000  -0.00729  -0.00727   2.08712
   A29        2.09440   0.00202   0.00000   0.00342   0.00344   2.09784
   A30        2.09440   0.01409   0.00000   0.01618   0.01623   2.11062
   A31        2.09440   0.00551   0.00000   0.00565   0.00562   2.10002
   A32        2.09440  -0.01961   0.00000  -0.02182  -0.02185   2.07255
   A33        2.09440   0.13060   0.00000   0.14281   0.14281   2.23720
   A34        2.09440  -0.06993   0.00000  -0.07647  -0.07647   2.01793
    D1        0.00000   0.00000   0.00000   0.00000   0.00000   0.00000
    D2        3.14159   0.00000   0.00000   0.00000   0.00000   3.14159
    D3       -0.00000  -0.00000   0.00000  -0.00000  -0.00000  -0.00000
    D4        3.14159   0.00000   0.00000   0.00000   0.00000   3.14159
    D5        0.00000  -0.00000   0.00000  -0.00000  -0.00000   0.00000
    D6        3.14159  -0.00000   0.00000  -0.00000  -0.00000   3.14159
    D7       -3.14159  -0.00000   0.00000  -0.00000  -0.00000  -3.14159
    D8        0.00000  -0.00000   0.00000  -0.00000  -0.00000   0.00000
    D9       -0.00000   0.00000   0.00000   0.00000   0.00000  -0.00000
   D10        3.14159  -0.00000   0.00000  -0.00000  -0.00000   3.14159
   D11        3.14159   0.00000   0.00000   0.00000   0.00000   3.14159
   D12        0.00000  -0.00000   0.00000  -0.00000  -0.00000   0.00000
   D13        0.00000  -0.00000   0.00000  -0.00000  -0.00000   0.00000
   D14       -3.14159  -0.00000   0.00000  -0.00000  -0.00000  -3.14159
   D15       -3.14159  -0.00000   0.00000  -0.00000  -0.00000  -3.14159
   D16        0.00000  -0.00000   0.00000  -0.00000  -0.00000   0.00000
   D17       -0.00000   0.00000   0.00000   0.00000   0.00000  -0.00000
   D18        3.14159  -0.00000   0.00000  -0.00000  -0.00000   3.14159
   D19        3.14159   0.00000   0.00000   0.00000   0.00000   3.14159
   D20       -0.00000  -0.00000   0.00000  -0.00000  -0.00000  -0.00000
   D21        0.00001  -0.00000   0.00000  -0.00000  -0.00000   0.00001
   D22       -3.14159  -0.00000   0.00000  -0.00000  -0.00000  -3.14159
   D23        0.00000   0.00000   0.00000   0.00000   0.00000   0.00000
   D24       -3.14159  -0.00000   0.00000  -0.00000  -0.00000  -3.14159
   D25       -0.00000  -0.00000   0.00000  -0.00000  -0.00000  -0.00000
   D26        3.14159   0.00000   0.00000   0.00000   0.00000   3.14159
   D27       -0.00000  -0.00000   0.00000  -0.00000  -0.00000  -0.00000
   D28        3.14159  -0.00000   0.00000  -0.00000  -0.00000   3.14159
   D29        3.14159   0.00000   0.00000   0.00000   0.00000   3.14159
   D30       -0.00000   0.00000   0.00000   0.00000   0.00000  -0.00000
   D31       -0.00000   0.00000   0.00000   0.00000   0.00000  -0.00000
   D32       -3.14159  -0.00000   0.00000  -0.00000  -0.00000  -3.14159
   D33        3.14159   0.00000   0.00000   0.00000   0.00000   3.14159
   D34        0.00000   0.00000   0.00000   0.00000   0.00000   0.00000
   D35        0.00000  -0.00000   0.00000  -0.00000  -0.00000   0.00000
   D36       -3.14159  -0.00000   0.00000  -0.00000  -0.00000  -3.14159
   D37        3.14159   0.00000   0.00000   0.00000   0.00000   3.14159
   D38        0.00000  -0.00000   0.00000  -0.00000  -0.00000   0.00000
   D39        0.00000   0.00000   0.00000   0.00000   0.00000   0.00000
   D40       -3.14159  -0.00000   0.00000  -0.00000  -0.00000  -3.14159
   D41        3.14159   0.00000   0.00000   0.00000   0.00000   3.14159
   D42       -0.00000  -0.00000   0.00000  -0.00000  -0.00000  -0.00000
   D43        0.00001  -0.00000   0.00000  -0.00000  -0.00000   0.00001
   D44       -3.14159   0.00000   0.00000   0.00000   0.00000  -3.14159
   D45       -0.00001  -0.00000   0.00000  -0.00000  -0.00000  -0.00001
         Item               Value     Threshold  Converged?
 Maximum Force            0.566315     0.000450     NO 
 RMS     Force            0.059707     0.000300     NO 
 Maximum Displacement     0.977029     0.001800     NO 
 RMS     Displacement     0.197217     0.001200     NO 
 Predicted change in Energy=-1.269689D-01
 GradGradGradGradGradGradGradGradGradGradGradGradGradGradGradGradGradGrad

                          Input orientation:                          
 ---------------------------------------------------------------------
 Center     Atomic      Atomic             Coordinates (Angstroms)
 Number     Number       Type             X           Y           Z
 ---------------------------------------------------------------------
      1          6           0       -0.399038    2.255935    0.909026
      2          6           0        0.933601    2.337986    0.485393
      3          6           0        1.617028    3.559941    0.489728
      4          6           0        0.977442    4.722622    0.918804
      5          6           0       -0.349276    4.661322    1.344381
      6          6           0       -1.022844    3.435232    1.336021
      7          6           0       -1.409652    0.146327    0.845768
      8          6           0       -0.898467   -1.102596    0.442795
      9          6           0       -1.686987   -2.255297    0.486093
     10          6           0       -3.001898   -2.183820    0.932727
     11          6           0       -3.528302   -0.958858    1.336215
     12          6           0       -2.737271    0.197757    1.292825
     13          1           0        1.440701    1.458705    0.153192
     14          1           0        2.639195    3.601378    0.160754
     15          1           0        1.500902    5.660998    0.922583
     16          1           0       -0.849722    5.551174    1.676375
     17          1           0       -1.276750   -3.197861    0.173914
     18          1           0       -4.544389   -0.905935    1.680917
     19         17           0       -3.461978    1.769130    1.826706
     20         17           0       -2.694352    3.375234    1.875436
     21         17           0       -3.994398   -3.637863    0.986637
     22         17           0        0.752508   -1.298983   -0.138015
 ---------------------------------------------------------------------
                    Distance matrix (angstroms):
                    1          2          3          4          5
     1  C    0.000000
     2  C    1.400758   0.000000
     3  C    2.437368   1.400095   0.000000
     4  C    2.824772   2.424100   1.394634   0.000000
     5  C    2.444973   2.789539   2.410358   1.394652   0.000000
     6  C    1.400785   2.398998   2.775011   2.415075   1.398949
     7  C    2.340041   3.228633   4.576059   5.161979   4.664567
     8  C    3.427322   3.898191   5.298034   6.138305   5.859797
     9  C    4.710509   5.288263   6.688312   7.481829   7.096882
    10  C    5.146540   6.011239   7.383869   7.970840   7.352675
    11  C    4.506625   5.612633   6.900036   7.263275   6.456987
    12  C    3.138588   4.325255   5.559601   5.866293   5.062469
    13  H    2.142779   1.068009   2.135308   3.384365   3.857422
    14  H    3.406022   2.147231   1.074601   2.143187   3.384585
    15  H    3.899283   3.399320   2.148323   1.074511   2.144860
    16  H    3.413289   3.863063   3.384966   2.144514   1.073547
    17  H    5.572671   5.968942   7.358096   8.268634   7.999810
    18  H    5.270405   6.477706   7.702340   7.921621   6.979009
    19  Cl   3.234303   4.630749   5.548948   5.408868   4.276251
    20  Cl   2.730429   4.021211   4.532361   4.026496   2.726796
    21  Cl   6.904310   7.761906   9.140208   9.727359   9.071459
    22  Cl   3.880696   3.694452   4.974997   6.117777   6.239925
                    6          7          8          9         10
     6  C    0.000000
     7  C    3.347665   0.000000
     8  C    4.626576   1.408371   0.000000
     9  C    5.791854   2.444192   1.397267   0.000000
    10  C    5.971018   2.823543   2.415265   1.390534   0.000000
    11  C    5.058195   2.439395   2.781167   2.407053   1.392996
    12  C    3.663656   1.401812   2.407212   2.787720   2.423140
    13  H    3.372654   3.213489   3.480782   4.866935   5.797616
    14  H    3.849595   5.366543   5.892535   7.288507   8.117043
    15  H    3.390318   6.236090   7.192592   8.545225   9.045247
    16  H    2.150122   5.496890   6.767330   7.940955   8.063189
    17  H    6.738908   3.413597   2.146050   1.074327   2.140143
    18  H    5.600532   3.410470   3.855434   3.378333   2.138237
    19  Cl   2.994336   2.794239   4.090674   4.598244   4.078809
    20  Cl   1.757415   3.624432   5.032755   5.886249   5.646802
    21  Cl   7.679901   4.584850   4.038333   2.736089   1.761307
    22  Cl   5.266636   2.780592   1.761144   2.693544   4.003123
                   11         12         13         14         15
    11  C    0.000000
    12  C    1.401916   0.000000
    13  H    5.651118   4.510455   0.000000
    14  H    7.759863   6.463173   2.455095   0.000000
    15  H    8.323849   6.924319   4.272570   2.473485   0.000000
    16  H    7.047767   5.689379   4.930967   4.274500   2.470970
    17  H    3.381356   3.862034   5.391528   7.846302   9.314250
    18  H    1.074269   2.152772   6.614134   8.615721   8.957970
    19  Cl   2.772525   1.810923   5.189728   6.584592   6.371362
    20  Cl   4.446412   3.230733   4.872153   5.606959   4.871632
    21  Cl   2.741627   4.047975   7.497329   9.853590  10.801446
    22  Cl   4.540305   4.057844   2.857141   5.259504   7.079993
                   16         17         18         19         20
    16  H    0.000000
    17  H    8.887371   0.000000
    18  H    7.439411   4.266316   0.000000
    19  Cl   4.598950   5.672561   2.889435   0.000000
    20  Cl   2.859546   6.936163   4.667856   1.780785   0.000000
    21  Cl   9.736690   2.870493   2.871924   5.497705   7.187740
    22  Cl   7.265247   2.796592   5.614279   5.570938   6.146799
                   21         22
    21  Cl   0.000000
    22  Cl   5.410021   0.000000
 Stoichiometry    C12H6Cl4
 Framework group  C1[X(C12H6Cl4)]
 Deg. of freedom    60
 Full point group                 C1      NOp   1
 Largest Abelian subgroup         C1      NOp   1
 Largest concise Abelian subgroup C1      NOp   1
                         Standard orientation:                         
 ---------------------------------------------------------------------
 Center     Atomic      Atomic             Coordinates (Angstroms)
 Number     Number       Type             X           Y           Z
 ---------------------------------------------------------------------
      1          6           0       -1.867367    0.524119    0.000003
      2          6           0       -2.437056    1.803798    0.000007
      3          6           0       -3.826800    1.973736    0.000008
      4          6           0       -4.671606    0.864093    0.000006
      5          6           0       -4.123411   -0.418302   -0.000000
      6          6           0       -2.733472   -0.576817   -0.000002
      7          6           0        0.469249    0.397576   -0.000005
      8          6           0        1.441818    1.416211   -0.000005
      9          6           0        2.806044    1.114142   -0.000003
     10          6           0        3.226351   -0.211348    0.000000
     11          6           0        2.281705   -1.235107    0.000002
     12          6           0        0.912909   -0.932177   -0.000000
     13          1           0       -1.806836    2.666043    0.000011
     14          1           0       -4.243767    2.964142    0.000012
     15          1           0       -5.738326    0.993248    0.000007
     16          1           0       -4.765929   -1.278345   -0.000005
     17          1           0        3.530994    1.907001   -0.000004
     18          1           0        2.608642   -2.258418    0.000007
     19         17           0       -0.280572   -2.294178    0.000003
     20         17           0       -2.058843   -2.199588   -0.000008
     21         17           0        4.946417   -0.590259    0.000006
     22         17           0        1.013295    3.124424   -0.000006
 ---------------------------------------------------------------------
 Rotational constants (GHZ):           0.5565699           0.2194461           0.1573899
 Standard basis: 6-311+G(d,p) (5D, 7F)
 There are   436 symmetry adapted cartesian basis functions of A   symmetry.
 There are   420 symmetry adapted basis functions of A   symmetry.
   420 basis functions,   692 primitive gaussians,   436 cartesian basis functions
    73 alpha electrons       73 beta electrons
       nuclear repulsion energy      1461.0045874231 Hartrees.
 NAtoms=   22 NActive=   22 NUniq=   22 SFac= 1.00D+00 NAtFMM=   60 NAOKFM=F Big=F
 Integral buffers will be    131072 words long.
 Raffenetti 2 integral format.
 Two-electron integral symmetry is turned on.
 One-electron integrals computed using PRISM.
 NBasis=   420 RedAO= T EigKep=  1.01D-06  NBF=   420
 NBsUse=   417 1.00D-06 EigRej=  7.69D-07 NBFU=   417
 Initial guess from the checkpoint file:  "./Gau-212402.chk"
 B after Tr=     0.000000    0.000000   -0.000000
         Rot=    0.999632   -0.000000    0.000000    0.027144 Ang=  -3.11 deg.
 ExpMin= 4.38D-02 ExpMax= 1.06D+05 ExpMxC= 3.62D+03 IAcc=3 IRadAn=         5 AccDes= 0.00D+00
 Harris functional with IExCor=  402 and IRadAn=       5 diagonalized for initial guess.
 HarFok:  IExCor=  402 AccDes= 0.00D+00 IRadAn=         5 IDoV= 1 UseB2=F ITyADJ=14
 ICtDFT=  3500011 ScaDFX=  1.000000  1.000000  1.000000  1.000000
 FoFCou: FMM=F IPFlag=           0 FMFlag=      100000 FMFlg1=           0
         NFxFlg=           0 DoJE=T BraDBF=F KetDBF=T FulRan=T
         wScrn=  0.000000 ICntrl=       500 IOpCl=  0 I1Cent=   200000004 NGrid=           0
         NMat0=    1 NMatS0=      1 NMatT0=    0 NMatD0=    1 NMtDS0=    0 NMtDT0=    0
 Petite list used in FoFCou.
 Requested convergence on RMS density matrix=1.00D-08 within  32 cycles.
 Requested convergence on MAX density matrix=1.00D-06.
 Requested convergence on             energy=1.00D-06.
 No special actions if energy rises.
 SCF Done:  E(RB3LYP) =  -2301.44347593     A.U. after   20 cycles
            NFock= 20  Conv=0.56D-08     -V/T= 2.0022
 QCSCF skips out because SCF is already converged.
 Calling FoFJK, ICntrl=      2127 FMM=F ISym2X=0 I1Cent= 0 IOpClX= 0 NMat=1 NMatS=1 NMatT=0.
 ***** Axes restored to original set *****
 -------------------------------------------------------------------
 Center     Atomic                   Forces (Hartrees/Bohr)
 Number     Number              X              Y              Z
 -------------------------------------------------------------------
      1        6          -0.005627201   -0.022838432   -0.002435506
      2        6          -0.010774174    0.007048993    0.004873523
      3        6          -0.009471414    0.000172820    0.003152996
      4        6          -0.004016999   -0.013387619   -0.001191143
      5        6          -0.005102476    0.000992425    0.001867537
      6        6           0.016441342   -0.028137832   -0.010700887
      7        6          -0.028626364    0.014043613    0.012068970
      8        6          -0.009577468    0.022122338    0.007310349
      9        6          -0.001259679   -0.000242748    0.000369325
     10        6           0.005819177    0.007205886   -0.000563829
     11        6           0.003068372    0.001153965   -0.000794198
     12        6           0.024494254   -0.088144273   -0.024624058
     13        1           0.003536725   -0.009243560   -0.002901280
     14        1           0.006245545   -0.000548760   -0.002160658
     15        1           0.001407444    0.005942190    0.000652293
     16        1          -0.002260922    0.004876244    0.001660724
     17        1           0.003073886   -0.004468062   -0.001851858
     18        1          -0.006442369   -0.001749645    0.001793852
     19       17          -0.102567927   -0.297413100   -0.022062714
     20       17           0.116733156    0.398581748    0.036395769
     21       17           0.001360824    0.001562215   -0.000154966
     22       17           0.003546270    0.002471597   -0.000704240
 -------------------------------------------------------------------
 Cartesian Forces:  Max     0.398581748 RMS     0.065911807

 GradGradGradGradGradGradGradGradGradGradGradGradGradGradGradGradGradGrad
 Berny optimization.
 Using GEDIIS/GDIIS optimizer.
 FormGI is forming the generalized inverse of G from B-inverse, IUseBI=4.
 Internal  Forces:  Max     0.356738125 RMS     0.046025902
 Search for a local minimum.
 Step number   2 out of a maximum of  112
 All quantities printed in internal units (Hartrees-Bohrs-Radians)
 Mixed Optimization -- RFO/linear search
 Update second derivatives using D2CorX and points    1    2
 DE= -1.16D-01 DEPred=-1.27D-01 R= 9.13D-01
 TightC=F SS=  1.41D+00  RLast= 3.00D-01 DXNew= 5.0454D-01 9.0000D-01
 Trust test= 9.13D-01 RLast= 3.00D-01 DXMaxT set to 5.05D-01
 ITU=  1  0
 Use linear search instead of GDIIS.
 Linear search step of   0.600 exceeds DXMaxT=   0.505 but not scaled.
 Quartic linear search produced a step of  2.00000.
 Iteration  1 RMS(Cart)=  0.21926476 RMS(Int)=  0.02341663
 Iteration  2 RMS(Cart)=  0.16492440 RMS(Int)=  0.00172429
 Iteration  3 RMS(Cart)=  0.00463742 RMS(Int)=  0.00017622
 Iteration  4 RMS(Cart)=  0.00000276 RMS(Int)=  0.00017621
 Iteration  5 RMS(Cart)=  0.00000000 RMS(Int)=  0.00017621
 Variable       Old X    -DE/DX   Delta X   Delta X   Delta X     New X
                                 (Linear)    (Quad)   (Total)
    R1        2.64705  -0.01178  -0.00242   0.00000  -0.00224   2.64481
    R2        2.64710   0.01042  -0.00233   0.00000  -0.00207   2.64503
    R3        2.64580   0.00088  -0.00493   0.00000  -0.00499   2.64080
    R4        2.01824   0.01019  -0.00752   0.00000  -0.00752   2.01072
    R5        2.63548   0.00363  -0.02557   0.00000  -0.02583   2.60965
    R6        2.03070   0.00658   0.01739   0.00000   0.01739   2.04809
    R7        2.63551  -0.00181  -0.02550   0.00000  -0.02570   2.60981
    R8        2.03053   0.00588   0.01705   0.00000   0.01705   2.04758
    R9        2.64363  -0.00897  -0.00926   0.00000  -0.00920   2.63443
   R10        2.02871   0.00561   0.01341   0.00000   0.01341   2.04211
   R11        3.32103  -0.00883  -0.00977   0.00000  -0.00977   3.31126
   R12        2.66143  -0.02662   0.02634   0.00000   0.02656   2.68800
   R13        2.64904  -0.04211   0.00156   0.00000   0.00183   2.65087
   R14        2.64045   0.00114  -0.01562   0.00000  -0.01567   2.62479
   R15        3.32808   0.00328   0.00432   0.00000   0.00432   3.33240
   R16        2.62773   0.00434  -0.04107   0.00000  -0.04135   2.58638
   R17        2.03018   0.00563   0.01635   0.00000   0.01635   2.04654
   R18        2.63238   0.00123  -0.03176   0.00000  -0.03199   2.60039
   R19        3.32839  -0.00206   0.00494   0.00000   0.00494   3.33333
   R20        2.64924  -0.00720   0.00195   0.00000   0.00200   2.65124
   R21        2.03007   0.00658   0.01614   0.00000   0.01614   2.04621
   R22        3.42215   0.04024   0.19246   0.00000   0.19246   3.61461
   R23        3.36520   0.35674   0.40775   0.00000   0.40775   3.77294
    A1        2.05618  -0.00765  -0.07644   0.00000  -0.07577   1.98041
    A2        2.11131  -0.00308   0.03383   0.00000   0.03394   2.14525
    A3        2.09159  -0.00006  -0.00562   0.00000  -0.00567   2.08591
    A4        2.08029   0.00313  -0.02821   0.00000  -0.02827   2.05202
    A5        2.09983   0.00482   0.01088   0.00000   0.01052   2.11036
    A6        2.09095  -0.00324  -0.00688   0.00000  -0.00670   2.08425
    A7        2.09240  -0.00158  -0.00400   0.00000  -0.00382   2.08858
    A8        2.08691   0.00353  -0.01497   0.00000  -0.01547   2.07144
    A9        2.10102   0.00004   0.01325   0.00000   0.01350   2.11452
   A10        2.09525  -0.00357   0.00172   0.00000   0.00197   2.09722
   A11        2.08832  -0.01515  -0.01216   0.00000  -0.01234   2.07597
   A12        2.09600   0.00714   0.00321   0.00000   0.00330   2.09930
   A13        2.09887   0.00801   0.00895   0.00000   0.00904   2.10791
   A14        2.12382   0.01754   0.05885   0.00000   0.05912   2.18294
   A15        2.08103  -0.04243  -0.02674   0.00000  -0.02688   2.05415
   A16        2.07834   0.02489  -0.03211   0.00000  -0.03225   2.04609
   A17        2.05730   0.00539  -0.07419   0.00000  -0.07344   1.98386
   A18        2.11516  -0.00327   0.04153   0.00000   0.04166   2.15682
   A19        2.13354  -0.00319   0.07828   0.00000   0.07822   2.21175
   A20        2.03449   0.00646  -0.11981   0.00000  -0.11988   1.91461
   A21        2.09577  -0.00448   0.00274   0.00000   0.00236   2.09813
   A22        2.09358   0.00117  -0.00163   0.00000  -0.00144   2.09213
   A23        2.09384   0.00332  -0.00111   0.00000  -0.00092   2.09292
   A24        2.08930   0.00231  -0.01019   0.00000  -0.01076   2.07854
   A25        2.09469  -0.00158   0.00058   0.00000   0.00087   2.09555
   A26        2.09920  -0.00072   0.00961   0.00000   0.00989   2.10909
   A27        2.09822  -0.02022   0.00766   0.00000   0.00743   2.10565
   A28        2.08712   0.00797  -0.01454   0.00000  -0.01443   2.07270
   A29        2.09784   0.01225   0.00688   0.00000   0.00700   2.10483
   A30        2.11062   0.02027   0.03246   0.00000   0.03275   2.14337
   A31        2.10002  -0.08469   0.01124   0.00000   0.01110   2.11111
   A32        2.07255   0.06442  -0.04370   0.00000  -0.04385   2.02870
   A33        2.23720  -0.06723   0.28562   0.00000   0.28562   2.52282
   A34        2.01793  -0.25237  -0.15293   0.00000  -0.15293   1.86500
    D1        0.00000  -0.00000   0.00000   0.00000   0.00000   0.00000
    D2        3.14159   0.00000   0.00000   0.00000   0.00000   3.14159
    D3       -0.00000   0.00000  -0.00000   0.00000  -0.00000  -0.00000
    D4        3.14159  -0.00000   0.00000   0.00000   0.00000   3.14159
    D5        0.00000  -0.00000  -0.00000   0.00000  -0.00000   0.00000
    D6        3.14159   0.00000  -0.00000   0.00000  -0.00000   3.14159
    D7       -3.14159  -0.00000  -0.00000   0.00000  -0.00000  -3.14159
    D8        0.00000  -0.00000  -0.00000   0.00000  -0.00000   0.00000
    D9       -0.00000   0.00000   0.00000   0.00000   0.00000  -0.00000
   D10        3.14159   0.00000  -0.00000   0.00000  -0.00000   3.14159
   D11        3.14159   0.00000   0.00000   0.00000   0.00000   3.14159
   D12        0.00000  -0.00000  -0.00000   0.00000  -0.00000   0.00000
   D13        0.00000  -0.00000  -0.00000   0.00000  -0.00000   0.00000
   D14       -3.14159  -0.00000  -0.00000   0.00000  -0.00000  -3.14159
   D15       -3.14159  -0.00000  -0.00000   0.00000  -0.00000  -3.14159
   D16        0.00000  -0.00000  -0.00000   0.00000  -0.00000   0.00000
   D17       -0.00000   0.00000   0.00000   0.00000   0.00000   0.00000
   D18        3.14159   0.00000  -0.00000   0.00000  -0.00000   3.14159
   D19        3.14159  -0.00000   0.00000   0.00000   0.00000   3.14159
   D20       -0.00000   0.00000  -0.00000   0.00000  -0.00000  -0.00000
   D21        0.00001   0.00000  -0.00000   0.00000  -0.00000   0.00000
   D22       -3.14159   0.00000  -0.00000   0.00000  -0.00000  -3.14159
   D23        0.00000   0.00000   0.00000   0.00000   0.00000   0.00000
   D24       -3.14159  -0.00000  -0.00000   0.00000  -0.00000  -3.14159
   D25       -0.00000   0.00000  -0.00000   0.00000  -0.00000  -0.00000
   D26        3.14159   0.00000   0.00000   0.00000   0.00000   3.14159
   D27       -0.00000  -0.00000  -0.00000   0.00000  -0.00000  -0.00000
   D28        3.14159  -0.00000  -0.00000   0.00000  -0.00000   3.14159
   D29        3.14159   0.00000   0.00000   0.00000   0.00000   3.14159
   D30       -0.00000   0.00000   0.00000   0.00000   0.00000  -0.00000
   D31       -0.00000   0.00000   0.00000   0.00000   0.00000  -0.00000
   D32       -3.14159  -0.00000  -0.00000   0.00000  -0.00000  -3.14159
   D33        3.14159   0.00000   0.00000   0.00000   0.00000  -3.14159
   D34        0.00000  -0.00000   0.00000   0.00000   0.00000   0.00000
   D35        0.00000   0.00000  -0.00000   0.00000  -0.00000  -0.00000
   D36       -3.14159  -0.00000  -0.00000   0.00000  -0.00000  -3.14159
   D37        3.14159   0.00000   0.00000   0.00000   0.00000   3.14159
   D38        0.00000  -0.00000  -0.00000   0.00000  -0.00000   0.00000
   D39        0.00000  -0.00000   0.00000   0.00000   0.00000   0.00000
   D40       -3.14159  -0.00000  -0.00000   0.00000  -0.00000   3.14159
   D41        3.14159   0.00000   0.00000   0.00000   0.00000   3.14159
   D42       -0.00000   0.00000  -0.00000   0.00000  -0.00000  -0.00000
   D43        0.00001   0.00000  -0.00000   0.00000  -0.00000   0.00001
   D44       -3.14159   0.00000   0.00000   0.00000   0.00000  -3.14159
   D45       -0.00001   0.00000  -0.00001   0.00000  -0.00001  -0.00002
         Item               Value     Threshold  Converged?
 Maximum Force            0.356738     0.000450     NO 
 RMS     Force            0.046026     0.000300     NO 
 Maximum Displacement     1.863784     0.001800     NO 
 RMS     Displacement     0.370377     0.001200     NO 
 Predicted change in Energy=-1.667759D-02
 GradGradGradGradGradGradGradGradGradGradGradGradGradGradGradGradGradGrad

                          Input orientation:                          
 ---------------------------------------------------------------------
 Center     Atomic      Atomic             Coordinates (Angstroms)
 Number     Number       Type             X           Y           Z
 ---------------------------------------------------------------------
      1          6           0       -0.301338    2.513643    0.925240
      2          6           0        1.026283    2.698140    0.522504
      3          6           0        1.661267    3.942757    0.547055
      4          6           0        0.993352    5.071602    0.979106
      5          6           0       -0.319843    4.948800    1.388674
      6          6           0       -0.923481    3.692728    1.351644
      7          6           0       -1.246731   -0.282355    0.711574
      8          6           0       -0.977761   -1.636374    0.368662
      9          6           0       -1.911481   -2.658152    0.484391
     10          6           0       -3.170694   -2.391057    0.949420
     11          6           0       -3.495086   -1.100201    1.298729
     12          6           0       -2.551142   -0.068917    1.181417
     13          1           0        1.590854    1.863883    0.179827
     14          1           0        2.692241    4.020907    0.222077
     15          1           0        1.481918    6.038515    0.999741
     16          1           0       -0.866961    5.815293    1.731654
     17          1           0       -1.641852   -3.669316    0.205652
     18          1           0       -4.492824   -0.894995    1.665991
     19         17           0       -3.136255    1.676187    1.701936
     20         17           0       -2.590511    3.588319    1.881239
     21         17           0       -4.353401   -3.691625    1.094825
     22         17           0        0.539498   -2.285255   -0.253083
 ---------------------------------------------------------------------
                    Distance matrix (angstroms):
                    1          2          3          4          5
     1  C    0.000000
     2  C    1.399575   0.000000
     3  C    2.457072   1.397454   0.000000
     4  C    2.867451   2.417207   1.380967   0.000000
     5  C    2.478932   2.761842   2.375971   1.381053   0.000000
     6  C    1.399687   2.340568   2.718602   2.390465   1.394083
     7  C    2.959228   3.753092   5.131773   5.809854   5.355612
     8  C    4.241459   4.777853   6.174382   7.018182   6.696104
     9  C    5.434554   6.109155   7.506028   8.272357   7.824114
    10  C    5.682418   6.610356   7.976649   8.545843   7.886304
    11  C    4.837292   5.955896   7.251510   7.638022   6.832325
    12  C    3.434657   4.570421   5.851524   6.247344   5.495375
    13  H    2.134999   1.064027   2.112234   3.359363   3.824760
    14  H    3.424586   2.148344   1.083802   2.136183   3.360741
    15  H    3.950984   3.404917   2.151579   1.083533   2.141282
    16  H    3.445450   3.842272   3.361786   2.140133   1.080641
    17  H    6.367399   6.911139   8.304866   9.162214   8.798816
    18  H    5.453081   6.684215   7.907509   8.134508   7.186141
    19  Cl   3.056362   4.445466   5.430221   5.394903   4.329008
    20  Cl   2.703549   3.964817   4.470266   3.982216   2.692482
    21  Cl   7.413052   8.372434   9.734478  10.266222   9.540067
    22  Cl   5.012472   5.066826   6.378614   7.473127   7.467623
                    6          7          8          9         10
     6  C    0.000000
     7  C    4.039242   0.000000
     8  C    5.419274   1.422428   0.000000
     9  C    6.485519   2.477481   1.388977   0.000000
    10  C    6.498014   2.864406   2.390770   1.368653   0.000000
    11  C    5.439496   2.463477   2.736682   2.366044   1.376065
    12  C    4.102224   1.402782   2.364957   2.756656   2.414539
    13  H    3.322606   3.597358   4.345716   5.727819   6.431884
    14  H    3.802245   5.854330   6.745015   8.116212   8.718733
[...]

 **********************************************************************

            Population analysis using the SCF Density.

 **********************************************************************

 Orbital symmetries:
       Occupied  (A) (A) (A) (A) (A) (A) (A) (A) (A) (A) (A) (A)
                 (A) (A) (A) (A) (A) (A) (A) (A) (A) (A) (A) (A)
                 (A) (A) (A) (A) (A) (A) (A) (A) (A) (A) (A) (A)
                 (A) (A) (A) (A) (A) (A) (A) (A) (A) (A) (A) (A)
                 (A) (A) (A) (A) (A) (A) (A) (A) (A) (A) (A) (A)
                 (A) (A) (A) (A) (A) (A) (A) (A) (A) (A) (A) (A)
                 (A)
       Virtual   (A) (A) (A) (A) (A) (A) (A) (A) (A) (A) (A) (A)
                 (A) (A) (A) (A) (A) (A) (A) (A) (A) (A) (A) (A)
                 (A) (A) (A) (A) (A) (A) (A) (A) (A) (A) (A) (A)
                 (A) (A) (A) (A) (A) (A) (A) (A) (A) (A) (A) (A)
                 (A) (A) (A) (A) (A) (A) (A) (A) (A) (A) (A) (A)
                 (A) (A) (A) (A) (A) (A) (A) (A) (A) (A) (A) (A)
                 (A) (A) (A) (A) (A) (A) (A) (A) (A) (A) (A) (A)
                 (A) (A) (A) (A) (A) (A) (A) (A) (A) (A) (A) (A)
                 (A) (A) (A) (A) (A) (A) (A) (A) (A) (A) (A) (A)
                 (A) (A) (A) (A) (A) (A) (A) (A) (A) (A) (A) (A)
                 (A) (A) (A) (A) (A) (A) (A) (A) (A) (A) (A) (A)
                 (A) (A) (A) (A) (A) (A) (A) (A) (A) (A) (A) (A)
                 (A) (A) (A) (A) (A) (A) (A) (A) (A) (A) (A) (A)
                 (A) (A) (A) (A) (A) (A) (A) (A) (A) (A) (A) (A)
                 (A) (A) (A) (A) (A) (A) (A) (A) (A) (A) (A) (A)
                 (A) (A) (A) (A) (A) (A) (A) (A) (A) (A) (A) (A)
                 (A) (A) (A) (A) (A) (A) (A) (A) (A) (A) (A) (A)
                 (A) (A) (A) (A) (A) (A) (A) (A) (A) (A) (A) (A)
                 (A) (A) (A) (A) (A) (A) (A) (A) (A) (A) (A) (A)
                 (A) (A) (A) (A) (A) (A) (A) (A) (A) (A) (A) (A)
                 (A) (A) (A) (A) (A) (A) (A) (A) (A) (A) (A) (A)
                 (A) (A) (A) (A) (A) (A) (A) (A) (A) (A) (A) (A)
                 (A) (A) (A) (A) (A) (A) (A) (A) (A) (A) (A) (A)
                 (A) (A) (A) (A) (A) (A) (A) (A) (A) (A) (A) (A)
                 (A) (A) (A) (A) (A) (A) (A) (A) (A) (A) (A) (A)
                 (A) (A) (A) (A) (A) (A) (A) (A) (A) (A) (A) (A)
                 (A) (A) (A) (A) (A) (A) (A) (A) (A) (A) (A) (A)
                 (A) (A) (A) (A) (A) (A) (A) (A) (A) (A) (A) (A)
                 (A) (A) (A) (A) (A) (A) (A)
 The electronic state is 1-A.
 Alpha  occ. eigenvalues -- -101.57225-101.56977-101.56975-101.56073 -10.26839
 Alpha  occ. eigenvalues --  -10.26838 -10.26672 -10.25254 -10.22849 -10.21654
 Alpha  occ. eigenvalues --  -10.21350 -10.21349 -10.19968 -10.19931 -10.19825
 Alpha  occ. eigenvalues --  -10.19463  -9.48678  -9.48447  -9.48445  -9.47546
 Alpha  occ. eigenvalues --   -7.25151  -7.24920  -7.24919  -7.24156  -7.24118
 Alpha  occ. eigenvalues --   -7.24004  -7.23929  -7.23927  -7.23874  -7.23872
 Alpha  occ. eigenvalues --   -7.23030  -7.22989  -0.94189  -0.90959  -0.89287
 Alpha  occ. eigenvalues --   -0.89155  -0.85141  -0.83031  -0.80117  -0.76185
 Alpha  occ. eigenvalues --   -0.75697  -0.73934  -0.64884  -0.63269  -0.62710
 Alpha  occ. eigenvalues --   -0.60766  -0.55356  -0.52950  -0.52031  -0.49520
 Alpha  occ. eigenvalues --   -0.48742  -0.47557  -0.46154  -0.45397  -0.44637
 Alpha  occ. eigenvalues --   -0.43804  -0.41883  -0.41818  -0.40037  -0.38457
 Alpha  occ. eigenvalues --   -0.38187  -0.37993  -0.37517  -0.34573  -0.33910
 Alpha  occ. eigenvalues --   -0.33695  -0.32683  -0.32492  -0.32242  -0.27756
 Alpha  occ. eigenvalues --   -0.27093  -0.27007  -0.26227
 Alpha virt. eigenvalues --   -0.05244  -0.04979  -0.03889  -0.03356  -0.02848
 Alpha virt. eigenvalues --   -0.00505   0.00079   0.01361   0.01517   0.01620
 Alpha virt. eigenvalues --    0.01995   0.02403   0.03180   0.04208   0.04547
 Alpha virt. eigenvalues --    0.05232   0.05407   0.06174   0.06420   0.06461
 Alpha virt. eigenvalues --    0.07221   0.08486   0.08973   0.09154   0.09269
 Alpha virt. eigenvalues --    0.09507   0.09540   0.10390   0.11068   0.11070
 Alpha virt. eigenvalues --    0.11469   0.12370   0.12643   0.12794   0.12980
 Alpha virt. eigenvalues --    0.13319   0.13867   0.13970   0.14363   0.14903
 Alpha virt. eigenvalues --    0.15344   0.15759   0.15927   0.15955   0.17257
 Alpha virt. eigenvalues --    0.17646   0.17684   0.17960   0.18828   0.19204
 Alpha virt. eigenvalues --    0.19570   0.19614   0.20041   0.20307   0.20778
 Alpha virt. eigenvalues --    0.21034   0.21277   0.21288   0.21765   0.22671
 Alpha virt. eigenvalues --    0.23147   0.23328   0.23916   0.24118   0.24134
 Alpha virt. eigenvalues --    0.25604   0.25761   0.25819   0.26611   0.26903
 Alpha virt. eigenvalues --    0.27250   0.27259   0.27921   0.28582   0.28695
 Alpha virt. eigenvalues --    0.29155   0.30462   0.30690   0.31003   0.31096
 Alpha virt. eigenvalues --    0.32348   0.33132   0.33172   0.34930   0.36115
 Alpha virt. eigenvalues --    0.39705   0.40717   0.43370   0.44260   0.44619
 Alpha virt. eigenvalues --    0.45331   0.46598   0.46897   0.47207   0.47703
 Alpha virt. eigenvalues --    0.49245   0.50469   0.50540   0.50825   0.51300
 Alpha virt. eigenvalues --    0.52156   0.53354   0.53758   0.54471   0.55212
 Alpha virt. eigenvalues --    0.56521   0.57188   0.57565   0.57598   0.58580
 Alpha virt. eigenvalues --    0.58632   0.60119   0.60992   0.61617   0.61792
 Alpha virt. eigenvalues --    0.62607   0.63918   0.64215   0.65584   0.65673
 Alpha virt. eigenvalues --    0.66374   0.66525   0.67570   0.67877   0.68311
 Alpha virt. eigenvalues --    0.69549   0.69920   0.70268   0.71893   0.72571
 Alpha virt. eigenvalues --    0.73252   0.76772   0.77827   0.80987   0.81095
 Alpha virt. eigenvalues --    0.81629   0.82767   0.83167   0.83854   0.83872
 Alpha virt. eigenvalues --    0.83966   0.84449   0.84784   0.85124   0.85923
 Alpha virt. eigenvalues --    0.86094   0.86576   0.87613   0.89052   0.89522
 Alpha virt. eigenvalues --    0.90173   0.90395   0.91415   0.92074   0.92635
 Alpha virt. eigenvalues --    0.95029   0.95551   0.95897   0.95935   0.96054
 Alpha virt. eigenvalues --    0.97731   0.97867   0.98457   0.99737   0.99973
 Alpha virt. eigenvalues --    1.01825   1.03074   1.03242   1.04328   1.04442
 Alpha virt. eigenvalues --    1.05861   1.07441   1.09424   1.12538   1.13241
 Alpha virt. eigenvalues --    1.18745   1.19141   1.20619   1.22066   1.24055
 Alpha virt. eigenvalues --    1.24168   1.26062   1.27603   1.30723   1.30883
 Alpha virt. eigenvalues --    1.31312   1.32056   1.33425   1.34097   1.41065
 Alpha virt. eigenvalues --    1.43077   1.45299   1.48346   1.49151   1.49670
 Alpha virt. eigenvalues --    1.53405   1.54613   1.55065   1.55564   1.57380
 Alpha virt. eigenvalues --    1.57578   1.59049   1.60051   1.60361   1.64797
 Alpha virt. eigenvalues --    1.65112   1.68200   1.68712   1.71143   1.73366
 Alpha virt. eigenvalues --    1.73930   1.79021   1.80252   1.82573   1.83000
 Alpha virt. eigenvalues --    1.83044   1.85036   1.86419   1.87740   1.89623
 Alpha virt. eigenvalues --    1.92903   1.93435   1.94021   1.94519   1.95305
 Alpha virt. eigenvalues --    1.95979   1.99742   2.00101   2.01955   2.03549
 Alpha virt. eigenvalues --    2.04787   2.05374   2.05503   2.09484   2.15342
 Alpha virt. eigenvalues --    2.19486   2.21402   2.23699   2.26301   2.26478
 Alpha virt. eigenvalues --    2.26728   2.29565   2.30421   2.32013   2.34930
 Alpha virt. eigenvalues --    2.36706   2.38424   2.38997   2.39151   2.41528
 Alpha virt. eigenvalues --    2.44098   2.46483   2.48918   2.50726   2.51168
 Alpha virt. eigenvalues --    2.53678   2.55510   2.56101   2.58310   2.59608
 Alpha virt. eigenvalues --    2.62149   2.63873   2.68671   2.68903   2.70070
 Alpha virt. eigenvalues --    2.70440   2.71474   2.72102   2.73651   2.75209
 Alpha virt. eigenvalues --    2.75886   2.76298   2.78098   2.78865   2.80029
 Alpha virt. eigenvalues --    2.82392   2.83602   2.84064   2.84794   2.86939
 Alpha virt. eigenvalues --    2.90120   2.97223   2.99147   3.09895   3.10119
 Alpha virt. eigenvalues --    3.10158   3.12844   3.14510   3.18804   3.21992
 Alpha virt. eigenvalues --    3.22700   3.27759   3.32909   3.33547   3.38651
 Alpha virt. eigenvalues --    3.46447   3.52343   3.56683   3.59719   3.70298
 Alpha virt. eigenvalues --    3.70342   3.77748   3.84919   3.97419   4.02559
 Alpha virt. eigenvalues --    4.07395   4.07748   4.13567   4.36175   4.80512
 Alpha virt. eigenvalues --    4.82666   9.76653   9.80098   9.83501   9.84510
 Alpha virt. eigenvalues --   23.41060  23.59338  23.85000  23.85984  23.90352
 Alpha virt. eigenvalues --   23.92643  23.99217  24.03824  24.06257  24.08766
 Alpha virt. eigenvalues --   24.11597  24.17148  25.81731  25.81881  25.92498
 Alpha virt. eigenvalues --   25.97211  26.09882  26.22728  26.27907  26.33744
 Alpha virt. eigenvalues --   26.58714  26.63189  26.66452  26.92089 215.75738
 Alpha virt. eigenvalues --  215.79718 215.83791 215.85314
          Condensed to atoms (all electrons):
               1          2          3          4          5          6
     1  C   21.763064  -2.054006  -1.709095  -2.317915  -0.345815  -2.530347
     2  C   -2.054006   9.692885  -0.909055   1.218202   0.457249   1.396048
     3  C   -1.709095  -0.909055   9.370063  -0.901028   0.576608  -2.131150
     4  C   -2.317915   1.218202  -0.901028   8.548954   0.395984   0.745168
     5  C   -0.345815   0.457249   0.576608   0.395984   9.177017  -3.884571
     6  C   -2.530347   1.396048  -2.131150   0.745168  -3.884571  29.682874
     7  C    7.090620  -2.453948   1.193618  -1.603824  -0.463500  -6.626607
     8  C   -2.623875  -0.424392   0.041667  -0.056676   0.072149  -3.586409
     9  C   -4.213081  -0.083542   0.068150  -0.017688   0.149397  -1.802834
    10  C   -0.472753  -0.115765  -0.014731   0.008147   0.016521  -0.316121
    11  C   -4.231793  -0.092744   0.068097  -0.017570   0.149364  -1.799780
    12  C   -2.617145  -0.416240   0.042622  -0.057060   0.072307  -3.608076
    13  H   -0.029157   0.358242  -0.067515  -0.007969  -0.005700  -0.123108
    14  H    0.034488  -0.038211   0.375195  -0.016870  -0.007941   0.001806
    15  H    0.034563  -0.014894  -0.013838   0.374518  -0.036045  -0.003234
    16  H    0.081485  -0.015717  -0.007830  -0.050915   0.398048  -0.045742
    17  H    0.027878   0.000136  -0.000205   0.000031  -0.000128   0.001545
    18  H    0.027878   0.000173  -0.000203   0.000031  -0.000127   0.001512
    19  Cl   0.076402   0.121912   0.104939  -0.073894  -0.048934   0.176300
    20  Cl  -0.277901  -0.223250   0.097255  -0.045170  -0.447623   1.195756
    21  Cl  -0.039167  -0.002081   0.003963  -0.001220  -0.000566  -0.051460
    22  Cl   0.066593   0.120856   0.106545  -0.073518  -0.048210   0.177816
               7          8          9         10         11         12
     1  C    7.090620  -2.623875  -4.213081  -0.472753  -4.231793  -2.617145
     2  C   -2.453948  -0.424392  -0.083542  -0.115765  -0.092744  -0.416240
     3  C    1.193618   0.041667   0.068150  -0.014731   0.068097   0.042622
     4  C   -1.603824  -0.056676  -0.017688   0.008147  -0.017570  -0.057060
     5  C   -0.463500   0.072149   0.149397   0.016521   0.149364   0.072307
     6  C   -6.626607  -3.586409  -1.802834  -0.316121  -1.799780  -3.608076
     7  C   17.333595   0.864617  -4.450933  -0.958185  -4.461048   0.885187
     8  C    0.864617  18.424676  -5.696255  -2.416570   6.833627  -4.171785
     9  C   -4.450933  -5.696255  27.682421  -1.284456 -10.740659   6.821364
    10  C   -0.958185  -2.416570  -1.284456  16.002197  -1.277379  -2.421264
    11  C   -4.461048   6.833627 -10.740659  -1.277379  27.718025  -5.714492
    12  C    0.885187  -4.171785   6.821364  -2.421264  -5.714492  18.449525
    13  H    0.079440   0.058375   0.014968   0.004960   0.015316   0.058006
    14  H   -0.001549   0.001250   0.000086   0.000034   0.000079   0.001252
    15  H    0.007370   0.001092   0.000041   0.000055   0.000041   0.001092
    16  H    0.002904  -0.000621  -0.000560   0.000095  -0.000555  -0.000609
    17  H    0.091419   0.068577   0.093377   0.051947   0.050407  -0.027181
    18  H    0.091440  -0.027173   0.050386   0.051756   0.093286   0.068837
    19  Cl  -0.537680  -0.736601   0.649404  -0.280698  -0.812730   0.406065
    20  Cl   0.157449  -0.391129  -0.318069  -0.023087  -0.320637  -0.392226
    21  Cl  -0.039538  -0.107738   0.306588  -1.019873   0.307282  -0.108645
    22  Cl  -0.539570   0.409045  -0.808782  -0.279643   0.650802  -0.734716
              13         14         15         16         17         18
     1  C   -0.029157   0.034488   0.034563   0.081485   0.027878   0.027878
     2  C    0.358242  -0.038211  -0.014894  -0.015717   0.000136   0.000173
     3  C   -0.067515   0.375195  -0.013838  -0.007830  -0.000205  -0.000203
     4  C   -0.007969  -0.016870   0.374518  -0.050915   0.000031   0.000031
     5  C   -0.005700  -0.007941  -0.036045   0.398048  -0.000128  -0.000127
     6  C   -0.123108   0.001806  -0.003234  -0.045742   0.001545   0.001512
     7  C    0.079440  -0.001549   0.007370   0.002904   0.091419   0.091440
     8  C    0.058375   0.001250   0.001092  -0.000621   0.068577  -0.027173
     9  C    0.014968   0.000086   0.000041  -0.000560   0.093377   0.050386
    10  C    0.004960   0.000034   0.000055   0.000095   0.051947   0.051756
    11  C    0.015316   0.000079   0.000041  -0.000555   0.050407   0.093286
    12  C    0.058006   0.001252   0.001092  -0.000609  -0.027181   0.068837
    13  H    0.539026  -0.007181  -0.000263   0.000056   0.000002   0.000001
    14  H   -0.007181   0.531714  -0.007392  -0.000220   0.000000   0.000000
    15  H   -0.000263  -0.007392   0.529429  -0.007494  -0.000000  -0.000000
    16  H    0.000056  -0.000220  -0.007494   0.512224   0.000000   0.000000
    17  H    0.000002   0.000000  -0.000000   0.000000   0.494653  -0.000219
    18  H    0.000001   0.000000  -0.000000   0.000000  -0.000219   0.494645
    19  Cl  -0.006316  -0.000400  -0.000321  -0.000740   0.000190  -0.007794
    20  Cl  -0.003355   0.000759   0.000014  -0.011047  -0.000366  -0.000369
    21  Cl   0.000105  -0.000000   0.000000  -0.000002  -0.013292  -0.013290
    22  Cl  -0.006190  -0.000403  -0.000320  -0.000727  -0.007802   0.000188
              19         20         21         22
     1  C    0.076402  -0.277901  -0.039167   0.066593
     2  C    0.121912  -0.223250  -0.002081   0.120856
     3  C    0.104939   0.097255   0.003963   0.106545
     4  C   -0.073894  -0.045170  -0.001220  -0.073518
     5  C   -0.048934  -0.447623  -0.000566  -0.048210
     6  C    0.176300   1.195756  -0.051460   0.177816
     7  C   -0.537680   0.157449  -0.039538  -0.539570
     8  C   -0.736601  -0.391129  -0.107738   0.409045
     9  C    0.649404  -0.318069   0.306588  -0.808782
    10  C   -0.280698  -0.023087  -1.019873  -0.279643
    11  C   -0.812730  -0.320637   0.307282   0.650802
    12  C    0.406065  -0.392226  -0.108645  -0.734716
    13  H   -0.006316  -0.003355   0.000105  -0.006190
    14  H   -0.000400   0.000759  -0.000000  -0.000403
    15  H   -0.000321   0.000014   0.000000  -0.000320
    16  H   -0.000740  -0.011047  -0.000002  -0.000727
    17  H    0.000190  -0.000366  -0.013292  -0.007802
    18  H   -0.007794  -0.000369  -0.013290   0.000188
    19  Cl  17.610940   0.050584  -0.027964  -0.047225
    20  Cl   0.050584  17.497637   0.003891   0.049078
    21  Cl  -0.027964   0.003891  17.409351  -0.027927
    22  Cl  -0.047225   0.049078  -0.027927  17.608604
 Mulliken charges:
               1
     1  C    0.259079
     2  C   -0.521858
     3  C   -0.294074
     4  C   -0.049719
     5  C   -0.175484
     6  C   -0.869388
     7  C    0.338722
     8  C   -0.535852
     9  C   -0.419324
    10  C    0.744811
    11  C   -0.416940
    12  C   -0.536818
    13  H    0.128256
    14  H    0.133506
    15  H    0.135588
    16  H    0.147965
    17  H    0.169031
    18  H    0.169040
    19  Cl   0.384564
    20  Cl   0.401805
    21  Cl   0.421583
    22  Cl   0.385508
 Sum of Mulliken charges =  -0.00000
 Mulliken charges with hydrogens summed into heavy atoms:
               1
     1  C    0.259079
     2  C   -0.393602
     3  C   -0.160569
     4  C    0.085869
     5  C   -0.027518
     6  C   -0.869388
     7  C    0.338722
     8  C   -0.535852
     9  C   -0.250293
    10  C    0.744811
    11  C   -0.247900
    12  C   -0.536818
    19  Cl   0.384564
    20  Cl   0.401805
    21  Cl   0.421583
    22  Cl   0.385508
 Electronic spatial extent (au):  <R**2>=           5174.9981
 Charge=             -0.0000 electrons
 Dipole moment (field-independent basis, Debye):
    X=             -1.2922    Y=              0.0065    Z=             -1.4840  Tot=              1.9677
 Quadrupole moment (field-independent basis, Debye-Ang):
   XX=           -110.0162   YY=           -122.3763   ZZ=           -118.6674
   XY=             -0.0133   XZ=              2.9474   YZ=             -0.0228
 Traceless Quadrupole moment (field-independent basis, Debye-Ang):
   XX=              7.0037   YY=             -5.3564   ZZ=             -1.6474
   XY=             -0.0133   XZ=              2.9474   YZ=             -0.0228
 Octapole moment (field-independent basis, Debye-Ang**2):
  XXX=            -58.2122  YYY=             -0.0920  ZZZ=             -2.2698  XYY=             20.8153
  XXY=              0.0190  XXZ=             -2.8538  XZZ=             -7.5445  YZZ=              0.0630
  YYZ=              6.0867  XYZ=              0.1104
 Hexadecapole moment (field-independent basis, Debye-Ang**3):
 XXXX=          -4287.9796 YYYY=          -1463.6977 ZZZZ=           -838.0923 XXXY=             -0.0238
 XXXZ=             14.3674 YYYX=              0.1584 YYYZ=              0.3178 ZZZX=             24.0728
 ZZZY=             -0.3720 XXYY=          -1014.1279 XXZZ=           -884.5197 YYZZ=           -414.3445
 XXYZ=             -0.2241 YYXZ=             -9.8574 ZZXY=             -0.2070
 N-N= 1.495932574203D+03 E-N=-8.436529287935D+03  KE= 2.295553037926D+03
 1\1\GINC-CN113\FOpt\RB3LYP\6-311+G(d,p)\C12H6Cl4\20CY91R06\03-Apr-2022
 \0\\# opt b3lyp/6-311+g(d,p) scf=xqc\\Title Card Required\\0,1\C,-0.61
 21778071,1.9007406578,0.8735521289\C,0.0847128779,2.2371170009,-0.2924
 694357\C,0.7902835395,3.4314573118,-0.3907119022\C,0.8088796503,4.3147
 909931,0.6866384462\C,0.1236837836,4.0028988096,1.8568017957\C,-0.5783
 283645,2.803833043,1.9407986474\C,-1.3596376875,0.612836812,0.94813175
 64\C,-0.7550749285,-0.5691389881,1.3992435666\C,-1.4306685715,-1.78363
 44342,1.4606031661\C,-2.7587979463,-1.8216743512,1.0569656109\C,-3.410
 8225377,-0.6840300907,0.5996255141\C,-2.7012247151,0.5114871135,0.5530
 395892\H,0.0667073895,1.5460668829,-1.1273301095\H,1.3225301313,3.6706
 367952,-1.3036573198\H,1.3556319907,5.2482975269,0.6207804205\H,0.1289
 025913,4.6791119211,2.7019741396\H,-0.9303021417,-2.6731791288,1.81578
 58104\H,-4.444776105,-0.7217934456,0.2876612995\Cl,-3.5464391225,1.934
 864928,-0.0239027755\Cl,-1.4344300799,2.4370549528,3.4312150691\Cl,-3.
 6317749648,-3.340175377,1.1250864874\Cl,0.9191745078,-0.5450420228,1.9
 184437845\\Version=EM64L-G16RevB.01\State=1-A\HF=-2301.9011567\RMSD=7.
 325e-09\RMSF=1.743e-05\Dipole=0.4322267,0.3596448,-0.5321442\Quadrupol
 e=-0.9219117,2.602006,-1.6800942,4.183531,-1.6858,-1.213783\PG=C01 [X(
 C12H6Cl4)]\\@


 THERE'S NOTHING SO GREAT AS THE GREAT OUTDOORS.

                                       -- ZIGGY
 Job cpu time:       1 days  3 hours 25 minutes 59.1 seconds.
 Elapsed time:       0 days  2 hours 45 minutes 41.0 seconds.
 File lengths (MBytes):  RWF=    118 Int=      0 D2E=      0 Chk=     19 Scr=      1
 Normal termination of Gaussian 16 at Sun Apr  3 14:09:28 2022.
