 Entering Gaussian System, Link 0=g16
 Input=2,2prime,6,6prime-Tetrachlorobiphenylagain.gjf
 Output=2,2prime,6,6prime-Tetrachlorobiphenylagain.log
 Initial command:
 /home/apps/g16/l1.exe "./Gau-280634.inp" -scrdir="./"
 Entering Link 1 = /home/apps/g16/l1.exe PID=    280635.
  
 Copyright (c) 1988-2017, Gaussian, Inc.  All Rights Reserved.
  
 This is part of the Gaussian(R) 16 program.  It is based on
 the Gaussian(R) 09 system (copyright 2009, Gaussian, Inc.),
 the Gaussian(R) 03 system (copyright 2003, Gaussian, Inc.),
 the Gaussian(R) 98 system (copyright 1998, Gaussian, Inc.),
 the Gaussian(R) 94 system (copyright 1995, Gaussian, Inc.),
 the Gaussian 92(TM) system (copyright 1992, Gaussian, Inc.),
 the Gaussian 90(TM) system (copyright 1990, Gaussian, Inc.),
 the Gaussian 88(TM) system (copyright 1988, Gaussian, Inc.),
 the Gaussian 86(TM) system (copyright 1986, Carnegie Mellon
 University), and the Gaussian 82(TM) system (copyright 1983,
 Carnegie Mellon University). Gaussian is a federally registered
 trademark of Gaussian, Inc.
  
 This software contains proprietary and confidential information,
 including trade secrets, belonging to Gaussian, Inc.
  
 This software is provided under written license and may be
 used, copied, transmitted, or stored only in accord with that
 written license.
  
 The following legend is applicable only to US Government
 contracts under FAR:
  
                    RESTRICTED RIGHTS LEGEND
  
 Use, reproduction and disclosure by the US Government is
 subject to restrictions as set forth in subparagraphs (a)
 and (c) of the Commercial Computer Software - Restricted
 Rights clause in FAR 52.227-19.
  
 Gaussian, Inc.
 340 Quinnipiac St., Bldg. 40, Wallingford CT 06492
  
  
 ---------------------------------------------------------------
 Warning -- This program may not be used in any manner that
 competes with the business of Gaussian, Inc. or will provide
 assistance to any competitor of Gaussian, Inc.  The licensee
 of this program is prohibited from giving any competitor of
 Gaussian, Inc. access to this program.  By using this program,
 the user acknowledges that Gaussian, Inc. is engaged in the
 business of creating and licensing software in the field of
 computational chemistry and represents and warrants to the
 licensee that it is not a competitor of Gaussian, Inc. and that
 it will not use this program in any manner prohibited above.
 ---------------------------------------------------------------
  

 Cite this work as:
 Gaussian 16, Revision B.01,
 M. J. Frisch, G. W. Trucks, H. B. Schlegel, G. E. Scuseria, 
 M. A. Robb, J. R. Cheeseman, G. Scalmani, V. Barone, 
 G. A. Petersson, H. Nakatsuji, X. Li, M. Caricato, A. V. Marenich, 
 J. Bloino, B. G. Janesko, R. Gomperts, B. Mennucci, H. P. Hratchian, 
 J. V. Ortiz, A. F. Izmaylov, J. L. Sonnenberg, D. Williams-Young, 
 F. Ding, F. Lipparini, F. Egidi, J. Goings, B. Peng, A. Petrone, 
 T. Henderson, D. Ranasinghe, V. G. Zakrzewski, J. Gao, N. Rega, 
 G. Zheng, W. Liang, M. Hada, M. Ehara, K. Toyota, R. Fukuda, 
 J. Hasegawa, M. Ishida, T. Nakajima, Y. Honda, O. Kitao, H. Nakai, 
 T. Vreven, K. Throssell, J. A. Montgomery, Jr., J. E. Peralta, 
 F. Ogliaro, M. J. Bearpark, J. J. Heyd, E. N. Brothers, K. N. Kudin, 
 V. N. Staroverov, T. A. Keith, R. Kobayashi, J. Normand, 
 K. Raghavachari, A. P. Rendell, J. C. Burant, S. S. Iyengar, 
 J. Tomasi, M. Cossi, J. M. Millam, M. Klene, C. Adamo, R. Cammi, 
 J. W. Ochterski, R. L. Martin, K. Morokuma, O. Farkas, 
 J. B. Foresman, and D. J. Fox, Gaussian, Inc., Wallingford CT, 2016.
 
 ******************************************
 Gaussian 16:  EM64L-G16RevB.01 20-Dec-2017
                25-Apr-2022 
 ******************************************
 %mem=120GB
 %nprocshared=40
 Will use up to   40 processors via shared memory.
 ---------------------------------------------
 # opt freq=noraman b3lyp/6-311+g(d,p) scf=xqc
 ---------------------------------------------
 1/18=20,19=15,26=3,38=1/1,3;
 2/9=110,12=2,17=6,18=5,40=1/2;
 3/5=4,6=6,7=111,11=2,25=1,30=1,71=1,74=-5/1,2,3;
 4//1;
 5/5=2,8=3,13=1,38=5/2,8;
 6/7=2,8=2,9=2,10=2,28=1/1;
 7//1,2,3,16;
 1/18=20,19=15,26=3/3(2);
 2/9=110/2;
 99//99;
 2/9=110/2;
 3/5=4,6=6,7=111,11=2,25=1,30=1,71=1,74=-5/1,2,3;
 4/5=5,16=3,69=1/1;
 5/5=2,8=3,13=1,38=5/2,8;
 7//1,2,3,16;
 1/18=20,19=15,26=3/3(-5);
 2/9=110/2;
 6/7=2,8=2,9=2,10=2,19=2,28=1/1;
 99/9=1/99;
 -------------------
 Title Card Required
 -------------------
 Symbolic Z-matrix:
 Charge =  0 Multiplicity = 1
 C                    -0.72673  -0.31099  -0.00392 
 C                     0.60565  -0.28111  -0.43726 
 C                     1.31355   0.92834  -0.44333 
 C                     0.68906   2.10791  -0.01606 
 C                    -0.64332   2.07802   0.41728 
 C                    -1.35121   0.86857   0.42336 
 C                    -1.7529   -2.06424   0.00489 
 C                    -1.12842  -3.2438   -0.42239 
 C                    -1.83631  -4.45326  -0.41631 
 C                    -3.16869  -4.48314   0.01704 
 C                    -3.79318  -3.30358   0.44431 
 C                    -3.08528  -2.09413   0.43824 
 H                     2.33085   0.95116  -0.7742 
 H                     1.22955   3.03135  -0.0207 
 H                    -1.12013   2.97865   0.74352 
 H                    -1.3595   -5.35388  -0.74255 
 H                    -3.70918  -5.40659   0.02168 
 H                    -4.81048  -3.3264    0.77519 
 Cl                   -3.86957  -0.61273   0.97485 
 Cl                   -3.02453   0.83104   0.96759 
 Cl                    0.5449   -3.20627  -0.96662 
 Cl                    1.38994  -1.76251  -0.97387 
 

 GradGradGradGradGradGradGradGradGradGradGradGradGradGradGradGradGradGrad
 Berny optimization.
 Initialization pass.
                           ----------------------------
                           !    Initial Parameters    !
                           ! (Angstroms and Degrees)  !
 --------------------------                            --------------------------
 ! Name  Definition              Value          Derivative Info.                !
 --------------------------------------------------------------------------------
 ! R1    R(1,2)                  1.4014         estimate D2E/DX2                !
 ! R2    R(1,6)                  1.4014         estimate D2E/DX2                !
 ! R3    R(2,3)                  1.4014         estimate D2E/DX2                !
 ! R4    R(2,22)                 1.76           estimate D2E/DX2                !
 ! R5    R(3,4)                  1.4014         estimate D2E/DX2                !
 ! R6    R(3,13)                 1.07           estimate D2E/DX2                !
 ! R7    R(4,5)                  1.4014         estimate D2E/DX2                !
 ! R8    R(4,14)                 1.07           estimate D2E/DX2                !
 ! R9    R(5,6)                  1.4014         estimate D2E/DX2                !
 ! R10   R(5,15)                 1.07           estimate D2E/DX2                !
 ! R11   R(6,20)                 1.76           estimate D2E/DX2                !
 ! R12   R(7,8)                  1.4014         estimate D2E/DX2                !
 ! R13   R(7,12)                 1.4014         estimate D2E/DX2                !
 ! R14   R(8,9)                  1.4014         estimate D2E/DX2                !
 ! R15   R(8,21)                 1.76           estimate D2E/DX2                !
 ! R16   R(9,10)                 1.4014         estimate D2E/DX2                !
 ! R17   R(9,16)                 1.07           estimate D2E/DX2                !
 ! R18   R(10,11)                1.4014         estimate D2E/DX2                !
 ! R19   R(10,17)                1.07           estimate D2E/DX2                !
 ! R20   R(11,12)                1.4014         estimate D2E/DX2                !
 ! R21   R(11,18)                1.07           estimate D2E/DX2                !
 ! R22   R(12,19)                1.76           estimate D2E/DX2                !
 ! R23   R(19,20)                1.6729         estimate D2E/DX2                !
 ! R24   R(21,22)                1.6729         estimate D2E/DX2                !
 ! A1    A(2,1,6)              120.0            estimate D2E/DX2                !
 ! A2    A(1,2,3)              120.0            estimate D2E/DX2                !
 ! A3    A(1,2,22)             120.0            estimate D2E/DX2                !
 ! A4    A(3,2,22)             120.0            estimate D2E/DX2                !
 ! A5    A(2,3,4)              120.0            estimate D2E/DX2                !
 ! A6    A(2,3,13)             120.0            estimate D2E/DX2                !
 ! A7    A(4,3,13)             120.0            estimate D2E/DX2                !
 ! A8    A(3,4,5)              120.0            estimate D2E/DX2                !
 ! A9    A(3,4,14)             120.0            estimate D2E/DX2                !
 ! A10   A(5,4,14)             120.0            estimate D2E/DX2                !
 ! A11   A(4,5,6)              120.0            estimate D2E/DX2                !
 ! A12   A(4,5,15)             120.0            estimate D2E/DX2                !
 ! A13   A(6,5,15)             120.0            estimate D2E/DX2                !
 ! A14   A(1,6,5)              120.0            estimate D2E/DX2                !
 ! A15   A(1,6,20)             120.0            estimate D2E/DX2                !
 ! A16   A(5,6,20)             120.0            estimate D2E/DX2                !
 ! A17   A(8,7,12)             120.0            estimate D2E/DX2                !
 ! A18   A(7,8,9)              120.0            estimate D2E/DX2                !
 ! A19   A(7,8,21)             120.0            estimate D2E/DX2                !
 ! A20   A(9,8,21)             120.0            estimate D2E/DX2                !
 ! A21   A(8,9,10)             120.0            estimate D2E/DX2                !
 ! A22   A(8,9,16)             120.0            estimate D2E/DX2                !
 ! A23   A(10,9,16)            120.0            estimate D2E/DX2                !
 ! A24   A(9,10,11)            120.0            estimate D2E/DX2                !
 ! A25   A(9,10,17)            120.0            estimate D2E/DX2                !
 ! A26   A(11,10,17)           120.0            estimate D2E/DX2                !
 ! A27   A(10,11,12)           120.0            estimate D2E/DX2                !
 ! A28   A(10,11,18)           120.0            estimate D2E/DX2                !
 ! A29   A(12,11,18)           120.0            estimate D2E/DX2                !
 ! A30   A(7,12,11)            120.0            estimate D2E/DX2                !
 ! A31   A(7,12,19)            120.0            estimate D2E/DX2                !
 ! A32   A(11,12,19)           120.0            estimate D2E/DX2                !
 ! A33   A(12,19,20)           120.0            estimate D2E/DX2                !
 ! A34   A(6,20,19)            120.0            estimate D2E/DX2                !
 ! A35   A(8,21,22)            120.0            estimate D2E/DX2                !
 ! A36   A(2,22,21)            120.0            estimate D2E/DX2                !
 ! D1    D(6,1,2,3)              0.0001         estimate D2E/DX2                !
 ! D2    D(6,1,2,22)           180.0            estimate D2E/DX2                !
 ! D3    D(2,1,6,5)             -0.0001         estimate D2E/DX2                !
 ! D4    D(2,1,6,20)           180.0            estimate D2E/DX2                !
 ! D5    D(1,2,3,4)              0.0            estimate D2E/DX2                !
 ! D6    D(1,2,3,13)           180.0            estimate D2E/DX2                !
 ! D7    D(22,2,3,4)          -179.9999         estimate D2E/DX2                !
 ! D8    D(22,2,3,13)            0.0001         estimate D2E/DX2                !
 ! D9    D(1,2,22,21)            0.0002         estimate D2E/DX2                !
 ! D10   D(3,2,22,21)         -179.9999         estimate D2E/DX2                !
 ! D11   D(2,3,4,5)             -0.0001         estimate D2E/DX2                !
 ! D12   D(2,3,4,14)           180.0            estimate D2E/DX2                !
 ! D13   D(13,3,4,5)           179.9999         estimate D2E/DX2                !
 ! D14   D(13,3,4,14)            0.0            estimate D2E/DX2                !
 ! D15   D(3,4,5,6)              0.0001         estimate D2E/DX2                !
 ! D16   D(3,4,5,15)          -179.9999         estimate D2E/DX2                !
 ! D17   D(14,4,5,6)          -180.0            estimate D2E/DX2                !
 ! D18   D(14,4,5,15)            0.0            estimate D2E/DX2                !
 ! D19   D(4,5,6,1)              0.0            estimate D2E/DX2                !
 ! D20   D(4,5,6,20)           179.9999         estimate D2E/DX2                !
 ! D21   D(15,5,6,1)           180.0            estimate D2E/DX2                !
 ! D22   D(15,5,6,20)           -0.0001         estimate D2E/DX2                !
 ! D23   D(1,6,20,19)            0.0004         estimate D2E/DX2                !
 ! D24   D(5,6,20,19)         -179.9996         estimate D2E/DX2                !
 ! D25   D(12,7,8,9)             0.0001         estimate D2E/DX2                !
 ! D26   D(12,7,8,21)         -179.9998         estimate D2E/DX2                !
 ! D27   D(8,7,12,11)           -0.0001         estimate D2E/DX2                !
 ! D28   D(8,7,12,19)          179.9999         estimate D2E/DX2                !
 ! D29   D(7,8,9,10)             0.0            estimate D2E/DX2                !
 ! D30   D(7,8,9,16)           180.0            estimate D2E/DX2                !
 ! D31   D(21,8,9,10)          179.9998         estimate D2E/DX2                !
 ! D32   D(21,8,9,16)           -0.0002         estimate D2E/DX2                !
 ! D33   D(7,8,21,22)            0.0            estimate D2E/DX2                !
 ! D34   D(9,8,21,22)         -179.9998         estimate D2E/DX2                !
 ! D35   D(8,9,10,11)            0.0            estimate D2E/DX2                !
 ! D36   D(8,9,10,17)         -179.9999         estimate D2E/DX2                !
 ! D37   D(16,9,10,11)         180.0            estimate D2E/DX2                !
 ! D38   D(16,9,10,17)           0.0001         estimate D2E/DX2                !
 ! D39   D(9,10,11,12)           0.0            estimate D2E/DX2                !
 ! D40   D(9,10,11,18)        -179.9998         estimate D2E/DX2                !
 ! D41   D(17,10,11,12)        179.9999         estimate D2E/DX2                !
 ! D42   D(17,10,11,18)          0.0001         estimate D2E/DX2                !
 ! D43   D(10,11,12,7)           0.0            estimate D2E/DX2                !
 ! D44   D(10,11,12,19)       -179.9999         estimate D2E/DX2                !
 ! D45   D(18,11,12,7)         179.9999         estimate D2E/DX2                !
 ! D46   D(18,11,12,19)         -0.0001         estimate D2E/DX2                !
 ! D47   D(7,12,19,20)           0.0004         estimate D2E/DX2                !
 ! D48   D(11,12,19,20)       -179.9997         estimate D2E/DX2                !
 ! D49   D(12,19,20,6)          -0.0006         estimate D2E/DX2                !
 ! D50   D(8,21,22,2)           -0.0002         estimate D2E/DX2                !
 --------------------------------------------------------------------------------
 Trust Radius=3.00D-01 FncErr=1.00D-07 GrdErr=1.00D-06 EigMax=2.50D+02 EigMin=1.00D-04
 Number of steps in this run=    120 maximum allowed number of steps=    132.
 GradGradGradGradGradGradGradGradGradGradGradGradGradGradGradGradGradGrad

                          Input orientation:                          
 ---------------------------------------------------------------------
 Center     Atomic      Atomic             Coordinates (Angstroms)
 Number     Number       Type             X           Y           Z
 ---------------------------------------------------------------------
      1          6           0       -0.726726   -0.310992   -0.003916
      2          6           0        0.605655   -0.281107   -0.437263
      3          6           0        1.313549    0.928344   -0.443335
      4          6           0        0.689061    2.107910   -0.016060
      5          6           0       -0.643321    2.078024    0.417284
      6          6           0       -1.351214    0.868573    0.423357
      7          6           0       -1.752904   -2.064239    0.004888
      8          6           0       -1.128417   -3.243804   -0.422387
      9          6           0       -1.836309   -4.453256   -0.416313
     10          6           0       -3.168690   -4.483142    0.017037
     11          6           0       -3.793177   -3.303577    0.444312
     12          6           0       -3.085284   -2.094126    0.438238
     13          1           0        2.330851    0.951163   -0.774204
     14          1           0        1.229554    3.031352   -0.020696
     15          1           0       -1.120131    2.978649    0.743516
     16          1           0       -1.359500   -5.353880   -0.742547
     17          1           0       -3.709181   -5.406585    0.021677
     18          1           0       -4.810478   -3.326396    0.775187
     19         17           0       -3.869569   -0.612726    0.974849
     20         17           0       -3.024535    0.831040    0.967590
     21         17           0        0.544904   -3.206271   -0.966621
     22         17           0        1.389942   -1.762508   -0.973868
 ---------------------------------------------------------------------
                    Distance matrix (angstroms):
                    1          2          3          4          5
     1  C    0.000000
     2  C    1.401400   0.000000
     3  C    2.427296   1.401400   0.000000
     4  C    2.802800   2.427296   1.401400   0.000000
     5  C    2.427296   2.802800   2.427296   1.401400   0.000000
     6  C    1.401400   2.427296   2.802800   2.427296   1.401400
     7  C    2.031500   2.989625   4.308084   4.834300   4.308084
     8  C    2.989625   3.432900   4.834300   5.666495   5.409457
     9  C    4.308084   4.834300   6.235700   7.041774   6.691466
    10  C    4.834300   5.666495   7.041774   7.637100   7.041774
    11  C    4.308084   5.409457   6.691466   7.041774   6.235700
    12  C    2.989625   4.204351   5.409457   5.666495   4.834300
    13  H    3.396345   2.146700   1.070000   2.146700   3.396345
    14  H    3.872800   3.396345   2.146700   1.070000   2.146700
    15  H    3.396345   3.872800   3.396345   2.146700   1.070000
    16  H    5.135824   5.448675   6.833817   7.771916   7.555879
    17  H    5.904300   6.715576   8.097863   8.707100   8.097863
    18  H    5.135824   6.330744   7.555879   7.771916   6.833817
    19  Cl   3.305523   4.704429   5.590246   5.400450   4.237887
    20  Cl   2.743718   4.048303   4.562800   4.048303   2.743718
    21  Cl   3.305523   2.973298   4.237887   5.400450   5.590246
    22  Cl   2.743718   1.760000   2.743718   4.048303   4.562800
                    6          7          8          9         10
     6  C    0.000000
     7  C    2.989625   0.000000
     8  C    4.204351   1.401400   0.000000
     9  C    5.409457   2.427296   1.401400   0.000000
    10  C    5.666495   2.802800   2.427296   1.401400   0.000000
    11  C    4.834300   2.427296   2.802800   2.427296   1.401400
    12  C    3.432900   1.401400   2.427296   2.802800   2.427296
    13  H    3.872800   5.135824   5.448675   6.833817   7.771916
    14  H    3.396345   5.904300   6.715576   8.097863   8.707100
    15  H    2.146700   5.135824   6.330744   7.555879   7.771916
    16  H    6.330744   3.396345   2.146700   1.070000   2.146700
    17  H    6.715576   3.872800   3.396345   2.146700   1.070000
    18  H    5.448675   3.396345   3.872800   3.396345   2.146700
    19  Cl   2.973298   2.743718   4.048303   4.562800   4.048303
    20  Cl   1.760000   3.305523   4.704429   5.590246   5.400450
    21  Cl   4.704429   2.743718   1.760000   2.743718   4.048303
    22  Cl   4.048303   3.305523   2.973298   4.237887   5.400450
                   11         12         13         14         15
    11  C    0.000000
    12  C    1.401400   0.000000
    13  H    7.555879   6.330744   0.000000
    14  H    8.097863   6.715576   2.471400   0.000000
    15  H    6.833817   5.448675   4.280590   2.471400   0.000000
    16  H    3.396345   3.872800   7.305700   8.805474   8.467391
    17  H    2.146700   3.396345   8.805474   9.777100   8.805474
    18  H    1.070000   2.146700   8.467391   8.805474   7.305700
    19  Cl   2.743718   1.760000   6.629490   6.345980   4.528895
    20  Cl   4.237887   2.973298   5.632800   4.890332   2.879094
    21  Cl   4.562800   4.048303   4.528895   6.345980   6.629490
    22  Cl   5.590246   4.704429   2.879094   4.890332   5.632800
                   16         17         18         19         20
    16  H    0.000000
    17  H    2.471400   0.000000
    18  H    4.280590   2.471400   0.000000
    19  Cl   5.632800   4.890332   2.879094   0.000000
    20  Cl   6.629490   6.345980   4.528895   1.672900   0.000000
    21  Cl   2.879094   4.890332   5.632800   5.475705   5.725552
    22  Cl   4.528895   6.345980   6.629490   5.725552   5.475705
                   21         22
    21  Cl   0.000000
    22  Cl   1.672900   0.000000
 Stoichiometry    C12H6Cl4
 Framework group  C1[X(C12H6Cl4)]
 Deg. of freedom    60
 Full point group                 C1      NOp   1
 Largest Abelian subgroup         C1      NOp   1
 Largest concise Abelian subgroup C1      NOp   1
                         Standard orientation:                         
 ---------------------------------------------------------------------
 Center     Atomic      Atomic             Coordinates (Angstroms)
 Number     Number       Type             X           Y           Z
 ---------------------------------------------------------------------
      1          6           0        1.015750   -0.000000   -0.000001
      2          6           0        1.716450   -1.213648   -0.000000
      3          6           0        3.117850   -1.213648    0.000001
      4          6           0        3.818550   -0.000000    0.000002
      5          6           0        3.117850    1.213648   -0.000001
      6          6           0        1.716450    1.213648   -0.000002
      7          6           0       -1.015750    0.000000   -0.000002
      8          6           0       -1.716450   -1.213648   -0.000003
      9          6           0       -3.117850   -1.213648   -0.000002
     10          6           0       -3.818550    0.000000   -0.000000
     11          6           0       -3.117850    1.213648    0.000002
     12          6           0       -1.716450    1.213648    0.000001
     13          1           0        3.652850   -2.140295    0.000003
     14          1           0        4.888550   -0.000000    0.000004
     15          1           0        3.652850    2.140295   -0.000002
     16          1           0       -3.652850   -2.140295   -0.000003
     17          1           0       -4.888550    0.000000    0.000002
     18          1           0       -3.652850    2.140295    0.000006
     19         17           0       -0.836450    2.737853    0.000005
     20         17           0        0.836450    2.737853   -0.000004
     21         17           0       -0.836450   -2.737853   -0.000001
     22         17           0        0.836450   -2.737853    0.000002
 ---------------------------------------------------------------------
 Rotational constants (GHZ):           0.4273590           0.4182380           0.2113747
 Standard basis: 6-311+G(d,p) (5D, 7F)
 There are   436 symmetry adapted cartesian basis functions of A   symmetry.
 There are   420 symmetry adapted basis functions of A   symmetry.
   420 basis functions,   692 primitive gaussians,   436 cartesian basis functions
    73 alpha electrons       73 beta electrons
       nuclear repulsion energy      1602.5173217341 Hartrees.
 NAtoms=   22 NActive=   22 NUniq=   22 SFac= 1.00D+00 NAtFMM=   60 NAOKFM=F Big=F
 Integral buffers will be    131072 words long.
 Raffenetti 2 integral format.
 Two-electron integral symmetry is turned on.
 One-electron integrals computed using PRISM.
 NBasis=   420 RedAO= T EigKep=  2.32D-06  NBF=   420
 NBsUse=   415 1.00D-06 EigRej=  8.73D-07 NBFU=   415
 ExpMin= 4.38D-02 ExpMax= 1.06D+05 ExpMxC= 3.62D+03 IAcc=3 IRadAn=         5 AccDes= 0.00D+00
 Harris functional with IExCor=  402 and IRadAn=       5 diagonalized for initial guess.
 HarFok:  IExCor=  402 AccDes= 0.00D+00 IRadAn=         5 IDoV= 1 UseB2=F ITyADJ=14
 ICtDFT=  3500011 ScaDFX=  1.000000  1.000000  1.000000  1.000000
 FoFCou: FMM=F IPFlag=           0 FMFlag=      100000 FMFlg1=           0
         NFxFlg=           0 DoJE=T BraDBF=F KetDBF=T FulRan=T
         wScrn=  0.000000 ICntrl=       500 IOpCl=  0 I1Cent=   200000004 NGrid=           0
         NMat0=    1 NMatS0=      1 NMatT0=    0 NMatD0=    1 NMtDS0=    0 NMtDT0=    0
 Petite list used in FoFCou.
 Requested convergence on RMS density matrix=1.00D-08 within  32 cycles.
 Requested convergence on MAX density matrix=1.00D-06.
 Requested convergence on             energy=1.00D-06.
 No special actions if energy rises.
 EnCoef did     4 forward-backward iterations
 Restarting incremental Fock formation.
 SCF Done:  E(RB3LYP) =  -2300.86406635     A.U. after   22 cycles
            NFock= 22  Conv=0.51D-08     -V/T= 2.0011
 QCSCF skips out because SCF is already converged.

 **********************************************************************

            Population analysis using the SCF Density.

 **********************************************************************

 Orbital symmetries:
       Occupied  (A) (A) (A) (A) (A) (A) (A) (A) (A) (A) (A) (A)
                 (A) (A) (A) (A) (A) (A) (A) (A) (A) (A) (A) (A)
                 (A) (A) (A) (A) (A) (A) (A) (A) (A) (A) (A) (A)
                 (A) (A) (A) (A) (A) (A) (A) (A) (A) (A) (A) (A)
                 (A) (A) (A) (A) (A) (A) (A) (A) (A) (A) (A) (A)
                 (A) (A) (A) (A) (A) (A) (A) (A) (A) (A) (A) (A)
                 (A)
       Virtual   (A) (A) (A) (A) (A) (A) (A) (A) (A) (A) (A) (A)
                 (A) (A) (A) (A) (A) (A) (A) (A) (A) (A) (A) (A)
                 (A) (A) (A) (A) (A) (A) (A) (A) (A) (A) (A) (A)
                 (A) (A) (A) (A) (A) (A) (A) (A) (A) (A) (A) (A)
                 (A) (A) (A) (A) (A) (A) (A) (A) (A) (A) (A) (A)
                 (A) (A) (A) (A) (A) (A) (A) (A) (A) (A) (A) (A)
                 (A) (A) (A) (A) (A) (A) (A) (A) (A) (A) (A) (A)
                 (A) (A) (A) (A) (A) (A) (A) (A) (A) (A) (A) (A)
                 (A) (A) (A) (A) (A) (A) (A) (A) (A) (A) (A) (A)
                 (A) (A) (A) (A) (A) (A) (A) (A) (A) (A) (A) (A)
                 (A) (A) (A) (A) (A) (A) (A) (A) (A) (A) (A) (A)
                 (A) (A) (A) (A) (A) (A) (A) (A) (A) (A) (A) (A)
                 (A) (A) (A) (A) (A) (A) (A) (A) (A) (A) (A) (A)
                 (A) (A) (A) (A) (A) (A) (A) (A) (A) (A) (A) (A)
                 (A) (A) (A) (A) (A) (A) (A) (A) (A) (A) (A) (A)
                 (A) (A) (A) (A) (A) (A) (A) (A) (A) (A) (A) (A)
                 (A) (A) (A) (A) (A) (A) (A) (A) (A) (A) (A) (A)
                 (A) (A) (A) (A) (A) (A) (A) (A) (A) (A) (A) (A)
                 (A) (A) (A) (A) (A) (A) (A) (A) (A) (A) (A) (A)
                 (A) (A) (A) (A) (A) (A) (A) (A) (A) (A) (A) (A)
                 (A) (A) (A) (A) (A) (A) (A) (A) (A) (A) (A) (A)
                 (A) (A) (A) (A) (A) (A) (A) (A) (A) (A) (A) (A)
                 (A) (A) (A) (A) (A) (A) (A) (A) (A) (A) (A) (A)
                 (A) (A) (A) (A) (A) (A) (A) (A) (A) (A) (A) (A)
                 (A) (A) (A) (A) (A) (A) (A) (A) (A) (A) (A) (A)
                 (A) (A) (A) (A) (A) (A) (A) (A) (A) (A) (A) (A)
                 (A) (A) (A) (A) (A) (A) (A) (A) (A) (A) (A) (A)
                 (A) (A) (A) (A) (A) (A) (A) (A) (A) (A) (A) (A)
                 (A) (A) (A) (A) (A) (A)
 The electronic state is 1-A.
 Alpha  occ. eigenvalues -- -101.62837-101.62837-101.62837-101.62837 -10.20514
 Alpha  occ. eigenvalues --  -10.20513 -10.20510 -10.20509 -10.20240 -10.20237
 Alpha  occ. eigenvalues --  -10.19075 -10.19075 -10.19073 -10.19073 -10.18610
 Alpha  occ. eigenvalues --  -10.18610  -9.54883  -9.54883  -9.54847  -9.54847
 Alpha  occ. eigenvalues --   -7.31514  -7.31514  -7.31378  -7.31378  -7.30421
 Alpha  occ. eigenvalues --   -7.30421  -7.30399  -7.30399  -7.29906  -7.29906
 Alpha  occ. eigenvalues --   -7.29895  -7.29895  -1.10273  -1.10235  -0.89016
 Alpha  occ. eigenvalues --   -0.87032  -0.86094  -0.81284  -0.77957  -0.76378
 Alpha  occ. eigenvalues --   -0.72559  -0.72121  -0.65610  -0.65472  -0.59270
 Alpha  occ. eigenvalues --   -0.59134  -0.58531  -0.55413  -0.51085  -0.50777
 Alpha  occ. eigenvalues --   -0.50607  -0.50473  -0.49910  -0.49710  -0.46651
 Alpha  occ. eigenvalues --   -0.44858  -0.43867  -0.41895  -0.41804  -0.39608
 Alpha  occ. eigenvalues --   -0.39566  -0.39171  -0.37867  -0.35990  -0.35100
 Alpha  occ. eigenvalues --   -0.31527  -0.31051  -0.27485  -0.26994  -0.23701
 Alpha  occ. eigenvalues --   -0.23583  -0.10593  -0.10070
 Alpha virt. eigenvalues --   -0.06537  -0.05134  -0.03939  -0.03648  -0.01690
 Alpha virt. eigenvalues --   -0.01469  -0.00584  -0.00071   0.00683   0.01300
 Alpha virt. eigenvalues --    0.01975   0.02829   0.03880   0.03905   0.04157
 Alpha virt. eigenvalues --    0.04865   0.05911   0.06130   0.06382   0.06680
 Alpha virt. eigenvalues --    0.06918   0.07558   0.08950   0.09175   0.09663
 Alpha virt. eigenvalues --    0.10175   0.10615   0.10647   0.11031   0.11516
 Alpha virt. eigenvalues --    0.11616   0.11690   0.11889   0.12716   0.13343
 Alpha virt. eigenvalues --    0.14286   0.14744   0.15498   0.15897   0.16375
 Alpha virt. eigenvalues --    0.16416   0.16455   0.16689   0.16721   0.16749
 Alpha virt. eigenvalues --    0.17394   0.18084   0.18297   0.19477   0.19563
 Alpha virt. eigenvalues --    0.19686   0.20214   0.20806   0.20870   0.21078
 Alpha virt. eigenvalues --    0.21271   0.21397   0.22385   0.23177   0.23889
 Alpha virt. eigenvalues --    0.24251   0.24556   0.25217   0.25346   0.25404
 Alpha virt. eigenvalues --    0.25567   0.25961   0.27101   0.27875   0.28235
 Alpha virt. eigenvalues --    0.28455   0.28463   0.28604   0.29699   0.30428
 Alpha virt. eigenvalues --    0.31505   0.32239   0.32363   0.34478   0.35735
 Alpha virt. eigenvalues --    0.36384   0.38438   0.38844   0.38939   0.39825
 Alpha virt. eigenvalues --    0.41239   0.41517   0.41648   0.42829   0.43880
 Alpha virt. eigenvalues --    0.44218   0.45471   0.47165   0.47441   0.47581
 Alpha virt. eigenvalues --    0.48736   0.48836   0.50851   0.51049   0.51335
 Alpha virt. eigenvalues --    0.51956   0.53421   0.53442   0.54519   0.54526
 Alpha virt. eigenvalues --    0.54827   0.54935   0.58721   0.59023   0.59112
 Alpha virt. eigenvalues --    0.59713   0.60285   0.61048   0.61383   0.62210
 Alpha virt. eigenvalues --    0.62798   0.63384   0.63512   0.65095   0.65662
 Alpha virt. eigenvalues --    0.65996   0.66228   0.66312   0.66824   0.70291
 Alpha virt. eigenvalues --    0.71214   0.71577   0.72504   0.74049   0.74226
 Alpha virt. eigenvalues --    0.75679   0.77113   0.78063   0.78853   0.79054
 Alpha virt. eigenvalues --    0.80259   0.81114   0.81996   0.82670   0.83966
 Alpha virt. eigenvalues --    0.84699   0.84766   0.85100   0.85606   0.85999
 Alpha virt. eigenvalues --    0.87855   0.88170   0.88478   0.89447   0.90521
 Alpha virt. eigenvalues --    0.92931   0.93699   0.94506   0.95641   0.97207
 Alpha virt. eigenvalues --    0.98281   0.98505   0.99444   0.99477   1.00727
 Alpha virt. eigenvalues --    1.01384   1.02062   1.02921   1.03071   1.03467
 Alpha virt. eigenvalues --    1.06637   1.06873   1.06950   1.08975   1.09581
 Alpha virt. eigenvalues --    1.10128   1.11051   1.13264   1.14533   1.16000
 Alpha virt. eigenvalues --    1.20328   1.21312   1.24020   1.25746   1.25999
 Alpha virt. eigenvalues --    1.26072   1.28177   1.28400   1.28978   1.29741
 Alpha virt. eigenvalues --    1.32993   1.33104   1.34585   1.43161   1.47973
 Alpha virt. eigenvalues --    1.48259   1.51932   1.52620   1.52937   1.53947
 Alpha virt. eigenvalues --    1.55988   1.56432   1.56504   1.56802   1.60876
 Alpha virt. eigenvalues --    1.62186   1.62651   1.63984   1.67266   1.68187
 Alpha virt. eigenvalues --    1.70477   1.72710   1.74620   1.75664   1.76940
 Alpha virt. eigenvalues --    1.77131   1.78197   1.84493   1.84894   1.87142
 Alpha virt. eigenvalues --    1.89096   1.89919   1.90424   1.90484   1.90537
 Alpha virt. eigenvalues --    1.92254   1.92395   1.92667   1.93706   1.95616
 Alpha virt. eigenvalues --    1.97520   1.98148   2.01070   2.02056   2.06677
 Alpha virt. eigenvalues --    2.07355   2.08083   2.08759   2.16335   2.18687
 Alpha virt. eigenvalues --    2.20713   2.22564   2.24625   2.24786   2.28839
 Alpha virt. eigenvalues --    2.29204   2.30638   2.30939   2.31858   2.33387
 Alpha virt. eigenvalues --    2.38072   2.39376   2.40692   2.42027   2.43846
 Alpha virt. eigenvalues --    2.44507   2.45032   2.53025   2.55527   2.58991
 Alpha virt. eigenvalues --    2.59894   2.60257   2.61822   2.62001   2.63479
 Alpha virt. eigenvalues --    2.63932   2.65619   2.66136   2.69545   2.69681
 Alpha virt. eigenvalues --    2.71352   2.73447   2.74049   2.74906   2.77078
 Alpha virt. eigenvalues --    2.78027   2.78123   2.79147   2.79483   2.80589
 Alpha virt. eigenvalues --    2.81582   2.83043   2.85253   2.86745   2.88915
 Alpha virt. eigenvalues --    2.89955   2.92312   3.07508   3.07513   3.09793
 Alpha virt. eigenvalues --    3.13313   3.14635   3.21367   3.22308   3.26782
 Alpha virt. eigenvalues --    3.32549   3.35034   3.36611   3.38159   3.41818
 Alpha virt. eigenvalues --    3.42260   3.50460   3.56080   3.69181   3.72842
 Alpha virt. eigenvalues --    3.76729   3.78254   3.96778   4.04300   4.06067
 Alpha virt. eigenvalues --    4.11663   4.14044   4.14898   4.83200   4.83331
 Alpha virt. eigenvalues --    9.68895   9.72757   9.96771   9.98767  23.43455
 Alpha virt. eigenvalues --   23.47067  23.89456  23.90720  23.91682  23.92673
 Alpha virt. eigenvalues --   24.01258  24.03453  24.03753  24.04951  24.13846
 Alpha virt. eigenvalues --   24.14176  25.76216  25.76727  25.94909  25.95554
 Alpha virt. eigenvalues --   26.22861  26.30280  26.64492  26.75189  26.90541
 Alpha virt. eigenvalues --   26.94128  26.94633  27.02985 215.69825 215.74090
 Alpha virt. eigenvalues --  216.01733 216.03910
          Condensed to atoms (all electrons):
               1          2          3          4          5          6
     1  C   20.608724   0.341668  -5.029865   4.310217  -5.029865   0.341668
     2  C    0.341668  25.708544  -5.028663  -3.947643   2.782469  -4.211099
     3  C   -5.029865  -5.028663  15.099625  -3.006942  -0.037281   2.782469
     4  C    4.310217  -3.947643  -3.006942  15.729923  -3.006942  -3.947643
     5  C   -5.029865   2.782469  -0.037281  -3.006942  15.099625  -5.028663
     6  C    0.341668  -4.211099   2.782469  -3.947643  -5.028663  25.708544
     7  C    7.591799  -0.434451  -2.062130   2.233124  -2.062130  -0.434451
     8  C   -0.434451   1.501145  -0.025757  -0.736200   0.861692   0.551279
     9  C   -2.062130  -0.025757  -0.882929   0.057176   0.279903   0.861693
    10  C    2.233124  -0.736200   0.057176  -0.091230   0.057176  -0.736200
    11  C   -2.062130   0.861693   0.279903   0.057176  -0.882929  -0.025757
    12  C   -0.434451   0.551279   0.861692  -0.736200  -0.025757   1.501147
    13  H   -0.043586  -0.069925   0.517021  -0.149948  -0.018141   0.067426
    14  H   -0.120062   0.045363  -0.063715   0.442415  -0.063715   0.045363
    15  H   -0.043586   0.067426  -0.018141  -0.149948   0.517021  -0.069925
    16  H   -0.015441   0.012545  -0.000949   0.000211  -0.000068   0.000553
    17  H   -0.011734   0.000557  -0.000022   0.000080  -0.000022   0.000557
    18  H   -0.015441   0.000553  -0.000068   0.000211  -0.000949   0.012545
    19  Cl  -3.196197  -1.404686  -0.999518   1.902301  -2.730199   5.395258
    20  Cl  -3.695044   2.477819   1.184814  -2.240316   5.047413 -17.018540
    21  Cl  -3.196196   5.395262  -2.730199   1.902301  -0.999518  -1.404685
    22  Cl  -3.695045 -17.018542   5.047414  -2.240317   1.184815   2.477819
               7          8          9         10         11         12
     1  C    7.591799  -0.434451  -2.062130   2.233124  -2.062130  -0.434451
     2  C   -0.434451   1.501145  -0.025757  -0.736200   0.861693   0.551279
     3  C   -2.062130  -0.025757  -0.882929   0.057176   0.279903   0.861692
     4  C    2.233124  -0.736200   0.057176  -0.091230   0.057176  -0.736200
     5  C   -2.062130   0.861692   0.279903   0.057176  -0.882929  -0.025757
     6  C   -0.434451   0.551279   0.861693  -0.736200  -0.025757   1.501147
     7  C   20.608724   0.341668  -5.029865   4.310217  -5.029865   0.341669
     8  C    0.341668  25.708543  -5.028663  -3.947643   2.782469  -4.211099
     9  C   -5.029865  -5.028663  15.099625  -3.006942  -0.037281   2.782469
    10  C    4.310217  -3.947643  -3.006942  15.729923  -3.006942  -3.947643
    11  C   -5.029865   2.782469  -0.037281  -3.006942  15.099626  -5.028664
    12  C    0.341669  -4.211099   2.782469  -3.947643  -5.028664  25.708546
    13  H   -0.015441   0.012545  -0.000949   0.000211  -0.000068   0.000553
    14  H   -0.011734   0.000557  -0.000022   0.000080  -0.000022   0.000557
    15  H   -0.015441   0.000553  -0.000068   0.000211  -0.000949   0.012545
    16  H   -0.043586  -0.069925   0.517021  -0.149948  -0.018141   0.067426
    17  H   -0.120062   0.045363  -0.063715   0.442415  -0.063715   0.045363
    18  H   -0.043586   0.067426  -0.018141  -0.149948   0.517021  -0.069925
    19  Cl  -3.695045   2.477819   1.184814  -2.240316   5.047414 -17.018543
    20  Cl  -3.196196  -1.404686  -0.999518   1.902301  -2.730199   5.395259
    21  Cl  -3.695045 -17.018540   5.047413  -2.240317   1.184815   2.477819
    22  Cl  -3.196196   5.395261  -2.730199   1.902301  -0.999518  -1.404686
              13         14         15         16         17         18
     1  C   -0.043586  -0.120062  -0.043586  -0.015441  -0.011734  -0.015441
     2  C   -0.069925   0.045363   0.067426   0.012545   0.000557   0.000553
     3  C    0.517021  -0.063715  -0.018141  -0.000949  -0.000022  -0.000068
     4  C   -0.149948   0.442415  -0.149948   0.000211   0.000080   0.000211
     5  C   -0.018141  -0.063715   0.517021  -0.000068  -0.000022  -0.000949
     6  C    0.067426   0.045363  -0.069925   0.000553   0.000557   0.012545
     7  C   -0.015441  -0.011734  -0.015441  -0.043586  -0.120062  -0.043586
     8  C    0.012545   0.000557   0.000553  -0.069925   0.045363   0.067426
     9  C   -0.000949  -0.000022  -0.000068   0.517021  -0.063715  -0.018141
    10  C    0.000211   0.000080   0.000211  -0.149948   0.442415  -0.149948
    11  C   -0.000068  -0.000022  -0.000949  -0.018141  -0.063715   0.517021
    12  C    0.000553   0.000557   0.012545   0.067426   0.045363  -0.069925
    13  H    0.541493  -0.006114  -0.000053  -0.000000  -0.000000  -0.000000
    14  H   -0.006114   0.554860  -0.006114  -0.000000   0.000000  -0.000000
    15  H   -0.000053  -0.006114   0.541493  -0.000000  -0.000000  -0.000000
    16  H   -0.000000  -0.000000  -0.000000   0.541493  -0.006114  -0.000053
    17  H   -0.000000   0.000000  -0.000000  -0.006114   0.554860  -0.006114
    18  H   -0.000000  -0.000000  -0.000000  -0.000053  -0.006114   0.541493
    19  Cl  -0.003695  -0.002358  -0.037702   0.010719   0.033262   0.060853
    20  Cl   0.010719   0.033262   0.060853  -0.003695  -0.002358  -0.037702
    21  Cl  -0.037702  -0.002358  -0.003695   0.060853   0.033262   0.010719
    22  Cl   0.060853   0.033262   0.010719  -0.037702  -0.002358  -0.003695
              19         20         21         22
     1  C   -3.196197  -3.695044  -3.196196  -3.695045
     2  C   -1.404686   2.477819   5.395262 -17.018542
     3  C   -0.999518   1.184814  -2.730199   5.047414
     4  C    1.902301  -2.240316   1.902301  -2.240317
     5  C   -2.730199   5.047413  -0.999518   1.184815
     6  C    5.395258 -17.018540  -1.404685   2.477819
     7  C   -3.695045  -3.196196  -3.695045  -3.196196
     8  C    2.477819  -1.404686 -17.018540   5.395261
     9  C    1.184814  -0.999518   5.047413  -2.730199
    10  C   -2.240316   1.902301  -2.240317   1.902301
    11  C    5.047414  -2.730199   1.184815  -0.999518
    12  C  -17.018543   5.395259   2.477819  -1.404686
    13  H   -0.003695   0.010719  -0.037702   0.060853
    14  H   -0.002358   0.033262  -0.002358   0.033262
    15  H   -0.037702   0.060853  -0.003695   0.010719
    16  H    0.010719  -0.003695   0.060853  -0.037702
    17  H    0.033262  -0.002358   0.033262  -0.002358
    18  H    0.060853  -0.037702   0.010719  -0.003695
    19  Cl  52.957238 -23.533241   4.190217  -2.378526
    20  Cl -23.533241  52.957234  -2.378526   4.190217
    21  Cl   4.190217  -2.378526  52.957241 -23.533250
    22  Cl  -2.378526   4.190217 -23.533250  52.957244
 Mulliken charges:
               1
     1  C   -0.341977
     2  C   -0.869355
     3  C    0.056066
     4  C   -0.381806
     5  C    0.056065
     6  C   -0.869355
     7  C   -0.341977
     8  C   -0.869355
     9  C    0.056065
    10  C   -0.381806
    11  C    0.056065
    12  C   -0.869355
    13  H    0.134801
    14  H    0.120498
    15  H    0.134801
    16  H    0.134801
    17  H    0.120498
    18  H    0.134801
    19  Cl   0.980131
    20  Cl   0.980131
    21  Cl   0.980131
    22  Cl   0.980131
 Sum of Mulliken charges =  -0.00000
 Mulliken charges with hydrogens summed into heavy atoms:
               1
     1  C   -0.341977
     2  C   -0.869355
     3  C    0.190867
     4  C   -0.261307
     5  C    0.190867
     6  C   -0.869355
     7  C   -0.341977
     8  C   -0.869355
     9  C    0.190867
    10  C   -0.261307
    11  C    0.190867
    12  C   -0.869355
    19  Cl   0.980131
    20  Cl   0.980131
    21  Cl   0.980131
    22  Cl   0.980131
 Electronic spatial extent (au):  <R**2>=           4685.3399
 Charge=             -0.0000 electrons
 Dipole moment (field-independent basis, Debye):
    X=              0.0000    Y=             -0.0000    Z=              0.0000  Tot=              0.0000
 Quadrupole moment (field-independent basis, Debye-Ang):
   XX=           -113.3610   YY=           -113.9948   ZZ=           -124.1071
   XY=             -0.0000   XZ=             -0.0000   YZ=              0.0000
 Traceless Quadrupole moment (field-independent basis, Debye-Ang):
   XX=              3.7933   YY=              3.1595   ZZ=             -6.9528
   XY=             -0.0000   XZ=             -0.0000   YZ=              0.0000
 Octapole moment (field-independent basis, Debye-Ang**2):
  XXX=              0.0000  YYY=             -0.0000  ZZZ=              0.0000  XYY=             -0.0000
  XXY=              0.0000  XXZ=              0.0001  XZZ=             -0.0000  YZZ=              0.0000
  YYZ=              0.0000  XYZ=              0.0000
 Hexadecapole moment (field-independent basis, Debye-Ang**3):
 XXXX=          -3185.2603 YYYY=          -2882.8558 ZZZZ=           -151.1455 XXXY=             -0.0000
 XXXZ=             -0.0001 YYYX=             -0.0000 YYYZ=              0.0000 ZZZX=             -0.0000
 ZZZY=             -0.0000 XXYY=          -1019.1105 XXZZ=           -658.1940 YYZZ=           -503.0830
 XXYZ=              0.0001 YYXZ=              0.0001 ZZXY=              0.0000
 N-N= 1.602517321734D+03 E-N=-8.648421827922D+03  KE= 2.298403858685D+03
 Calling FoFJK, ICntrl=      2127 FMM=F ISym2X=0 I1Cent= 0 IOpClX= 0 NMat=1 NMatS=1 NMatT=0.
 ***** Axes restored to original set *****
 -------------------------------------------------------------------
 Center     Atomic                   Forces (Hartrees/Bohr)
 Number     Number              X              Y              Z
 -------------------------------------------------------------------
      1        6          -0.014870621   -0.025406877    0.000127690
      2        6          -0.064673261    0.104616039    0.040954767
      3        6          -0.014150054   -0.002364367    0.004217846
      4        6          -0.007311706   -0.012492040    0.000062483
      5        6           0.004849152   -0.013526579   -0.004137818
      6        6           0.122703662   -0.005469736   -0.041452775
      7        6           0.014870610    0.025406882   -0.000127751
      8        6          -0.122703740    0.005469786    0.041452517
      9        6          -0.004849094    0.013526537    0.004137985
     10        6           0.007311648    0.012492064   -0.000062662
     11        6           0.014150054    0.002364358   -0.004217800
     12        6           0.064673264   -0.104616031   -0.040954791
     13        1           0.010881312    0.002221943   -0.003167518
     14        1           0.007268273    0.012418009   -0.000062362
     15        1          -0.003377186    0.010598947    0.003103232
     16        1           0.003377167   -0.010598932   -0.003103276
     17        1          -0.007268273   -0.012418005    0.000062354
     18        1          -0.010881282   -0.002221957    0.003167588
     19       17          -0.254516221   -0.263241943    0.034415284
     20       17           0.105035358    0.351063412    0.031325771
     21       17          -0.105036357   -0.351062900   -0.031328692
     22       17           0.254517295    0.263241390   -0.034412075
 -------------------------------------------------------------------
 Cartesian Forces:  Max     0.351063412 RMS     0.096314600

 GradGradGradGradGradGradGradGradGradGradGradGradGradGradGradGradGradGrad
 Berny optimization.
 FormGI is forming the generalized inverse of G from B-inverse, IUseBI=4.
 Internal  Forces:  Max     0.396799274 RMS     0.057466900
 Search for a local minimum.
 Step number   1 out of a maximum of  120
 All quantities printed in internal units (Hartrees-Bohrs-Radians)
 Mixed Optimization -- RFO/linear search
 Second derivative matrix not updated -- first step.
 ITU=  0
     Eigenvalues ---    0.00238   0.00657   0.01472   0.01569   0.01638
     Eigenvalues ---    0.01820   0.01842   0.01884   0.02070   0.02070
     Eigenvalues ---    0.02070   0.02070   0.02070   0.02070   0.02070
     Eigenvalues ---    0.02070   0.02070   0.02187   0.02658   0.16000
     Eigenvalues ---    0.16000   0.16000   0.16000   0.16000   0.16000
     Eigenvalues ---    0.22096   0.22096   0.23478   0.23500   0.24897
     Eigenvalues ---    0.24897   0.25000   0.25000   0.25000   0.25000
     Eigenvalues ---    0.25000   0.29120   0.29501   0.29539   0.29539
     Eigenvalues ---    0.37230   0.37230   0.37230   0.37230   0.37230
     Eigenvalues ---    0.37230   0.39861   0.41418   0.41547   0.41554
     Eigenvalues ---    0.44931   0.45249   0.45389   0.45389   0.45389
     Eigenvalues ---    0.45389   0.45389   0.45389   1.30935   1.32680
 RFO step:  Lambda=-2.80404846D-01 EMin= 2.37799105D-03
 Linear search not attempted -- first point.
 Maximum step size (   0.300) exceeded in Quadratic search.
    -- Step size scaled by   0.578
 Iteration  1 RMS(Cart)=  0.03653918 RMS(Int)=  0.00021105
 Iteration  2 RMS(Cart)=  0.00067365 RMS(Int)=  0.00002060
 Iteration  3 RMS(Cart)=  0.00000010 RMS(Int)=  0.00002060
 Variable       Old X    -DE/DX   Delta X   Delta X   Delta X     New X
                                 (Linear)    (Quad)   (Total)
    R1        2.64826  -0.00199   0.00000  -0.00137  -0.00134   2.64692
    R2        2.64826  -0.00199   0.00000  -0.00137  -0.00134   2.64692
    R3        2.64826  -0.00182   0.00000  -0.00143  -0.00143   2.64683
    R4        3.32592   0.10074   0.00000   0.10106   0.10106   3.42698
    R5        2.64826  -0.01357   0.00000  -0.01087  -0.01090   2.63736
    R6        2.02201   0.01137   0.00000   0.01006   0.01006   2.03207
    R7        2.64826  -0.01357   0.00000  -0.01087  -0.01090   2.63736
    R8        2.02201   0.01439   0.00000   0.01273   0.01273   2.03474
    R9        2.64826  -0.00182   0.00000  -0.00143  -0.00143   2.64683
   R10        2.02201   0.01137   0.00000   0.01006   0.01006   2.03207
   R11        3.32592   0.10074   0.00000   0.10106   0.10106   3.42698
   R12        2.64826  -0.00199   0.00000  -0.00137  -0.00134   2.64692
   R13        2.64826  -0.00199   0.00000  -0.00137  -0.00134   2.64692
   R14        2.64826  -0.00182   0.00000  -0.00143  -0.00143   2.64683
   R15        3.32592   0.10074   0.00000   0.10106   0.10106   3.42698
   R16        2.64826  -0.01357   0.00000  -0.01087  -0.01090   2.63736
   R17        2.02201   0.01137   0.00000   0.01006   0.01006   2.03207
   R18        2.64826  -0.01357   0.00000  -0.01087  -0.01090   2.63736
   R19        2.02201   0.01439   0.00000   0.01273   0.01273   2.03474
   R20        2.64826  -0.00182   0.00000  -0.00143  -0.00143   2.64683
   R21        2.02201   0.01137   0.00000   0.01006   0.01006   2.03207
   R22        3.32592   0.10074   0.00000   0.10106   0.10106   3.42698
   R23        3.16132   0.39680   0.00000   0.14261   0.14261   3.30393
   R24        3.16132   0.39680   0.00000   0.14261   0.14261   3.30393
    A1        2.09440  -0.03155   0.00000  -0.03372  -0.03365   2.06075
    A2        2.09440   0.01752   0.00000   0.01934   0.01936   2.11376
    A3        2.09440   0.00102   0.00000   0.00114   0.00114   2.09553
    A4        2.09440  -0.01854   0.00000  -0.02047  -0.02050   2.07389
    A5        2.09440   0.00297   0.00000   0.00321   0.00318   2.09758
    A6        2.09440   0.00055   0.00000   0.00106   0.00107   2.09547
    A7        2.09440  -0.00352   0.00000  -0.00427  -0.00426   2.09014
    A8        2.09440  -0.00942   0.00000  -0.01138  -0.01145   2.08295
    A9        2.09440   0.00471   0.00000   0.00569   0.00572   2.10012
   A10        2.09440   0.00471   0.00000   0.00569   0.00572   2.10012
   A11        2.09440   0.00297   0.00000   0.00321   0.00318   2.09758
   A12        2.09440  -0.00352   0.00000  -0.00427  -0.00426   2.09014
   A13        2.09440   0.00055   0.00000   0.00106   0.00107   2.09547
   A14        2.09440   0.01752   0.00000   0.01934   0.01936   2.11376
   A15        2.09440   0.00102   0.00000   0.00114   0.00114   2.09553
   A16        2.09440  -0.01854   0.00000  -0.02047  -0.02050   2.07389
   A17        2.09440  -0.03155   0.00000  -0.03372  -0.03365   2.06075
   A18        2.09440   0.01752   0.00000   0.01934   0.01936   2.11376
   A19        2.09440   0.00102   0.00000   0.00114   0.00114   2.09553
   A20        2.09440  -0.01854   0.00000  -0.02047  -0.02050   2.07389
   A21        2.09440   0.00297   0.00000   0.00321   0.00318   2.09758
   A22        2.09440   0.00055   0.00000   0.00106   0.00107   2.09547
   A23        2.09440  -0.00352   0.00000  -0.00427  -0.00426   2.09014
   A24        2.09440  -0.00942   0.00000  -0.01138  -0.01145   2.08295
   A25        2.09440   0.00471   0.00000   0.00569   0.00572   2.10012
   A26        2.09440   0.00471   0.00000   0.00569   0.00572   2.10012
   A27        2.09440   0.00297   0.00000   0.00321   0.00318   2.09758
   A28        2.09440  -0.00352   0.00000  -0.00427  -0.00426   2.09014
   A29        2.09440   0.00055   0.00000   0.00106   0.00107   2.09547
   A30        2.09440   0.01752   0.00000   0.01934   0.01936   2.11376
   A31        2.09440   0.00102   0.00000   0.00114   0.00114   2.09553
   A32        2.09440  -0.01854   0.00000  -0.02047  -0.02050   2.07389
   A33        2.09440  -0.01680   0.00000  -0.01800  -0.01796   2.07643
   A34        2.09440  -0.01680   0.00000  -0.01800  -0.01796   2.07643
   A35        2.09440  -0.01680   0.00000  -0.01800  -0.01796   2.07643
   A36        2.09440  -0.01680   0.00000  -0.01800  -0.01796   2.07643
    D1        0.00000   0.00000   0.00000   0.00000   0.00000   0.00000
    D2        3.14159   0.00000   0.00000   0.00000   0.00000   3.14159
    D3       -0.00000  -0.00000   0.00000  -0.00000  -0.00000  -0.00000
    D4        3.14159   0.00000   0.00000   0.00000   0.00000   3.14159
    D5        0.00000  -0.00000   0.00000  -0.00000  -0.00000   0.00000
    D6        3.14159  -0.00000   0.00000  -0.00000  -0.00000   3.14159
    D7       -3.14159  -0.00000   0.00000  -0.00000  -0.00000  -3.14159
    D8        0.00000  -0.00000   0.00000  -0.00000  -0.00000   0.00000
    D9        0.00000  -0.00000   0.00000  -0.00000  -0.00000   0.00000
   D10       -3.14159   0.00000   0.00000   0.00000   0.00000  -3.14159
   D11       -0.00000   0.00000   0.00000   0.00000   0.00000  -0.00000
   D12        3.14159   0.00000   0.00000   0.00000   0.00000   3.14159
   D13        3.14159   0.00000   0.00000   0.00000   0.00000   3.14159
   D14        0.00000  -0.00000   0.00000  -0.00000  -0.00000   0.00000
   D15        0.00000  -0.00000   0.00000  -0.00000  -0.00000   0.00000
   D16       -3.14159  -0.00000   0.00000  -0.00000  -0.00000  -3.14159
   D17       -3.14159  -0.00000   0.00000  -0.00000  -0.00000  -3.14159
   D18        0.00000  -0.00000   0.00000  -0.00000  -0.00000   0.00000
   D19       -0.00000   0.00000   0.00000   0.00000   0.00000  -0.00000
   D20        3.14159  -0.00000   0.00000  -0.00000  -0.00000   3.14159
   D21        3.14159   0.00000   0.00000   0.00000   0.00000   3.14159
   D22       -0.00000  -0.00000   0.00000  -0.00000  -0.00000  -0.00000
   D23        0.00001  -0.00000   0.00000  -0.00000  -0.00000   0.00001
   D24       -3.14159   0.00000   0.00000   0.00000   0.00000  -3.14159
   D25        0.00000   0.00000   0.00000   0.00000   0.00000   0.00000
   D26       -3.14159   0.00000   0.00000   0.00000   0.00000  -3.14159
   D27       -0.00000  -0.00000   0.00000  -0.00000  -0.00000  -0.00000
   D28        3.14159   0.00000   0.00000   0.00000   0.00000   3.14159
   D29       -0.00000  -0.00000   0.00000  -0.00000  -0.00000  -0.00000
   D30        3.14159  -0.00000   0.00000  -0.00000  -0.00000   3.14159
   D31        3.14159  -0.00000   0.00000  -0.00000  -0.00000   3.14159
   D32       -0.00000  -0.00000   0.00000  -0.00000  -0.00000  -0.00000
   D33        0.00000  -0.00000   0.00000  -0.00000  -0.00000   0.00000
   D34       -3.14159  -0.00000   0.00000   0.00000   0.00000  -3.14159
   D35       -0.00000   0.00000   0.00000   0.00000   0.00000  -0.00000
   D36       -3.14159  -0.00000   0.00000  -0.00000  -0.00000  -3.14159
   D37        3.14159   0.00000   0.00000   0.00000   0.00000   3.14159
   D38        0.00000  -0.00000   0.00000  -0.00000  -0.00000   0.00000
   D39        0.00000  -0.00000   0.00000  -0.00000  -0.00000   0.00000
   D40       -3.14159  -0.00000   0.00000  -0.00000  -0.00000  -3.14159
   D41        3.14159   0.00000   0.00000   0.00000   0.00000   3.14159
   D42        0.00000  -0.00000   0.00000  -0.00000  -0.00000   0.00000
   D43        0.00000   0.00000   0.00000   0.00000   0.00000   0.00000
   D44       -3.14159  -0.00000   0.00000  -0.00000  -0.00000  -3.14159
   D45        3.14159   0.00000   0.00000   0.00000   0.00000   3.14159
   D46       -0.00000  -0.00000   0.00000  -0.00000  -0.00000  -0.00000
   D47        0.00001  -0.00000   0.00000  -0.00000  -0.00000   0.00001
   D48       -3.14159   0.00000   0.00000   0.00000   0.00000  -3.14159
   D49       -0.00001  -0.00000   0.00000  -0.00000  -0.00000  -0.00001
   D50       -0.00000  -0.00000   0.00000  -0.00000  -0.00000  -0.00000
         Item               Value     Threshold  Converged?
 Maximum Force            0.396799     0.000450     NO 
 RMS     Force            0.057467     0.000300     NO 
 Maximum Displacement     0.111859     0.001800     NO 
 RMS     Displacement     0.036073     0.001200     NO 
 Predicted change in Energy=-1.278095D-01
 GradGradGradGradGradGradGradGradGradGradGradGradGradGradGradGradGradGrad

                          Input orientation:                          
 ---------------------------------------------------------------------
 Center     Atomic      Atomic             Coordinates (Angstroms)
 Number     Number       Type             X           Y           Z
 ---------------------------------------------------------------------
      1          6           0       -0.718561   -0.297042   -0.003986
      2          6           0        0.613768   -0.243984   -0.432963
      3          6           0        1.324143    0.963124   -0.440293
      4          6           0        0.708951    2.141891   -0.016231
      5          6           0       -0.618198    2.104268    0.413936
      6          6           0       -1.322839    0.893791    0.418745
      7          6           0       -1.761069   -2.078189    0.004958
      8          6           0       -1.156791   -3.269023   -0.417775
      9          6           0       -1.861432   -4.479500   -0.412965
     10          6           0       -3.188579   -4.517124    0.017208
     11          6           0       -3.803771   -3.338357    0.441271
     12          6           0       -3.093397   -2.131248    0.433939
     13          1           0        2.346454    0.984507   -0.773082
     14          1           0        1.252847    3.071149   -0.020896
     15          1           0       -1.098704    3.008571    0.742076
     16          1           0       -1.380927   -5.383802   -0.741108
     17          1           0       -3.732474   -5.446382    0.021876
     18          1           0       -4.826081   -3.359741    0.774065
     19         17           0       -3.928761   -0.621713    0.992664
     20         17           0       -3.045607    0.887183    0.985077
     21         17           0        0.565976   -3.262414   -0.984108
     22         17           0        1.449135   -1.753521   -0.991681
 ---------------------------------------------------------------------
                    Distance matrix (angstroms):
                    1          2          3          4          5
     1  C    0.000000
     2  C    1.400692   0.000000
     3  C    2.439472   1.400642   0.000000
     4  C    2.826010   2.423866   1.395630   0.000000
     5  C    2.439472   2.783751   2.409275   1.395630   0.000000
     6  C    1.400692   2.402163   2.783751   2.423866   1.400642
     7  C    2.063829   3.032480   4.355040   4.889839   4.355040
     8  C    3.032480   3.505135   4.905773   5.737614   5.463889
     9  C    4.355040   4.905773   6.306409   7.113866   6.750956
    10  C    4.889839   5.737614   7.113866   7.715849   7.113866
    11  C    4.355040   5.463889   6.750956   7.113866   6.306409
    12  C    3.032480   4.249277   5.463889   5.737614   4.905773
    13  H    3.410014   2.151063   1.075326   2.143311   3.384086
    14  H    3.902749   3.401225   2.150522   1.076739   2.150522
    15  H    3.410014   3.859067   3.384086   2.143311   1.075326
    16  H    5.182394   5.521910   6.905894   7.844048   7.614925
    17  H    5.966578   6.794236   8.177087   8.792588   8.177087
    18  H    5.182393   6.384106   7.614925   7.844048   6.905894
    19  Cl   3.376997   4.775946   5.670809   5.492153   4.327324
    20  Cl   2.792092   4.084287   4.596973   4.083333   2.774853
    21  Cl   3.376997   3.068707   4.327324   5.492153   5.670809
    22  Cl   2.792092   1.813478   2.774853   4.083333   4.596973
                    6          7          8          9         10
     6  C    0.000000
     7  C    3.032480   0.000000
     8  C    4.249277   1.400692   0.000000
     9  C    5.463889   2.439472   1.400642   0.000000
    10  C    5.737614   2.826010   2.423866   1.395630   0.000000
    11  C    4.905773   2.439472   2.783751   2.409275   1.395630
    12  C    3.505135   1.400692   2.402163   2.783751   2.423866
    13  H    3.859067   5.182393   5.521910   6.905894   7.844048
    14  H    3.401225   5.966578   6.794236   8.177087   8.792588
    15  H    2.151063   5.182394   6.384106   7.614925   7.844048
    16  H    6.384106   3.410014   2.151063   1.075326   2.143311
    17  H    6.794236   3.902749   3.401225   2.150522   1.076739
    18  H    5.521910   3.410014   3.859067   3.384086   2.143311
    19  Cl   3.068707   2.792092   4.084287   4.596973   4.083333
    20  Cl   1.813478   3.376997   4.775947   5.670809   5.492153
    21  Cl   4.775946   2.792092   1.813478   2.774853   4.083333
    22  Cl   4.084287   3.376997   3.068707   4.327324   5.492153
                   11         12         13         14         15
    11  C    0.000000
    12  C    1.400642   0.000000
    13  H    7.614925   6.384106   0.000000
    14  H    8.177087   6.794236   2.473022   0.000000
    15  H    6.905894   5.521910   4.273366   2.473022   0.000000
    16  H    3.384086   3.859067   7.379007   8.884912   8.527098
    17  H    2.150522   3.401225   8.884912   9.869326   8.884912
    18  H    1.075326   2.151063   8.527098   8.884912   7.379007
    19  Cl   2.774853   1.813478   6.713876   6.443105   4.609878
    20  Cl   4.327324   3.068707   5.672294   4.925281   2.889596
    21  Cl   4.596973   4.084287   4.609878   6.443105   6.713876
    22  Cl   5.670809   4.775946   2.889596   4.925281   5.672294
                   16         17         18         19         20
    16  H    0.000000
    17  H    2.473022   0.000000
    18  H    4.273366   2.473022   0.000000
    19  Cl   5.672294   4.925281   2.889596   0.000000
    20  Cl   6.713876   6.443105   4.609878   1.748367   0.000000
    21  Cl   2.889596   4.925281   5.672294   5.575266   5.842977
    22  Cl   4.609878   6.443105   6.713876   5.842977   5.575266
                   21         22
    21  Cl   0.000000
    22  Cl   1.748367   0.000000
 Stoichiometry    C12H6Cl4
 Framework group  C1[X(C12H6Cl4)]
 Deg. of freedom    60
 Full point group                 C1      NOp   1
 Largest Abelian subgroup         C1      NOp   1
 Largest concise Abelian subgroup C1      NOp   1
                         Standard orientation:                         
 ---------------------------------------------------------------------
 Center     Atomic      Atomic             Coordinates (Angstroms)
 Number     Number       Type             X           Y           Z
 ---------------------------------------------------------------------
      1          6           0        1.031914   -0.000000   -0.000001
      2          6           0        1.752567   -1.201082    0.000000
      3          6           0        3.153204   -1.204638    0.000002
      4          6           0        3.857925   -0.000000    0.000002
      5          6           0        3.153205    1.204637   -0.000001
      6          6           0        1.752567    1.201082   -0.000002
      7          6           0       -1.031914    0.000000   -0.000002
      8          6           0       -1.752567   -1.201082   -0.000003
      9          6           0       -3.153205   -1.204637   -0.000003
     10          6           0       -3.857925    0.000000   -0.000000
     11          6           0       -3.153204    1.204638    0.000002
     12          6           0       -1.752567    1.201082    0.000001
     13          1           0        3.689503   -2.136683    0.000003
     14          1           0        4.934663   -0.000000    0.000004
     15          1           0        3.689504    2.136683   -0.000003
     16          1           0       -3.689504   -2.136683   -0.000004
     17          1           0       -4.934663    0.000000    0.000002
     18          1           0       -3.689503    2.136683    0.000006
     19         17           0       -0.874183    2.787633    0.000005
     20         17           0        0.874184    2.787633   -0.000005
     21         17           0       -0.874184   -2.787633   -0.000001
     22         17           0        0.874183   -2.787633    0.000003
 ---------------------------------------------------------------------
 Rotational constants (GHZ):           0.4148250           0.4061677           0.2052253
 Standard basis: 6-311+G(d,p) (5D, 7F)
 There are   436 symmetry adapted cartesian basis functions of A   symmetry.
 There are   420 symmetry adapted basis functions of A   symmetry.
   420 basis functions,   692 primitive gaussians,   436 cartesian basis functions
    73 alpha electrons       73 beta electrons
       nuclear repulsion energy      1576.7079083465 Hartrees.
 NAtoms=   22 NActive=   22 NUniq=   22 SFac= 1.00D+00 NAtFMM=   60 NAOKFM=F Big=F
 Integral buffers will be    131072 words long.
 Raffenetti 2 integral format.
 Two-electron integral symmetry is turned on.
 One-electron integrals computed using PRISM.
 NBasis=   420 RedAO= T EigKep=  2.36D-06  NBF=   420
 NBsUse=   415 1.00D-06 EigRej=  9.54D-07 NBFU=   415
 Initial guess from the checkpoint file:  "./Gau-280635.chk"
 B after Tr=     0.000000    0.000000   -0.000000
         Rot=    1.000000   -0.000000    0.000000    0.000000 Ang=   0.00 deg.
 ExpMin= 4.38D-02 ExpMax= 1.06D+05 ExpMxC= 3.62D+03 IAcc=3 IRadAn=         5 AccDes= 0.00D+00
 Harris functional with IExCor=  402 and IRadAn=       5 diagonalized for initial guess.
 HarFok:  IExCor=  402 AccDes= 0.00D+00 IRadAn=         5 IDoV= 1 UseB2=F ITyADJ=14
 ICtDFT=  3500011 ScaDFX=  1.000000  1.000000  1.000000  1.000000
 FoFCou: FMM=F IPFlag=           0 FMFlag=      100000 FMFlg1=           0
         NFxFlg=           0 DoJE=T BraDBF=F KetDBF=T FulRan=T
         wScrn=  0.000000 ICntrl=       500 IOpCl=  0 I1Cent=   200000004 NGrid=           0
         NMat0=    1 NMatS0=      1 NMatT0=    0 NMatD0=    1 NMtDS0=    0 NMtDT0=    0
 Petite list used in FoFCou.
 Requested convergence on RMS density matrix=1.00D-08 within  32 cycles.
 Requested convergence on MAX density matrix=1.00D-06.
 Requested convergence on             energy=1.00D-06.
 No special actions if energy rises.
 Restarting incremental Fock formation.
 SCF Done:  E(RB3LYP) =  -2301.00519345     A.U. after   23 cycles
            NFock= 23  Conv=0.23D-08     -V/T= 2.0015
 QCSCF skips out because SCF is already converged.
 Calling FoFJK, ICntrl=      2127 FMM=F ISym2X=0 I1Cent= 0 IOpClX= 0 NMat=1 NMatS=1 NMatT=0.
 ***** Axes restored to original set *****
 -------------------------------------------------------------------
 Center     Atomic                   Forces (Hartrees/Bohr)
 Number     Number              X              Y              Z
 -------------------------------------------------------------------
      1        6          -0.017541927   -0.029970760    0.000150508
      2        6          -0.054626480    0.082545713    0.033499823
      3        6          -0.008028664   -0.005808625    0.001554251
      4        6          -0.003879195   -0.006627521    0.000033062
      5        6          -0.001139707   -0.009855938   -0.001475425
      6        6           0.098573768   -0.007460789   -0.033876930
      7        6           0.017541929    0.029970758   -0.000150553
      8        6          -0.098573823    0.007460828    0.033876742
      9        6           0.001139748    0.009855909    0.001475538
     10        6           0.003879150    0.006627542   -0.000033209
     11        6           0.008028683    0.005808607   -0.001554163
     12        6           0.054626475   -0.082545706   -0.033499860
     13        1           0.007148293    0.000982299   -0.002170496
     14        1           0.004569916    0.007807793   -0.000039205
     15        1          -0.002634400    0.006729729    0.002131850
     16        1           0.002634392   -0.006729720   -0.002131863
     17        1          -0.004569923   -0.007807787    0.000039179
     18        1          -0.007148280   -0.000982305    0.002170524
     19       17          -0.194473060   -0.194267216    0.027587142
     20       17           0.074269513    0.264887810    0.025277841
     21       17          -0.074270294   -0.264887424   -0.025280081
     22       17           0.194473888    0.194266805   -0.027584674
 -------------------------------------------------------------------
 Cartesian Forces:  Max     0.264887810 RMS     0.073059305

 GradGradGradGradGradGradGradGradGradGradGradGradGradGradGradGradGradGrad
 Berny optimization.
 Using GEDIIS/GDIIS optimizer.
 FormGI is forming the generalized inverse of G from B-inverse, IUseBI=4.
 Internal  Forces:  Max     0.288226382 RMS     0.042602705
 Search for a local minimum.
 Step number   2 out of a maximum of  120
 All quantities printed in internal units (Hartrees-Bohrs-Radians)
 Mixed Optimization -- RFO/linear search
 Update second derivatives using D2CorX and points    1    2
 DE= -1.41D-01 DEPred=-1.28D-01 R= 1.10D+00
 TightC=F SS=  1.41D+00  RLast= 3.00D-01 DXNew= 5.0454D-01 9.0000D-01
 Trust test= 1.10D+00 RLast= 3.00D-01 DXMaxT set to 5.05D-01
 ITU=  1  0
 Use linear search instead of GDIIS.
 Linear search step of   0.600 exceeds DXMaxT=   0.505 but not scaled.
 Quartic linear search produced a step of  2.00000.
 Iteration  1 RMS(Cart)=  0.05555778 RMS(Int)=  0.01162552
 Iteration  2 RMS(Cart)=  0.01706138 RMS(Int)=  0.00012102
 Iteration  3 RMS(Cart)=  0.00000223 RMS(Int)=  0.00012101
 Iteration  4 RMS(Cart)=  0.00000000 RMS(Int)=  0.00012101
 Variable       Old X    -DE/DX   Delta X   Delta X   Delta X     New X
                                 (Linear)    (Quad)   (Total)
    R1        2.64692   0.00453  -0.00268   0.00000  -0.00249   2.64443
    R2        2.64692   0.00453  -0.00268   0.00000  -0.00249   2.64443
    R3        2.64683  -0.00388  -0.00287   0.00000  -0.00286   2.64397
    R4        3.42698   0.07598   0.20212   0.00000   0.20212   3.62910
    R5        2.63736  -0.01133  -0.02181   0.00000  -0.02200   2.61536
    R6        2.03207   0.00749   0.02013   0.00000   0.02013   2.05220
    R7        2.63736  -0.01133  -0.02181   0.00000  -0.02200   2.61536
    R8        2.03474   0.00905   0.02547   0.00000   0.02547   2.06021
    R9        2.64683  -0.00388  -0.00287   0.00000  -0.00286   2.64397
   R10        2.03207   0.00749   0.02013   0.00000   0.02013   2.05220
   R11        3.42698   0.07598   0.20212   0.00000   0.20212   3.62910
   R12        2.64692   0.00453  -0.00268   0.00000  -0.00249   2.64443
   R13        2.64692   0.00453  -0.00268   0.00000  -0.00249   2.64443
   R14        2.64683  -0.00388  -0.00287   0.00000  -0.00286   2.64397
   R15        3.42698   0.07598   0.20212   0.00000   0.20212   3.62910
   R16        2.63736  -0.01133  -0.02181   0.00000  -0.02200   2.61536
   R17        2.03207   0.00749   0.02013   0.00000   0.02013   2.05220
   R18        2.63736  -0.01133  -0.02181   0.00000  -0.02200   2.61536
   R19        2.03474   0.00905   0.02547   0.00000   0.02547   2.06021
   R20        2.64683  -0.00388  -0.00287   0.00000  -0.00286   2.64397
   R21        2.03207   0.00749   0.02013   0.00000   0.02013   2.05220
   R22        3.42698   0.07598   0.20212   0.00000   0.20212   3.62910
   R23        3.30393   0.28823   0.28522   0.00000   0.28522   3.58916
   R24        3.30393   0.28823   0.28522   0.00000   0.28522   3.58916
    A1        2.06075  -0.03467  -0.06729   0.00000  -0.06686   1.99389
    A2        2.11376   0.01876   0.03872   0.00000   0.03887   2.15263
    A3        2.09553   0.00702   0.00228   0.00000   0.00230   2.09784
    A4        2.07389  -0.02578  -0.04100   0.00000  -0.04117   2.03272
    A5        2.09758   0.00321   0.00637   0.00000   0.00619   2.10377
    A6        2.09547  -0.00074   0.00215   0.00000   0.00224   2.09771
    A7        2.09014  -0.00246  -0.00852   0.00000  -0.00843   2.08171
    A8        2.08295  -0.00927  -0.02289   0.00000  -0.02326   2.05969
    A9        2.10012   0.00463   0.01145   0.00000   0.01163   2.11175
   A10        2.10012   0.00463   0.01145   0.00000   0.01163   2.11175
   A11        2.09758   0.00321   0.00637   0.00000   0.00619   2.10377
   A12        2.09014  -0.00246  -0.00852   0.00000  -0.00843   2.08171
   A13        2.09547  -0.00074   0.00215   0.00000   0.00224   2.09771
   A14        2.11376   0.01876   0.03872   0.00000   0.03887   2.15263
   A15        2.09553   0.00702   0.00228   0.00000   0.00230   2.09784
   A16        2.07389  -0.02578  -0.04100   0.00000  -0.04117   2.03272
   A17        2.06075  -0.03467  -0.06729   0.00000  -0.06686   1.99389
   A18        2.11376   0.01876   0.03872   0.00000   0.03887   2.15263
   A19        2.09553   0.00702   0.00228   0.00000   0.00230   2.09784
   A20        2.07389  -0.02578  -0.04100   0.00000  -0.04117   2.03272
   A21        2.09758   0.00321   0.00637   0.00000   0.00619   2.10377
   A22        2.09547  -0.00074   0.00215   0.00000   0.00224   2.09771
   A23        2.09014  -0.00246  -0.00852   0.00000  -0.00843   2.08171
   A24        2.08295  -0.00927  -0.02289   0.00000  -0.02326   2.05969
   A25        2.10012   0.00463   0.01145   0.00000   0.01163   2.11175
   A26        2.10012   0.00463   0.01145   0.00000   0.01163   2.11175
   A27        2.09758   0.00321   0.00637   0.00000   0.00619   2.10377
   A28        2.09014  -0.00246  -0.00852   0.00000  -0.00843   2.08171
   A29        2.09547  -0.00074   0.00215   0.00000   0.00224   2.09771
   A30        2.11376   0.01876   0.03872   0.00000   0.03887   2.15263
   A31        2.09553   0.00702   0.00228   0.00000   0.00230   2.09784
   A32        2.07389  -0.02578  -0.04100   0.00000  -0.04117   2.03272
   A33        2.07643  -0.02435  -0.03593   0.00000  -0.03573   2.04070
   A34        2.07643  -0.02435  -0.03593   0.00000  -0.03573   2.04070
   A35        2.07643  -0.02435  -0.03593   0.00000  -0.03573   2.04070
   A36        2.07643  -0.02435  -0.03593   0.00000  -0.03573   2.04070
    D1        0.00000  -0.00000   0.00000   0.00000   0.00000   0.00000
    D2        3.14159   0.00000   0.00000   0.00000   0.00000  -3.14159
    D3       -0.00000   0.00000  -0.00000   0.00000  -0.00000  -0.00000
    D4        3.14159   0.00000   0.00000   0.00000   0.00000   3.14159
    D5        0.00000  -0.00000  -0.00000   0.00000  -0.00000   0.00000
    D6        3.14159   0.00000  -0.00000   0.00000  -0.00000   3.14159
    D7       -3.14159  -0.00000  -0.00000   0.00000  -0.00000  -3.14159
    D8        0.00000  -0.00000  -0.00000   0.00000  -0.00000   0.00000
    D9        0.00000  -0.00000  -0.00000   0.00000  -0.00000   0.00000
   D10       -3.14159   0.00000   0.00000   0.00000   0.00000  -3.14159
   D11       -0.00000   0.00000   0.00000   0.00000   0.00000  -0.00000
   D12        3.14159   0.00000   0.00000   0.00000   0.00000   3.14159
   D13        3.14159   0.00000   0.00000   0.00000   0.00000   3.14159
   D14        0.00000  -0.00000  -0.00000   0.00000  -0.00000   0.00000
   D15        0.00000  -0.00000  -0.00000   0.00000  -0.00000   0.00000
   D16       -3.14159  -0.00000  -0.00000   0.00000  -0.00000  -3.14159
   D17       -3.14159  -0.00000  -0.00000   0.00000  -0.00000  -3.14159
   D18        0.00000  -0.00000  -0.00000   0.00000  -0.00000   0.00000
   D19       -0.00000   0.00000   0.00000   0.00000   0.00000  -0.00000
   D20        3.14159  -0.00000  -0.00000   0.00000  -0.00000   3.14159
   D21        3.14159   0.00000   0.00000   0.00000   0.00000   3.14159
   D22       -0.00000  -0.00000  -0.00000   0.00000  -0.00000  -0.00000
   D23        0.00001  -0.00000  -0.00000   0.00000  -0.00000   0.00001
   D24       -3.14159   0.00000   0.00000   0.00000   0.00000  -3.14158
   D25        0.00000  -0.00000   0.00000   0.00000   0.00000   0.00000
   D26       -3.14159   0.00000   0.00000   0.00000   0.00000  -3.14159
   D27       -0.00000   0.00000  -0.00000   0.00000  -0.00000  -0.00000
   D28        3.14159   0.00000   0.00000   0.00000   0.00000   3.14159
   D29       -0.00000  -0.00000  -0.00000   0.00000  -0.00000  -0.00000
   D30        3.14159  -0.00000  -0.00000   0.00000  -0.00000   3.14159
   D31        3.14159  -0.00000  -0.00000   0.00000  -0.00000   3.14159
   D32       -0.00000  -0.00000  -0.00000   0.00000  -0.00000  -0.00000
   D33        0.00000  -0.00000  -0.00000   0.00000  -0.00000   0.00000
   D34       -3.14159  -0.00000   0.00000   0.00000   0.00000  -3.14159
   D35       -0.00000   0.00000   0.00000   0.00000   0.00000  -0.00000
   D36       -3.14159  -0.00000  -0.00000   0.00000  -0.00000  -3.14159
   D37        3.14159   0.00000   0.00000   0.00000   0.00000   3.14159
   D38        0.00000  -0.00000  -0.00000   0.00000  -0.00000   0.00000
   D39        0.00000  -0.00000  -0.00000   0.00000  -0.00000   0.00000
   D40       -3.14159  -0.00000  -0.00000   0.00000  -0.00000  -3.14159
   D41        3.14159   0.00000   0.00000   0.00000   0.00000   3.14159
   D42        0.00000  -0.00000  -0.00000   0.00000  -0.00000   0.00000
   D43        0.00000   0.00000   0.00000   0.00000   0.00000   0.00000
   D44       -3.14159  -0.00000  -0.00000   0.00000  -0.00000  -3.14159
   D45        3.14159   0.00000   0.00000   0.00000   0.00000   3.14159
   D46       -0.00000  -0.00000  -0.00000   0.00000  -0.00000  -0.00000
   D47        0.00001  -0.00000  -0.00000   0.00000  -0.00000   0.00001
   D48       -3.14159   0.00000   0.00000   0.00000   0.00000  -3.14159
   D49       -0.00001   0.00000  -0.00000   0.00000  -0.00000  -0.00001
   D50       -0.00000  -0.00000  -0.00000   0.00000  -0.00000  -0.00000
         Item               Value     Threshold  Converged?
 Maximum Force            0.288226     0.000450     NO 
 RMS     Force            0.042603     0.000300     NO 
 Maximum Displacement     0.224182     0.001800     NO 
 RMS     Displacement     0.069077     0.001200     NO 
 Predicted change in Energy=-1.641616D-01
 GradGradGradGradGradGradGradGradGradGradGradGradGradGradGradGradGradGrad

                          Input orientation:                          
 ---------------------------------------------------------------------
 Center     Atomic      Atomic             Coordinates (Angstroms)
 Number     Number       Type             X           Y           Z
 ---------------------------------------------------------------------
      1          6           0       -0.704602   -0.273193   -0.004105
      2          6           0        0.626588   -0.174206   -0.424081
      3          6           0        1.342311    1.027957   -0.434102
      4          6           0        0.745862    2.204956   -0.016548
      5          6           0       -0.570594    2.151807    0.407181
      6          6           0       -1.268317    0.939069    0.409285
      7          6           0       -1.775028   -2.102038    0.005078
      8          6           0       -1.211315   -3.314300   -0.408316
      9          6           0       -1.909037   -4.527038   -0.406210
     10          6           0       -3.225491   -4.580188    0.017524
     11          6           0       -3.821938   -3.403190    0.435081
     12          6           0       -3.106216   -2.201027    0.425058
     13          1           0        2.374619    1.046128   -0.770787
     14          1           0        1.296566    3.145845   -0.021272
     15          1           0       -1.058779    3.063283    0.739197
     16          1           0       -1.420853   -5.438513   -0.738230
     17          1           0       -3.776194   -5.521078    0.022251
     18          1           0       -4.854244   -3.421362    0.771772
     19         17           0       -4.047393   -0.639542    1.028400
     20         17           0       -3.087997    0.999615    1.020157
     21         17           0        0.608366   -3.374846   -1.019189
     22         17           0        1.567767   -1.735692   -1.027416
 ---------------------------------------------------------------------
                    Distance matrix (angstroms):
                    1          2          3          4          5
     1  C    0.000000
     2  C    1.399373   0.000000
     3  C    2.463279   1.399126   0.000000
     4  C    2.871450   2.416758   1.383990   0.000000
     5  C    2.463279   2.744918   2.372762   1.383990   0.000000
[...]
 04947406,0.00948064,-0.02811762,-0.03118736,0.02252267,0.00578022,-0.0
 4022184,-0.06072742,-0.12636954,-0.25101280,0.03177937,0.19270449,0.48
 634859,0.00500548,0.00917098,0.00431810,-0.00073484,-0.00308929,-0.001
 01752,-0.00073431,-0.00003168,-0.00061146,-0.00016639,-0.00024942,0.00
 009657,0.00060842,-0.00078615,0.00006704,-0.00226685,-0.00203670,-0.00
 077426,0.11052564,0.05881219,-0.20200288,0.00850050,-0.03974306,-0.052
 70603,0.01827763,0.02168737,-0.01418220,-0.02091575,-0.01566885,0.0283
 0285,0.01062200,-0.01970110,-0.10299835,-0.15537845,0.03239755,0.44655
 875,0.00103320,-0.00281428,-0.00097987,-0.01155305,0.00254635,-0.00622
 555,-0.30223768,-0.01067492,-0.10339999,-0.00695012,-0.00220052,-0.003
 49940,0.00177414,0.00169146,-0.00239124,0.00056171,-0.00001619,0.00050
 871,-0.00028934,0.00024429,-0.00027303,-0.00007562,-0.00008962,0.00014
 829,0.00001645,-0.00004758,-0.00001439,-0.00001147,-0.00000451,-0.0000
 0872,-0.00001389,-0.00001471,0.00005148,0.00004253,-0.00013320,-0.0002
 2293,0.31728590,-0.00231986,-0.00392874,0.00135172,-0.02574643,0.00125
 138,-0.00987246,-0.00798049,-0.05521733,0.00193942,0.02491744,0.005277
 15,0.00937213,0.00131412,-0.00361780,0.00308181,0.00004659,-0.00150271
 ,0.00021418,-0.00107027,0.00038280,-0.00045740,-0.00019952,-0.00006718
 ,0.00026294,0.00006612,-0.00005448,-0.00000634,-0.00003832,-0.00003603
 ,-0.00000299,0.00004220,-0.00004805,0.00006153,0.00000178,-0.00021116,
 -0.00019988,0.01018997,0.05613705,-0.00109884,0.00115409,0.00454318,0.
 00076060,0.00133425,0.00254323,-0.10407232,0.00087737,-0.07601155,-0.0
 1018917,-0.00137402,-0.00044039,-0.00229861,0.00323030,0.00504685,0.00
 049232,0.00019242,-0.00056217,0.00005190,0.00006344,0.00025240,-0.0000
 7176,0.00008380,0.00011142,-0.00000332,0.00001189,-0.00003762,-0.00000
 037,0.00001039,0.00001068,-0.00000175,-0.00002410,-0.00001363,-0.00000
 922,-0.00003091,0.00013761,0.11359158,-0.00385566,0.07013778,-0.000758
 24,0.00075420,-0.00008980,0.00083942,0.00187146,-0.00287351,0.01041957
 ,0.01321177,-0.00061231,-0.12725281,-0.12372478,-0.00519056,-0.0102745
 9,-0.02630964,0.00095144,-0.00263202,0.00019261,-0.00383107,-0.0000131
 8,-0.00001036,0.00023384,0.00000589,0.00003474,0.00000527,-0.00000350,
 0.00000838,0.00001302,0.00000157,-0.00000407,-0.00000263,-0.00000326,0
 .00000616,0.00001018,-0.00000581,-0.00003651,-0.00004938,0.00007522,-0
 .00003937,0.00167681,0.13052819,0.00075426,0.00008791,0.00002965,0.002
 14668,-0.00133980,0.00289055,-0.01465365,-0.01746496,-0.00057090,-0.12
 372415,-0.26539613,0.00740351,0.00155588,0.00295293,0.00080760,-0.0000
 8314,0.00208367,0.00116402,-0.00001035,-0.00003274,-0.00014354,-0.0000
 3020,-0.00000643,0.00006115,0.00000604,0.00000447,-0.00000493,-0.00000
 406,-0.00000288,0.00000176,0.00000851,0.00000423,-0.00000986,0.0000284
 1,0.00000604,-0.00003391,0.00052837,0.00067257,-0.00097839,0.13329379,
 0.27925310,-0.00008914,0.00002883,-0.00104530,-0.00294107,0.00278419,0
 .00507581,0.00626689,0.01046355,0.00362592,-0.00519106,0.00740100,-0.0
 4087352,-0.00592552,-0.01022423,0.00390532,-0.00376544,0.00127096,0.00
 512394,0.00023399,-0.00014356,-0.00046969,-0.00006435,-0.00005915,0.00
 004462,0.00001057,-0.00000927,-0.00003086,-0.00000262,0.00000175,0.000
 00929,0.00001271,-0.00000552,-0.00003086,0.00002021,0.00008634,0.00004
 387,0.00153730,-0.00120223,-0.00322985,0.00867978,-0.00987582,0.031361
 08,-0.00059703,-0.00323970,-0.00152044,-0.00102299,-0.00084624,0.00008
 560,-0.00371195,-0.00177531,-0.00370596,-0.00749011,0.02461262,-0.0103
 3220,-0.10752071,0.10174908,-0.05400917,0.00814668,-0.01464654,0.00582
 291,0.00057772,-0.00058204,0.00027413,-0.00009350,-0.00007318,0.000070
 22,-0.00005173,0.00002057,-0.00002857,-0.00001202,-0.00003863,-0.00000
 053,-0.00004564,0.00003140,-0.00000206,0.00005055,-0.00013003,-0.00015
 347,-0.00034710,0.00111282,-0.00049469,0.00036624,0.00012369,0.0017511
 1,0.11124556,-0.00373367,-0.00231884,0.00039259,-0.00090732,0.00005981
 ,-0.00055015,-0.00139828,0.00179335,0.00067163,-0.00250655,0.00581297,
 -0.00162404,0.09905561,-0.24734251,0.09175986,0.01364459,-0.01818483,0
 .01052798,0.00073270,-0.00047230,0.00046770,-0.00020557,-0.00006695,0.
 00029916,-0.00003628,-0.00001171,-0.00007458,-0.00000481,-0.00003542,0
 .00001015,-0.00008226,0.00000771,0.00001575,-0.00002285,-0.00020171,-0
 .00025065,-0.00021467,0.00016607,-0.00007473,0.00069191,0.00038575,-0.
 00084238,-0.10591831,0.25943025,-0.00140051,0.00058967,0.00456341,0.00
 010180,-0.00052329,-0.00054010,-0.00379864,0.00052222,0.00512298,-0.00
 363459,0.00910938,-0.00043248,-0.05334510,0.09283455,-0.07860918,-0.00
 116352,-0.00068313,0.00227912,-0.00005022,-0.00005295,0.00024065,0.000
 02988,0.00002862,0.00012936,0.00002145,0.00001298,-0.00001218,-0.00000
 885,-0.00000325,0.00001068,-0.00001010,-0.00000428,-0.00003770,-0.0001
 0693,0.00003022,0.00011978,-0.00016670,0.00045033,0.00003070,0.0016115
 0,-0.00106670,-0.00323447,0.06062446,-0.10002187,0.07288666,0.00034505
 ,-0.00036965,-0.00057775,0.00019100,-0.00019233,0.00006683,-0.00004169
 ,0.00003004,0.00001518,-0.00000449,-0.00003370,-0.00000299,-0.00003317
 ,-0.00000513,0.00005361,-0.00010885,-0.00008505,0.00002873,0.00177769,
 -0.00420831,0.00195280,0.00323013,-0.01045366,-0.01244689,-0.04400998,
 0.00434081,0.02219507,0.00272331,0.01175557,0.01360876,0.00232493,-0.0
 0338261,0.00459259,-0.00102592,-0.00036817,0.00019130,-0.00000750,-0.0
 0000859,0.00000142,-0.00000063,-0.00000021,-0.00000557,-0.00000220,-0.
 00001304,-0.00000044,0.03832790,0.00024344,-0.00025457,-0.00099112,0.0
 0006263,-0.00025508,0.00013349,-0.00007085,0.00000129,0.00004880,-0.00
 001791,-0.00003321,-0.00001675,0.00001621,-0.00003179,0.00007595,-0.00
 035211,0.00002307,-0.00016122,-0.00443842,-0.00210766,0.00032300,0.002
 74123,-0.01311945,-0.02193393,0.00308539,-0.16138868,-0.14188515,-0.00
 089109,0.00890473,0.00771833,-0.00320807,0.00187624,0.00071915,-0.0003
 9572,-0.00047427,0.00098653,-0.00001434,-0.00001878,-0.00000140,0.0000
 0309,-0.00000371,-0.00000595,-0.00001094,-0.00001994,0.00000315,-0.000
 36873,0.16664389,0.00008071,0.00014693,0.00025578,0.00008291,-0.000030
 98,0.00003289,-0.00001404,0.00000009,-0.00003518,0.00001396,0.00001251
 ,0.00000094,-0.00000260,-0.00002285,-0.00001071,-0.00000020,-0.0000184
 3,0.00005454,0.00170787,-0.00010601,0.00197870,0.00171975,0.00256207,0
 .00213234,0.02083878,-0.14421347,-0.22807404,0.00003767,-0.01576464,-0
 .01374006,0.00478149,0.00104603,-0.00099841,0.00015808,0.00093335,-0.0
 0000315,0.00000001,-0.00000299,0.00000376,-0.00000203,0.00000017,0.000
 00044,-0.00000295,-0.00000203,-0.00000037,-0.02664794,0.15363010,0.238
 59064,-0.00036206,0.00018729,-0.00023639,0.00002017,-0.00009627,0.0000
 3626,-0.00002058,0.00001486,-0.00001134,0.00000559,-0.00000634,0.00000
 278,-0.00002118,0.00001952,-0.00001268,0.00004584,0.00005715,0.0000084
 2,-0.00064175,0.00068812,0.00006825,0.00328769,-0.00215531,0.00444439,
 -0.00476475,-0.01553953,-0.00091917,-0.11676565,-0.12962543,0.00891362
 ,0.00469319,0.00256571,0.00096272,0.00487690,-0.00142235,0.00228184,-0
 .00000402,-0.00000654,0.00000141,-0.00000199,0.00000006,0.,0.00000376,
 0.00000492,0.00000167,-0.00217274,0.00188708,-0.00161638,0.11462460,0.
 00018731,-0.00014447,0.00013904,0.00004267,0.00002304,0.00000849,0.000
 01986,-0.00000154,0.00000793,-0.00000634,-0.00000159,-0.00000149,0.000
 01452,-0.00000096,0.00000567,-0.00008181,-0.00000230,-0.00003465,0.000
 68794,0.00012545,-0.00006556,-0.00228031,0.00281031,-0.00018535,-0.002
 54910,-0.00226262,-0.00169882,-0.12962709,-0.26208223,-0.00104931,-0.0
 1042284,-0.01232126,0.00211672,-0.00129742,0.00112280,-0.00382986,0.00
 000054,0.00000275,-0.00000133,0.00000005,-0.00000193,0.,-0.00000216,-0
 .00000493,-0.00000050,0.00162358,-0.00032891,0.00107404,0.14226310,0.2
 7420583,-0.00023633,0.00013899,-0.00000898,0.00000189,-0.00004655,0.00
 000088,-0.00001251,0.00000589,-0.00000775,0.00000278,-0.00000150,0.000
 00398,-0.00001141,0.00000762,-0.00000774,0.00004279,0.00002041,0.00000
 056,0.00006838,-0.00006564,-0.00119941,0.00430573,-0.00042392,-0.00152
 401,0.01303486,0.02242701,0.00360851,0.00891379,-0.00104894,-0.0546739
 2,-0.01299084,-0.02201023,0.00421081,0.00241961,-0.00359096,-0.0014232
 1,-0.00000033,-0.00000413,-0.00000263,0.,0.,-0.00000202,0.00000341,0.0
 0000229,-0.00000273,-0.00190070,0.00058221,0.00002001,-0.01272881,0.00
 296321,0.05231185,-0.00005125,0.00002898,0.00058610,0.00018006,-0.0001
 8811,0.00015739,-0.00003711,0.00001346,-0.00004008,-0.00000425,-0.0000
 1778,0.00001360,0.00000787,-0.00004338,-0.00003480,-0.00009360,-0.0000
 9907,-0.00008007,0.00252328,-0.00403357,0.00075603,-0.00030046,-0.0000
 0506,-0.00076467,0.00483233,-0.00185345,0.00158109,0.00297431,-0.00075
 411,-0.00028607,-0.13305257,-0.04509316,0.13443264,-0.00577639,-0.0021
 3105,0.01321107,-0.00000553,-0.00001280,-0.00000262,-0.00000419,0.0000
 0117,0.00000251,-0.00000626,-0.00001360,0.00000234,0.00013646,-0.00013
 410,-0.00001125,-0.00230647,0.00181593,-0.00144685,0.13254333,-0.00058
 372,0.00016664,0.00099805,0.00007642,-0.00026214,0.00005957,-0.0000077
 7,-0.00002965,-0.00008334,-0.00003358,-0.00003352,0.00001197,0.0000574
 4,-0.00004938,-0.00003756,-0.00035166,0.00002550,-0.00011873,-0.003803
 67,-0.00290331,-0.00170750,0.00002506,-0.00124538,-0.00062126,-0.00202
 827,-0.00078820,-0.00433766,0.01188862,0.00863892,-0.01629260,-0.04383
 353,-0.06665311,0.04692358,-0.01532806,-0.00354023,0.02189765,-0.00001
 488,-0.00001657,-0.00000060,-0.00000213,0.00000008,0.00000781,-0.00000
 788,-0.00001993,0.00000006,0.00048435,0.00032096,-0.00077815,0.0015522
 1,-0.00018805,0.00135939,0.05060812,0.06640766,-0.00007200,-0.00014056
 ,0.00023043,0.00001257,0.00001859,0.00005081,0.00001920,0.00001369,-0.
 00000888,-0.00000329,-0.00001731,0.00000095,-0.00000877,0.00001311,-0.
 00003408,0.00007694,-0.00005583,0.00003692,0.00100251,-0.00127855,0.00
 202703,-0.00073463,-0.00056755,0.00004266,0.00139229,-0.00466436,-0.00
 083926,0.01330037,0.00718326,-0.01372446,0.13577600,0.04925940,-0.2337
 6369,-0.00095515,-0.00259828,0.00155714,0.00000073,0.00000408,-0.00000
 040,-0.00000104,0.00000168,0.00000022,0.00000292,0.00000215,0.00000367
 ,0.00065381,0.00037103,-0.00060769,-0.00173128,0.00086752,0.00001167,-
 0.14683957,-0.04862281,0.24461089,-0.00221674,0.00131664,0.00112457,-0
 .00075647,-0.00033683,0.00130815,0.00012269,0.00037478,-0.00014992,0.0
 0005607,-0.00019912,-0.00007905,-0.00001437,0.00010105,-0.00004516,-0.
 00037347,0.00051584,0.00027072,0.00175967,0.01027059,0.01474151,0.0012
 1479,-0.00406862,0.00159688,0.00009609,0.00106967,-0.00065158,0.001579
 56,-0.00261451,0.00273385,0.00495363,-0.00930806,-0.01069900,-0.030204
 40,-0.00148519,0.01133508,-0.00003041,-0.00002033,0.00002140,-0.000001
 87,-0.00000867,0.00001551,0.00000037,0.00001580,0.00004618,-0.00025257
 ,0.00025743,-0.00024481,0.00006111,-0.00028546,-0.00034200,-0.00112101
 ,0.00090228,-0.00170338,0.02478664,-0.00108857,-0.00192697,0.00250257,
 0.00016058,0.00095256,0.00049753,0.00040433,0.00006808,0.00010783,-0.0
 0004192,-0.00005007,-0.00011439,0.00008670,0.00045371,-0.00016278,-0.0
 0002280,0.00043523,0.00114222,0.00075221,-0.00111066,-0.00663455,-0.00
 242263,0.00054294,0.00032265,0.00165574,0.00008242,-0.00204898,-0.0054
 5551,-0.00079943,0.00436964,0.00168731,-0.02512992,-0.03505345,-0.0011
 7419,-0.07941440,-0.05815528,0.00005574,0.00008078,-0.00003462,0.00000
 077,0.00000516,-0.00000842,0.00005459,0.00004955,-0.00003952,0.0003074
 5,-0.00001092,-0.00000917,0.00018850,-0.00077614,-0.00122863,0.0015439
 6,0.00005082,-0.00006209,0.00339489,0.10627408,-0.00146728,-0.00196856
 ,-0.00176074,0.00001267,0.00092792,-0.00083676,0.00023352,-0.00010860,
 0.00013906,0.00009011,0.00017897,0.00015124,-0.00040834,0.00007707,-0.
 00011179,0.00151618,0.00063405,-0.00071011,0.00450820,-0.02431288,-0.0
 3072891,0.00336567,0.00338731,0.00181194,-0.00002307,-0.00096013,-0.00
 186361,-0.00031882,-0.00090686,0.00418077,0.00111433,-0.01462976,-0.01
 320934,0.01168534,-0.05757918,-0.10679924,0.00009975,0.00005258,-0.000
 09800,0.00002588,0.00000930,-0.00002628,0.00009141,0.00008660,-0.00009
 831,-0.00019108,0.00008289,-0.00008871,0.00016711,-0.00034898,-0.00064
 298,-0.00101360,0.00113015,0.00053466,-0.02010633,0.09498455,0.1513711
 1,-0.02904931,0.00125449,-0.01329225,0.00328379,0.00136856,-0.00078659
 ,-0.00233390,0.00132205,-0.00090427,0.00393852,-0.00554938,0.00112376,
 -0.03649515,-0.00283034,-0.01555320,-0.13603520,-0.00350123,-0.0437711
 5,-0.00166740,-0.00257679,0.00091314,0.00067339,0.00116602,-0.00060479
 ,-0.00010219,0.00017991,0.00041940,0.00010407,0.00006020,-0.00002384,0
 .00023095,0.00013352,-0.00034196,0.00034669,0.00087893,0.00065728,-0.0
 0008605,0.00013378,0.00014358,-0.00127950,0.00018201,-0.00056851,0.000
 42525,0.00071646,0.00100538,-0.00000576,0.00016482,-0.00003970,-0.0000
 0984,0.00002687,-0.00001513,-0.00002010,0.00014861,-0.00005152,0.00023
 940,-0.00034970,-0.00011403,0.19901211,0.02167929,0.00265201,0.0088574
 3,-0.00216962,-0.00355577,0.00111122,0.00006566,0.00172865,-0.00061652
 ,0.00054549,-0.00344604,0.00219360,-0.02642275,0.00225045,-0.00988031,
 -0.00417517,-0.03927633,0.00230383,0.00259087,-0.00199300,0.00093168,0
 .00099084,-0.00093567,0.00093933,0.00015182,0.00041072,-0.00006585,-0.
 00027865,-0.00008042,-0.00005826,0.00013091,0.00032358,-0.00007077,0.0
 0114730,-0.00072300,0.00022164,0.00002717,0.00017001,-0.00016291,-0.00
 083428,0.00002393,-0.00032609,-0.00066037,0.00092476,-0.00112215,0.000
 03288,-0.00002480,0.00000503,0.00000631,-0.00001638,0.00000952,0.00003
 413,-0.00000919,0.00003198,-0.00008444,0.00005570,-0.00006499,0.006335
 96,0.04159754,-0.01834279,0.00078082,-0.00369099,0.00008171,0.00251261
 ,0.00384106,-0.00059423,-0.00011986,-0.00107899,-0.00038321,-0.0002186
 3,0.00446644,-0.00973078,-0.00054425,0.00086251,-0.04359078,0.00255837
 ,-0.04112283,-0.00036310,-0.00110822,-0.00224370,0.00025799,-0.0002106
 1,-0.00038716,0.00004009,0.00014640,0.00001947,0.00005927,0.00007464,0
 .00013360,0.00004988,-0.00027231,-0.00022568,-0.00023062,0.00133999,-0
 .00026152,0.00017045,-0.00012069,-0.00043606,-0.00031702,0.00007651,-0
 .00010227,0.00134543,-0.00057773,-0.00188554,-0.00003945,0.00005019,-0
 .00001787,-0.00001005,0.00001746,0.00000327,0.00000905,0.00008426,-0.0
 0001842,-0.00005840,0.00001310,0.00024447,0.07244181,-0.00480445,0.041
 84142,-0.00210056,-0.00102717,-0.00160742,0.00002382,0.00016367,-0.000
 87767,0.00026035,0.00024836,0.00010961,0.00007757,-0.00003049,0.000062
 97,-0.00025047,0.00018950,-0.00016638,0.00061141,0.00092907,0.00016545
 ,-0.00466996,-0.00272236,0.01272748,-0.06514102,-0.02005685,0.05622492
 ,-0.01421449,-0.00867512,0.02557014,0.00318434,-0.00458747,-0.00236537
 ,-0.00104646,0.00103705,0.00143724,0.00345907,-0.00120654,0.00050273,0
 .00000813,0.00005842,0.00005447,0.00000711,0.00000562,0.00001438,0.000
 03970,0.00009402,0.00003690,-0.00129981,0.00144753,-0.00078736,-0.0005
 1839,-0.00012513,0.00090684,-0.00031287,0.00027485,-0.00011462,-0.0001
 1838,0.00032319,0.00075235,0.00009878,-0.00012899,-0.00000338,0.081618
 38,0.00137995,-0.00205018,-0.00221521,0.00073634,-0.00002514,-0.000818
 90,0.00025139,0.00018717,0.00010923,-0.00018737,-0.00007295,0.00013227
 ,0.00017109,0.00043959,0.00006957,0.00039645,-0.00046369,-0.00139786,0
 .00680107,0.00571867,-0.01051815,-0.02036699,-0.04229633,0.01734004,-0
 .01967633,-0.00474689,0.02651484,-0.00174668,-0.00250593,-0.00435081,0
 .00045151,0.00129725,0.00149384,-0.00285415,-0.00184435,-0.00143417,0.
 00001899,0.00003886,-0.00002428,-0.00000382,-0.00000436,-0.00000984,0.
 00001859,0.00000857,-0.00000438,0.00080607,0.00024174,0.00151219,-0.00
 059891,-0.00015978,0.00089561,0.00022489,0.00005320,0.00021213,0.00034
 888,0.00023149,-0.00050696,-0.00022434,0.00006015,-0.00011578,0.034112
 07,0.04587801,0.00097545,0.00226054,-0.00175390,0.00016101,-0.00165013
 ,-0.00064801,-0.00027679,0.00030938,-0.00011942,-0.00010692,-0.0001609
 8,0.00015283,0.00020941,-0.00016004,0.00013987,-0.00082961,-0.00048297
 ,-0.00078646,0.02295062,0.00716545,-0.03114000,0.05589644,0.01674903,-
 0.10899613,0.01375723,0.00609257,-0.01441653,0.00068826,0.00092518,0.0
 0428139,0.00080627,0.00040804,-0.00193519,-0.00127002,-0.00449734,0.00
 195444,-0.00003270,-0.00012580,-0.00009544,0.00000415,-0.00002768,-0.0
 0002569,0.00000068,-0.00011616,-0.00009598,-0.00147665,0.00032135,0.00
 052251,0.00039772,0.00001546,-0.00067968,-0.00016776,0.00011959,-0.000
 09252,0.00077958,-0.00045819,-0.00184121,0.00014203,0.00010604,0.00038
 110,-0.09261031,-0.02693373,0.15495286,-0.01496932,0.02958689,-0.01473
 040,-0.05965871,0.03881855,-0.02402068,0.00543526,-0.00280298,0.001030
 38,0.00043131,-0.00143124,-0.00128374,0.00016696,0.00147459,0.00004858
 ,-0.00162616,-0.00493601,-0.00117826,-0.00191411,0.00244992,-0.0004244
 6,-0.00134331,0.00020622,0.00013779,0.00019007,0.00010524,-0.00011261,
 0.00005720,-0.00030530,0.00004617,0.00014913,0.00029644,0.00025464,-0.
 00148405,-0.00023531,-0.00109659,0.00081447,-0.00044072,0.00144717,-0.
 00001162,-0.00012008,0.00000832,0.00004544,0.00010118,0.00020403,-0.00
 009117,-0.00000657,-0.00005196,-0.00002943,-0.00000472,-0.00001518,-0.
 00010557,-0.00002280,-0.00002210,0.00021968,-0.00006061,-0.00001996,-0
 .00126855,0.00101565,-0.00079188,0.00028376,-0.00005872,0.00000190,0.0
 7470874,0.00916734,-0.01121195,0.00732848,0.03949097,-0.11457442,0.038
 21583,0.02078439,-0.03911279,0.01902499,-0.00752569,0.00001649,-0.0018
 5618,0.00273161,-0.00073895,0.00104709,-0.00139975,0.00128835,0.000220
 66,-0.00271525,-0.00174806,-0.00122999,-0.00009609,0.00092915,-0.00070
 562,0.00011948,0.00037415,0.00031818,0.00003376,-0.00003370,0.00005212
 ,0.00031267,0.00015213,-0.00034102,-0.00002698,0.00120766,0.00003610,0
 .00093655,0.00053942,-0.00039501,0.00089604,-0.00122690,0.00066802,0.0
 0020797,0.00004029,-0.00005919,0.00010844,0.00005986,0.00002622,0.0000
 1585,0.00000291,0.00000834,0.00010860,0.00007489,0.00002872,-0.0001566
 0,-0.00006400,-0.00016449,0.00095959,-0.00013691,0.00043815,-0.0003232
 6,0.00001490,0.00014040,-0.06362964,0.16414749,-0.00969099,0.01542005,
 -0.00389186,-0.02417501,0.03794709,-0.04219738,-0.00479596,0.00968324,
 0.00028743,0.00022282,0.00055523,0.00451522,-0.00026402,0.00055017,-0.
 00111335,-0.00205159,-0.00117908,0.00390603,0.00084569,0.00081771,-0.0
 0223980,-0.00126549,-0.00048125,-0.00022082,0.00025402,0.00007435,-0.0
 0023629,-0.00003578,-0.00008068,0.00013382,-0.00011655,-0.00011265,0.0
 0002811,0.00032367,-0.00015558,-0.00037634,0.00110654,-0.00094015,-0.0
 0188988,-0.00024253,0.00026582,-0.00011973,0.00017776,-0.00010155,-0.0
 0043798,-0.00007062,-0.00005067,-0.00001637,-0.00002010,0.00000031,0.0
 0000353,-0.00006447,0.00000814,-0.00001764,0.00010619,0.00006996,0.000
 38274,-0.00077945,0.00046100,-0.00032230,-0.00003297,0.00005032,0.0002
 4115,0.04056885,-0.06280180,0.04358171\\-0.00003169,-0.00000182,-0.000
 01687,0.00000506,-0.00000874,0.00002321,-0.00000378,-0.00001232,-0.000
 00445,0.00000187,0.00001189,-0.00000634,-0.00000743,0.00000259,0.00001
 084,0.00001821,0.00000636,-0.00002121,0.00000772,0.00002494,-0.0000157
 9,-0.00001488,-0.00004772,-0.00000451,0.00001678,0.00001981,-0.0000170
 7,-0.00001510,-0.00000211,0.00001538,0.00000867,-0.00001162,-0.0000014
 0,-0.00000174,0.00001079,-0.00000619,-0.00000243,0.00000496,0.00000440
 ,0.00000197,-0.00000161,0.00000167,0.00000263,-0.00000308,-0.00000529,
 0.00000226,-0.00000475,0.00000638,0.00000130,-0.00000029,-0.00000181,-
 0.00000443,0.00000392,-0.00000346,-0.00000701,-0.00000566,0.00000331,0
 .00001018,0.00000435,0.00000917,0.00000236,-0.00000378,0.00001662,0.00
 000949,0.00001388,0.00001341\\\@


 YOU ARE IN A MAZE OF TWISTY LITTLE PASSAGES.
 Job cpu time:       0 days  3 hours 45 minutes 18.7 seconds.
 Elapsed time:       0 days  0 hours 28 minutes 11.3 seconds.
 File lengths (MBytes):  RWF=    419 Int=      0 D2E=      0 Chk=     19 Scr=      1
 Normal termination of Gaussian 16 at Mon Apr 25 19:58:02 2022.
