 Entering Gaussian System, Link 0=g16
 Input=2,2prime,3,4prime,5,5prime-Hexachlorobiphenyl.gjf
 Output=2,2prime,3,4prime,5,5prime-Hexachlorobiphenyl.log
 Initial command:
 /opt/g16/l1.exe "/scratch/gour/Gau-79093.inp" -scrdir="/scratch/gour/"
 Entering Link 1 = /opt/g16/l1.exe PID=     79094.
  
 Copyright (c) 1988-2017, Gaussian, Inc.  All Rights Reserved.
  
 This is part of the Gaussian(R) 16 program.  It is based on
 the Gaussian(R) 09 system (copyright 2009, Gaussian, Inc.),
 the Gaussian(R) 03 system (copyright 2003, Gaussian, Inc.),
 the Gaussian(R) 98 system (copyright 1998, Gaussian, Inc.),
 the Gaussian(R) 94 system (copyright 1995, Gaussian, Inc.),
 the Gaussian 92(TM) system (copyright 1992, Gaussian, Inc.),
 the Gaussian 90(TM) system (copyright 1990, Gaussian, Inc.),
 the Gaussian 88(TM) system (copyright 1988, Gaussian, Inc.),
 the Gaussian 86(TM) system (copyright 1986, Carnegie Mellon
 University), and the Gaussian 82(TM) system (copyright 1983,
 Carnegie Mellon University). Gaussian is a federally registered
 trademark of Gaussian, Inc.
  
 This software contains proprietary and confidential information,
 including trade secrets, belonging to Gaussian, Inc.
  
 This software is provided under written license and may be
 used, copied, transmitted, or stored only in accord with that
 written license.
  
 The following legend is applicable only to US Government
 contracts under FAR:
  
                    RESTRICTED RIGHTS LEGEND
  
 Use, reproduction and disclosure by the US Government is
 subject to restrictions as set forth in subparagraphs (a)
 and (c) of the Commercial Computer Software - Restricted
 Rights clause in FAR 52.227-19.
  
 Gaussian, Inc.
 340 Quinnipiac St., Bldg. 40, Wallingford CT 06492
  
  
 ---------------------------------------------------------------
 Warning -- This program may not be used in any manner that
 competes with the business of Gaussian, Inc. or will provide
 assistance to any competitor of Gaussian, Inc.  The licensee
 of this program is prohibited from giving any competitor of
 Gaussian, Inc. access to this program.  By using this program,
 the user acknowledges that Gaussian, Inc. is engaged in the
 business of creating and licensing software in the field of
 computational chemistry and represents and warrants to the
 licensee that it is not a competitor of Gaussian, Inc. and that
 it will not use this program in any manner prohibited above.
 ---------------------------------------------------------------
  

 Cite this work as:
 Gaussian 16, Revision B.01,
 M. J. Frisch, G. W. Trucks, H. B. Schlegel, G. E. Scuseria, 
 M. A. Robb, J. R. Cheeseman, G. Scalmani, V. Barone, 
 G. A. Petersson, H. Nakatsuji, X. Li, M. Caricato, A. V. Marenich, 
 J. Bloino, B. G. Janesko, R. Gomperts, B. Mennucci, H. P. Hratchian, 
 J. V. Ortiz, A. F. Izmaylov, J. L. Sonnenberg, D. Williams-Young, 
 F. Ding, F. Lipparini, F. Egidi, J. Goings, B. Peng, A. Petrone, 
 T. Henderson, D. Ranasinghe, V. G. Zakrzewski, J. Gao, N. Rega, 
 G. Zheng, W. Liang, M. Hada, M. Ehara, K. Toyota, R. Fukuda, 
 J. Hasegawa, M. Ishida, T. Nakajima, Y. Honda, O. Kitao, H. Nakai, 
 T. Vreven, K. Throssell, J. A. Montgomery, Jr., J. E. Peralta, 
 F. Ogliaro, M. J. Bearpark, J. J. Heyd, E. N. Brothers, K. N. Kudin, 
 V. N. Staroverov, T. A. Keith, R. Kobayashi, J. Normand, 
 K. Raghavachari, A. P. Rendell, J. C. Burant, S. S. Iyengar, 
 J. Tomasi, M. Cossi, J. M. Millam, M. Klene, C. Adamo, R. Cammi, 
 J. W. Ochterski, R. L. Martin, K. Morokuma, O. Farkas, 
 J. B. Foresman, and D. J. Fox, Gaussian, Inc., Wallingford CT, 2016.
 
 ******************************************
 Gaussian 16:  EM64L-G16RevB.01 20-Dec-2017
                16-Mar-2022 
 ******************************************
 %mem=10GB
 %nprocshared=4
 Will use up to    4 processors via shared memory.
 --------------------------------
 # opt b3lyp/6-311+g(d,p) scf=xqc
 --------------------------------
 1/18=20,19=15,26=3,38=1/1,3;
 2/9=110,12=2,17=6,18=5,40=1/2;
 3/5=4,6=6,7=111,11=2,25=1,30=1,71=1,74=-5/1,2,3;
 4//1;
 5/5=2,8=3,13=1,38=5/2,8;
 6/7=2,8=2,9=2,10=2,28=1/1;
 7//1,2,3,16;
 1/18=20,19=15,26=3/3(2);
 2/9=110/2;
 99//99;
 2/9=110/2;
 3/5=4,6=6,7=111,11=2,25=1,30=1,71=1,74=-5/1,2,3;
 4/5=5,16=3,69=1/1;
 5/5=2,8=3,13=1,38=5/2,8;
 7//1,2,3,16;
 1/18=20,19=15,26=3/3(-5);
 2/9=110/2;
 6/7=2,8=2,9=2,10=2,19=2,28=1/1;
 99/9=1/99;
 -------------------
 Title Card Required
 -------------------
 Symbolic Z-matrix:
 Charge =  0 Multiplicity = 1
 C                    -0.57877   2.97281  -0.73821 
 C                     0.75361   3.0027   -1.17156 
 C                     1.4615    4.21215  -1.17763 
 C                     0.83702   5.39171  -0.75036 
 C                    -0.49537   5.36183  -0.31701 
 C                    -1.20326   4.15238  -0.31094 
 C                    -1.35668   1.64374  -0.73154 
 C                    -0.73219   0.46418  -1.15881 
 C                    -1.44008  -0.74527  -1.15274 
 C                    -2.77246  -0.77516  -0.71939 
 C                    -3.39695   0.40441  -0.29212 
 C                    -2.68906   1.61386  -0.29819 
 H                     1.23042   2.10207  -1.49779 
 H                    -0.97218   6.26245   0.00922 
 H                     0.28511   0.487    -1.48968 
 H                    -3.31295  -1.6986   -0.71475 
 Cl                   -3.47334   3.09526   0.23842 
 Cl                   -2.87658   4.11484   0.23329 
 Cl                   -5.07027   0.36687   0.25213 
 Cl                    1.72605   6.91065  -0.75798 
 Cl                   -0.6558   -2.22667  -1.68935 
 Cl                    3.13482   4.24968  -1.72187 
 

 GradGradGradGradGradGradGradGradGradGradGradGradGradGradGradGradGradGrad
 Berny optimization.
 Initialization pass.
                           ----------------------------
                           !    Initial Parameters    !
                           ! (Angstroms and Degrees)  !
 --------------------------                            --------------------------
 ! Name  Definition              Value          Derivative Info.                !
 --------------------------------------------------------------------------------
 ! R1    R(1,2)                  1.4014         estimate D2E/DX2                !
 ! R2    R(1,6)                  1.4014         estimate D2E/DX2                !
 ! R3    R(1,7)                  1.54           estimate D2E/DX2                !
 ! R4    R(2,3)                  1.4014         estimate D2E/DX2                !
 ! R5    R(2,13)                 1.07           estimate D2E/DX2                !
 ! R6    R(3,4)                  1.4014         estimate D2E/DX2                !
 ! R7    R(3,22)                 1.76           estimate D2E/DX2                !
 ! R8    R(4,5)                  1.4014         estimate D2E/DX2                !
 ! R9    R(4,20)                 1.76           estimate D2E/DX2                !
 ! R10   R(5,6)                  1.4014         estimate D2E/DX2                !
 ! R11   R(5,14)                 1.07           estimate D2E/DX2                !
 ! R12   R(6,18)                 1.76           estimate D2E/DX2                !
 ! R13   R(7,8)                  1.4014         estimate D2E/DX2                !
 ! R14   R(7,12)                 1.4014         estimate D2E/DX2                !
 ! R15   R(8,9)                  1.4014         estimate D2E/DX2                !
 ! R16   R(8,15)                 1.07           estimate D2E/DX2                !
 ! R17   R(9,10)                 1.4014         estimate D2E/DX2                !
 ! R18   R(9,21)                 1.76           estimate D2E/DX2                !
 ! R19   R(10,11)                1.4014         estimate D2E/DX2                !
 ! R20   R(10,16)                1.07           estimate D2E/DX2                !
 ! R21   R(11,12)                1.4014         estimate D2E/DX2                !
 ! R22   R(11,19)                1.76           estimate D2E/DX2                !
 ! R23   R(12,17)                1.76           estimate D2E/DX2                !
 ! R24   R(17,18)                1.1814         estimate D2E/DX2                !
 ! A1    A(2,1,6)              120.0            estimate D2E/DX2                !
 ! A2    A(2,1,7)              120.0            estimate D2E/DX2                !
 ! A3    A(6,1,7)              120.0            estimate D2E/DX2                !
 ! A4    A(1,2,3)              120.0            estimate D2E/DX2                !
 ! A5    A(1,2,13)             120.0            estimate D2E/DX2                !
 ! A6    A(3,2,13)             120.0            estimate D2E/DX2                !
 ! A7    A(2,3,4)              120.0            estimate D2E/DX2                !
 ! A8    A(2,3,22)             120.0            estimate D2E/DX2                !
 ! A9    A(4,3,22)             120.0            estimate D2E/DX2                !
 ! A10   A(3,4,5)              120.0            estimate D2E/DX2                !
 ! A11   A(3,4,20)             120.0            estimate D2E/DX2                !
 ! A12   A(5,4,20)             120.0            estimate D2E/DX2                !
 ! A13   A(4,5,6)              120.0            estimate D2E/DX2                !
 ! A14   A(4,5,14)             120.0            estimate D2E/DX2                !
 ! A15   A(6,5,14)             120.0            estimate D2E/DX2                !
 ! A16   A(1,6,5)              120.0            estimate D2E/DX2                !
 ! A17   A(1,6,18)             120.0            estimate D2E/DX2                !
 ! A18   A(5,6,18)             120.0            estimate D2E/DX2                !
 ! A19   A(1,7,8)              120.0            estimate D2E/DX2                !
 ! A20   A(1,7,12)             120.0            estimate D2E/DX2                !
 ! A21   A(8,7,12)             120.0            estimate D2E/DX2                !
 ! A22   A(7,8,9)              120.0            estimate D2E/DX2                !
 ! A23   A(7,8,15)             120.0            estimate D2E/DX2                !
 ! A24   A(9,8,15)             120.0            estimate D2E/DX2                !
 ! A25   A(8,9,10)             120.0            estimate D2E/DX2                !
 ! A26   A(8,9,21)             120.0            estimate D2E/DX2                !
 ! A27   A(10,9,21)            120.0            estimate D2E/DX2                !
 ! A28   A(9,10,11)            120.0            estimate D2E/DX2                !
 ! A29   A(9,10,16)            120.0            estimate D2E/DX2                !
 ! A30   A(11,10,16)           120.0            estimate D2E/DX2                !
 ! A31   A(10,11,12)           120.0            estimate D2E/DX2                !
 ! A32   A(10,11,19)           120.0            estimate D2E/DX2                !
 ! A33   A(12,11,19)           120.0            estimate D2E/DX2                !
 ! A34   A(7,12,11)            120.0            estimate D2E/DX2                !
 ! A35   A(7,12,17)            120.0            estimate D2E/DX2                !
 ! A36   A(11,12,17)           120.0            estimate D2E/DX2                !
 ! A37   A(12,17,18)           120.0            estimate D2E/DX2                !
 ! A38   A(6,18,17)            120.0            estimate D2E/DX2                !
 ! D1    D(6,1,2,3)              0.0001         estimate D2E/DX2                !
 ! D2    D(6,1,2,13)           180.0            estimate D2E/DX2                !
 ! D3    D(7,1,2,3)           -180.0            estimate D2E/DX2                !
 ! D4    D(7,1,2,13)            -0.0001         estimate D2E/DX2                !
 ! D5    D(2,1,6,5)             -0.0001         estimate D2E/DX2                !
 ! D6    D(2,1,6,18)           180.0            estimate D2E/DX2                !
 ! D7    D(7,1,6,5)            180.0            estimate D2E/DX2                !
 ! D8    D(7,1,6,18)             0.0            estimate D2E/DX2                !
 ! D9    D(2,1,7,8)             -0.0001         estimate D2E/DX2                !
 ! D10   D(2,1,7,12)           179.9998         estimate D2E/DX2                !
 ! D11   D(6,1,7,8)            179.9999         estimate D2E/DX2                !
 ! D12   D(6,1,7,12)            -0.0002         estimate D2E/DX2                !
 ! D13   D(1,2,3,4)              0.0            estimate D2E/DX2                !
 ! D14   D(1,2,3,22)           180.0            estimate D2E/DX2                !
 ! D15   D(13,2,3,4)          -179.9999         estimate D2E/DX2                !
 ! D16   D(13,2,3,22)            0.0001         estimate D2E/DX2                !
 ! D17   D(2,3,4,5)             -0.0001         estimate D2E/DX2                !
 ! D18   D(2,3,4,20)           180.0            estimate D2E/DX2                !
 ! D19   D(22,3,4,5)           179.9999         estimate D2E/DX2                !
 ! D20   D(22,3,4,20)            0.0            estimate D2E/DX2                !
 ! D21   D(3,4,5,6)              0.0001         estimate D2E/DX2                !
 ! D22   D(3,4,5,14)          -179.9999         estimate D2E/DX2                !
 ! D23   D(20,4,5,6)          -180.0            estimate D2E/DX2                !
 ! D24   D(20,4,5,14)            0.0            estimate D2E/DX2                !
 ! D25   D(4,5,6,1)              0.0            estimate D2E/DX2                !
 ! D26   D(4,5,6,18)           179.9999         estimate D2E/DX2                !
 ! D27   D(14,5,6,1)           180.0            estimate D2E/DX2                !
 ! D28   D(14,5,6,18)           -0.0001         estimate D2E/DX2                !
 ! D29   D(1,6,18,17)            0.0006         estimate D2E/DX2                !
 ! D30   D(5,6,18,17)         -179.9994         estimate D2E/DX2                !
 ! D31   D(1,7,8,9)            179.9999         estimate D2E/DX2                !
 ! D32   D(1,7,8,15)             0.0001         estimate D2E/DX2                !
 ! D33   D(12,7,8,9)             0.0001         estimate D2E/DX2                !
 ! D34   D(12,7,8,15)         -179.9998         estimate D2E/DX2                !
 ! D35   D(1,7,12,11)         -179.9999         estimate D2E/DX2                !
 ! D36   D(1,7,12,17)            0.0            estimate D2E/DX2                !
 ! D37   D(8,7,12,11)           -0.0001         estimate D2E/DX2                !
 ! D38   D(8,7,12,17)          179.9999         estimate D2E/DX2                !
 ! D39   D(7,8,9,10)             0.0            estimate D2E/DX2                !
 ! D40   D(7,8,9,21)           180.0            estimate D2E/DX2                !
 ! D41   D(15,8,9,10)          179.9998         estimate D2E/DX2                !
 ! D42   D(15,8,9,21)           -0.0002         estimate D2E/DX2                !
 ! D43   D(8,9,10,11)            0.0            estimate D2E/DX2                !
 ! D44   D(8,9,10,16)         -179.9999         estimate D2E/DX2                !
 ! D45   D(21,9,10,11)         180.0            estimate D2E/DX2                !
 ! D46   D(21,9,10,16)           0.0001         estimate D2E/DX2                !
 ! D47   D(9,10,11,12)           0.0            estimate D2E/DX2                !
 ! D48   D(9,10,11,19)        -179.9998         estimate D2E/DX2                !
 ! D49   D(16,10,11,12)        179.9999         estimate D2E/DX2                !
 ! D50   D(16,10,11,19)          0.0001         estimate D2E/DX2                !
 ! D51   D(10,11,12,7)           0.0            estimate D2E/DX2                !
 ! D52   D(10,11,12,17)       -179.9999         estimate D2E/DX2                !
 ! D53   D(19,11,12,7)         179.9999         estimate D2E/DX2                !
 ! D54   D(19,11,12,17)         -0.0001         estimate D2E/DX2                !
 ! D55   D(7,12,17,18)           0.0005         estimate D2E/DX2                !
 ! D56   D(11,12,17,18)       -179.9995         estimate D2E/DX2                !
 ! D57   D(12,17,18,6)          -0.0008         estimate D2E/DX2                !
 --------------------------------------------------------------------------------
 Trust Radius=3.00D-01 FncErr=1.00D-07 GrdErr=1.00D-06 EigMax=2.50D+02 EigMin=1.00D-04
 Number of steps in this run=    129 maximum allowed number of steps=    132.
 GradGradGradGradGradGradGradGradGradGradGradGradGradGradGradGradGradGrad

                          Input orientation:                          
 ---------------------------------------------------------------------
 Center     Atomic      Atomic             Coordinates (Angstroms)
 Number     Number       Type             X           Y           Z
 ---------------------------------------------------------------------
      1          6           0       -0.578772    2.972811   -0.738214
      2          6           0        0.753609    3.002697   -1.171560
      3          6           0        1.461503    4.212148   -1.177633
      4          6           0        0.837015    5.391713   -0.750358
      5          6           0       -0.495366    5.361827   -0.317013
      6          6           0       -1.203260    4.152376   -0.310941
      7          6           0       -1.356677    1.643744   -0.731540
      8          6           0       -0.732189    0.464179   -1.158815
      9          6           0       -1.440082   -0.745273   -1.152740
     10          6           0       -2.772463   -0.775159   -0.719391
     11          6           0       -3.396950    0.404406   -0.292115
     12          6           0       -2.689057    1.613857   -0.298190
     13          1           0        1.230420    2.102072   -1.497792
     14          1           0       -0.972177    6.262452    0.009218
     15          1           0        0.285113    0.486997   -1.489684
     16          1           0       -3.312954   -1.698602   -0.714751
     17         17           0       -3.473341    3.095257    0.238422
     18         17           0       -2.876580    4.114843    0.233293
     19         17           0       -5.070267    0.366871    0.252127
     20         17           0        1.726050    6.910647   -0.757984
     21         17           0       -0.655797   -2.226673   -1.689350
     22         17           0        3.134823    4.249681   -1.721866
 ---------------------------------------------------------------------
                    Distance matrix (angstroms):
                    1          2          3          4          5
     1  C    0.000000
     2  C    1.401400   0.000000
     3  C    2.427296   1.401400   0.000000
     4  C    2.802800   2.427296   1.401400   0.000000
     5  C    2.427296   2.802800   2.427296   1.401400   0.000000
     6  C    1.401400   2.427296   2.802800   2.427296   1.401400
     7  C    1.540000   2.548270   3.838989   4.342800   3.838989
     8  C    2.548270   2.941400   4.342800   5.187469   4.975106
     9  C    3.838989   4.342800   5.744200   6.558176   6.235992
    10  C    4.342800   5.187469   6.558176   7.145600   6.558176
    11  C    3.838989   4.975106   6.235992   6.558176   5.744200
    12  C    2.548270   3.813607   4.975106   5.187469   4.342800
    13  H    2.146700   1.070000   2.146700   3.396345   3.872800
    14  H    3.396345   3.872800   3.396345   2.146700   1.070000
    15  H    2.736837   2.578650   3.918930   4.990735   5.074276
    16  H    5.412800   6.232802   7.612271   8.215600   7.612271
    17  Cl   3.057342   4.456874   5.254079   4.983028   3.783409
    18  Cl   2.743718   4.048303   4.562800   4.048303   2.743718
    19  Cl   5.286324   6.549198   7.713260   7.819846   6.797295
    20  Cl   4.562800   4.048303   2.743718   1.760000   2.743718
    21  Cl   5.286324   5.440665   6.797295   7.819846   7.713260
    22  Cl   4.048303   2.743718   1.760000   2.743718   4.048303
                    6          7          8          9         10
     6  C    0.000000
     7  C    2.548270   0.000000
     8  C    3.813607   1.401400   0.000000
     9  C    4.975106   2.427296   1.401400   0.000000
    10  C    5.187469   2.802800   2.427296   1.401400   0.000000
    11  C    4.342800   2.427296   2.802800   2.427296   1.401400
    12  C    2.941400   1.401400   2.427296   2.802800   2.427296
    13  H    3.396345   2.736837   2.578650   3.918930   4.990735
    14  H    2.146700   4.693509   5.919617   7.118798   7.300676
    15  H    4.127917   2.146700   1.070000   2.146700   3.396345
    16  H    6.232802   3.872800   3.396345   2.146700   1.070000
    17  Cl   2.563702   2.743718   4.048303   4.562800   4.048303
    18  Cl   1.760000   3.057342   4.456874   5.254079   4.983028
    19  Cl   5.440665   4.048303   4.562800   4.048303   2.743718
    20  Cl   4.048303   6.102800   6.910901   8.294174   8.905600
    21  Cl   6.549198   4.048303   2.743718   1.760000   2.743718
    22  Cl   4.562800   5.286324   5.440665   6.797295   7.819846
                   11         12         13         14         15
    11  C    0.000000
    12  C    1.401400   0.000000
    13  H    5.074276   4.127917   0.000000
    14  H    6.347206   4.965039   4.942800   0.000000
    15  H    3.872800   3.396345   1.871400   6.097816   0.000000
    16  H    2.146700   3.396345   5.974992   8.329571   4.280590
    17  Cl   2.743718   1.760000   5.111382   4.042212   4.890332
    18  Cl   3.783409   2.563702   4.890332   2.879094   5.111382
    19  Cl   1.760000   2.743718   6.765486   7.184095   5.632800
    20  Cl   8.294174   6.910901   4.890332   2.879094   6.623817
    21  Cl   4.048303   4.562800   4.725732   8.663168   2.879094
    22  Cl   7.713260   6.549198   2.879094   4.890332   4.725732
                   16         17         18         19         20
    16  H    0.000000
    17  Cl   4.890332   0.000000
    18  Cl   5.906383   1.181400   0.000000
    19  Cl   2.879094   3.161400   4.342800   0.000000
    20  Cl   9.975600   6.525618   5.475705   9.488480   0.000000
    21  Cl   2.879094   6.322800   6.988795   5.475705   9.488480
    22  Cl   8.830073   6.988795   6.322800   9.289584   3.161400
                   21         22
    21  Cl   0.000000
    22  Cl   7.504200   0.000000
 Stoichiometry    C12H4Cl6
 Framework group  C1[X(C12H4Cl6)]
 Deg. of freedom    60
 Full point group                 C1      NOp   1
 Largest Abelian subgroup         C1      NOp   1
 Largest concise Abelian subgroup C1      NOp   1
                         Standard orientation:                         
 ---------------------------------------------------------------------
 Center     Atomic      Atomic             Coordinates (Angstroms)
 Number     Number       Type             X           Y           Z
 ---------------------------------------------------------------------
      1          6           0        0.660027    0.135791    0.000002
      2          6           0        1.562741    1.207718    0.000001
      3          6           0        2.942415    0.961909   -0.000001
      4          6           0        3.419375   -0.355828   -0.000001
      5          6           0        2.516660   -1.427756    0.000003
      6          6           0        1.136987   -1.181947    0.000004
      7          6           0       -0.856098    0.405911    0.000003
      8          6           0       -1.333057    1.723648    0.000003
      9          6           0       -2.712731    1.969458    0.000002
     10          6           0       -3.615445    0.897530    0.000000
     11          6           0       -3.138486   -0.420207   -0.000001
     12          6           0       -1.758812   -0.666017    0.000000
     13          1           0        1.198572    2.213840   -0.000001
     14          1           0        2.880830   -2.433878    0.000006
     15          1           0       -0.643815    2.542089    0.000001
     16          1           0       -4.668857    1.085211   -0.000002
     17         17           0       -1.159805   -2.320946   -0.000002
     18         17           0        0.003280   -2.528167    0.000007
     19         17           0       -4.272193   -1.766427   -0.000007
     20         17           0        5.152089   -0.664537   -0.000003
     21         17           0       -3.311738    3.624387    0.000002
     22         17           0        4.076122    2.308129   -0.000004
 ---------------------------------------------------------------------
 Rotational constants (GHZ):           0.3679830           0.1481541           0.1056273
 Standard basis: 6-311+G(d,p) (5D, 7F)
 There are   486 symmetry adapted cartesian basis functions of A   symmetry.
 There are   468 symmetry adapted basis functions of A   symmetry.
   468 basis functions,   782 primitive gaussians,   486 cartesian basis functions
    89 alpha electrons       89 beta electrons
       nuclear repulsion energy      2085.3098570887 Hartrees.
 NAtoms=   22 NActive=   22 NUniq=   22 SFac= 1.00D+00 NAtFMM=   60 NAOKFM=F Big=F
 Integral buffers will be    131072 words long.
 Raffenetti 2 integral format.
 Two-electron integral symmetry is turned on.
 One-electron integrals computed using PRISM.
 NBasis=   468 RedAO= T EigKep=  1.03D-06  NBF=   468
 NBsUse=   462 1.00D-06 EigRej=  5.97D-07 NBFU=   462
 ExpMin= 4.38D-02 ExpMax= 1.06D+05 ExpMxC= 3.62D+03 IAcc=3 IRadAn=         5 AccDes= 0.00D+00
 Harris functional with IExCor=  402 and IRadAn=       5 diagonalized for initial guess.
 HarFok:  IExCor=  402 AccDes= 0.00D+00 IRadAn=         5 IDoV= 1 UseB2=F ITyADJ=14
 ICtDFT=  3500011 ScaDFX=  1.000000  1.000000  1.000000  1.000000
 FoFCou: FMM=F IPFlag=           0 FMFlag=      100000 FMFlg1=           0
         NFxFlg=           0 DoJE=T BraDBF=F KetDBF=T FulRan=T
         wScrn=  0.000000 ICntrl=       500 IOpCl=  0 I1Cent=   200000004 NGrid=           0
         NMat0=    1 NMatS0=      1 NMatT0=    0 NMatD0=    1 NMtDS0=    0 NMtDT0=    0
 Petite list used in FoFCou.
 Requested convergence on RMS density matrix=1.00D-08 within  32 cycles.
 Requested convergence on MAX density matrix=1.00D-06.
 Requested convergence on             energy=1.00D-06.
 No special actions if energy rises.
 Restarting incremental Fock formation.
 SCF Done:  E(RB3LYP) =  -3219.51836970     A.U. after   24 cycles
            NFock= 24  Conv=0.16D-08     -V/T= 2.0002
 QCSCF skips out because SCF is already converged.

 **********************************************************************

            Population analysis using the SCF Density.

 **********************************************************************

 Orbital symmetries:
       Occupied  (A) (A) (A) (A) (A) (A) (A) (A) (A) (A) (A) (A)
                 (A) (A) (A) (A) (A) (A) (A) (A) (A) (A) (A) (A)
                 (A) (A) (A) (A) (A) (A) (A) (A) (A) (A) (A) (A)
                 (A) (A) (A) (A) (A) (A) (A) (A) (A) (A) (A) (A)
                 (A) (A) (A) (A) (A) (A) (A) (A) (A) (A) (A) (A)
                 (A) (A) (A) (A) (A) (A) (A) (A) (A) (A) (A) (A)
                 (A) (A) (A) (A) (A) (A) (A) (A) (A) (A) (A) (A)
                 (A) (A) (A) (A) (A)
       Virtual   (A) (A) (A) (A) (A) (A) (A) (A) (A) (A) (A) (A)
                 (A) (A) (A) (A) (A) (A) (A) (A) (A) (A) (A) (A)
                 (A) (A) (A) (A) (A) (A) (A) (A) (A) (A) (A) (A)
                 (A) (A) (A) (A) (A) (A) (A) (A) (A) (A) (A) (A)
                 (A) (A) (A) (A) (A) (A) (A) (A) (A) (A) (A) (A)
                 (A) (A) (A) (A) (A) (A) (A) (A) (A) (A) (A) (A)
                 (A) (A) (A) (A) (A) (A) (A) (A) (A) (A) (A) (A)
                 (A) (A) (A) (A) (A) (A) (A) (A) (A) (A) (A) (A)
                 (A) (A) (A) (A) (A) (A) (A) (A) (A) (A) (A) (A)
                 (A) (A) (A) (A) (A) (A) (A) (A) (A) (A) (A) (A)
                 (A) (A) (A) (A) (A) (A) (A) (A) (A) (A) (A) (A)
                 (A) (A) (A) (A) (A) (A) (A) (A) (A) (A) (A) (A)
                 (A) (A) (A) (A) (A) (A) (A) (A) (A) (A) (A) (A)
                 (A) (A) (A) (A) (A) (A) (A) (A) (A) (A) (A) (A)
                 (A) (A) (A) (A) (A) (A) (A) (A) (A) (A) (A) (A)
                 (A) (A) (A) (A) (A) (A) (A) (A) (A) (A) (A) (A)
                 (A) (A) (A) (A) (A) (A) (A) (A) (A) (A) (A) (A)
                 (A) (A) (A) (A) (A) (A) (A) (A) (A) (A) (A) (A)
                 (A) (A) (A) (A) (A) (A) (A) (A) (A) (A) (A) (A)
                 (A) (A) (A) (A) (A) (A) (A) (A) (A) (A) (A) (A)
                 (A) (A) (A) (A) (A) (A) (A) (A) (A) (A) (A) (A)
                 (A) (A) (A) (A) (A) (A) (A) (A) (A) (A) (A) (A)
                 (A) (A) (A) (A) (A) (A) (A) (A) (A) (A) (A) (A)
                 (A) (A) (A) (A) (A) (A) (A) (A) (A) (A) (A) (A)
                 (A) (A) (A) (A) (A) (A) (A) (A) (A) (A) (A) (A)
                 (A) (A) (A) (A) (A) (A) (A) (A) (A) (A) (A) (A)
                 (A) (A) (A) (A) (A) (A) (A) (A) (A) (A) (A) (A)
                 (A) (A) (A) (A) (A) (A) (A) (A) (A) (A) (A) (A)
                 (A) (A) (A) (A) (A) (A) (A) (A) (A) (A) (A) (A)
                 (A) (A) (A) (A) (A) (A) (A) (A) (A) (A) (A) (A)
                 (A) (A) (A) (A) (A) (A) (A) (A) (A) (A) (A) (A)
                 (A)
 The electronic state is 1-A.
 Alpha  occ. eigenvalues -- -101.66838-101.66553-101.57057-101.56685-101.56568
 Alpha  occ. eigenvalues -- -101.56558 -10.26339 -10.26108 -10.25907 -10.25819
 Alpha  occ. eigenvalues --  -10.22182 -10.21931 -10.21022 -10.20868 -10.20822
 Alpha  occ. eigenvalues --  -10.20288 -10.18572 -10.18333  -9.65526  -9.63384
 Alpha  occ. eigenvalues --   -9.48518  -9.48114  -9.48002  -9.47996  -7.43916
 Alpha  occ. eigenvalues --   -7.38979  -7.38909  -7.38504  -7.38302  -7.37848
 Alpha  occ. eigenvalues --   -7.24964  -7.24588  -7.24488  -7.24474  -7.24006
 Alpha  occ. eigenvalues --   -7.23974  -7.23592  -7.23561  -7.23484  -7.23483
 Alpha  occ. eigenvalues --   -7.23429  -7.23423  -1.39950  -0.92835  -0.92161
 Alpha  occ. eigenvalues --   -0.88824  -0.87750  -0.86569  -0.85034  -0.81220
 Alpha  occ. eigenvalues --   -0.80623  -0.78245  -0.74999  -0.73134  -0.72225
 Alpha  occ. eigenvalues --   -0.70968  -0.66793  -0.64020  -0.61564  -0.59975
 Alpha  occ. eigenvalues --   -0.57738  -0.52211  -0.51300  -0.50399  -0.48939
 Alpha  occ. eigenvalues --   -0.48672  -0.46288  -0.45456  -0.43507  -0.43272
 Alpha  occ. eigenvalues --   -0.42514  -0.42496  -0.40695  -0.38717  -0.37821
 Alpha  occ. eigenvalues --   -0.36937  -0.36468  -0.35635  -0.34139  -0.34131
 Alpha  occ. eigenvalues --   -0.33489  -0.32789  -0.31572  -0.30073  -0.28754
 Alpha  occ. eigenvalues --   -0.27464  -0.25588  -0.21759  -0.16942
 Alpha virt. eigenvalues --   -0.07502  -0.06245  -0.03035  -0.02780  -0.01968
 Alpha virt. eigenvalues --   -0.01119  -0.00593   0.00182   0.00697   0.01341
 Alpha virt. eigenvalues --    0.01613   0.01665   0.02126   0.03028   0.03808
 Alpha virt. eigenvalues --    0.04266   0.04854   0.05212   0.05700   0.05886
 Alpha virt. eigenvalues --    0.06542   0.07281   0.07476   0.08044   0.08201
 Alpha virt. eigenvalues --    0.09059   0.09109   0.09439   0.09661   0.09740
 Alpha virt. eigenvalues --    0.10505   0.10962   0.10989   0.11211   0.11503
 Alpha virt. eigenvalues --    0.12229   0.12807   0.13053   0.13592   0.13740
 Alpha virt. eigenvalues --    0.13785   0.14302   0.14992   0.15179   0.15437
 Alpha virt. eigenvalues --    0.15455   0.16280   0.16437   0.16524   0.17371
 Alpha virt. eigenvalues --    0.17505   0.17788   0.18420   0.18612   0.19018
 Alpha virt. eigenvalues --    0.19169   0.20058   0.20127   0.20642   0.20870
 Alpha virt. eigenvalues --    0.20938   0.21769   0.21873   0.22457   0.23000
 Alpha virt. eigenvalues --    0.23180   0.23337   0.24025   0.24418   0.24679
 Alpha virt. eigenvalues --    0.25234   0.25813   0.25888   0.26580   0.27225
 Alpha virt. eigenvalues --    0.27726   0.27909   0.27912   0.28924   0.29383
 Alpha virt. eigenvalues --    0.29876   0.30039   0.31654   0.31711   0.32356
 Alpha virt. eigenvalues --    0.32634   0.33580   0.34053   0.34764   0.35679
 Alpha virt. eigenvalues --    0.36226   0.37874   0.38520   0.40847   0.42622
 Alpha virt. eigenvalues --    0.43197   0.43820   0.44178   0.44306   0.44789
 Alpha virt. eigenvalues --    0.45060   0.45655   0.45676   0.45894   0.46984
 Alpha virt. eigenvalues --    0.47581   0.48467   0.49013   0.49037   0.49823
 Alpha virt. eigenvalues --    0.50576   0.51324   0.51931   0.52688   0.53984
 Alpha virt. eigenvalues --    0.54450   0.54686   0.55417   0.56490   0.57871
 Alpha virt. eigenvalues --    0.58529   0.58588   0.59107   0.60274   0.60594
 Alpha virt. eigenvalues --    0.61589   0.61656   0.62460   0.62903   0.64544
 Alpha virt. eigenvalues --    0.64841   0.65154   0.66522   0.66550   0.67421
 Alpha virt. eigenvalues --    0.67658   0.69979   0.70306   0.70595   0.70815
 Alpha virt. eigenvalues --    0.71615   0.72502   0.75950   0.78710   0.78807
 Alpha virt. eigenvalues --    0.80337   0.81276   0.82836   0.83690   0.84099
 Alpha virt. eigenvalues --    0.84512   0.84804   0.84866   0.85382   0.85539
 Alpha virt. eigenvalues --    0.85764   0.85807   0.86163   0.87078   0.87171
 Alpha virt. eigenvalues --    0.87758   0.88076   0.89647   0.90567   0.90823
 Alpha virt. eigenvalues --    0.91233   0.91947   0.92452   0.92509   0.93794
 Alpha virt. eigenvalues --    0.94306   0.94685   0.94785   0.95675   0.96068
 Alpha virt. eigenvalues --    0.96454   0.96833   0.99052   1.00038   1.00066
 Alpha virt. eigenvalues --    1.00956   1.01737   1.04505   1.05953   1.07063
 Alpha virt. eigenvalues --    1.08027   1.08785   1.09081   1.11227   1.12388
 Alpha virt. eigenvalues --    1.15930   1.18094   1.19469   1.20171   1.21503
 Alpha virt. eigenvalues --    1.23316   1.24070   1.25351   1.26432   1.27504
 Alpha virt. eigenvalues --    1.27585   1.29050   1.29687   1.30251   1.30513
 Alpha virt. eigenvalues --    1.31709   1.34911   1.35728   1.37711   1.42953
 Alpha virt. eigenvalues --    1.43429   1.44251   1.47930   1.49863   1.49962
 Alpha virt. eigenvalues --    1.50970   1.55424   1.56880   1.57427   1.57796
 Alpha virt. eigenvalues --    1.59856   1.60214   1.60935   1.66450   1.67791
 Alpha virt. eigenvalues --    1.68126   1.70708   1.72946   1.74754   1.75691
 Alpha virt. eigenvalues --    1.76821   1.82013   1.82639   1.84362   1.86516
 Alpha virt. eigenvalues --    1.87906   1.88835   1.89230   1.92304   1.93357
 Alpha virt. eigenvalues --    1.94235   1.95023   1.96618   1.98126   2.00174
 Alpha virt. eigenvalues --    2.01279   2.01614   2.05414   2.05801   2.08034
 Alpha virt. eigenvalues --    2.09338   2.11023   2.13435   2.17552   2.18929
 Alpha virt. eigenvalues --    2.22405   2.23849   2.24313   2.25241   2.25288
 Alpha virt. eigenvalues --    2.26724   2.27586   2.29149   2.29504   2.31002
 Alpha virt. eigenvalues --    2.32050   2.34280   2.35220   2.38245   2.39670
 Alpha virt. eigenvalues --    2.41132   2.41736   2.45228   2.45723   2.48009
 Alpha virt. eigenvalues --    2.52436   2.53937   2.55065   2.56276   2.57061
 Alpha virt. eigenvalues --    2.59973   2.60252   2.61196   2.62809   2.63286
 Alpha virt. eigenvalues --    2.65486   2.70230   2.73135   2.73166   2.74299
 Alpha virt. eigenvalues --    2.74791   2.75528   2.76257   2.77562   2.79392
 Alpha virt. eigenvalues --    2.82240   2.83777   2.85028   2.85952   2.90074
 Alpha virt. eigenvalues --    2.92283   2.95220   3.00619   3.01749   3.06327
 Alpha virt. eigenvalues --    3.07747   3.11354   3.13823   3.16031   3.17608
 Alpha virt. eigenvalues --    3.19827   3.21921   3.24574   3.32665   3.36454
 Alpha virt. eigenvalues --    3.37831   3.45299   3.51808   3.55170   3.60238
 Alpha virt. eigenvalues --    3.69161   3.74205   3.80338   3.85294   3.93118
 Alpha virt. eigenvalues --    3.99314   4.10766   4.19504   4.46872   4.80213
 Alpha virt. eigenvalues --    4.83791   9.73429   9.76785   9.78176   9.80472
 Alpha virt. eigenvalues --    9.81618  10.54797  23.37204  23.52296  23.82754
 Alpha virt. eigenvalues --   23.83756  23.87829  23.89465  23.98313  24.00715
 Alpha virt. eigenvalues --   24.02873  24.04011  24.09523  24.09738  25.40503
 Alpha virt. eigenvalues --   25.78308  25.81856  25.81888  25.86837  25.97410
 Alpha virt. eigenvalues --   26.10183  26.12140  26.16600  26.20463  26.25689
 Alpha virt. eigenvalues --   26.51824  26.60067  26.65015  26.78364  27.11879
 Alpha virt. eigenvalues --   27.41870  28.45273 215.73208 215.76081 215.78091
 Alpha virt. eigenvalues --  215.80096 215.90586 216.86783
          Condensed to atoms (all electrons):
               1          2          3          4          5          6
     1  C   26.772694   3.245489  -3.763849  -3.826304 -13.728401   7.096436
     2  C    3.245489  23.809915  -8.141529  -3.097184   5.151989  -7.977815
     3  C   -3.763849  -8.141529  44.676383 -11.718425 -14.126537   6.582811
     4  C   -3.826304  -3.097184 -11.718425  28.287309  12.576695 -18.710923
     5  C  -13.728401   5.151989 -14.126537  12.576695  50.286915 -42.099568
     6  C    7.096436  -7.977815   6.582811 -18.710923 -42.099568  79.318411
     7  C    9.427608  -1.817211   1.010600  -1.042653  -7.950221   0.860770
     8  C   -0.738360  -2.189527  -1.518011  -1.001509   0.409708  -1.702527
     9  C   -2.285989  -0.141053   3.347064  -0.497815  -2.295777  -2.351930
    10  C   -4.781781  -0.272273  -1.268340   0.385815   2.004761   1.750299
    11  C   -3.984699  -0.494970  -0.660401   0.447215   3.152786  -1.900138
    12  C    9.240670  -1.094145  -2.953167  -1.074069 -11.591886   6.716624
    13  H    0.182672   0.388648  -0.523640   0.079849   0.039050  -0.007698
    14  H    0.149455  -0.047649  -0.014409   0.023957   0.105405   0.177108
    15  H    0.118325   0.057093  -0.067232   0.004168   0.017782   0.047446
    16  H    0.006316  -0.002329  -0.001092   0.000173   0.001666   0.008974
    17  Cl  -6.541173  -1.065484  -2.580093   1.147438   3.927542   1.822777
    18  Cl  -9.848420   0.845585  -3.887636   4.507731  21.488843 -22.343872
    19  Cl   1.023400   0.109856   0.165221  -0.087829  -0.591124  -0.406123
    20  Cl  -0.029815   0.503354  -0.127619   0.046911   0.404575  -1.550256
    21  Cl  -0.125889  -0.037873   0.066705  -0.002270  -0.031678  -0.116294
    22  Cl  -1.115048  -0.834972   0.789802  -0.361902   0.025431   0.969968
               7          8          9         10         11         12
     1  C    9.427608  -0.738360  -2.285989  -4.781781  -3.984699   9.240670
     2  C   -1.817211  -2.189527  -0.141053  -0.272273  -0.494970  -1.094145
     3  C    1.010600  -1.518011   3.347064  -1.268340  -0.660401  -2.953167
     4  C   -1.042653  -1.001509  -0.497815   0.385815   0.447215  -1.074069
     5  C   -7.950221   0.409708  -2.295777   2.004761   3.152786 -11.591886
     6  C    0.860770  -1.702527  -2.351930   1.750299  -1.900138   6.716624
     7  C   24.368643  -1.422023  -4.654671  -4.647050  -1.870707   7.014374
     8  C   -1.422023  17.281979   0.424897  -2.401751  -2.986338   1.749720
     9  C   -4.654671   0.424897  23.933892  -5.308150  -3.403471   1.637300
    10  C   -4.647050  -2.401751  -5.308150  38.874154  -5.666170 -17.491589
    11  C   -1.870707  -2.986338  -3.403471  -5.666170  29.708270 -14.800386
    12  C    7.014374   1.749720   1.637300 -17.491589 -14.800386  59.785774
    13  H    0.056135   0.073370  -0.079430  -0.002597  -0.011731   0.102787
    14  H    0.024170   0.000465   0.001244  -0.000377   0.000500   0.027158
    15  H    0.085558   0.285969  -0.257294   0.079423  -0.049127  -0.013598
    16  H    0.051768   0.092694   0.006058   0.352410  -0.164220   0.015931
    17  Cl  -8.238625  -0.603944  -0.984771   7.328432   6.252131 -19.100177
    18  Cl  -5.081801   1.223782  -1.396709   3.156789   3.236041 -18.544470
    19  Cl   1.178596  -0.361237  -0.099956  -5.028127  -1.541385   7.402449
    20  Cl  -0.076603  -0.033173  -0.012114   0.002249   0.001671  -0.044533
    21  Cl  -0.432414   0.158222  -0.626304  -0.301883   0.461897   0.166350
    22  Cl  -0.187714  -0.058703   0.063458  -0.012024  -0.014253  -0.167903
              13         14         15         16         17         18
     1  C    0.182672   0.149455   0.118325   0.006316  -6.541173  -9.848420
     2  C    0.388648  -0.047649   0.057093  -0.002329  -1.065484   0.845585
     3  C   -0.523640  -0.014409  -0.067232  -0.001092  -2.580093  -3.887636
     4  C    0.079849   0.023957   0.004168   0.000173   1.147438   4.507731
     5  C    0.039050   0.105405   0.017782   0.001666   3.927542  21.488843
     6  C   -0.007698   0.177108   0.047446   0.008974   1.822777 -22.343872
     7  C    0.056135   0.024170   0.085558   0.051768  -8.238625  -5.081801
     8  C    0.073370   0.000465   0.285969   0.092694  -0.603944   1.223782
     9  C   -0.079430   0.001244  -0.257294   0.006058  -0.984771  -1.396709
    10  C   -0.002597  -0.000377   0.079423   0.352410   7.328432   3.156789
    11  C   -0.011731   0.000500  -0.049127  -0.164220   6.252131   3.236041
    12  C    0.102787   0.027158  -0.013598   0.015931 -19.100177 -18.544470
    13  H    0.556182   0.000034   0.006636   0.000004   0.020378   0.018442
    14  H    0.000034   0.510891  -0.000003  -0.000000   0.046479  -0.142641
    15  H    0.006636  -0.000003   0.555911  -0.000138   0.019227   0.010766
    16  H    0.000004  -0.000000  -0.000138   0.508135   0.019025   0.007293
    17  Cl   0.020378   0.046479   0.019227   0.019025  35.011525   2.773706
    18  Cl   0.018442  -0.142641   0.010766   0.007293   2.773706  42.496398
    19  Cl  -0.000684   0.000215  -0.001897  -0.043238  -3.029760  -1.975179
    20  Cl   0.001525  -0.013002   0.000260   0.000000  -0.014998   0.106491
    21  Cl   0.000042   0.000003  -0.031424  -0.014366  -0.052925  -0.014099
    22  Cl  -0.037536   0.001248  -0.000579  -0.000001  -0.017959  -0.056829
              19         20         21         22
     1  C    1.023400  -0.029815  -0.125889  -1.115048
     2  C    0.109856   0.503354  -0.037873  -0.834972
     3  C    0.165221  -0.127619   0.066705   0.789802
     4  C   -0.087829   0.046911  -0.002270  -0.361902
     5  C   -0.591124   0.404575  -0.031678   0.025431
     6  C   -0.406123  -1.550256  -0.116294   0.969968
     7  C    1.178596  -0.076603  -0.432414  -0.187714
     8  C   -0.361237  -0.033173   0.158222  -0.058703
     9  C   -0.099956  -0.012114  -0.626304   0.063458
    10  C   -5.028127   0.002249  -0.301883  -0.012024
    11  C   -1.541385   0.001671   0.461897  -0.014253
    12  C    7.402449  -0.044533   0.166350  -0.167903
    13  H   -0.000684   0.001525   0.000042  -0.037536
    14  H    0.000215  -0.013002   0.000003   0.001248
    15  H   -0.001897   0.000260  -0.031424  -0.000579
    16  H   -0.043238   0.000000  -0.014366  -0.000001
    17  Cl  -3.029760  -0.014998  -0.052925  -0.017959
    18  Cl  -1.975179   0.106491  -0.014099  -0.056829
    19  Cl  19.709756  -0.000608   0.019259   0.000544
    20  Cl  -0.000608  17.554859  -0.000084  -0.244929
    21  Cl   0.019259  -0.000084  17.475676  -0.000310
    22  Cl   0.000544  -0.244929  -0.000310  17.706222
 Mulliken charges:
               1
     1  C   -0.493337
     2  C   -0.897917
     3  C    0.713394
     4  C   -0.086379
     5  C   -1.177954
     6  C   -0.184481
     7  C   -0.656530
     8  C   -0.683706
     9  C    0.981520
    10  C   -0.752223
    11  C    0.287484
    12  C   -0.983213
    13  H    0.137561
    14  H    0.149748
    15  H    0.132728
    16  H    0.154935
    17  Cl   0.861249
    18  Cl   0.419790
    19  Cl   0.557850
    20  Cl   0.525837
    21  Cl   0.439658
    22  Cl   0.553987
 Sum of Mulliken charges =  -0.00000
 Mulliken charges with hydrogens summed into heavy atoms:
               1
     1  C   -0.493337
     2  C   -0.760356
     3  C    0.713394
     4  C   -0.086379
     5  C   -1.028206
     6  C   -0.184481
     7  C   -0.656530
     8  C   -0.550978
     9  C    0.981520
    10  C   -0.597288
    11  C    0.287484
    12  C   -0.983213
    17  Cl   0.861249
    18  Cl   0.419790
    19  Cl   0.557850
    20  Cl   0.525837
    21  Cl   0.439658
    22  Cl   0.553987
 Electronic spatial extent (au):  <R**2>=           8776.4300
 Charge=             -0.0000 electrons
 Dipole moment (field-independent basis, Debye):
    X=             -1.0966    Y=             -3.2348    Z=              0.0000  Tot=              3.4157
 Quadrupole moment (field-independent basis, Debye-Ang):
   XX=           -161.3708   YY=           -136.3306   ZZ=           -146.2189
   XY=              0.0899   XZ=              0.0000   YZ=             -0.0000
 Traceless Quadrupole moment (field-independent basis, Debye-Ang):
   XX=            -13.3974   YY=             11.6428   ZZ=              1.7546
   XY=              0.0899   XZ=              0.0000   YZ=             -0.0000
 Octapole moment (field-independent basis, Debye-Ang**2):
  XXX=            -36.8610  YYY=            -58.8927  ZZZ=             -0.0000  XYY=              8.1921
  XXY=             -9.5346  XXZ=             -0.0000  XZZ=              0.0070  YZZ=            -10.3935
  YYZ=              0.0000  XYZ=              0.0000
 Hexadecapole moment (field-independent basis, Debye-Ang**3):
 XXXX=          -8278.8087 YYYY=          -3116.1257 ZZZZ=           -172.9667 XXXY=            -18.2601
 XXXZ=              0.0003 YYYX=             92.0618 YYYZ=             -0.0002 ZZZX=             -0.0000
 ZZZY=             -0.0001 XXYY=          -1928.3237 XXZZ=          -1421.4347 YYZZ=           -579.0338
 XXYZ=             -0.0001 YYXZ=              0.0001 ZZXY=             17.0252
 N-N= 2.085309857089D+03 E-N=-1.179935739137D+04  KE= 3.218835315392D+03
 Calling FoFJK, ICntrl=      2127 FMM=F ISym2X=0 I1Cent= 0 IOpClX= 0 NMat=1 NMatS=1 NMatT=0.
 ***** Axes restored to original set *****
 -------------------------------------------------------------------
 Center     Atomic                   Forces (Hartrees/Bohr)
 Number     Number              X              Y              Z
 -------------------------------------------------------------------
      1        6           0.004529006   -0.027689248   -0.006692374
      2        6          -0.004751477    0.015392379    0.004456440
      3        6           0.000040146   -0.001665121   -0.000325850
      4        6          -0.002996951    0.000570558    0.001094326
      5        6           0.004716165   -0.021249009   -0.005544389
      6        6           0.108854943   -0.004908937   -0.036785362
      7        6           0.022589517    0.005086236   -0.006487040
      8        6          -0.010355678   -0.005516081    0.002375779
      9        6          -0.006197457    0.013248585    0.004529949
     10        6           0.001551966    0.003413563    0.000129824
     11        6           0.030474033    0.006960755   -0.008732598
     12        6           0.048882915   -0.093689999   -0.033700158
     13        1           0.007798015   -0.003261631   -0.003181724
     14        1          -0.004878851    0.011243992    0.003719104
     15        1           0.006869643   -0.004315185   -0.003073775
     16        1          -0.004743464   -0.008543588   -0.000041846
     17       17          -1.716515419   -2.710112936    0.056559637
     18       17           1.530564107    2.829018629    0.027034747
     19       17          -0.003631763   -0.001793310    0.000859699
     20       17          -0.004863246   -0.001334349    0.001351621
     21       17          -0.002537798    0.003433303    0.001480927
     22       17          -0.005398353   -0.004288606    0.000973066
 -------------------------------------------------------------------
 Cartesian Forces:  Max     2.829018629 RMS     0.559636681

 GradGradGradGradGradGradGradGradGradGradGradGradGradGradGradGradGradGrad
 Berny optimization.
 FormGI is forming the generalized inverse of G from B-inverse, IUseBI=4.
 Internal  Forces:  Max     3.117120828 RMS     0.292541190
 Search for a local minimum.
 Step number   1 out of a maximum of  129
 All quantities printed in internal units (Hartrees-Bohrs-Radians)
 Mixed Optimization -- RFO/linear search
 Second derivative matrix not updated -- first step.
 ITU=  0
     Eigenvalues ---    0.01035   0.01214   0.01489   0.01712   0.01738
     Eigenvalues ---    0.01829   0.02070   0.02070   0.02070   0.02070
     Eigenvalues ---    0.02070   0.02070   0.02070   0.02070   0.02070
     Eigenvalues ---    0.02070   0.02070   0.02070   0.03966   0.16000
     Eigenvalues ---    0.16000   0.16000   0.16000   0.23082   0.23491
     Eigenvalues ---    0.23540   0.23992   0.25000   0.25000   0.25000
     Eigenvalues ---    0.25000   0.25000   0.25000   0.25000   0.25000
     Eigenvalues ---    0.25000   0.28335   0.29045   0.29447   0.29539
     Eigenvalues ---    0.29539   0.29539   0.29539   0.37230   0.37230
     Eigenvalues ---    0.37230   0.37230   0.40084   0.40909   0.41464
     Eigenvalues ---    0.41609   0.44583   0.45130   0.45389   0.45389
     Eigenvalues ---    0.45389   0.45389   0.45389   0.45389  16.61567
 RFO step:  Lambda=-6.28841597D-01 EMin= 1.03510893D-02
 Linear search not attempted -- first point.
 Iteration  1 RMS(Cart)=  0.03430642 RMS(Int)=  0.00053767
 Iteration  2 RMS(Cart)=  0.00136163 RMS(Int)=  0.00024374
 Iteration  3 RMS(Cart)=  0.00000072 RMS(Int)=  0.00024374
 Variable       Old X    -DE/DX   Delta X   Delta X   Delta X     New X
                                 (Linear)    (Quad)   (Total)
    R1        2.64826   0.01592   0.00000   0.00012   0.00005   2.64832
    R2        2.64826   0.10184   0.00000   0.01656   0.01623   2.66449
    R3        2.91018   0.11757   0.00000  -0.01477  -0.01530   2.89488
    R4        2.64826  -0.01189   0.00000  -0.00864  -0.00863   2.63963
    R5        2.02201   0.00719   0.00000   0.00718   0.00718   2.02919
    R6        2.64826  -0.02262   0.00000  -0.00397  -0.00389   2.64437
    R7        3.32592  -0.00552   0.00000  -0.00598  -0.00598   3.31994
    R8        2.64826  -0.02682   0.00000  -0.01019  -0.01013   2.63814
    R9        3.32592  -0.00361   0.00000  -0.00391  -0.00391   3.32201
   R10        2.64826  -0.00931   0.00000  -0.01094  -0.01095   2.63731
   R11        2.02201   0.01277   0.00000   0.01276   0.01276   2.03476
   R12        3.32592   0.05095   0.00000   0.12598   0.12624   3.45215
   R13        2.64826   0.01719   0.00000   0.00132   0.00124   2.64950
   R14        2.64826   0.10214   0.00000   0.01704   0.01667   2.66493
   R15        2.64826  -0.01271   0.00000  -0.00948  -0.00947   2.63879
   R16        2.02201   0.00739   0.00000   0.00738   0.00738   2.02939
   R17        2.64826  -0.03277   0.00000  -0.01345  -0.01337   2.63490
   R18        3.32592  -0.00447   0.00000  -0.00484  -0.00484   3.32108
   R19        2.64826  -0.02715   0.00000  -0.01052  -0.01044   2.63782
   R20        2.02201   0.00977   0.00000   0.00976   0.00976   2.03177
   R21        2.64826  -0.00926   0.00000  -0.01081  -0.01082   2.63745
   R22        3.32592   0.00376   0.00000   0.00407   0.00407   3.32998
   R23        3.32592   0.06006   0.00000   0.13594   0.13617   3.46209
   R24        2.23252   3.11712   0.00000   0.18077   0.18130   2.41382
    A1        2.09440  -0.07943   0.00000  -0.00977  -0.00948   2.08492
    A2        2.09440  -0.16797   0.00000  -0.00359  -0.00291   2.09148
    A3        2.09440   0.24740   0.00000   0.01336   0.01239   2.10679
    A4        2.09440   0.04671   0.00000   0.00628   0.00611   2.10051
    A5        2.09440  -0.01783   0.00000   0.00386   0.00395   2.09834
    A6        2.09440  -0.02888   0.00000  -0.01015  -0.01006   2.08433
    A7        2.09440   0.00676   0.00000   0.00017   0.00014   2.09454
    A8        2.09440  -0.01043   0.00000  -0.00810  -0.00809   2.08630
    A9        2.09440   0.00367   0.00000   0.00793   0.00795   2.10234
   A10        2.09440  -0.00858   0.00000  -0.00191  -0.00188   2.09251
   A11        2.09440   0.01055   0.00000   0.00808   0.00807   2.10246
   A12        2.09440  -0.00198   0.00000  -0.00617  -0.00619   2.08821
   A13        2.09440   0.02106   0.00000   0.00790   0.00784   2.10223
   A14        2.09440  -0.01151   0.00000  -0.00519  -0.00516   2.08924
   A15        2.09440  -0.00955   0.00000  -0.00271  -0.00268   2.09172
   A16        2.09440   0.01347   0.00000  -0.00267  -0.00274   2.09166
   A17        2.09440   0.07086   0.00000   0.03277   0.03260   2.12699
   A18        2.09440  -0.08433   0.00000  -0.03010  -0.02986   2.06453
   A19        2.09440  -0.16981   0.00000  -0.00590  -0.00520   2.08920
   A20        2.09440   0.24594   0.00000   0.01166   0.01068   2.10507
   A21        2.09440  -0.07613   0.00000  -0.00576  -0.00548   2.08891
   A22        2.09440   0.04297   0.00000   0.00195   0.00175   2.09615
   A23        2.09440  -0.01689   0.00000   0.00485   0.00495   2.09934
   A24        2.09440  -0.02608   0.00000  -0.00680  -0.00670   2.08769
   A25        2.09440   0.01289   0.00000   0.00706   0.00703   2.10143
   A26        2.09440  -0.00537   0.00000  -0.00230  -0.00229   2.09211
   A27        2.09440  -0.00753   0.00000  -0.00476  -0.00474   2.08965
   A28        2.09440  -0.01434   0.00000  -0.00878  -0.00874   2.08566
   A29        2.09440   0.00693   0.00000   0.00409   0.00407   2.09846
   A30        2.09440   0.00741   0.00000   0.00469   0.00467   2.09907
   A31        2.09440   0.02917   0.00000   0.01707   0.01702   2.11142
   A32        2.09440  -0.01748   0.00000  -0.01183  -0.01180   2.08259
   A33        2.09440  -0.01169   0.00000  -0.00524  -0.00522   2.08918
   A34        2.09440   0.00544   0.00000  -0.01154  -0.01158   2.08281
   A35        2.09440   0.06822   0.00000   0.02981   0.02958   2.12398
   A36        2.09440  -0.07367   0.00000  -0.01827  -0.01800   2.07640
   A37        2.09440  -0.31562   0.00000  -0.04306  -0.04190   2.05249
   A38        2.09440  -0.31681   0.00000  -0.04454  -0.04335   2.05104
    D1        0.00000   0.00000   0.00000   0.00000   0.00000   0.00000
    D2        3.14159   0.00000   0.00000   0.00000   0.00000   3.14159
    D3       -3.14159   0.00000   0.00000   0.00000   0.00000  -3.14159
    D4       -0.00000   0.00000   0.00000   0.00000   0.00000  -0.00000
    D5       -0.00000  -0.00000   0.00000  -0.00000  -0.00000  -0.00000
    D6        3.14159  -0.00000   0.00000   0.00000   0.00000   3.14159
    D7        3.14159  -0.00000   0.00000  -0.00000  -0.00000   3.14159
    D8        0.00000  -0.00000   0.00000   0.00000   0.00000   0.00000
    D9       -0.00000  -0.00000   0.00000  -0.00000  -0.00000  -0.00000
   D10        3.14159  -0.00000   0.00000  -0.00000  -0.00000   3.14159
   D11        3.14159  -0.00000   0.00000  -0.00000  -0.00000   3.14159
   D12       -0.00000  -0.00000   0.00000  -0.00000  -0.00000  -0.00000
   D13        0.00000  -0.00000   0.00000   0.00000   0.00000   0.00000
   D14        3.14159  -0.00000   0.00000   0.00000   0.00000   3.14159
   D15       -3.14159   0.00000   0.00000  -0.00000  -0.00000  -3.14159
   D16        0.00000   0.00000   0.00000  -0.00000  -0.00000   0.00000
   D17       -0.00000  -0.00000   0.00000   0.00000   0.00000  -0.00000
   D18        3.14159   0.00000   0.00000  -0.00000  -0.00000   3.14159
   D19        3.14159  -0.00000   0.00000   0.00000   0.00000   3.14159
   D20        0.00000   0.00000   0.00000  -0.00000  -0.00000   0.00000
   D21        0.00000   0.00000   0.00000  -0.00000  -0.00000   0.00000
   D22       -3.14159   0.00000   0.00000  -0.00000  -0.00000  -3.14159
   D23       -3.14159  -0.00000   0.00000  -0.00000  -0.00000  -3.14159
   D24        0.00000   0.00000   0.00000   0.00000   0.00000   0.00000
   D25       -0.00000   0.00000   0.00000   0.00000   0.00000  -0.00000
   D26        3.14159   0.00000   0.00000   0.00000   0.00000   3.14159
   D27        3.14159  -0.00000   0.00000   0.00000   0.00000   3.14159
   D28       -0.00000   0.00000   0.00000  -0.00000  -0.00000  -0.00000
   D29        0.00001  -0.00000   0.00000  -0.00000  -0.00000   0.00001
   D30       -3.14158  -0.00000   0.00000  -0.00000  -0.00000  -3.14158
   D31        3.14159   0.00000   0.00000   0.00000   0.00000   3.14159
   D32        0.00000   0.00000   0.00000   0.00000   0.00000   0.00000
   D33        0.00000   0.00000   0.00000   0.00000   0.00000   0.00000
   D34       -3.14159   0.00000   0.00000  -0.00000  -0.00000  -3.14159
   D35       -3.14159  -0.00000   0.00000  -0.00000  -0.00000  -3.14159
   D36        0.00000  -0.00000   0.00000   0.00000   0.00000   0.00000
   D37       -0.00000  -0.00000   0.00000  -0.00000  -0.00000  -0.00000
   D38        3.14159  -0.00000   0.00000   0.00000   0.00000   3.14159
   D39       -0.00000  -0.00000   0.00000   0.00000   0.00000  -0.00000
   D40        3.14159  -0.00000   0.00000  -0.00000  -0.00000   3.14159
   D41        3.14159   0.00000   0.00000   0.00000   0.00000   3.14159
   D42       -0.00000   0.00000   0.00000   0.00000   0.00000  -0.00000
   D43       -0.00000  -0.00000   0.00000  -0.00000  -0.00000  -0.00000
   D44       -3.14159  -0.00000   0.00000  -0.00000  -0.00000  -3.14159
   D45        3.14159  -0.00000   0.00000   0.00000   0.00000   3.14159
   D46        0.00000   0.00000   0.00000  -0.00000  -0.00000   0.00000
   D47        0.00000   0.00000   0.00000  -0.00000  -0.00000   0.00000
   D48       -3.14159   0.00000   0.00000  -0.00000  -0.00000  -3.14159
   D49        3.14159  -0.00000   0.00000   0.00000   0.00000   3.14159
   D50        0.00000   0.00000   0.00000  -0.00000  -0.00000   0.00000
   D51        0.00000   0.00000   0.00000   0.00000   0.00000   0.00000
   D52       -3.14159   0.00000   0.00000  -0.00000  -0.00000  -3.14159
   D53        3.14159  -0.00000   0.00000   0.00000   0.00000   3.14159
   D54       -0.00000   0.00000   0.00000  -0.00000  -0.00000  -0.00000
   D55        0.00001  -0.00000   0.00000  -0.00000  -0.00000   0.00001
   D56       -3.14158  -0.00000   0.00000  -0.00000  -0.00000  -3.14158
   D57       -0.00001   0.00000   0.00000   0.00000   0.00000  -0.00001
         Item               Value     Threshold  Converged?
 Maximum Force            3.117121     0.000450     NO 
 RMS     Force            0.292541     0.000300     NO 
 Maximum Displacement     0.197959     0.001800     NO 
 RMS     Displacement     0.033517     0.001200     NO 
 Predicted change in Energy=-3.372315D-01
 GradGradGradGradGradGradGradGradGradGradGradGradGradGradGradGradGradGrad

                          Input orientation:                          
 ---------------------------------------------------------------------
 Center     Atomic      Atomic             Coordinates (Angstroms)
 Number     Number       Type             X           Y           Z
 ---------------------------------------------------------------------
      1          6           0       -0.585561    2.972198   -0.736092
      2          6           0        0.746666    2.997145   -1.170315
      3          6           0        1.463136    4.196185   -1.181169
      4          6           0        0.851169    5.380990   -0.757035
      5          6           0       -0.475695    5.362154   -0.323433
      6          6           0       -1.198345    4.168294   -0.309571
      7          6           0       -1.360200    1.650604   -0.729091
      8          6           0       -0.730090    0.473742   -1.157710
      9          6           0       -1.428366   -0.735513   -1.154767
     10          6           0       -2.754541   -0.783512   -0.726864
     11          6           0       -3.381925    0.388131   -0.300122
     12          6           0       -2.701384    1.606636   -0.295484
     13          1           0        1.225501    2.093522   -1.497777
     14          1           0       -0.943602    6.275593    0.002272
     15          1           0        0.290911    0.496200   -1.489866
     16          1           0       -3.289604   -1.716081   -0.725727
     17         17           0       -3.578097    3.110451    0.275788
     18         17           0       -2.930502    4.211438    0.269198
     19         17           0       -5.058055    0.322154    0.239705
     20         17           0        1.741665    6.896662   -0.765755
     21         17           0       -0.632593   -2.207015   -1.693302
     22         17           0        3.132112    4.202892   -1.729760
 ---------------------------------------------------------------------
                    Distance matrix (angstroms):
                    1          2          3          4          5
     1  C    0.000000
     2  C    1.401428   0.000000
     3  C    2.427632   1.396834   0.000000
     4  C    2.804801   2.421660   1.399341   0.000000
     5  C    2.427807   2.793679   2.419558   1.396042   0.000000
     6  C    1.409989   2.428073   2.800704   2.423090   1.395606
     7  C    1.531902   2.539042   3.828261   4.336670   3.836992
     8  C    2.537900   2.923786   4.320575   5.171267   4.965612
     9  C    3.825275   4.320154   5.716915   6.539577   6.227378
    10  C    4.337041   5.171892   6.541604   7.141649   6.566971
    11  C    3.832378   4.960791   6.225122   6.561745   5.760869
    12  C    2.556482   3.819410   4.983315   5.203788   4.365591
    13  H    2.152251   1.073801   2.139603   3.390614   3.867441
    14  H    3.403791   3.870425   3.393650   2.144310   1.076751
    15  H    2.732571   2.562138   3.893494   4.971127   5.062189
    16  H    5.412201   6.221224   7.599398   8.216775   7.627669
    17  Cl   3.162006   4.561537   5.358691   5.083352   3.879965
    18  Cl   2.836383   4.131376   4.626862   4.089259   2.775146
    19  Cl   5.289434   6.545114   7.717055   7.842464   6.834965
    20  Cl   4.562705   4.044741   2.746402   1.757931   2.732590
    21  Cl   5.267135   5.409172   6.756872   7.788193   7.693729
    22  Cl   4.040183   2.730780   1.756837   2.745325   4.042018
                    6          7          8          9         10
     6  C    0.000000
     7  C    2.557529   0.000000
     8  C    3.819465   1.402055   0.000000
     9  C    4.981424   2.424747   1.396386   0.000000
    10  C    5.207328   2.805195   2.421719   1.394327   0.000000
    11  C    4.365517   2.421823   2.788372   2.410267   1.395875
    12  C    2.970087   1.410221   2.431642   2.800822   2.429346
    13  H    3.404635   2.733661   2.561966   3.894111   4.971154
    14  H    2.145426   4.700954   5.920526   7.122453   7.324078
    15  H    4.134640   2.153507   1.073906   2.141336   3.390371
    16  H    6.258787   3.880358   3.396034   2.147044   1.075164
    17  Cl   2.669249   2.839014   4.137426   4.632415   4.104450
    18  Cl   1.826801   3.165486   4.565989   5.362500   5.096335
    19  Cl   5.476482   4.046910   4.550498   4.029622   2.731836
    20  Cl   4.036800   6.094590   6.893265   8.273482   8.899576
    21  Cl   6.548232   4.042318   2.735475   1.757439   2.731854
    22  Cl   4.557520   5.262734   5.399111   6.746585   7.779635
                   11         12         13         14         15
    11  C    0.000000
    12  C    1.395676   0.000000
    13  H    5.056789   4.135576   0.000000
    14  H    6.379582   4.997761   4.944176   0.000000
    15  H    3.862240   3.407850   1.850664   6.095234   0.000000
    16  H    2.148807   3.401699   5.957794   8.360655   4.277638
    17  Cl   2.789477   1.832058   5.220558   4.127166   4.992100
    18  Cl   3.891733   2.675136   4.987998   2.877457   5.222528
    19  Cl   1.762151   2.736826   6.755713   7.240755   5.624335
    20  Cl   8.296322   6.924320   4.885942   2.861162   6.602646
    21  Cl   4.029214   4.558259   4.688855   8.656000   2.863846
    22  Cl   7.683029   6.544262   2.852792   4.889526   4.676488
                   16         17         18         19         20
    16  H    0.000000
    17  Cl   4.937780   0.000000
    18  Cl   6.021155   1.277339   0.000000
    19  Cl   2.865986   3.156926   4.433270   0.000000
    20  Cl   9.974698   6.612115   5.487321   9.511640   0.000000
    21  Cl   2.870005   6.389738   7.094246   5.451415   9.453802
    22  Cl   8.790947   7.088198   6.383666   9.274575   3.181044
                   21         22
    21  Cl   0.000000
    22  Cl   7.433790   0.000000
 Stoichiometry    C12H4Cl6
 Framework group  C1[X(C12H4Cl6)]
 Deg. of freedom    60
 Full point group                 C1      NOp   1
 Largest Abelian subgroup         C1      NOp   1
 Largest concise Abelian subgroup C1      NOp   1
                         Standard orientation:                         
 ---------------------------------------------------------------------
 Center     Atomic      Atomic             Coordinates (Angstroms)
 Number     Number       Type             X           Y           Z
 ---------------------------------------------------------------------
      1          6           0        0.659875    0.135741    0.000002
      2          6           0        1.563442    1.206987    0.000001
      3          6           0        2.939908    0.969317   -0.000001
      4          6           0        3.423369   -0.343855   -0.000001
      5          6           0        2.527954   -1.414913    0.000003
      6          6           0        1.151274   -1.185847    0.000005
      7          6           0       -0.847275    0.410008    0.000003
      8          6           0       -1.312720    1.732551    0.000003
      9          6           0       -2.684774    1.992095    0.000002
     10          6           0       -3.601637    0.941614    0.000000
     11          6           0       -3.138301   -0.375119   -0.000001
     12          6           0       -1.771078   -0.655501    0.000000
     13          1           0        1.202756    2.218399   -0.000002
     14          1           0        2.903272   -2.424135    0.000006
     15          1           0       -0.617730    2.551247    0.000001
     16          1           0       -4.657469    1.144585   -0.000002
     17         17           0       -1.223844   -2.403921   -0.000003
     18         17           0        0.033229   -2.630553    0.000008
     19         17           0       -4.301098   -1.699159   -0.000007
     20         17           0        5.153242   -0.656683   -0.000003
     21         17           0       -3.261496    3.652211    0.000003
     22         17           0        4.053435    2.328190   -0.000004
 ---------------------------------------------------------------------
 Rotational constants (GHZ):           0.3586540           0.1483981           0.1049667
 Standard basis: 6-311+G(d,p) (5D, 7F)
 There are   486 symmetry adapted cartesian basis functions of A   symmetry.
 There are   468 symmetry adapted basis functions of A   symmetry.
   468 basis functions,   782 primitive gaussians,   486 cartesian basis functions
    89 alpha electrons       89 beta electrons
       nuclear repulsion energy      2064.6176126856 Hartrees.
 NAtoms=   22 NActive=   22 NUniq=   22 SFac= 1.00D+00 NAtFMM=   60 NAOKFM=F Big=F
 Integral buffers will be    131072 words long.
 Raffenetti 2 integral format.
 Two-electron integral symmetry is turned on.
 One-electron integrals computed using PRISM.
 NBasis=   468 RedAO= T EigKep=  1.14D-06  NBF=   468
 NBsUse=   462 1.00D-06 EigRej=  6.38D-07 NBFU=   462
 Initial guess from the checkpoint file:  "/scratch/gour/Gau-79094.chk"
 B after Tr=     0.000000   -0.000000    0.000000
         Rot=    0.999998   -0.000000   -0.000000    0.002031 Ang=  -0.23 deg.
 ExpMin= 4.38D-02 ExpMax= 1.06D+05 ExpMxC= 3.62D+03 IAcc=3 IRadAn=         5 AccDes= 0.00D+00
 Harris functional with IExCor=  402 and IRadAn=       5 diagonalized for initial guess.
 HarFok:  IExCor=  402 AccDes= 0.00D+00 IRadAn=         5 IDoV= 1 UseB2=F ITyADJ=14
 ICtDFT=  3500011 ScaDFX=  1.000000  1.000000  1.000000  1.000000
 FoFCou: FMM=F IPFlag=           0 FMFlag=      100000 FMFlg1=           0
         NFxFlg=           0 DoJE=T BraDBF=F KetDBF=T FulRan=T
         wScrn=  0.000000 ICntrl=       500 IOpCl=  0 I1Cent=   200000004 NGrid=           0
         NMat0=    1 NMatS0=      1 NMatT0=    0 NMatD0=    1 NMtDS0=    0 NMtDT0=    0
 Petite list used in FoFCou.
 Requested convergence on RMS density matrix=1.00D-08 within  32 cycles.
 Requested convergence on MAX density matrix=1.00D-06.
 Requested convergence on             energy=1.00D-06.
 No special actions if energy rises.
 SCF Done:  E(RB3LYP) =  -3220.02836098     A.U. after   17 cycles
            NFock= 17  Conv=0.51D-08     -V/T= 2.0009
 QCSCF skips out because SCF is already converged.
 Calling FoFJK, ICntrl=      2127 FMM=F ISym2X=0 I1Cent= 0 IOpClX= 0 NMat=1 NMatS=1 NMatT=0.
 ***** Axes restored to original set *****
 -------------------------------------------------------------------
 Center     Atomic                   Forces (Hartrees/Bohr)
 Number     Number              X              Y              Z
 -------------------------------------------------------------------
      1        6          -0.000162504   -0.022284784   -0.004131775
      2        6          -0.003521901    0.010984458    0.003223474
      3        6           0.000726677   -0.000886176   -0.000405738
      4        6           0.000411499    0.001686552    0.000180988
      5        6          -0.002118672   -0.015123142   -0.002142153
      6        6           0.089485466   -0.017525612   -0.032773330
      7        6           0.016293211    0.007080927   -0.004038005
      8        6          -0.006461792   -0.003846476    0.001406507
      9        6          -0.003191080    0.010022163    0.002933520
     10        6          -0.001809879   -0.001997928    0.000221092
     11        6           0.024684851    0.010129611   -0.006230140
     12        6           0.051518344   -0.073306517   -0.030740397
     13        1           0.005985784   -0.001262924   -0.002209293
     14        1          -0.002623335    0.007685527    0.002307713
     15        1           0.004100588   -0.003876111   -0.002079039
     16        1          -0.002806357   -0.005199334   -0.000051963
     17       17          -1.105011680   -1.689379410    0.046788874
     18       17           0.948328446    1.790502440    0.023823216
     19       17          -0.005333499   -0.001416709    0.001491070
     20       17          -0.003226674   -0.000948234    0.000884962
     21       17          -0.001403644    0.001719276    0.000785361
     22       17          -0.003863850   -0.002757598    0.000755056
 -------------------------------------------------------------------
 Cartesian Forces:  Max     1.790502440 RMS     0.352562552

 GradGradGradGradGradGradGradGradGradGradGradGradGradGradGradGradGradGrad
 Berny optimization.
 Using GEDIIS/GDIIS optimizer.
 FormGI is forming the generalized inverse of G from B-inverse, IUseBI=4.
 Internal  Forces:  Max     1.969456974 RMS     0.184831713
 Search for a local minimum.
 Step number   2 out of a maximum of  129
 All quantities printed in internal units (Hartrees-Bohrs-Radians)
 Mixed Optimization -- RFO/linear search
 Update second derivatives using D2CorX and points    1    2
 DE= -5.10D-01 DEPred=-3.37D-01 R= 1.51D+00
 TightC=F SS=  1.41D+00  RLast= 2.79D-01 DXNew= 5.0454D-01 8.3755D-01
 Trust test= 1.51D+00 RLast= 2.79D-01 DXMaxT set to 5.05D-01
 ITU=  1  0
 Use linear search instead of GDIIS.
 Linear search step of   0.558 exceeds DXMaxT=   0.505 but not scaled.
 Quartic linear search produced a step of  2.00000.
 Iteration  1 RMS(Cart)=  0.04270747 RMS(Int)=  0.01661028
 Iteration  2 RMS(Cart)=  0.02426116 RMS(Int)=  0.00134768
 Iteration  3 RMS(Cart)=  0.00025230 RMS(Int)=  0.00134174
 Iteration  4 RMS(Cart)=  0.00000011 RMS(Int)=  0.00134174
 Variable       Old X    -DE/DX   Delta X   Delta X   Delta X     New X
                                 (Linear)    (Quad)   (Total)
    R1        2.64832   0.01121   0.00011   0.00000  -0.00025   2.64807
    R2        2.66449   0.06010   0.03246   0.00000   0.03065   2.69514
    R3        2.89488   0.06095  -0.03060   0.00000  -0.03335   2.86152
    R4        2.63963  -0.00744  -0.01726   0.00000  -0.01718   2.62245
    R5        2.02919   0.00441   0.01436   0.00000   0.01436   2.04355
    R6        2.64437  -0.01493  -0.00778   0.00000  -0.00734   2.63703
    R7        3.31994  -0.00392  -0.01196   0.00000  -0.01196   3.30799
    R8        2.63814  -0.01520  -0.02025   0.00000  -0.01989   2.61825
    R9        3.32201  -0.00246  -0.00782   0.00000  -0.00782   3.31419
   R10        2.63731  -0.00705  -0.02190   0.00000  -0.02196   2.61535
   R11        2.03476   0.00836   0.02551   0.00000   0.02551   2.06028
   R12        3.45215   0.06048   0.25247   0.00000   0.25361   3.70576
   R13        2.64950   0.01201   0.00247   0.00000   0.00204   2.65154
   R14        2.66493   0.06061   0.03334   0.00000   0.03135   2.69629
   R15        2.63879  -0.00832  -0.01895   0.00000  -0.01891   2.61988
   R16        2.02939   0.00446   0.01476   0.00000   0.01476   2.04415
   R17        2.63490  -0.01984  -0.02673   0.00000  -0.02626   2.60863
   R18        3.32108  -0.00232  -0.00968   0.00000  -0.00968   3.31140
   R19        2.63782  -0.01553  -0.02088   0.00000  -0.02044   2.61738
   R20        2.03177   0.00591   0.01952   0.00000   0.01952   2.05128
   R21        2.63745  -0.00838  -0.02163   0.00000  -0.02165   2.61580
   R22        3.32998   0.00558   0.00813   0.00000   0.00813   3.33811
   R23        3.46209   0.06915   0.27234   0.00000   0.27336   3.73544
   R24        2.41382   1.96946   0.36260   0.00000   0.36534   2.77916
    A1        2.08492  -0.04862  -0.01896   0.00000  -0.01742   2.06749
    A2        2.09148  -0.09869  -0.00583   0.00000  -0.00210   2.08938
    A3        2.10679   0.14731   0.02479   0.00000   0.01952   2.12631
    A4        2.10051   0.02944   0.01223   0.00000   0.01129   2.11180
    A5        2.09834  -0.00987   0.00790   0.00000   0.00836   2.10670
    A6        2.08433  -0.01958  -0.02012   0.00000  -0.01966   2.06468
    A7        2.09454   0.00356   0.00029   0.00000   0.00016   2.09470
    A8        2.08630  -0.00641  -0.01618   0.00000  -0.01612   2.07018
    A9        2.10234   0.00284   0.01589   0.00000   0.01596   2.11830
   A10        2.09251  -0.00649  -0.00376   0.00000  -0.00359   2.08892
   A11        2.10246   0.00733   0.01614   0.00000   0.01605   2.11852
   A12        2.08821  -0.00084  -0.01238   0.00000  -0.01246   2.07575
   A13        2.10223   0.01476   0.01568   0.00000   0.01533   2.11756
   A14        2.08924  -0.00859  -0.01032   0.00000  -0.01014   2.07910
   A15        2.09172  -0.00617  -0.00536   0.00000  -0.00518   2.08653
   A16        2.09166   0.00734  -0.00547   0.00000  -0.00577   2.08589
   A17        2.12699   0.05607   0.06519   0.00000   0.06405   2.19104
   A18        2.06453  -0.06341  -0.05972   0.00000  -0.05829   2.00625
   A19        2.08920  -0.10053  -0.01039   0.00000  -0.00650   2.08270
   A20        2.10507   0.14603   0.02136   0.00000   0.01601   2.12108
   A21        2.08891  -0.04550  -0.01096   0.00000  -0.00950   2.07941
   A22        2.09615   0.02618   0.00350   0.00000   0.00241   2.09856
   A23        2.09934  -0.00900   0.00990   0.00000   0.01044   2.10979
   A24        2.08769  -0.01718  -0.01340   0.00000  -0.01286   2.07484
   A25        2.10143   0.00792   0.01406   0.00000   0.01389   2.11532
   A26        2.09211  -0.00325  -0.00458   0.00000  -0.00449   2.08762
   A27        2.08965  -0.00466  -0.00949   0.00000  -0.00940   2.08025
   A28        2.08566  -0.01124  -0.01748   0.00000  -0.01723   2.06843
   A29        2.09846   0.00545   0.00813   0.00000   0.00801   2.10647
   A30        2.09907   0.00579   0.00935   0.00000   0.00922   2.10829
   A31        2.11142   0.02141   0.03404   0.00000   0.03377   2.14519
   A32        2.08259  -0.01275  -0.02361   0.00000  -0.02347   2.05912
   A33        2.08918  -0.00866  -0.01044   0.00000  -0.01030   2.07888
   A34        2.08281   0.00123  -0.02317   0.00000  -0.02335   2.05947
   A35        2.12398   0.05340   0.05917   0.00000   0.05773   2.18171
   A36        2.07640  -0.05462  -0.03600   0.00000  -0.03439   2.04201
   A37        2.05249  -0.20134  -0.08380   0.00000  -0.07731   1.97519
   A38        2.05104  -0.20147  -0.08670   0.00000  -0.08001   1.97104
    D1        0.00000   0.00000   0.00000   0.00000   0.00000   0.00000
    D2        3.14159   0.00000   0.00000   0.00000   0.00000   3.14159
    D3       -3.14159   0.00000   0.00000   0.00000   0.00000  -3.14159
    D4       -0.00000   0.00000   0.00000   0.00000   0.00000  -0.00000
    D5       -0.00000  -0.00000  -0.00000   0.00000  -0.00000  -0.00000
    D6        3.14159  -0.00000   0.00000   0.00000   0.00000   3.14159
    D7        3.14159  -0.00000  -0.00000   0.00000  -0.00000   3.14159
    D8        0.00000  -0.00000   0.00000   0.00000   0.00000   0.00000
    D9       -0.00000  -0.00000  -0.00000   0.00000  -0.00000  -0.00000
   D10        3.14159  -0.00000  -0.00000   0.00000  -0.00000   3.14159
   D11        3.14159  -0.00000  -0.00000   0.00000  -0.00000   3.14159
   D12       -0.00000  -0.00000  -0.00000   0.00000  -0.00000  -0.00000
   D13        0.00000  -0.00000   0.00000   0.00000   0.00000   0.00000
   D14        3.14159  -0.00000   0.00000   0.00000   0.00000   3.14159
   D15       -3.14159   0.00000  -0.00000   0.00000  -0.00000  -3.14159
   D16        0.00000   0.00000  -0.00000   0.00000  -0.00000   0.00000
   D17       -0.00000  -0.00000   0.00000   0.00000   0.00000  -0.00000
   D18        3.14159   0.00000  -0.00000   0.00000  -0.00000   3.14159
   D19        3.14159  -0.00000   0.00000   0.00000   0.00000   3.14159
   D20        0.00000   0.00000  -0.00000   0.00000  -0.00000   0.00000
   D21        0.00000   0.00000  -0.00000   0.00000  -0.00000   0.00000
   D22       -3.14159   0.00000  -0.00000   0.00000  -0.00000  -3.14159
   D23       -3.14159  -0.00000  -0.00000   0.00000  -0.00000  -3.14159
   D24        0.00000   0.00000   0.00000   0.00000   0.00000   0.00000
   D25       -0.00000   0.00000   0.00000   0.00000   0.00000  -0.00000
   D26        3.14159   0.00000   0.00000   0.00000  -0.00000   3.14159
   D27        3.14159  -0.00000   0.00000   0.00000   0.00000   3.14159
   D28       -0.00000   0.00000  -0.00000   0.00000  -0.00000  -0.00000
   D29        0.00001  -0.00000  -0.00000   0.00000  -0.00000   0.00001
   D30       -3.14158  -0.00000  -0.00000   0.00000  -0.00000  -3.14158
   D31        3.14159   0.00000   0.00000   0.00000   0.00000   3.14159
   D32        0.00000   0.00000   0.00000   0.00000   0.00000   0.00000
   D33        0.00000   0.00000   0.00000   0.00000   0.00000   0.00000
   D34       -3.14159   0.00000  -0.00000   0.00000  -0.00000  -3.14159
   D35       -3.14159  -0.00000  -0.00000   0.00000  -0.00000  -3.14159
   D36        0.00000  -0.00000   0.00000   0.00000   0.00000   0.00000
   D37       -0.00000  -0.00000  -0.00000   0.00000  -0.00000  -0.00000
   D38        3.14159  -0.00000   0.00000   0.00000   0.00000   3.14159
   D39       -0.00000  -0.00000   0.00000   0.00000   0.00000  -0.00000
   D40        3.14159  -0.00000  -0.00000   0.00000  -0.00000   3.14159
   D41        3.14159   0.00000   0.00000   0.00000   0.00000   3.14159
   D42       -0.00000   0.00000   0.00000   0.00000   0.00000  -0.00000
   D43       -0.00000  -0.00000  -0.00000   0.00000  -0.00000  -0.00000
   D44       -3.14159  -0.00000  -0.00000   0.00000  -0.00000  -3.14159
   D45        3.14159  -0.00000   0.00000   0.00000   0.00000   3.14159
   D46        0.00000   0.00000  -0.00000   0.00000  -0.00000   0.00000
   D47        0.00000   0.00000  -0.00000   0.00000  -0.00000   0.00000
   D48       -3.14159   0.00000  -0.00000   0.00000  -0.00000  -3.14159
   D49        3.14159  -0.00000   0.00000   0.00000   0.00000   3.14159
   D50        0.00000   0.00000  -0.00000   0.00000  -0.00000   0.00000
   D51        0.00000   0.00000   0.00000   0.00000   0.00000   0.00000
   D52       -3.14159   0.00000  -0.00000   0.00000  -0.00000  -3.14159
   D53        3.14159   0.00000   0.00000   0.00000   0.00000   3.14159
   D54       -0.00000   0.00000  -0.00000   0.00000  -0.00000  -0.00000
   D55        0.00001  -0.00000  -0.00000   0.00000  -0.00000   0.00001
[...]
                 (A) (A) (A) (A) (A) (A) (A) (A) (A) (A) (A) (A)
                 (A) (A) (A) (A) (A) (A) (A) (A) (A) (A) (A) (A)
                 (A) (A) (A) (A) (A) (A) (A) (A) (A) (A) (A) (A)
                 (A) (A) (A) (A) (A) (A) (A) (A) (A) (A) (A) (A)
                 (A) (A) (A) (A) (A) (A) (A) (A) (A) (A) (A) (A)
                 (A) (A) (A) (A) (A) (A) (A) (A) (A) (A) (A) (A)
                 (A) (A) (A) (A) (A) (A) (A) (A) (A) (A) (A) (A)
                 (A) (A) (A) (A) (A) (A) (A) (A) (A) (A) (A) (A)
                 (A) (A) (A) (A) (A) (A) (A) (A) (A) (A) (A) (A)
                 (A) (A) (A) (A) (A) (A) (A) (A) (A) (A) (A) (A)
                 (A) (A) (A) (A) (A) (A) (A) (A) (A) (A) (A) (A)
                 (A) (A) (A) (A) (A) (A) (A) (A) (A) (A) (A) (A)
                 (A) (A) (A) (A) (A) (A) (A) (A) (A) (A) (A) (A)
                 (A) (A) (A) (A) (A) (A) (A) (A) (A) (A) (A) (A)
                 (A) (A) (A) (A) (A) (A) (A) (A) (A) (A) (A) (A)
                 (A) (A) (A) (A) (A) (A) (A) (A) (A) (A) (A) (A)
                 (A) (A) (A) (A) (A) (A) (A) (A) (A) (A) (A) (A)
                 (A) (A) (A) (A) (A) (A) (A) (A) (A) (A) (A) (A)
                 (A) (A) (A) (A) (A) (A) (A) (A) (A) (A) (A) (A)
                 (A) (A) (A) (A) (A) (A) (A) (A) (A) (A) (A) (A)
                 (A) (A) (A) (A) (A) (A) (A) (A) (A) (A) (A) (A)
                 (A) (A) (A) (A) (A) (A) (A) (A) (A) (A) (A) (A)
                 (A) (A) (A) (A) (A) (A) (A) (A) (A) (A) (A) (A)
                 (A) (A) (A) (A) (A) (A) (A) (A) (A) (A) (A) (A)
                 (A) (A) (A) (A) (A) (A) (A) (A) (A) (A) (A) (A)
                 (A) (A) (A) (A) (A) (A) (A) (A) (A) (A) (A) (A)
                 (A) (A) (A)
 The electronic state is 1-A.
 Alpha  occ. eigenvalues -- -101.57822-101.57769-101.57703-101.57663-101.57610
 Alpha  occ. eigenvalues -- -101.57591 -10.27600 -10.27549 -10.27397 -10.27222
 Alpha  occ. eigenvalues --  -10.27161 -10.26959 -10.23815 -10.23493 -10.22335
 Alpha  occ. eigenvalues --  -10.22317 -10.22274 -10.21961  -9.49277  -9.49228
 Alpha  occ. eigenvalues --   -9.49158  -9.49134  -9.49063  -9.49059  -7.25765
 Alpha  occ. eigenvalues --   -7.25716  -7.25645  -7.25620  -7.25536  -7.25532
 Alpha  occ. eigenvalues --   -7.24756  -7.24707  -7.24696  -7.24645  -7.24635
 Alpha  occ. eigenvalues --   -7.24614  -7.24580  -7.24547  -7.24539  -7.24537
 Alpha  occ. eigenvalues --   -7.24503  -7.24493  -0.95406  -0.94408  -0.90945
 Alpha  occ. eigenvalues --   -0.90601  -0.88542  -0.88082  -0.85557  -0.84180
 Alpha  occ. eigenvalues --   -0.80249  -0.77035  -0.75168  -0.74328  -0.67335
 Alpha  occ. eigenvalues --   -0.65255  -0.63074  -0.60973  -0.55113  -0.53851
 Alpha  occ. eigenvalues --   -0.53498  -0.53265  -0.50071  -0.48483  -0.46944
 Alpha  occ. eigenvalues --   -0.46703  -0.46668  -0.44978  -0.44919  -0.43582
 Alpha  occ. eigenvalues --   -0.41737  -0.41535  -0.40734  -0.39756  -0.39245
 Alpha  occ. eigenvalues --   -0.36988  -0.36838  -0.35206  -0.34971  -0.33968
 Alpha  occ. eigenvalues --   -0.33901  -0.33658  -0.33452  -0.32938  -0.32736
 Alpha  occ. eigenvalues --   -0.28800  -0.28601  -0.26778  -0.26676
 Alpha virt. eigenvalues --   -0.06443  -0.06225  -0.05369  -0.04884  -0.03512
 Alpha virt. eigenvalues --   -0.02642  -0.00833  -0.00140   0.00086   0.00807
 Alpha virt. eigenvalues --    0.01653   0.01990   0.02266   0.02532   0.03393
 Alpha virt. eigenvalues --    0.03781   0.04399   0.04920   0.05359   0.05570
 Alpha virt. eigenvalues --    0.05893   0.06626   0.07096   0.07495   0.08160
 Alpha virt. eigenvalues --    0.08336   0.08617   0.08788   0.09453   0.09519
 Alpha virt. eigenvalues --    0.09852   0.10399   0.10726   0.10874   0.11053
 Alpha virt. eigenvalues --    0.11407   0.11903   0.12042   0.12499   0.12700
 Alpha virt. eigenvalues --    0.12926   0.13309   0.13623   0.13971   0.14414
 Alpha virt. eigenvalues --    0.14800   0.15632   0.15791   0.16051   0.16444
 Alpha virt. eigenvalues --    0.17033   0.17491   0.17660   0.18300   0.18563
 Alpha virt. eigenvalues --    0.18856   0.19358   0.19593   0.19781   0.20254
 Alpha virt. eigenvalues --    0.20457   0.20782   0.21260   0.21481   0.21916
 Alpha virt. eigenvalues --    0.22542   0.22706   0.22964   0.23386   0.23637
 Alpha virt. eigenvalues --    0.23924   0.24483   0.24926   0.25330   0.25656
 Alpha virt. eigenvalues --    0.26050   0.26446   0.26762   0.27765   0.27838
 Alpha virt. eigenvalues --    0.28207   0.28407   0.28597   0.29169   0.29583
 Alpha virt. eigenvalues --    0.29962   0.30499   0.30862   0.31334   0.32550
 Alpha virt. eigenvalues --    0.33055   0.33923   0.35632   0.40194   0.40945
 Alpha virt. eigenvalues --    0.41738   0.42920   0.43116   0.43879   0.44671
 Alpha virt. eigenvalues --    0.44905   0.45000   0.45191   0.45734   0.46489
 Alpha virt. eigenvalues --    0.46831   0.47157   0.47827   0.48075   0.48282
 Alpha virt. eigenvalues --    0.49775   0.50160   0.50724   0.52090   0.53034
 Alpha virt. eigenvalues --    0.53649   0.54579   0.55606   0.56647   0.57138
 Alpha virt. eigenvalues --    0.57467   0.57934   0.58658   0.59281   0.59778
 Alpha virt. eigenvalues --    0.60547   0.61305   0.62719   0.62988   0.63629
 Alpha virt. eigenvalues --    0.63809   0.64943   0.65486   0.65700   0.66250
 Alpha virt. eigenvalues --    0.67199   0.67833   0.68240   0.68832   0.69259
 Alpha virt. eigenvalues --    0.69638   0.70241   0.71143   0.74298   0.77028
 Alpha virt. eigenvalues --    0.78201   0.80526   0.80941   0.81666   0.82540
 Alpha virt. eigenvalues --    0.83064   0.83641   0.83734   0.84095   0.84207
 Alpha virt. eigenvalues --    0.84376   0.84584   0.84737   0.85038   0.85472
 Alpha virt. eigenvalues --    0.85601   0.86121   0.86652   0.87354   0.87744
 Alpha virt. eigenvalues --    0.88942   0.89632   0.89834   0.90038   0.90907
 Alpha virt. eigenvalues --    0.91651   0.91813   0.92228   0.93131   0.93885
 Alpha virt. eigenvalues --    0.94220   0.94348   0.94638   0.95132   0.95903
 Alpha virt. eigenvalues --    0.96716   0.97536   0.98154   0.99208   0.99826
 Alpha virt. eigenvalues --    1.00345   1.01480   1.01838   1.03641   1.04771
 Alpha virt. eigenvalues --    1.09632   1.10278   1.11265   1.14313   1.15041
 Alpha virt. eigenvalues --    1.19005   1.19682   1.21272   1.21939   1.22073
 Alpha virt. eigenvalues --    1.22749   1.23527   1.25242   1.25715   1.26811
 Alpha virt. eigenvalues --    1.27868   1.28811   1.29667   1.30197   1.32049
 Alpha virt. eigenvalues --    1.33549   1.34235   1.36018   1.39236   1.40415
 Alpha virt. eigenvalues --    1.45022   1.47742   1.48730   1.54034   1.54834
 Alpha virt. eigenvalues --    1.55240   1.55947   1.56304   1.59269   1.59612
 Alpha virt. eigenvalues --    1.61217   1.63889   1.65866   1.66216   1.70314
 Alpha virt. eigenvalues --    1.71725   1.73751   1.74791   1.76347   1.79931
 Alpha virt. eigenvalues --    1.81175   1.81802   1.84518   1.85205   1.86446
 Alpha virt. eigenvalues --    1.89968   1.90775   1.92165   1.93013   1.94624
 Alpha virt. eigenvalues --    1.96379   1.98582   1.99099   2.00742   2.04078
 Alpha virt. eigenvalues --    2.05377   2.05952   2.08370   2.08704   2.10993
 Alpha virt. eigenvalues --    2.13265   2.17849   2.22407   2.23304   2.24067
 Alpha virt. eigenvalues --    2.24473   2.25273   2.26499   2.27785   2.28303
 Alpha virt. eigenvalues --    2.28920   2.31249   2.31737   2.33927   2.34545
 Alpha virt. eigenvalues --    2.36784   2.41510   2.42226   2.43518   2.44515
 Alpha virt. eigenvalues --    2.46947   2.49032   2.51207   2.51774   2.53430
 Alpha virt. eigenvalues --    2.53666   2.54936   2.56812   2.59053   2.59598
 Alpha virt. eigenvalues --    2.62255   2.63801   2.67300   2.68167   2.69245
 Alpha virt. eigenvalues --    2.69830   2.71826   2.72877   2.74123   2.74708
 Alpha virt. eigenvalues --    2.75383   2.76631   2.77092   2.82544   2.83095
 Alpha virt. eigenvalues --    2.83717   2.87705   2.89788   2.97090   2.97488
 Alpha virt. eigenvalues --    3.05045   3.07380   3.08040   3.08648   3.12045
 Alpha virt. eigenvalues --    3.12631   3.14559   3.18338   3.22460   3.25153
 Alpha virt. eigenvalues --    3.27806   3.33996   3.35108   3.42908   3.50319
 Alpha virt. eigenvalues --    3.53378   3.61191   3.67055   3.76480   3.79425
 Alpha virt. eigenvalues --    3.81243   3.90603   3.96699   4.08399   4.11030
 Alpha virt. eigenvalues --    4.32124   4.80285   4.81061   9.75514   9.76220
 Alpha virt. eigenvalues --    9.78081   9.79364   9.81436   9.83280  23.36022
 Alpha virt. eigenvalues --   23.50716  23.81720  23.83107  23.87342  23.89210
 Alpha virt. eigenvalues --   23.93720  23.98825  24.02729  24.05374  24.08994
 Alpha virt. eigenvalues --   24.13535  25.77624  25.79868  25.81748  25.86055
 Alpha virt. eigenvalues --   25.87407  25.96237  26.07066  26.08664  26.12869
 Alpha virt. eigenvalues --   26.17521  26.28208  26.33770  26.50255  26.56979
 Alpha virt. eigenvalues --   26.62555  26.70037  26.77569  26.88453 215.74673
 Alpha virt. eigenvalues --  215.75262 215.77469 215.78883 215.81794 215.83581
          Condensed to atoms (all electrons):
               1          2          3          4          5          6
     1  C   44.454409   0.297312 -10.241887  -4.051148  -4.189621  -3.290586
     2  C    0.297312  24.258118  -0.453625  -9.700784   2.207980  -9.900609
     3  C  -10.241887  -0.453625  32.493257  -6.352525 -11.207744   1.756632
     4  C   -4.051148  -9.700784  -6.352525  30.736090   3.422287  -8.096856
     5  C   -4.189621   2.207980 -11.207744   3.422287  28.260828  -7.518026
     6  C   -3.290586  -9.900609   1.756632  -8.096856  -7.518026  50.595325
     7  C    4.339481  -2.391511  -0.698109   1.231374  -2.348936  -6.388107
     8  C  -12.254577  -0.148150  -0.392888   0.041398   0.237845  -0.914749
     9  C    5.590755   0.407270   1.112021  -0.092965  -0.862227  -1.498391
    10  C   -3.473799   0.249785  -0.447577   0.148055   0.477357   0.835575
    11  C    0.783510  -2.318470  -0.693931  -0.212156   0.715650   3.705607
    12  C  -10.351636   3.531540   0.554199   0.698770  -1.675695 -12.002310
    13  H   -0.022480   0.262045  -0.046367   0.049977  -0.052280  -0.059519
    14  H    0.097401  -0.044028   0.045115   0.017448   0.208132   0.008347
    15  H    0.224492  -0.001570  -0.027134   0.003814   0.021661   0.085634
    16  H    0.018221  -0.001493  -0.000105  -0.000017   0.000023   0.001232
    17  Cl  -1.800032   0.483048   0.340379   0.081257  -0.405137  -1.509791
    18  Cl   0.006460  -0.294416   0.803550  -0.710918  -1.048732   0.333306
    19  Cl   0.107387  -0.036729   0.003632  -0.002629  -0.002708   0.011494
    20  Cl   0.116442   0.295665  -0.006536  -0.958403   0.334578  -0.406911
    21  Cl  -0.199295   0.070884   0.015656   0.005886  -0.002529  -0.123180
    22  Cl  -0.523808   0.213396  -0.765775  -0.267804   0.093568   0.799779
               7          8          9         10         11         12
     1  C    4.339481 -12.254577   5.590755  -3.473799   0.783510 -10.351636
     2  C   -2.391511  -0.148150   0.407270   0.249785  -2.318470   3.531540
     3  C   -0.698109  -0.392888   1.112021  -0.447577  -0.693931   0.554199
     4  C    1.231374   0.041398  -0.092965   0.148055  -0.212156   0.698770
     5  C   -2.348936   0.237845  -0.862227   0.477357   0.715650  -1.675695
     6  C   -6.388107  -0.914749  -1.498391   0.835575   3.705607 -12.002310
     7  C   27.192716  -5.400112  -5.817528  -1.805418   1.852309  -1.803609
     8  C   -5.400112  33.916210  -8.744342  -1.122422  -7.255866   7.666737
     9  C   -5.817528  -8.744342  23.293876  -2.621472  -1.903926  -3.124586
    10  C   -1.805418  -1.122422  -2.621472  28.801313  -5.948539  -8.086751
    11  C    1.852309  -7.255866  -1.903926  -5.948539  23.869387  -6.724831
    12  C   -1.803609   7.666737  -3.124586  -8.086751  -6.724831  37.695124
    13  H    0.115246   0.039156  -0.028449   0.004891  -0.001788   0.100667
    14  H    0.020087  -0.001006  -0.000496   0.000049  -0.000201   0.003765
    15  H    0.041283   0.089096   0.052163   0.016838   0.022647  -0.157478
    16  H    0.072451  -0.049647   0.034246   0.130005   0.112707   0.031738
    17  Cl  -0.706964   0.789577   0.046529   1.210247  -0.219428  -0.096979
    18  Cl  -0.232978  -0.394272   0.557523  -0.431597   0.075317  -0.189499
    19  Cl  -0.192912   0.036187  -0.088307  -0.470211  -0.440768   0.625433
    20  Cl  -0.043897  -0.013834   0.007930  -0.001437  -0.000957  -0.030146
    21  Cl  -0.297030   0.771688  -1.142775  -0.336405   0.023713   0.447916
    22  Cl  -0.296071  -0.005545   0.035444  -0.012577   0.018395  -0.133761
              13         14         15         16         17         18
     1  C   -0.022480   0.097401   0.224492   0.018221  -1.800032   0.006460
     2  C    0.262045  -0.044028  -0.001570  -0.001493   0.483048  -0.294416
     3  C   -0.046367   0.045115  -0.027134  -0.000105   0.340379   0.803550
     4  C    0.049977   0.017448   0.003814  -0.000017   0.081257  -0.710918
     5  C   -0.052280   0.208132   0.021661   0.000023  -0.405137  -1.048732
     6  C   -0.059519   0.008347   0.085634   0.001232  -1.509791   0.333306
     7  C    0.115246   0.020087   0.041283   0.072451  -0.706964  -0.232978
     8  C    0.039156  -0.001006   0.089096  -0.049647   0.789577  -0.394272
     9  C   -0.028449  -0.000496   0.052163   0.034246   0.046529   0.557523
    10  C    0.004891   0.000049   0.016838   0.130005   1.210247  -0.431597
    11  C   -0.001788  -0.000201   0.022647   0.112707  -0.219428   0.075317
    12  C    0.100667   0.003765  -0.157478   0.031738  -0.096979  -0.189499
    13  H    0.507435   0.000043  -0.000652  -0.000002  -0.006403  -0.000593
    14  H    0.000043   0.489023  -0.000001  -0.000000  -0.001117  -0.008072
    15  H   -0.000652  -0.000001   0.510673  -0.000208  -0.005162  -0.007268
    16  H   -0.000002  -0.000000  -0.000208   0.490571  -0.001854  -0.000022
    17  Cl  -0.006403  -0.001117  -0.005162  -0.001854  18.394542   0.084702
    18  Cl  -0.000593  -0.008072  -0.007268  -0.000022   0.084702  18.101694
    19  Cl   0.000272  -0.000005   0.000347  -0.004225  -0.281678   0.000561
    20  Cl  -0.000758  -0.008605   0.000112   0.000000   0.005446  -0.037479
    21  Cl   0.000215  -0.000009  -0.017243  -0.007478  -0.001956  -0.006546
    22  Cl  -0.013216   0.000029   0.000244   0.000001  -0.016512   0.001611
              19         20         21         22
     1  C    0.107387   0.116442  -0.199295  -0.523808
     2  C   -0.036729   0.295665   0.070884   0.213396
     3  C    0.003632  -0.006536   0.015656  -0.765775
     4  C   -0.002629  -0.958403   0.005886  -0.267804
     5  C   -0.002708   0.334578  -0.002529   0.093568
     6  C    0.011494  -0.406911  -0.123180   0.799779
     7  C   -0.192912  -0.043897  -0.297030  -0.296071
     8  C    0.036187  -0.013834   0.771688  -0.005545
     9  C   -0.088307   0.007930  -1.142775   0.035444
    10  C   -0.470211  -0.001437  -0.336405  -0.012577
    11  C   -0.440768  -0.000957   0.023713   0.018395
    12  C    0.625433  -0.030146   0.447916  -0.133761
    13  H    0.000272  -0.000758   0.000215  -0.013216
    14  H   -0.000005  -0.008605  -0.000009   0.000029
    15  H    0.000347   0.000112  -0.017243   0.000244
    16  H   -0.004225   0.000000  -0.007478   0.000001
    17  Cl  -0.281678   0.005446  -0.001956  -0.016512
    18  Cl   0.000561  -0.037479  -0.006546   0.001611
    19  Cl  17.287889   0.000024  -0.016463   0.000310
    20  Cl   0.000024  17.406117   0.000056  -0.160770
    21  Cl  -0.016463   0.000056  17.387093   0.000033
    22  Cl   0.000310  -0.160770   0.000033  17.499789
 Mulliken charges:
               1
     1  C    0.362998
     2  C   -0.985657
     3  C    0.209764
     4  C    0.009848
     5  C   -0.666273
     6  C   -0.423897
     7  C   -0.441765
     8  C   -0.890485
     9  C    0.787707
    10  C   -1.115912
    11  C    0.541621
    12  C   -0.978607
    13  H    0.152560
    14  H    0.174101
    15  H    0.147711
    16  H    0.173855
    17  Cl   0.617287
    18  Cl   0.397670
    19  Cl   0.463099
    20  Cl   0.503364
    21  Cl   0.427771
    22  Cl   0.533240
 Sum of Mulliken charges =  -0.00000
 Mulliken charges with hydrogens summed into heavy atoms:
               1
     1  C    0.362998
     2  C   -0.833098
     3  C    0.209764
     4  C    0.009848
     5  C   -0.492172
     6  C   -0.423897
     7  C   -0.441765
     8  C   -0.742773
     9  C    0.787707
    10  C   -0.942057
    11  C    0.541621
    12  C   -0.978607
    17  Cl   0.617287
    18  Cl   0.397670
    19  Cl   0.463099
    20  Cl   0.503364
    21  Cl   0.427771
    22  Cl   0.533240
 Electronic spatial extent (au):  <R**2>=           8683.0492
 Charge=              0.0000 electrons
 Dipole moment (field-independent basis, Debye):
    X=             -0.3992    Y=              0.7981    Z=             -0.1650  Tot=              0.9075
 Quadrupole moment (field-independent basis, Debye-Ang):
   XX=           -146.7963   YY=           -147.4071   ZZ=           -144.7485
   XY=             -1.4868   XZ=             -3.4016   YZ=              1.1262
 Traceless Quadrupole moment (field-independent basis, Debye-Ang):
   XX=             -0.4790   YY=             -1.0898   ZZ=              1.5688
   XY=             -1.4868   XZ=             -3.4016   YZ=              1.1262
 Octapole moment (field-independent basis, Debye-Ang**2):
  XXX=            -32.1475  YYY=            -11.7391  ZZZ=              1.0333  XYY=              8.7773
  XXY=             -9.4279  XXZ=             -9.7371  XZZ=              9.5304  YZZ=             -3.4284
  YYZ=             -0.2023  XYZ=              0.8881
 Hexadecapole moment (field-independent basis, Debye-Ang**3):
 XXXX=          -7786.1396 YYYY=          -2017.0247 ZZZZ=          -1430.6128 XXXY=             -5.6925
 XXXZ=            -41.3664 YYYX=             20.0083 YYYZ=            -21.5694 ZZZX=             21.1751
 ZZZY=             20.0724 XXYY=          -1686.7612 XXZZ=          -1545.7936 YYZZ=           -588.6685
 XXYZ=             12.4671 YYXZ=              5.0012 ZZXY=              8.7347
 N-N= 1.990613423281D+03 E-N=-1.161006175908D+04  KE= 3.212690444511D+03
 1\1\GINC-LOCALHOST\FOpt\RB3LYP\6-311+G(d,p)\C12H4Cl6\GOUR\17-Mar-2022\
 0\\# opt b3lyp/6-311+g(d,p) scf=xqc\\Title Card Required\\0,1\C,-0.642
 9470342,2.9808191771,-0.7336248888\C,0.1473759209,3.2726239491,-1.8464
 557247\C,0.8655866757,4.4613329287,-1.939715408\C,0.800249256,5.388699
 5974,-0.8960819269\C,0.0213630579,5.1138654889,0.2244763804\C,-0.68916
 91958,3.922278949,0.3006678335\C,-1.3757903373,1.6813727983,-0.6714972
 682\C,-0.6942075519,0.542539414,-0.2384155862\C,-1.3503868149,-0.68076
 93712,-0.1836268557\C,-2.6821541183,-0.79830387,-0.555906309\C,-3.3649
 173812,0.3338479677,-0.9923059141\C,-2.7210673291,1.5753944164,-1.0550
 834129\H,0.1996334627,2.563320184,-2.6625007199\H,-0.026031979,5.82907
 42479,1.033936934\H,0.3424265541,0.6193221706,0.0617172035\H,-3.190000
 804,-1.7516474044,-0.5117735697\Cl,-3.5741123673,2.990001513,-1.611994
 2231\Cl,-1.6468905084,3.6184424807,1.7354390179\Cl,-5.0361685032,0.155
 1707975,-1.4600031982\Cl,1.6765284912,6.8945819404,-0.9541307102\Cl,-0
 .4849475232,-2.102626354,0.364568191\Cl,1.8282278416,4.7535306176,-3.3
 645656285\\Version=EM64L-G16RevB.01\State=1-A\HF=-3221.1364998\RMSD=6.
 996e-09\RMSF=3.650e-06\Dipole=0.171358,-0.2884218,0.1221889\Quadrupole
 =-1.7404982,1.4011868,0.3393114,-0.2047984,0.642172,2.5263822\PG=C01 [
 X(C12H4Cl6)]\\@


 MISERY NO LONGER LOVES COMPANY.  NOWADAYS IT INSISTS ON IT.

                                              -- BAKER'S LAW
 Job cpu time:       1 days 22 hours 36 minutes 45.8 seconds.
 Elapsed time:       0 days 11 hours 41 minutes 11.9 seconds.
 File lengths (MBytes):  RWF=    145 Int=      0 D2E=      0 Chk=     21 Scr=      1
 Normal termination of Gaussian 16 at Thu Mar 17 11:36:18 2022.
