 Entering Gaussian System, Link 0=g16
 Input=2,2prime,3,4prime,6-Pentachlorobiphenyl1.gjf
 Output=2,2prime,3,4prime,6-Pentachlorobiphenyl1.log
 Initial command:
 /home/apps/g16/l1.exe "./Gau-315624.inp" -scrdir="./"
 Entering Link 1 = /home/apps/g16/l1.exe PID=    315625.
  
 Copyright (c) 1988-2017, Gaussian, Inc.  All Rights Reserved.
  
 This is part of the Gaussian(R) 16 program.  It is based on
 the Gaussian(R) 09 system (copyright 2009, Gaussian, Inc.),
 the Gaussian(R) 03 system (copyright 2003, Gaussian, Inc.),
 the Gaussian(R) 98 system (copyright 1998, Gaussian, Inc.),
 the Gaussian(R) 94 system (copyright 1995, Gaussian, Inc.),
 the Gaussian 92(TM) system (copyright 1992, Gaussian, Inc.),
 the Gaussian 90(TM) system (copyright 1990, Gaussian, Inc.),
 the Gaussian 88(TM) system (copyright 1988, Gaussian, Inc.),
 the Gaussian 86(TM) system (copyright 1986, Carnegie Mellon
 University), and the Gaussian 82(TM) system (copyright 1983,
 Carnegie Mellon University). Gaussian is a federally registered
 trademark of Gaussian, Inc.
  
 This software contains proprietary and confidential information,
 including trade secrets, belonging to Gaussian, Inc.
  
 This software is provided under written license and may be
 used, copied, transmitted, or stored only in accord with that
 written license.
  
 The following legend is applicable only to US Government
 contracts under FAR:
  
                    RESTRICTED RIGHTS LEGEND
  
 Use, reproduction and disclosure by the US Government is
 subject to restrictions as set forth in subparagraphs (a)
 and (c) of the Commercial Computer Software - Restricted
 Rights clause in FAR 52.227-19.
  
 Gaussian, Inc.
 340 Quinnipiac St., Bldg. 40, Wallingford CT 06492
  
  
 ---------------------------------------------------------------
 Warning -- This program may not be used in any manner that
 competes with the business of Gaussian, Inc. or will provide
 assistance to any competitor of Gaussian, Inc.  The licensee
 of this program is prohibited from giving any competitor of
 Gaussian, Inc. access to this program.  By using this program,
 the user acknowledges that Gaussian, Inc. is engaged in the
 business of creating and licensing software in the field of
 computational chemistry and represents and warrants to the
 licensee that it is not a competitor of Gaussian, Inc. and that
 it will not use this program in any manner prohibited above.
 ---------------------------------------------------------------
  

 Cite this work as:
 Gaussian 16, Revision B.01,
 M. J. Frisch, G. W. Trucks, H. B. Schlegel, G. E. Scuseria, 
 M. A. Robb, J. R. Cheeseman, G. Scalmani, V. Barone, 
 G. A. Petersson, H. Nakatsuji, X. Li, M. Caricato, A. V. Marenich, 
 J. Bloino, B. G. Janesko, R. Gomperts, B. Mennucci, H. P. Hratchian, 
 J. V. Ortiz, A. F. Izmaylov, J. L. Sonnenberg, D. Williams-Young, 
 F. Ding, F. Lipparini, F. Egidi, J. Goings, B. Peng, A. Petrone, 
 T. Henderson, D. Ranasinghe, V. G. Zakrzewski, J. Gao, N. Rega, 
 G. Zheng, W. Liang, M. Hada, M. Ehara, K. Toyota, R. Fukuda, 
 J. Hasegawa, M. Ishida, T. Nakajima, Y. Honda, O. Kitao, H. Nakai, 
 T. Vreven, K. Throssell, J. A. Montgomery, Jr., J. E. Peralta, 
 F. Ogliaro, M. J. Bearpark, J. J. Heyd, E. N. Brothers, K. N. Kudin, 
 V. N. Staroverov, T. A. Keith, R. Kobayashi, J. Normand, 
 K. Raghavachari, A. P. Rendell, J. C. Burant, S. S. Iyengar, 
 J. Tomasi, M. Cossi, J. M. Millam, M. Klene, C. Adamo, R. Cammi, 
 J. W. Ochterski, R. L. Martin, K. Morokuma, O. Farkas, 
 J. B. Foresman, and D. J. Fox, Gaussian, Inc., Wallingford CT, 2016.
 
 ******************************************
 Gaussian 16:  EM64L-G16RevB.01 20-Dec-2017
                21-Apr-2022 
 ******************************************
 %mem=48GB
 %nprocshared=16
 Will use up to   16 processors via shared memory.
 --------------------------------
 # opt b3lyp/6-311+g(d,p) scf=xqc
 --------------------------------
 1/18=20,19=15,26=3,38=1/1,3;
 2/9=110,12=2,17=6,18=5,40=1/2;
 3/5=4,6=6,7=111,11=2,25=1,30=1,71=1,74=-5/1,2,3;
 4//1;
 5/5=2,8=3,13=1,38=5/2,8;
 6/7=2,8=2,9=2,10=2,28=1/1;
 7//1,2,3,16;
 1/18=20,19=15,26=3/3(2);
 2/9=110/2;
 99//99;
 2/9=110/2;
 3/5=4,6=6,7=111,11=2,25=1,30=1,71=1,74=-5/1,2,3;
 4/5=5,16=3,69=1/1;
 5/5=2,8=3,13=1,38=5/2,8;
 7//1,2,3,16;
 1/18=20,19=15,26=3/3(-5);
 2/9=110/2;
 6/7=2,8=2,9=2,10=2,19=2,28=1/1;
 99/9=1/99;
 -------------------
 Title Card Required
 -------------------
 Symbolic Z-matrix:
 Charge =  0 Multiplicity = 1
 C                     0.38803  -0.19624  -0.00392 
 C                     1.72041  -0.16635  -0.43726 
 C                     2.4283    1.0431   -0.44333 
 C                     1.80382   2.22266  -0.01606 
 C                     0.47143   2.19278   0.41728 
 C                    -0.23646   0.98333   0.42336 
 C                    -0.63815  -1.94949   0.00489 
 C                    -0.01366  -3.12905  -0.42239 
 C                    -0.72156  -4.3385   -0.41631 
 C                    -2.05394  -4.36839   0.01704 
 C                    -2.67842  -3.18882   0.44431 
 C                    -1.97053  -1.97937   0.43824 
 H                     2.19722  -1.06698  -0.76349 
 H                     3.44561   1.06592  -0.7742 
 H                    -0.00538   3.0934    0.74352 
 H                    -0.24475  -5.23913  -0.74255 
 H                    -2.59443  -5.29183   0.02168 
 Cl                   -2.75481  -0.49797   0.97485 
 Cl                   -1.90978   0.94579   0.96759 
 Cl                   -4.35174  -3.22636   0.98855 
 Cl                    2.69285   3.7416   -0.02369 
 Cl                    1.65966  -3.09152  -0.96662 
 

 GradGradGradGradGradGradGradGradGradGradGradGradGradGradGradGradGradGrad
 Berny optimization.
 Initialization pass.
                           ----------------------------
                           !    Initial Parameters    !
                           ! (Angstroms and Degrees)  !
 --------------------------                            --------------------------
 ! Name  Definition              Value          Derivative Info.                !
 --------------------------------------------------------------------------------
 ! R1    R(1,2)                  1.4014         estimate D2E/DX2                !
 ! R2    R(1,6)                  1.4014         estimate D2E/DX2                !
 ! R3    R(2,3)                  1.4014         estimate D2E/DX2                !
 ! R4    R(2,13)                 1.07           estimate D2E/DX2                !
 ! R5    R(3,4)                  1.4014         estimate D2E/DX2                !
 ! R6    R(3,14)                 1.07           estimate D2E/DX2                !
 ! R7    R(4,5)                  1.4014         estimate D2E/DX2                !
 ! R8    R(4,21)                 1.76           estimate D2E/DX2                !
 ! R9    R(5,6)                  1.4014         estimate D2E/DX2                !
 ! R10   R(5,15)                 1.07           estimate D2E/DX2                !
 ! R11   R(6,19)                 1.76           estimate D2E/DX2                !
 ! R12   R(7,8)                  1.4014         estimate D2E/DX2                !
 ! R13   R(7,12)                 1.4014         estimate D2E/DX2                !
 ! R14   R(8,9)                  1.4014         estimate D2E/DX2                !
 ! R15   R(8,22)                 1.76           estimate D2E/DX2                !
 ! R16   R(9,10)                 1.4014         estimate D2E/DX2                !
 ! R17   R(9,16)                 1.07           estimate D2E/DX2                !
 ! R18   R(10,11)                1.4014         estimate D2E/DX2                !
 ! R19   R(10,17)                1.07           estimate D2E/DX2                !
 ! R20   R(11,12)                1.4014         estimate D2E/DX2                !
 ! R21   R(11,20)                1.76           estimate D2E/DX2                !
 ! R22   R(12,18)                1.76           estimate D2E/DX2                !
 ! R23   R(18,19)                1.6729         estimate D2E/DX2                !
 ! A1    A(2,1,6)              120.0            estimate D2E/DX2                !
 ! A2    A(1,2,3)              120.0            estimate D2E/DX2                !
 ! A3    A(1,2,13)             120.0            estimate D2E/DX2                !
 ! A4    A(3,2,13)             120.0            estimate D2E/DX2                !
 ! A5    A(2,3,4)              120.0            estimate D2E/DX2                !
 ! A6    A(2,3,14)             120.0            estimate D2E/DX2                !
 ! A7    A(4,3,14)             120.0            estimate D2E/DX2                !
 ! A8    A(3,4,5)              120.0            estimate D2E/DX2                !
 ! A9    A(3,4,21)             120.0            estimate D2E/DX2                !
 ! A10   A(5,4,21)             120.0            estimate D2E/DX2                !
 ! A11   A(4,5,6)              120.0            estimate D2E/DX2                !
 ! A12   A(4,5,15)             120.0            estimate D2E/DX2                !
 ! A13   A(6,5,15)             120.0            estimate D2E/DX2                !
 ! A14   A(1,6,5)              120.0            estimate D2E/DX2                !
 ! A15   A(1,6,19)             120.0            estimate D2E/DX2                !
 ! A16   A(5,6,19)             120.0            estimate D2E/DX2                !
 ! A17   A(8,7,12)             120.0            estimate D2E/DX2                !
 ! A18   A(7,8,9)              120.0            estimate D2E/DX2                !
 ! A19   A(7,8,22)             120.0            estimate D2E/DX2                !
 ! A20   A(9,8,22)             120.0            estimate D2E/DX2                !
 ! A21   A(8,9,10)             120.0            estimate D2E/DX2                !
 ! A22   A(8,9,16)             120.0            estimate D2E/DX2                !
 ! A23   A(10,9,16)            120.0            estimate D2E/DX2                !
 ! A24   A(9,10,11)            120.0            estimate D2E/DX2                !
 ! A25   A(9,10,17)            120.0            estimate D2E/DX2                !
 ! A26   A(11,10,17)           120.0            estimate D2E/DX2                !
 ! A27   A(10,11,12)           120.0            estimate D2E/DX2                !
 ! A28   A(10,11,20)           120.0            estimate D2E/DX2                !
 ! A29   A(12,11,20)           120.0            estimate D2E/DX2                !
 ! A30   A(7,12,11)            120.0            estimate D2E/DX2                !
 ! A31   A(7,12,18)            120.0            estimate D2E/DX2                !
 ! A32   A(11,12,18)           120.0            estimate D2E/DX2                !
 ! A33   A(12,18,19)           120.0            estimate D2E/DX2                !
 ! A34   A(6,19,18)            120.0            estimate D2E/DX2                !
 ! D1    D(6,1,2,3)              0.0001         estimate D2E/DX2                !
 ! D2    D(6,1,2,13)           180.0            estimate D2E/DX2                !
 ! D3    D(2,1,6,5)             -0.0001         estimate D2E/DX2                !
 ! D4    D(2,1,6,19)           180.0            estimate D2E/DX2                !
 ! D5    D(1,2,3,4)              0.0            estimate D2E/DX2                !
 ! D6    D(1,2,3,14)           180.0            estimate D2E/DX2                !
 ! D7    D(13,2,3,4)          -179.9999         estimate D2E/DX2                !
 ! D8    D(13,2,3,14)            0.0001         estimate D2E/DX2                !
 ! D9    D(2,3,4,5)             -0.0001         estimate D2E/DX2                !
 ! D10   D(2,3,4,21)           180.0            estimate D2E/DX2                !
 ! D11   D(14,3,4,5)           179.9999         estimate D2E/DX2                !
 ! D12   D(14,3,4,21)            0.0            estimate D2E/DX2                !
 ! D13   D(3,4,5,6)              0.0001         estimate D2E/DX2                !
 ! D14   D(3,4,5,15)          -179.9999         estimate D2E/DX2                !
 ! D15   D(21,4,5,6)          -180.0            estimate D2E/DX2                !
 ! D16   D(21,4,5,15)            0.0            estimate D2E/DX2                !
 ! D17   D(4,5,6,1)              0.0            estimate D2E/DX2                !
 ! D18   D(4,5,6,19)           179.9999         estimate D2E/DX2                !
 ! D19   D(15,5,6,1)           180.0            estimate D2E/DX2                !
 ! D20   D(15,5,6,19)           -0.0001         estimate D2E/DX2                !
 ! D21   D(1,6,19,18)            0.0004         estimate D2E/DX2                !
 ! D22   D(5,6,19,18)         -179.9996         estimate D2E/DX2                !
 ! D23   D(12,7,8,9)             0.0001         estimate D2E/DX2                !
 ! D24   D(12,7,8,22)         -179.9998         estimate D2E/DX2                !
 ! D25   D(8,7,12,11)           -0.0001         estimate D2E/DX2                !
 ! D26   D(8,7,12,18)          179.9999         estimate D2E/DX2                !
 ! D27   D(7,8,9,10)             0.0            estimate D2E/DX2                !
 ! D28   D(7,8,9,16)           180.0            estimate D2E/DX2                !
 ! D29   D(22,8,9,10)          179.9998         estimate D2E/DX2                !
 ! D30   D(22,8,9,16)           -0.0002         estimate D2E/DX2                !
 ! D31   D(8,9,10,11)            0.0            estimate D2E/DX2                !
 ! D32   D(8,9,10,17)         -179.9999         estimate D2E/DX2                !
 ! D33   D(16,9,10,11)         180.0            estimate D2E/DX2                !
 ! D34   D(16,9,10,17)           0.0001         estimate D2E/DX2                !
 ! D35   D(9,10,11,12)           0.0            estimate D2E/DX2                !
 ! D36   D(9,10,11,20)        -179.9998         estimate D2E/DX2                !
 ! D37   D(17,10,11,12)        179.9999         estimate D2E/DX2                !
 ! D38   D(17,10,11,20)          0.0001         estimate D2E/DX2                !
 ! D39   D(10,11,12,7)           0.0            estimate D2E/DX2                !
 ! D40   D(10,11,12,18)       -179.9999         estimate D2E/DX2                !
 ! D41   D(20,11,12,7)         179.9999         estimate D2E/DX2                !
 ! D42   D(20,11,12,18)         -0.0001         estimate D2E/DX2                !
 ! D43   D(7,12,18,19)           0.0004         estimate D2E/DX2                !
 ! D44   D(11,12,18,19)       -179.9997         estimate D2E/DX2                !
 ! D45   D(12,18,19,6)          -0.0006         estimate D2E/DX2                !
 --------------------------------------------------------------------------------
 Trust Radius=3.00D-01 FncErr=1.00D-07 GrdErr=1.00D-06 EigMax=2.50D+02 EigMin=1.00D-04
 Number of steps in this run=    112 maximum allowed number of steps=    132.
 GradGradGradGradGradGradGradGradGradGradGradGradGradGradGradGradGradGrad

                          Input orientation:                          
 ---------------------------------------------------------------------
 Center     Atomic      Atomic             Coordinates (Angstroms)
 Number     Number       Type             X           Y           Z
 ---------------------------------------------------------------------
      1          6           0        0.388028   -0.196238   -0.003916
      2          6           0        1.720409   -0.166352   -0.437263
      3          6           0        2.428303    1.043099   -0.443335
      4          6           0        1.803815    2.222664   -0.016060
      5          6           0        0.471433    2.192778    0.417284
      6          6           0       -0.236460    0.983327    0.423357
      7          6           0       -0.638150   -1.949485    0.004888
      8          6           0       -0.013662   -3.129050   -0.422387
      9          6           0       -0.721555   -4.338501   -0.416313
     10          6           0       -2.053935   -4.368388    0.017037
     11          6           0       -2.678423   -3.188823    0.444312
     12          6           0       -1.970530   -1.979372    0.438238
     13          1           0        2.197220   -1.066977   -0.763494
     14          1           0        3.445605    1.065917   -0.774204
     15          1           0       -0.005377    3.093403    0.743516
     16          1           0       -0.244745   -5.239126   -0.742547
     17          1           0       -2.594427   -5.291831    0.021677
     18         17           0       -2.754814   -0.497972    0.974850
     19         17           0       -1.909780    0.945794    0.967590
     20         17           0       -4.351740   -3.226358    0.988555
     21         17           0        2.692850    3.741597   -0.023686
     22         17           0        1.659658   -3.091517   -0.966621
 ---------------------------------------------------------------------
                    Distance matrix (angstroms):
                    1          2          3          4          5
     1  C    0.000000
     2  C    1.401400   0.000000
     3  C    2.427296   1.401400   0.000000
     4  C    2.802800   2.427296   1.401400   0.000000
     5  C    2.427296   2.802800   2.427296   1.401400   0.000000
     6  C    1.401400   2.427296   2.802800   2.427296   1.401400
     7  C    2.031500   2.989625   4.308084   4.834300   4.308084
     8  C    2.989625   3.432900   4.834300   5.666495   5.409457
     9  C    4.308084   4.834300   6.235700   7.041774   6.691466
    10  C    4.834300   5.666495   7.041774   7.637100   7.041774
    11  C    4.308084   5.409457   6.691466   7.041774   6.235700
    12  C    2.989625   4.204351   5.409457   5.666495   4.834300
    13  H    2.146700   1.070000   2.146700   3.396345   3.872800
    14  H    3.396345   2.146700   1.070000   2.146700   3.396345
    15  H    3.396345   3.872800   3.396345   2.146700   1.070000
    16  H    5.135824   5.448675   6.833817   7.771916   7.555879
    17  H    5.904300   6.715576   8.097863   8.707100   8.097863
    18  Cl   3.305523   4.704429   5.590246   5.400450   4.237887
    19  Cl   2.743718   4.048303   4.562800   4.048303   2.743718
    20  Cl   5.712445   6.947487   8.139259   8.282026   7.277114
    21  Cl   4.562800   4.048303   2.743718   1.760000   2.743718
    22  Cl   3.305523   2.973298   4.237887   5.400450   5.590246
                    6          7          8          9         10
     6  C    0.000000
     7  C    2.989625   0.000000
     8  C    4.204351   1.401400   0.000000
     9  C    5.409457   2.427296   1.401400   0.000000
    10  C    5.666495   2.802800   2.427296   1.401400   0.000000
    11  C    4.834300   2.427296   2.802800   2.427296   1.401400
    12  C    3.432900   1.401400   2.427296   2.802800   2.427296
    13  H    3.396345   3.067336   3.042450   4.398029   5.438829
    14  H    3.872800   5.135824   5.448675   6.833817   7.771916
    15  H    2.146700   5.135824   6.330744   7.555879   7.771916
    16  H    6.330744   3.396345   2.146700   1.070000   2.146700
    17  H    6.715576   3.872800   3.396345   2.146700   1.070000
    18  Cl   2.973298   2.743718   4.048303   4.562800   4.048303
    19  Cl   1.760000   3.305523   4.704429   5.590246   5.400450
    20  Cl   5.914087   4.048303   4.562800   4.048303   2.743718
    21  Cl   4.048303   6.594300   7.395266   8.780678   9.397100
    22  Cl   4.704429   2.743718   1.760000   2.743718   4.048303
                   11         12         13         14         15
    11  C    0.000000
    12  C    1.401400   0.000000
    13  H    5.452790   4.432467   0.000000
    14  H    7.555879   6.330744   2.471400   0.000000
    15  H    6.833817   5.448675   4.942800   4.280590   0.000000
    16  H    3.396345   3.872800   4.834300   7.305700   8.467391
    17  H    2.146700   3.396345   6.436285   8.805474   8.805474
    18  Cl   2.743718   1.760000   5.279038   6.629490   4.528895
    19  Cl   4.237887   2.973298   4.890332   5.632800   2.879094
    20  Cl   1.760000   2.743718   7.114877   9.073563   7.674001
    21  Cl   8.780678   7.395266   4.890332   2.879094   2.879094
    22  Cl   4.562800   4.048303   2.104518   4.528895   6.629490
                   16         17         18         19         20
    16  H    0.000000
    17  H    2.471400   0.000000
    18  Cl   5.632800   4.890332   0.000000
    19  Cl   6.629490   6.345980   1.672900   0.000000
    20  Cl   4.890332   2.879094   3.161400   4.834300   0.000000
    21  Cl   9.476266  10.467100   6.974816   5.475705   9.960084
    22  Cl   2.879094   4.890332   5.475705   5.725552   6.322800
                   21         22
    21  Cl   0.000000
    22  Cl   6.974816   0.000000
 Stoichiometry    C12H5Cl5
 Framework group  C1[X(C12H5Cl5)]
 Deg. of freedom    60
 Full point group                 C1      NOp   1
 Largest Abelian subgroup         C1      NOp   1
 Largest concise Abelian subgroup C1      NOp   1
                         Standard orientation:                         
 ---------------------------------------------------------------------
 Center     Atomic      Atomic             Coordinates (Angstroms)
 Number     Number       Type             X           Y           Z
 ---------------------------------------------------------------------
      1          6           0        1.017135    0.381788    0.000002
      2          6           0        1.912857    1.459565   -0.000000
      3          6           0        3.294101    1.222734   -0.000002
      4          6           0        3.779621   -0.091873   -0.000002
      5          6           0        2.883899   -1.169649    0.000002
      6          6           0        1.502655   -0.932819    0.000004
      7          6           0       -0.985146    0.725102    0.000003
      8          6           0       -1.470667    2.039709    0.000003
      9          6           0       -2.851910    2.276539    0.000002
     10          6           0       -3.747633    1.198763    0.000001
     11          6           0       -3.262112   -0.115844    0.000000
     12          6           0       -1.880869   -0.352675    0.000001
     13          1           0        1.542152    2.463296   -0.000002
     14          1           0        3.978005    2.045641   -0.000004
     15          1           0        3.254605   -2.173381    0.000005
     16          1           0       -3.222616    3.280271    0.000003
     17          1           0       -4.802243    1.379588   -0.000001
     18         17           0       -1.271110   -2.003672   -0.000002
     19         17           0        0.377729   -2.286385    0.000007
     20         17           0       -4.387039   -1.469410   -0.000006
     21         17           0        5.514307   -0.389305   -0.000004
     22         17           0       -0.345740    3.393275    0.000000
 ---------------------------------------------------------------------
 Rotational constants (GHZ):           0.4842717           0.1789816           0.1306827
 Standard basis: 6-311+G(d,p) (5D, 7F)
 There are   461 symmetry adapted cartesian basis functions of A   symmetry.
 There are   444 symmetry adapted basis functions of A   symmetry.
   444 basis functions,   737 primitive gaussians,   461 cartesian basis functions
    81 alpha electrons       81 beta electrons
       nuclear repulsion energy      1758.9724622657 Hartrees.
 NAtoms=   22 NActive=   22 NUniq=   22 SFac= 1.00D+00 NAtFMM=   60 NAOKFM=F Big=F
 Integral buffers will be    131072 words long.
 Raffenetti 2 integral format.
 Two-electron integral symmetry is turned on.
 One-electron integrals computed using PRISM.
 NBasis=   444 RedAO= T EigKep=  1.11D-06  NBF=   444
 NBsUse=   439 1.00D-06 EigRej=  6.72D-07 NBFU=   439
 ExpMin= 4.38D-02 ExpMax= 1.06D+05 ExpMxC= 3.62D+03 IAcc=3 IRadAn=         5 AccDes= 0.00D+00
 Harris functional with IExCor=  402 and IRadAn=       5 diagonalized for initial guess.
 HarFok:  IExCor=  402 AccDes= 0.00D+00 IRadAn=         5 IDoV= 1 UseB2=F ITyADJ=14
 ICtDFT=  3500011 ScaDFX=  1.000000  1.000000  1.000000  1.000000
 FoFCou: FMM=F IPFlag=           0 FMFlag=      100000 FMFlg1=           0
         NFxFlg=           0 DoJE=T BraDBF=F KetDBF=T FulRan=T
         wScrn=  0.000000 ICntrl=       500 IOpCl=  0 I1Cent=   200000004 NGrid=           0
         NMat0=    1 NMatS0=      1 NMatT0=    0 NMatD0=    1 NMtDS0=    0 NMtDT0=    0
 Petite list used in FoFCou.
 Requested convergence on RMS density matrix=1.00D-08 within  32 cycles.
 Requested convergence on MAX density matrix=1.00D-06.
 Requested convergence on             energy=1.00D-06.
 No special actions if energy rises.
 EnCoef did     4 forward-backward iterations
 EnCoef did     2 forward-backward iterations
 EnCoef did   100 forward-backward iterations
 EnCoef did     2 forward-backward iterations
 Restarting incremental Fock formation.
 SCF Done:  E(RB3LYP) =  -2760.94950678     A.U. after   30 cycles
            NFock= 30  Conv=0.55D-08     -V/T= 2.0020
 QCSCF skips out because SCF is already converged.

 **********************************************************************

            Population analysis using the SCF Density.

 **********************************************************************

 Orbital symmetries:
       Occupied  (A) (A) (A) (A) (A) (A) (A) (A) (A) (A) (A) (A)
                 (A) (A) (A) (A) (A) (A) (A) (A) (A) (A) (A) (A)
                 (A) (A) (A) (A) (A) (A) (A) (A) (A) (A) (A) (A)
                 (A) (A) (A) (A) (A) (A) (A) (A) (A) (A) (A) (A)
                 (A) (A) (A) (A) (A) (A) (A) (A) (A) (A) (A) (A)
                 (A) (A) (A) (A) (A) (A) (A) (A) (A) (A) (A) (A)
                 (A) (A) (A) (A) (A) (A) (A) (A) (A)
       Virtual   (A) (A) (A) (A) (A) (A) (A) (A) (A) (A) (A) (A)
                 (A) (A) (A) (A) (A) (A) (A) (A) (A) (A) (A) (A)
                 (A) (A) (A) (A) (A) (A) (A) (A) (A) (A) (A) (A)
                 (A) (A) (A) (A) (A) (A) (A) (A) (A) (A) (A) (A)
                 (A) (A) (A) (A) (A) (A) (A) (A) (A) (A) (A) (A)
                 (A) (A) (A) (A) (A) (A) (A) (A) (A) (A) (A) (A)
                 (A) (A) (A) (A) (A) (A) (A) (A) (A) (A) (A) (A)
                 (A) (A) (A) (A) (A) (A) (A) (A) (A) (A) (A) (A)
                 (A) (A) (A) (A) (A) (A) (A) (A) (A) (A) (A) (A)
                 (A) (A) (A) (A) (A) (A) (A) (A) (A) (A) (A) (A)
                 (A) (A) (A) (A) (A) (A) (A) (A) (A) (A) (A) (A)
                 (A) (A) (A) (A) (A) (A) (A) (A) (A) (A) (A) (A)
                 (A) (A) (A) (A) (A) (A) (A) (A) (A) (A) (A) (A)
                 (A) (A) (A) (A) (A) (A) (A) (A) (A) (A) (A) (A)
                 (A) (A) (A) (A) (A) (A) (A) (A) (A) (A) (A) (A)
                 (A) (A) (A) (A) (A) (A) (A) (A) (A) (A) (A) (A)
                 (A) (A) (A) (A) (A) (A) (A) (A) (A) (A) (A) (A)
                 (A) (A) (A) (A) (A) (A) (A) (A) (A) (A) (A) (A)
                 (A) (A) (A) (A) (A) (A) (A) (A) (A) (A) (A) (A)
                 (A) (A) (A) (A) (A) (A) (A) (A) (A) (A) (A) (A)
                 (A) (A) (A) (A) (A) (A) (A) (A) (A) (A) (A) (A)
                 (A) (A) (A) (A) (A) (A) (A) (A) (A) (A) (A) (A)
                 (A) (A) (A) (A) (A) (A) (A) (A) (A) (A) (A) (A)
                 (A) (A) (A) (A) (A) (A) (A) (A) (A) (A) (A) (A)
                 (A) (A) (A) (A) (A) (A) (A) (A) (A) (A) (A) (A)
                 (A) (A) (A) (A) (A) (A) (A) (A) (A) (A) (A) (A)
                 (A) (A) (A) (A) (A) (A) (A) (A) (A) (A) (A) (A)
                 (A) (A) (A) (A) (A) (A) (A) (A) (A) (A) (A) (A)
                 (A) (A) (A) (A) (A) (A) (A) (A) (A) (A) (A) (A)
                 (A) (A) (A) (A) (A) (A) (A) (A) (A) (A)
 The electronic state is 1-A.
 Alpha  occ. eigenvalues -- -101.63846-101.61900-101.57404-101.56366-101.55830
 Alpha  occ. eigenvalues --  -10.28495 -10.26752 -10.25882 -10.25266 -10.23477
 Alpha  occ. eigenvalues --  -10.23191 -10.22801 -10.21778 -10.21165 -10.20425
 Alpha  occ. eigenvalues --  -10.20369 -10.20218  -9.56142  -9.54469  -9.48824
 Alpha  occ. eigenvalues --   -9.47931  -9.47344  -7.32523  -7.31746  -7.31286
 Alpha  occ. eigenvalues --   -7.31263  -7.29773  -7.29307  -7.25307  -7.24365
 Alpha  occ. eigenvalues --   -7.24298  -7.24267  -7.23769  -7.23411  -7.23378
 Alpha  occ. eigenvalues --   -7.22829  -7.22810  -1.11468  -0.92317  -0.91580
 Alpha  occ. eigenvalues --   -0.89052  -0.87695  -0.84562  -0.83089  -0.79111
 Alpha  occ. eigenvalues --   -0.77078  -0.74210  -0.73135  -0.67648  -0.64383
 Alpha  occ. eigenvalues --   -0.61415  -0.60903  -0.57745  -0.54190  -0.52276
 Alpha  occ. eigenvalues --   -0.51915  -0.51338  -0.49801  -0.49208  -0.47842
 Alpha  occ. eigenvalues --   -0.46007  -0.44576  -0.43986  -0.42692  -0.42071
 Alpha  occ. eigenvalues --   -0.41959  -0.40587  -0.39434  -0.38081  -0.36625
 Alpha  occ. eigenvalues --   -0.34534  -0.33963  -0.33821  -0.32548  -0.32413
 Alpha  occ. eigenvalues --   -0.31486  -0.29106  -0.28210  -0.25663  -0.25036
 Alpha  occ. eigenvalues --   -0.11920
 Alpha virt. eigenvalues --   -0.08427  -0.06211  -0.05343  -0.04466  -0.03699
 Alpha virt. eigenvalues --   -0.02327  -0.00990   0.00064   0.00219   0.00885
 Alpha virt. eigenvalues --    0.01371   0.01937   0.03141   0.03489   0.03863
 Alpha virt. eigenvalues --    0.04115   0.04959   0.05410   0.05638   0.05921
 Alpha virt. eigenvalues --    0.06340   0.07281   0.07529   0.07559   0.08045
 Alpha virt. eigenvalues --    0.08173   0.09084   0.09309   0.09825   0.10198
 Alpha virt. eigenvalues --    0.10476   0.10997   0.11146   0.11518   0.11968
 Alpha virt. eigenvalues --    0.12825   0.12855   0.13672   0.13807   0.13937
 Alpha virt. eigenvalues --    0.14889   0.14908   0.14966   0.15567   0.15584
 Alpha virt. eigenvalues --    0.15990   0.16064   0.16876   0.17312   0.17398
 Alpha virt. eigenvalues --    0.18313   0.18560   0.19302   0.19640   0.19805
 Alpha virt. eigenvalues --    0.20260   0.20727   0.21407   0.21645   0.21709
 Alpha virt. eigenvalues --    0.22183   0.22643   0.22983   0.23147   0.23304
 Alpha virt. eigenvalues --    0.23844   0.24273   0.24792   0.25429   0.25473
 Alpha virt. eigenvalues --    0.25865   0.26558   0.27082   0.27390   0.28334
 Alpha virt. eigenvalues --    0.28637   0.29109   0.29340   0.31027   0.31326
 Alpha virt. eigenvalues --    0.31416   0.32736   0.33526   0.33993   0.34619
 Alpha virt. eigenvalues --    0.35474   0.37585   0.39191   0.39746   0.40792
 Alpha virt. eigenvalues --    0.41287   0.42309   0.42704   0.42976   0.44181
 Alpha virt. eigenvalues --    0.44282   0.44850   0.44932   0.45513   0.46874
 Alpha virt. eigenvalues --    0.48176   0.48360   0.48659   0.49734   0.50053
 Alpha virt. eigenvalues --    0.50607   0.51714   0.52314   0.53196   0.53543
 Alpha virt. eigenvalues --    0.53772   0.55001   0.56546   0.57024   0.57035
 Alpha virt. eigenvalues --    0.57352   0.58262   0.58609   0.59373   0.60396
 Alpha virt. eigenvalues --    0.60451   0.61560   0.62110   0.62132   0.63916
 Alpha virt. eigenvalues --    0.64305   0.64458   0.65444   0.65715   0.66538
 Alpha virt. eigenvalues --    0.68647   0.69388   0.69806   0.70105   0.71542
 Alpha virt. eigenvalues --    0.74445   0.76018   0.76619   0.78905   0.80542
 Alpha virt. eigenvalues --    0.81288   0.81798   0.82054   0.82414   0.82823
 Alpha virt. eigenvalues --    0.83522   0.83994   0.84218   0.84785   0.84921
 Alpha virt. eigenvalues --    0.85759   0.85819   0.86432   0.87029   0.88341
 Alpha virt. eigenvalues --    0.88909   0.89818   0.90192   0.90416   0.90709
 Alpha virt. eigenvalues --    0.92157   0.92832   0.93523   0.94253   0.95330
 Alpha virt. eigenvalues --    0.95858   0.96588   0.96659   0.96762   0.97794
 Alpha virt. eigenvalues --    0.97920   1.00235   1.00649   1.01272   1.02593
 Alpha virt. eigenvalues --    1.03461   1.03607   1.05767   1.06106   1.08195
 Alpha virt. eigenvalues --    1.08809   1.10362   1.11652   1.14429   1.15427
 Alpha virt. eigenvalues --    1.19476   1.21799   1.21828   1.22040   1.22653
 Alpha virt. eigenvalues --    1.23553   1.25101   1.27180   1.27379   1.28653
 Alpha virt. eigenvalues --    1.28683   1.29411   1.30777   1.31646   1.32703
 Alpha virt. eigenvalues --    1.35141   1.44624   1.46848   1.48817   1.49911
 Alpha virt. eigenvalues --    1.51212   1.52196   1.52947   1.54999   1.55193
 Alpha virt. eigenvalues --    1.57027   1.59978   1.60087   1.65416   1.66260
 Alpha virt. eigenvalues --    1.66779   1.68475   1.68578   1.69048   1.71855
 Alpha virt. eigenvalues --    1.75246   1.76323   1.78358   1.83818   1.84590
 Alpha virt. eigenvalues --    1.84813   1.86684   1.87016   1.87988   1.88478
 Alpha virt. eigenvalues --    1.89348   1.90255   1.91285   1.93693   1.94707
 Alpha virt. eigenvalues --    1.96184   1.96847   1.99087   2.00099   2.02225
 Alpha virt. eigenvalues --    2.06055   2.07322   2.12019   2.13613   2.15085
 Alpha virt. eigenvalues --    2.18261   2.19901   2.22033   2.23628   2.25290
 Alpha virt. eigenvalues --    2.27145   2.27499   2.28026   2.28694   2.30401
 Alpha virt. eigenvalues --    2.31216   2.31736   2.34463   2.37239   2.39324
 Alpha virt. eigenvalues --    2.40540   2.43308   2.44354   2.45079   2.51853
 Alpha virt. eigenvalues --    2.53043   2.53208   2.55109   2.55727   2.59576
 Alpha virt. eigenvalues --    2.59983   2.60767   2.62559   2.62722   2.64002
 Alpha virt. eigenvalues --    2.66749   2.68272   2.70607   2.71306   2.73736
 Alpha virt. eigenvalues --    2.74503   2.74782   2.75922   2.75980   2.76924
 Alpha virt. eigenvalues --    2.77965   2.78593   2.80945   2.83454   2.84808
 Alpha virt. eigenvalues --    2.86099   2.87175   2.89068   2.97123   3.04678
 Alpha virt. eigenvalues --    3.07481   3.08646   3.11031   3.13998   3.18012
 Alpha virt. eigenvalues --    3.19971   3.24952   3.28240   3.31133   3.35104
 Alpha virt. eigenvalues --    3.35763   3.41484   3.43674   3.52810   3.62543
 Alpha virt. eigenvalues --    3.63851   3.70978   3.79520   3.85293   3.88264
 Alpha virt. eigenvalues --    4.03019   4.07395   4.09892   4.15953   4.80033
 Alpha virt. eigenvalues --    4.81524   9.69277   9.76513   9.79826   9.84269
 Alpha virt. eigenvalues --    9.97893  23.36612  23.43597  23.81800  23.82834
 Alpha virt. eigenvalues --   23.89517  23.90297  23.97864  23.98068  24.00308
 Alpha virt. eigenvalues --   24.01651  24.10298  24.10952  25.75115  25.81118
 Alpha virt. eigenvalues --   25.82116  25.84303  25.97111  26.09306  26.14647
 Alpha virt. eigenvalues --   26.23481  26.34175  26.54424  26.59346  26.69889
 Alpha virt. eigenvalues --   26.84867  26.94388  27.00084 215.70233 215.75818
 Alpha virt. eigenvalues --  215.80129 215.84768 216.03699
          Condensed to atoms (all electrons):
               1          2          3          4          5          6
     1  C   26.489213  -3.847733  -7.585227   1.838792  -0.322568  -1.025802
     2  C   -3.847733  16.059664   1.037698  -1.118627  -3.739693  -5.656254
     3  C   -7.585227   1.037698  20.124957  -1.563282  -8.147428   1.742987
     4  C    1.838792  -1.118627  -1.563282  17.434055  -0.068821  -7.190851
     5  C   -0.322568  -3.739693  -8.147428  -0.068821  22.767722   0.103979
     6  C   -1.025802  -5.656254   1.742987  -7.190851   0.103979  22.147224
     7  C   -0.708235   4.821446   0.394330  -0.450689  -4.384670  -5.021878
     8  C   -4.276330   4.122145   0.282237  -0.069865   0.047165  -2.916484
     9  C   -0.237926  -2.591764  -0.496014  -0.009605   0.621034   1.961908
    10  C    0.850714   0.144063   0.007700   0.020109  -0.005741  -0.070301
    11  C   -2.412339   1.334920   0.021616  -0.142801  -0.470137  -0.792812
    12  C   -0.640165  -2.975569  -0.440461  -0.984201  -0.085932  -1.293801
    13  H   -0.070768   0.352982   0.007175  -0.007546  -0.045463   0.034503
    14  H   -0.062430  -0.076420   0.371432   0.034338   0.018332   0.055078
    15  H   -0.022251  -0.004735   0.067015  -0.090893   0.226291   0.067255
    16  H    0.010482  -0.004136  -0.001453   0.000228   0.000180   0.000480
    17  H    0.000009  -0.004326  -0.000342   0.000055   0.000341   0.005326
    18  Cl   4.711806  -3.439662  -2.160425   2.547378   3.478640  10.529021
    19  Cl  -6.313570   2.272259   2.569663  -3.621634  -3.240003  -5.508191
    20  Cl  -0.127750   0.041322   0.017138  -0.012505  -0.047579  -0.217407
    21  Cl  -0.138028   0.004754   0.415641  -1.227509   0.218169  -0.000456
    22  Cl   0.065414  -0.040606  -0.362217  -0.065763   0.055845  -0.131945
               7          8          9         10         11         12
     1  C   -0.708235  -4.276330  -0.237926   0.850714  -2.412339  -0.640165
     2  C    4.821446   4.122145  -2.591764   0.144063   1.334920  -2.975569
     3  C    0.394330   0.282237  -0.496014   0.007700   0.021616  -0.440461
     4  C   -0.450689  -0.069865  -0.009605   0.020109  -0.142801  -0.984201
     5  C   -4.384670   0.047165   0.621034  -0.005741  -0.470137  -0.085932
     6  C   -5.021878  -2.916484   1.961908  -0.070301  -0.792812  -1.293801
     7  C   27.280747   3.448628  -8.422829  -0.234437  -1.882303   1.663860
     8  C    3.448628  26.338165  -9.567607  -3.592112   5.005709  -8.417785
     9  C   -8.422829  -9.567607  17.577388   2.503681  -3.457900   5.279519
    10  C   -0.234437  -3.592112   2.503681  14.173004  -3.587165  -4.132465
    11  C   -1.882303   5.005709  -3.457900  -3.587165  19.452177  -9.199458
    12  C    1.663860  -8.417785   5.279519  -4.132465  -9.199458  45.244464
    13  H    0.085204  -0.048298   0.024725   0.003980  -0.002093   0.001728
    14  H    0.013292  -0.000869  -0.002528  -0.000041   0.000764  -0.001115
    15  H    0.022530  -0.001063  -0.000357  -0.000081  -0.000332   0.023149
    16  H    0.029717  -0.090632   0.448657  -0.003946  -0.133678   0.089651
    17  H   -0.051480  -0.107115   0.009765   0.400651  -0.064913   0.132038
    18  Cl -18.762458  -6.100037   4.532788   1.612500   3.868261 -36.510062
    19  Cl   7.814927   2.010986  -1.438840  -0.223812  -1.538059  17.975301
    20  Cl   0.427872   0.588167  -0.351028  -1.178112  -0.735870   2.198109
    21  Cl  -0.039881  -0.010464  -0.001913   0.000297  -0.001873  -0.011590
    22  Cl   0.291473  -0.473738  -0.235299  -0.182101   0.221348  -0.093912
              13         14         15         16         17         18
     1  C   -0.070768  -0.062430  -0.022251   0.010482   0.000009   4.711806
     2  C    0.352982  -0.076420  -0.004735  -0.004136  -0.004326  -3.439662
     3  C    0.007175   0.371432   0.067015  -0.001453  -0.000342  -2.160425
     4  C   -0.007546   0.034338  -0.090893   0.000228   0.000055   2.547378
     5  C   -0.045463   0.018332   0.226291   0.000180   0.000341   3.478640
     6  C    0.034503   0.055078   0.067255   0.000480   0.005326  10.529021
     7  C    0.085204   0.013292   0.022530   0.029717  -0.051480 -18.762458
     8  C   -0.048298  -0.000869  -0.001063  -0.090632  -0.107115  -6.100037
     9  C    0.024725  -0.002528  -0.000357   0.448657   0.009765   4.532788
    10  C    0.003980  -0.000041  -0.000081  -0.003946   0.400651   1.612500
    11  C   -0.002093   0.000764  -0.000332  -0.133678  -0.064913   3.868261
    12  C    0.001728  -0.001115   0.023149   0.089651   0.132038 -36.510062
    13  H    0.562269  -0.010372   0.000051   0.000045  -0.000001   0.001498
    14  H   -0.010372   0.517030  -0.000127  -0.000000  -0.000000  -0.003368
    15  H    0.000051  -0.000127   0.498949  -0.000000  -0.000000  -0.063740
    16  H    0.000045  -0.000000  -0.000000   0.518857  -0.004795   0.018475
    17  H   -0.000001  -0.000000  -0.000000  -0.004795   0.526661   0.051081
    18  Cl   0.001498  -0.003368  -0.063740   0.018475   0.051081 100.055917
    19  Cl   0.000319   0.009208   0.106162  -0.002792  -0.005569 -45.992671
    20  Cl   0.000034   0.000002   0.000077  -0.004680  -0.031824  -2.493063
    21  Cl   0.000943  -0.012777  -0.007593  -0.000000   0.000000  -0.014821
    22  Cl  -0.044966   0.001078   0.000043  -0.017649   0.002006  -0.123599
              19         20         21         22
     1  C   -6.313570  -0.127750  -0.138028   0.065414
     2  C    2.272259   0.041322   0.004754  -0.040606
     3  C    2.569663   0.017138   0.415641  -0.362217
     4  C   -3.621634  -0.012505  -1.227509  -0.065763
     5  C   -3.240003  -0.047579   0.218169   0.055845
     6  C   -5.508191  -0.217407  -0.000456  -0.131945
     7  C    7.814927   0.427872  -0.039881   0.291473
     8  C    2.010986   0.588167  -0.010464  -0.473738
     9  C   -1.438840  -0.351028  -0.001913  -0.235299
    10  C   -0.223812  -1.178112   0.000297  -0.182101
    11  C   -1.538059  -0.735870  -0.001873   0.221348
    12  C   17.975301   2.198109  -0.011590  -0.093912
    13  H    0.000319   0.000034   0.000943  -0.044966
    14  H    0.009208   0.000002  -0.012777   0.001078
    15  H    0.106162   0.000077  -0.007593   0.000043
    16  H   -0.002792  -0.004680  -0.000000  -0.017649
    17  H   -0.005569  -0.031824   0.000000   0.002006
    18  Cl -45.992671  -2.493063  -0.014821  -0.123599
    19  Cl  50.323494   0.423868  -0.002803   0.060607
    20  Cl   0.423868  18.143824  -0.000061  -0.000483
    21  Cl  -0.002803  -0.000061  17.388289  -0.001902
    22  Cl   0.060607  -0.000483  -0.001902  17.546247
 Mulliken charges:
               1
     1  C   -0.175307
     2  C   -0.691728
     3  C   -0.302741
     4  C    0.749638
     5  C   -0.979662
     6  C   -0.821581
     7  C   -0.335166
     8  C   -0.170804
     9  C   -0.145855
    10  C   -0.506384
    11  C    0.516938
    12  C   -1.821302
    13  H    0.154049
    14  H    0.149494
    15  H    0.179651
    16  H    0.146988
    17  H    0.142431
    18  Cl   1.256545
    19  Cl   1.321150
    20  Cl   0.359948
    21  Cl   0.443578
    22  Cl   0.530119
 Sum of Mulliken charges =  -0.00000
 Mulliken charges with hydrogens summed into heavy atoms:
               1
     1  C   -0.175307
     2  C   -0.537679
     3  C   -0.153247
     4  C    0.749638
     5  C   -0.800011
     6  C   -0.821581
     7  C   -0.335166
     8  C   -0.170804
     9  C    0.001133
    10  C   -0.363953
    11  C    0.516938
    12  C   -1.821302
    18  Cl   1.256545
    19  Cl   1.321150
    20  Cl   0.359948
    21  Cl   0.443578
    22  Cl   0.530119
 Electronic spatial extent (au):  <R**2>=           7234.1307
 Charge=             -0.0000 electrons
 Dipole moment (field-independent basis, Debye):
    X=              0.6027    Y=              0.0711    Z=              0.0000  Tot=              0.6069
 Quadrupole moment (field-independent basis, Debye-Ang):
   XX=           -137.2234   YY=           -128.1143   ZZ=           -136.0037
   XY=             -2.1240   XZ=             -0.0000   YZ=             -0.0000
 Traceless Quadrupole moment (field-independent basis, Debye-Ang):
   XX=             -3.4429   YY=              5.6662   ZZ=             -2.2232
   XY=             -2.1240   XZ=             -0.0000   YZ=             -0.0000
 Octapole moment (field-independent basis, Debye-Ang**2):
  XXX=            -12.3347  YYY=            -17.2745  ZZZ=             -0.0000  XYY=              2.4794
  XXY=             37.4450  XXZ=              0.0000  XZZ=             -0.0273  YZZ=            -11.0107
  YYZ=             -0.0001  XYZ=              0.0000
 Hexadecapole moment (field-independent basis, Debye-Ang**3):
 XXXX=          -7049.5463 YYYY=          -2568.1716 ZZZZ=           -160.8828 XXXY=            -73.6362
 XXXZ=              0.0000 YYYX=             56.0172 YYYZ=              0.0000 ZZZX=              0.0000
 ZZZY=             -0.0000 XXYY=          -1500.3422 XXZZ=          -1232.3515 YYZZ=           -471.3728
 XXYZ=             -0.0002 YYXZ=             -0.0002 ZZXY=             15.9475
 N-N= 1.758972462266D+03 E-N=-1.005384054259D+04  KE= 2.755408885285D+03
 Calling FoFJK, ICntrl=      2127 FMM=F ISym2X=0 I1Cent= 0 IOpClX= 0 NMat=1 NMatS=1 NMatT=0.
 ***** Axes restored to original set *****
 -------------------------------------------------------------------
 Center     Atomic                   Forces (Hartrees/Bohr)
 Number     Number              X              Y              Z
 -------------------------------------------------------------------
      1        6          -0.021190821   -0.042358444   -0.000973592
      2        6          -0.007782744    0.025320615    0.007319528
      3        6          -0.012490498    0.003702866    0.004810558
      4        6          -0.003234937   -0.015360983   -0.001819399
      5        6          -0.008114169    0.003077317    0.003251328
      6        6           0.028730110   -0.031142367   -0.015313756
      7        6          -0.010265850    0.026086902    0.008281395
      8        6          -0.019047479    0.016427994    0.009360722
      9        6          -0.008254840    0.012034900    0.004979825
     10        6           0.004173745    0.009394271    0.000389247
     11        6           0.037473779    0.006987755   -0.011033801
     12        6           0.029346316   -0.149876608   -0.037816154
     13        1           0.002127780    0.005686598    0.000366930
     14        1           0.008732824    0.000703563   -0.002744903
     15        1          -0.001948633    0.007125254    0.001980214
     16        1           0.004538235   -0.008014812   -0.003000420
     17        1          -0.004056328   -0.010848569   -0.000701053
     18       17          -0.207989568   -0.349006065    0.002980141
     19       17           0.201913445    0.525753194    0.032215800
     20       17          -0.010123704   -0.005401068    0.002320945
     21       17          -0.004162322   -0.003821264    0.000653620
     22       17           0.001625658   -0.026471047   -0.005507175
 -------------------------------------------------------------------
 Cartesian Forces:  Max     0.525753194 RMS     0.088627048

 GradGradGradGradGradGradGradGradGradGradGradGradGradGradGradGradGradGrad
 Berny optimization.
 FormGI is forming the generalized inverse of G from B-inverse, IUseBI=4.
 Internal  Forces:  Max     0.505219275 RMS     0.056550161
 Search for a local minimum.
 Step number   1 out of a maximum of  112
 All quantities printed in internal units (Hartrees-Bohrs-Radians)
 Mixed Optimization -- RFO/linear search
 Second derivative matrix not updated -- first step.
 ITU=  0
     Eigenvalues ---    0.00238   0.00238   0.01655   0.01655   0.02070
     Eigenvalues ---    0.02070   0.02070   0.02070   0.02070   0.02070
     Eigenvalues ---    0.02070   0.02070   0.02070   0.02070   0.02070
     Eigenvalues ---    0.02070   0.02070   0.02070   0.04301   0.16000
     Eigenvalues ---    0.16000   0.16000   0.16000   0.16000   0.22308
     Eigenvalues ---    0.22472   0.23491   0.24476   0.24544   0.25000
     Eigenvalues ---    0.25000   0.25000   0.25000   0.25000   0.25000
     Eigenvalues ---    0.25000   0.25000   0.29539   0.29539   0.29539
     Eigenvalues ---    0.29539   0.29539   0.37230   0.37230   0.37230
     Eigenvalues ---    0.37230   0.37230   0.41409   0.41658   0.42024
     Eigenvalues ---    0.42102   0.45389   0.45389   0.45389   0.45389
     Eigenvalues ---    0.45389   0.45389   0.45389   0.45389   1.32680
 RFO step:  Lambda=-2.86642673D-01 EMin= 2.37799116D-03
 Linear search not attempted -- first point.
 Maximum step size (   0.300) exceeded in Quadratic search.
    -- Step size scaled by   0.521
 Iteration  1 RMS(Cart)=  0.12909979 RMS(Int)=  0.00283360
 Iteration  2 RMS(Cart)=  0.00531418 RMS(Int)=  0.00002679
 Iteration  3 RMS(Cart)=  0.00003031 RMS(Int)=  0.00002484
 Iteration  4 RMS(Cart)=  0.00000000 RMS(Int)=  0.00002484
 Variable       Old X    -DE/DX   Delta X   Delta X   Delta X     New X
                                 (Linear)    (Quad)   (Total)
    R1        2.64826  -0.00051   0.00000  -0.00016  -0.00012   2.64814
    R2        2.64826   0.00641   0.00000   0.00484   0.00488   2.65315
    R3        2.64826  -0.00429   0.00000  -0.00315  -0.00315   2.64511
    R4        2.02201  -0.00395   0.00000  -0.00312  -0.00312   2.01888
    R5        2.64826  -0.01688   0.00000  -0.01220  -0.01225   2.63601
    R6        2.02201   0.00917   0.00000   0.00725   0.00725   2.02926
    R7        2.64826  -0.01778   0.00000  -0.01271  -0.01275   2.63551
    R8        3.32592  -0.00540   0.00000  -0.00484  -0.00484   3.32108
    R9        2.64826  -0.01041   0.00000  -0.00719  -0.00719   2.64107
   R10        2.02201   0.00747   0.00000   0.00591   0.00591   2.02791
   R11        3.32592  -0.01862   0.00000  -0.01667  -0.01667   3.30925
   R12        2.64826   0.01495   0.00000   0.01093   0.01094   2.65920
   R13        2.64826  -0.00680   0.00000  -0.00444  -0.00441   2.64385
   R14        2.64826  -0.00750   0.00000  -0.00522  -0.00523   2.64303
   R15        3.32592   0.00268   0.00000   0.00240   0.00240   3.32832
   R16        2.64826  -0.02700   0.00000  -0.01934  -0.01937   2.62889
   R17        2.02201   0.00968   0.00000   0.00766   0.00766   2.02966
   R18        2.64826  -0.01971   0.00000  -0.01428  -0.01429   2.63397
   R19        2.02201   0.01141   0.00000   0.00902   0.00902   2.03103
   R20        2.64826  -0.00811   0.00000  -0.00577  -0.00575   2.64251
   R21        3.32592   0.01046   0.00000   0.00936   0.00936   3.33528
   R22        3.32592   0.13045   0.00000   0.11680   0.11680   3.44271
   R23        3.16132   0.50522   0.00000   0.16318   0.16318   3.32450
    A1        2.09440  -0.04013   0.00000  -0.03807  -0.03795   2.05644
    A2        2.09440   0.01681   0.00000   0.01724   0.01727   2.11167
    A3        2.09440  -0.00373   0.00000  -0.00317  -0.00318   2.09121
    A4        2.09440  -0.01308   0.00000  -0.01408  -0.01409   2.08030
    A5        2.09440   0.00248   0.00000   0.00174   0.00168   2.09607
    A6        2.09440  -0.00072   0.00000  -0.00026  -0.00023   2.09416
    A7        2.09440  -0.00176   0.00000  -0.00148  -0.00145   2.09295
    A8        2.09440   0.00019   0.00000  -0.00067  -0.00077   2.09363
    A9        2.09440   0.00286   0.00000   0.00321   0.00325   2.09765
   A10        2.09440  -0.00305   0.00000  -0.00253  -0.00248   2.09191
   A11        2.09440  -0.00957   0.00000  -0.01009  -0.01013   2.08427
   A12        2.09440   0.00313   0.00000   0.00311   0.00313   2.09752
   A13        2.09440   0.00645   0.00000   0.00698   0.00700   2.10140
   A14        2.09440   0.03022   0.00000   0.02985   0.02989   2.12429
   A15        2.09440  -0.00446   0.00000  -0.00459  -0.00461   2.08979
   A16        2.09440  -0.02576   0.00000  -0.02526  -0.02529   2.06911
   A17        2.09440  -0.03071   0.00000  -0.02825  -0.02819   2.06620
   A18        2.09440   0.01452   0.00000   0.01475   0.01475   2.10914
   A19        2.09440   0.03757   0.00000   0.03615   0.03615   2.13055
   A20        2.09440  -0.05208   0.00000  -0.05090  -0.05090   2.04350
   A21        2.09440   0.00511   0.00000   0.00483   0.00478   2.09918
   A22        2.09440  -0.00282   0.00000  -0.00273  -0.00271   2.09169
   A23        2.09440  -0.00229   0.00000  -0.00210  -0.00208   2.09232
   A24        2.09440  -0.01194   0.00000  -0.01341  -0.01346   2.08094
   A25        2.09440   0.00383   0.00000   0.00421   0.00423   2.09863
   A26        2.09440   0.00811   0.00000   0.00920   0.00923   2.10362
   A27        2.09440   0.01539   0.00000   0.01427   0.01427   2.10867
   A28        2.09440  -0.01644   0.00000  -0.01563  -0.01563   2.07877
   A29        2.09440   0.00105   0.00000   0.00136   0.00136   2.09575
   A30        2.09440   0.00765   0.00000   0.00781   0.00785   2.10224
   A31        2.09440   0.00561   0.00000   0.00525   0.00523   2.09963
   A32        2.09440  -0.01325   0.00000  -0.01306  -0.01308   2.08132
   A33        2.09440   0.14834   0.00000   0.14405   0.14405   2.23844
   A34        2.09440  -0.13642   0.00000  -0.13247  -0.13247   1.96192
    D1        0.00000   0.00000   0.00000   0.00000   0.00000   0.00000
    D2        3.14159   0.00000   0.00000   0.00000   0.00000   3.14159
    D3       -0.00000  -0.00000   0.00000  -0.00000  -0.00000  -0.00000
    D4        3.14159   0.00000   0.00000   0.00000   0.00000   3.14159
    D5        0.00000  -0.00000   0.00000  -0.00000  -0.00000   0.00000
    D6        3.14159  -0.00000   0.00000  -0.00000  -0.00000   3.14159
    D7       -3.14159  -0.00000   0.00000  -0.00000  -0.00000  -3.14159
    D8        0.00000  -0.00000   0.00000  -0.00000  -0.00000   0.00000
    D9       -0.00000   0.00000   0.00000   0.00000   0.00000  -0.00000
   D10        3.14159  -0.00000   0.00000  -0.00000  -0.00000   3.14159
   D11        3.14159   0.00000   0.00000   0.00000   0.00000   3.14159
   D12        0.00000  -0.00000   0.00000  -0.00000  -0.00000   0.00000
   D13        0.00000  -0.00000   0.00000  -0.00000  -0.00000   0.00000
   D14       -3.14159  -0.00000   0.00000  -0.00000  -0.00000  -3.14159
   D15       -3.14159  -0.00000   0.00000  -0.00000  -0.00000  -3.14159
   D16        0.00000   0.00000   0.00000   0.00000   0.00000   0.00000
   D17       -0.00000   0.00000   0.00000   0.00000   0.00000  -0.00000
   D18        3.14159   0.00000   0.00000   0.00000   0.00000   3.14159
   D19        3.14159   0.00000   0.00000   0.00000   0.00000   3.14159
   D20       -0.00000  -0.00000   0.00000  -0.00000  -0.00000  -0.00000
   D21        0.00001  -0.00000   0.00000  -0.00000  -0.00000   0.00001
   D22       -3.14159  -0.00000   0.00000  -0.00000  -0.00000  -3.14159
   D23        0.00000   0.00000   0.00000   0.00000   0.00000   0.00000
   D24       -3.14159  -0.00000   0.00000  -0.00000  -0.00000  -3.14159
   D25       -0.00000  -0.00000   0.00000  -0.00000  -0.00000  -0.00000
   D26        3.14159   0.00000   0.00000   0.00000   0.00000   3.14159
   D27       -0.00000  -0.00000   0.00000  -0.00000  -0.00000  -0.00000
   D28        3.14159  -0.00000   0.00000  -0.00000  -0.00000   3.14159
   D29        3.14159   0.00000   0.00000   0.00000   0.00000   3.14159
   D30       -0.00000   0.00000   0.00000   0.00000   0.00000  -0.00000
   D31       -0.00000   0.00000   0.00000   0.00000   0.00000  -0.00000
   D32       -3.14159  -0.00000   0.00000  -0.00000  -0.00000  -3.14159
   D33        3.14159   0.00000   0.00000   0.00000   0.00000   3.14159
   D34        0.00000  -0.00000   0.00000  -0.00000  -0.00000   0.00000
   D35        0.00000  -0.00000   0.00000  -0.00000  -0.00000   0.00000
   D36       -3.14159  -0.00000   0.00000  -0.00000  -0.00000  -3.14159
   D37        3.14159   0.00000   0.00000   0.00000   0.00000   3.14159
   D38        0.00000  -0.00000   0.00000  -0.00000  -0.00000   0.00000
   D39        0.00000   0.00000   0.00000   0.00000   0.00000   0.00000
   D40       -3.14159  -0.00000   0.00000  -0.00000  -0.00000  -3.14159
   D41        3.14159   0.00000   0.00000   0.00000   0.00000   3.14159
   D42       -0.00000  -0.00000   0.00000  -0.00000  -0.00000  -0.00000
   D43        0.00001  -0.00000   0.00000  -0.00000  -0.00000   0.00001
   D44       -3.14159   0.00000   0.00000   0.00000   0.00000  -3.14159
   D45       -0.00001  -0.00000   0.00000  -0.00000  -0.00000  -0.00001
         Item               Value     Threshold  Converged?
 Maximum Force            0.505219     0.000450     NO 
 RMS     Force            0.056550     0.000300     NO 
 Maximum Displacement     0.710597     0.001800     NO 
 RMS     Displacement     0.130226     0.001200     NO 
 Predicted change in Energy=-1.233515D-01
 GradGradGradGradGradGradGradGradGradGradGradGradGradGradGradGradGradGrad

                          Input orientation:                          
 ---------------------------------------------------------------------
 Center     Atomic      Atomic             Coordinates (Angstroms)
 Number     Number       Type             X           Y           Z
 ---------------------------------------------------------------------
      1          6           0        0.356885   -0.101291    0.024177
      2          6           0        1.689478   -0.062841   -0.407629
      3          6           0        2.408969    1.137764   -0.419184
      4          6           0        1.802359    2.320853    0.002861
      5          6           0        0.477060    2.307549    0.436985
      6          6           0       -0.230990    1.102603    0.443955
      7          6           0       -0.549555   -2.084407   -0.049643
      8          6           0       -0.009365   -3.317546   -0.459207
      9          6           0       -0.779365   -4.484628   -0.424712
     10          6           0       -2.097656   -4.442268    0.017567
     11          6           0       -2.640082   -3.224649    0.424954
     12          6           0       -1.876318   -2.053729    0.393234
     13          1           0        2.168271   -0.960417   -0.733940
     14          1           0        3.429438    1.148726   -0.753322
     15          1           0        0.006853    3.215616    0.762437
     16          1           0       -0.350804   -5.417282   -0.741066
     17          1           0       -2.688900   -5.339419    0.043867
     18         17           0       -2.628277   -0.485458    0.935510
     19         17           0       -1.893679    1.112028    0.993504
     20         17           0       -4.312920   -3.174679    0.985475
     21         17           0        2.703504    3.829611   -0.010666
     22         17           0        1.648815   -3.467549   -1.033677
 ---------------------------------------------------------------------
                    Distance matrix (angstroms):
                    1          2          3          4          5
     1  C    0.000000
     2  C    1.401335   0.000000
     3  C    2.437801   1.399733   0.000000
     4  C    2.820750   2.421413   1.394918   0.000000
     5  C    2.446908   2.793220   2.415305   1.394654   0.000000
     6  C    1.403984   2.402426   2.777702   2.411059   1.397597
     7  C    2.181704   3.037787   4.389966   4.994053   4.536520
     8  C    3.272934   3.671761   5.069489   5.940319   5.716770
     9  C    4.550408   5.064354   6.463497   7.291275   6.960947
    10  C    4.986873   5.805391   7.185902   7.807058   7.236374
    11  C    4.347160   5.425432   6.725781   7.118008   6.349955
    12  C    2.989216   4.161721   5.404566   5.729051   4.955910
    13  H    2.143353   1.068347   2.135268   3.382824   3.861458
    14  H    3.406997   2.148222   1.073836   2.143146   3.387659
    15  H    3.416053   3.866336   3.388784   2.145087   1.073126
    16  H    5.417212   5.739684   7.119592   8.066491   7.857874
    17  H    6.059305   6.871413   8.255700   8.879913   8.285768
    18  Cl   3.144726   4.541545   5.462956   5.326890   4.206249
    19  Cl   2.734369   4.022748   4.528701   4.012896   2.712818
    20  Cl   5.672467   6.903119   8.108885   8.280280   7.300655
    21  Cl   4.578190   4.041907   2.738554   1.757440   2.733884
    22  Cl   3.757637   3.462026   4.707902   5.882481   6.073517
                    6          7          8          9         10
     6  C    0.000000
     7  C    3.240703   0.000000
     8  C    4.516917   1.407189   0.000000
     9  C    5.680885   2.440195   1.398632   0.000000
    10  C    5.866162   2.821462   2.419355   1.391150   0.000000
    11  C    4.952696   2.428106   2.776877   2.402446   1.393839
    12  C    3.559791   1.399065   2.410271   2.789555   2.428011
    13  H    3.376380   3.019634   3.220812   4.604807   5.557535
    14  H    3.851536   5.175006   5.644418   7.039651   7.899510
    15  H    2.150075   5.390668   6.646419   7.830786   7.976653
    16  H    6.627785   3.409638   2.145907   1.074052   2.139549
    17  H    6.906594   3.896235   3.394255   2.143959   1.074774
    18  Cl   2.917284   2.801473   4.101787   4.611078   4.096404
    19  Cl   1.751179   3.621052   5.028134   5.880101   5.643073
    20  Cl   5.937216   4.052540   4.541817   4.023755   2.729656
    21  Cl   4.031688   6.749779   7.657852   9.023767   9.564305
    22  Cl   5.157844   2.777451   1.761272   2.702101   4.011389
                   11         12         13         14         15
    11  C    0.000000
    12  C    1.398355   0.000000
    13  H    5.439673   4.338728   0.000000
    14  H    7.573230   6.302488   2.457519   0.000000
    15  H    6.971167   5.607909   4.934584   4.275937   0.000000
    16  H    3.377579   3.863590   5.119516   7.576467   8.770141
    17  H    2.149387   3.402662   6.585800   8.953524   8.998447
    18  Cl   2.786391   1.821806   5.100933   6.497585   4.546627
    19  Cl   4.437019   3.222211   4.876323   5.602528   2.844380
    20  Cl   1.764955   2.746690   7.061528   9.036556   7.716609
    21  Cl   8.860376   7.466699   4.873804   2.875006   2.871690
    22  Cl   4.536656   4.057281   2.577865   4.955725   7.112437
                   16         17         18         19         20
    16  H    0.000000
    17  H    2.467565   0.000000
    18  Cl   5.685128   4.935549   0.000000
    19  Cl   6.929725   6.569274   1.759250   0.000000
    20  Cl   4.869145   2.865339   3.173709   4.922261   0.000000
    21  Cl   9.765619  10.637298   6.924085   5.433940   9.964064
    22  Cl   2.808124   4.845697   5.573516   6.134432   6.301193
                   21         22
    21  Cl   0.000000
    22  Cl   7.443619   0.000000
 Stoichiometry    C12H5Cl5
 Framework group  C1[X(C12H5Cl5)]
 Deg. of freedom    60
 Full point group                 C1      NOp   1
 Largest Abelian subgroup         C1      NOp   1
 Largest concise Abelian subgroup C1      NOp   1
                         Standard orientation:                         
 ---------------------------------------------------------------------
 Center     Atomic      Atomic             Coordinates (Angstroms)
 Number     Number       Type             X           Y           Z
 ---------------------------------------------------------------------
      1          6           0        1.041749    0.337484   -0.000000
      2          6           0        1.874787    1.464332   -0.000004
      3          6           0        3.268113    1.330551   -0.000005
      4          6           0        3.849050    0.062360   -0.000003
      5          6           0        3.040513   -1.074006    0.000003
      6          6           0        1.650604   -0.927611    0.000004
      7          6           0       -1.089923    0.802032    0.000005
      8          6           0       -1.750875    2.044338    0.000004
      9          6           0       -3.147800    2.113402    0.000002
     10          6           0       -3.907603    0.948071   -0.000001
     11          6           0       -3.260409   -0.286403   -0.000001
     12          6           0       -1.864168   -0.363270    0.000001
     13          1           0        1.445230    2.442517   -0.000008
     14          1           0        3.891253    2.205091   -0.000009
     15          1           0        3.483630   -2.051373    0.000007
     16          1           0       -3.635653    3.070266    0.000002
     17          1           0       -4.981037    1.001736   -0.000004
     18         17           0       -1.062699   -1.999308   -0.000001
     19         17           0        0.657119   -2.369697    0.000010
     20         17           0       -4.227580   -1.762766   -0.000009
     21         17           0        5.598178   -0.108363   -0.000005
     22         17           0       -0.872527    3.570962    0.000003
 ---------------------------------------------------------------------
 Rotational constants (GHZ):           0.4537498           0.1744264           0.1259932
 Standard basis: 6-311+G(d,p) (5D, 7F)
 There are   461 symmetry adapted cartesian basis functions of A   symmetry.
 There are   444 symmetry adapted basis functions of A   symmetry.
   444 basis functions,   737 primitive gaussians,   461 cartesian basis functions
    81 alpha electrons       81 beta electrons
       nuclear repulsion energy      1731.3787174175 Hartrees.
 NAtoms=   22 NActive=   22 NUniq=   22 SFac= 1.00D+00 NAtFMM=   60 NAOKFM=F Big=F
 Integral buffers will be    131072 words long.
 Raffenetti 2 integral format.
 Two-electron integral symmetry is turned on.
 One-electron integrals computed using PRISM.
 NBasis=   444 RedAO= T EigKep=  1.05D-06  NBF=   444
 NBsUse=   440 1.00D-06 EigRej=  5.07D-07 NBFU=   440
 Initial guess from the checkpoint file:  "./Gau-315625.chk"
 B after Tr=     0.000000   -0.000000   -0.000000
         Rot=    0.999412    0.000000    0.000000   -0.034302 Ang=  -3.93 deg.
 ExpMin= 4.38D-02 ExpMax= 1.06D+05 ExpMxC= 3.62D+03 IAcc=3 IRadAn=         5 AccDes= 0.00D+00
 Harris functional with IExCor=  402 and IRadAn=       5 diagonalized for initial guess.
 HarFok:  IExCor=  402 AccDes= 0.00D+00 IRadAn=         5 IDoV= 1 UseB2=F ITyADJ=14
 ICtDFT=  3500011 ScaDFX=  1.000000  1.000000  1.000000  1.000000
 FoFCou: FMM=F IPFlag=           0 FMFlag=      100000 FMFlg1=           0
         NFxFlg=           0 DoJE=T BraDBF=F KetDBF=T FulRan=T
         wScrn=  0.000000 ICntrl=       500 IOpCl=  0 I1Cent=   200000004 NGrid=           0
         NMat0=    1 NMatS0=      1 NMatT0=    0 NMatD0=    1 NMtDS0=    0 NMtDT0=    0
 Petite list used in FoFCou.
 Requested convergence on RMS density matrix=1.00D-08 within  32 cycles.
 Requested convergence on MAX density matrix=1.00D-06.
 Requested convergence on             energy=1.00D-06.
 No special actions if energy rises.
 SCF Done:  E(RB3LYP) =  -2761.06758142     A.U. after   18 cycles
            NFock= 18  Conv=0.63D-08     -V/T= 2.0022
 QCSCF skips out because SCF is already converged.
 Calling FoFJK, ICntrl=      2127 FMM=F ISym2X=0 I1Cent= 0 IOpClX= 0 NMat=1 NMatS=1 NMatT=0.
 ***** Axes restored to original set *****
 -------------------------------------------------------------------
 Center     Atomic                   Forces (Hartrees/Bohr)
 Number     Number              X              Y              Z
 -------------------------------------------------------------------
      1        6          -0.005910302   -0.041943861   -0.005930390
      2        6          -0.010638172    0.014112524    0.006155339
      3        6          -0.005823346    0.000410625    0.001995777
      4        6          -0.002778941   -0.010258092   -0.001011289
      5        6          -0.006094782    0.002948681    0.002561824
      6        6           0.011301553   -0.033101660   -0.009939839
      7        6          -0.029492225    0.024142367    0.014250877
      8        6          -0.004068293    0.021891953    0.005451990
      9        6          -0.005216706    0.007974349    0.003216239
     10        6           0.001451272    0.003621067    0.000201961
     11        6           0.019125134    0.003343489   -0.005673058
     12        6           0.011191770   -0.103037455   -0.023038312
     13        1           0.003314348   -0.006713926   -0.002352930
     14        1           0.005997065    0.000126393   -0.001952003
     15        1          -0.001857346    0.004903849    0.001532954
     16        1           0.003668486   -0.004783226   -0.002106942
     17        1          -0.002880909   -0.005956829   -0.000169624
     18       17          -0.083197853   -0.285981529   -0.026297645
     19       17           0.105130504    0.415160221    0.043332108
     20       17          -0.003771764   -0.003292310    0.000624273
     21       17          -0.003101250   -0.003043094    0.000450201
     22       17           0.003651756   -0.000523537   -0.001301511
 -------------------------------------------------------------------
 Cartesian Forces:  Max     0.415160221 RMS     0.066588798

 GradGradGradGradGradGradGradGradGradGradGradGradGradGradGradGradGradGrad
 Berny optimization.
 Using GEDIIS/GDIIS optimizer.
 FormGI is forming the generalized inverse of G from B-inverse, IUseBI=4.
 Internal  Forces:  Max     0.349636290 RMS     0.049218875
 Search for a local minimum.
 Step number   2 out of a maximum of  112
 All quantities printed in internal units (Hartrees-Bohrs-Radians)
 Mixed Optimization -- RFO/linear search
 Update second derivatives using D2CorX and points    1    2
 DE= -1.18D-01 DEPred=-1.23D-01 R= 9.57D-01
 TightC=F SS=  1.41D+00  RLast= 3.00D-01 DXNew= 5.0454D-01 9.0000D-01
 Trust test= 9.57D-01 RLast= 3.00D-01 DXMaxT set to 5.05D-01
 ITU=  1  0
 Use linear search instead of GDIIS.
 Linear search step of   0.600 exceeds DXMaxT=   0.505 but not scaled.
 Quartic linear search produced a step of  2.00000.
 Iteration  1 RMS(Cart)=  0.17962854 RMS(Int)=  0.01831138
 Iteration  2 RMS(Cart)=  0.06947134 RMS(Int)=  0.00109729
 Iteration  3 RMS(Cart)=  0.00279123 RMS(Int)=  0.00014714
 Iteration  4 RMS(Cart)=  0.00000476 RMS(Int)=  0.00014713
 Iteration  5 RMS(Cart)=  0.00000000 RMS(Int)=  0.00014713
 Variable       Old X    -DE/DX   Delta X   Delta X   Delta X     New X
                                 (Linear)    (Quad)   (Total)
    R1        2.64814  -0.00863  -0.00025   0.00000  -0.00002   2.64812
    R2        2.65315   0.02433   0.00977   0.00000   0.01003   2.66317
    R3        2.64511  -0.00029  -0.00630   0.00000  -0.00633   2.63878
    R4        2.01888   0.00784  -0.00625   0.00000  -0.00625   2.01264
    R5        2.63601   0.00001  -0.02450   0.00000  -0.02476   2.61125
    R6        2.02926   0.00631   0.01450   0.00000   0.01450   2.04376
    R7        2.63551  -0.00469  -0.02549   0.00000  -0.02573   2.60979
    R8        3.32108  -0.00421  -0.00968   0.00000  -0.00968   3.31140
    R9        2.64107  -0.01088  -0.01438   0.00000  -0.01433   2.62674
   R10        2.02791   0.00543   0.01181   0.00000   0.01181   2.03973
   R11        3.30925  -0.01175  -0.03334   0.00000  -0.03334   3.27591
   R12        2.65920  -0.02249   0.02188   0.00000   0.02195   2.68115
   R13        2.64385  -0.04008  -0.00882   0.00000  -0.00865   2.63520
   R14        2.64303   0.00244  -0.01046   0.00000  -0.01056   2.63247
   R15        3.32832   0.00391   0.00481   0.00000   0.00481   3.33313
   R16        2.62889   0.00298  -0.03874   0.00000  -0.03891   2.58998
   R17        2.02966   0.00624   0.01532   0.00000   0.01532   2.04498
   R18        2.63397   0.00018  -0.02858   0.00000  -0.02865   2.60532
   R19        2.03103   0.00655   0.01804   0.00000   0.01804   2.04907
   R20        2.64251  -0.01003  -0.01151   0.00000  -0.01142   2.63109
   R21        3.33528   0.00368   0.01873   0.00000   0.01873   3.35401
   R22        3.44271   0.04867   0.23359   0.00000   0.23359   3.67631
   R23        3.32450   0.34964   0.32635   0.00000   0.32635   3.65085
    A1        2.05644  -0.01674  -0.07590   0.00000  -0.07517   1.98128
    A2        2.11167   0.00247   0.03455   0.00000   0.03471   2.14638
    A3        2.09121  -0.00148  -0.00636   0.00000  -0.00644   2.08477
    A4        2.08030  -0.00099  -0.02819   0.00000  -0.02827   2.05204
    A5        2.09607   0.00347   0.00336   0.00000   0.00301   2.09908
    A6        2.09416  -0.00167  -0.00046   0.00000  -0.00029   2.09388
    A7        2.09295  -0.00180  -0.00290   0.00000  -0.00272   2.09023
    A8        2.09363   0.00654  -0.00154   0.00000  -0.00209   2.09154
    A9        2.09765  -0.00131   0.00651   0.00000   0.00678   2.10443
   A10        2.09191  -0.00523  -0.00497   0.00000  -0.00469   2.08722
   A11        2.08427  -0.01537  -0.02026   0.00000  -0.02051   2.06376
   A12        2.09752   0.00706   0.00625   0.00000   0.00638   2.10390
   A13        2.10140   0.00831   0.01400   0.00000   0.01413   2.11552
   A14        2.12429   0.01964   0.05979   0.00000   0.06004   2.18433
   A15        2.08979  -0.03840  -0.00922   0.00000  -0.00934   2.08044
   A16        2.06911   0.01876  -0.05057   0.00000  -0.05070   2.01841
   A17        2.06620   0.00281  -0.05639   0.00000  -0.05602   2.01018
   A18        2.10914  -0.00520   0.02950   0.00000   0.02946   2.13860
   A19        2.13055   0.00292   0.07230   0.00000   0.07232   2.20287
   A20        2.04350   0.00227  -0.10180   0.00000  -0.10178   1.94171
   A21        2.09918   0.00158   0.00957   0.00000   0.00928   2.10846
   A22        2.09169  -0.00218  -0.00541   0.00000  -0.00526   2.08643
   A23        2.09232   0.00060  -0.00416   0.00000  -0.00401   2.08830
   A24        2.08094  -0.00550  -0.02692   0.00000  -0.02720   2.05374
   A25        2.09863   0.00180   0.00847   0.00000   0.00861   2.10723
   A26        2.10362   0.00370   0.01845   0.00000   0.01859   2.12221
   A27        2.10867  -0.01319   0.02854   0.00000   0.02853   2.13720
   A28        2.07877   0.00084  -0.03126   0.00000  -0.03126   2.04751
   A29        2.09575   0.01235   0.00272   0.00000   0.00272   2.09848
   A30        2.10224   0.01950   0.01570   0.00000   0.01594   2.11819
   A31        2.09963  -0.10369   0.01046   0.00000   0.01034   2.10997
   A32        2.08132   0.08419  -0.02616   0.00000  -0.02628   2.05503
   A33        2.23844  -0.08173   0.28810   0.00000   0.28810   2.52654
   A34        1.96192  -0.30129  -0.26494   0.00000  -0.26494   1.69698
    D1        0.00000  -0.00000   0.00000   0.00000   0.00000   0.00000
    D2        3.14159   0.00000   0.00000   0.00000   0.00000   3.14159
    D3       -0.00000   0.00000  -0.00000   0.00000  -0.00000  -0.00000
    D4        3.14159  -0.00000   0.00000   0.00000   0.00000   3.14159
    D5        0.00000  -0.00000  -0.00000   0.00000  -0.00000   0.00000
    D6        3.14159   0.00000  -0.00000   0.00000  -0.00000   3.14159
    D7       -3.14159  -0.00000  -0.00000   0.00000  -0.00000  -3.14159
    D8        0.00000  -0.00000  -0.00000   0.00000  -0.00000   0.00000
    D9       -0.00000   0.00000   0.00000   0.00000   0.00000  -0.00000
   D10        3.14159   0.00000  -0.00000   0.00000  -0.00000   3.14159
   D11        3.14159   0.00000   0.00000   0.00000   0.00000   3.14159
   D12        0.00000  -0.00000  -0.00000   0.00000  -0.00000   0.00000
   D13        0.00000  -0.00000  -0.00000   0.00000  -0.00000   0.00000
   D14       -3.14159  -0.00000  -0.00000   0.00000  -0.00000  -3.14159
   D15       -3.14159  -0.00000  -0.00000   0.00000  -0.00000  -3.14159
   D16        0.00000  -0.00000   0.00000   0.00000   0.00000   0.00000
   D17       -0.00000   0.00000   0.00000   0.00000   0.00000   0.00000
   D18        3.14159   0.00000   0.00000   0.00000   0.00000   3.14159
   D19        3.14159   0.00000   0.00000   0.00000   0.00000   3.14159
   D20       -0.00000   0.00000  -0.00000   0.00000  -0.00000  -0.00000
   D21        0.00001   0.00000  -0.00000   0.00000  -0.00000   0.00001
   D22       -3.14159   0.00000  -0.00000   0.00000  -0.00000  -3.14159
   D23        0.00000   0.00000   0.00000   0.00000   0.00000   0.00000
   D24       -3.14159  -0.00000  -0.00000   0.00000  -0.00000  -3.14159
   D25       -0.00000   0.00000  -0.00000   0.00000  -0.00000  -0.00000
   D26        3.14159   0.00000   0.00000   0.00000   0.00000   3.14159
   D27       -0.00000  -0.00000  -0.00000   0.00000  -0.00000  -0.00000
   D28        3.14159  -0.00000  -0.00000   0.00000  -0.00000   3.14159
   D29        3.14159   0.00000   0.00000   0.00000   0.00000   3.14159
   D30       -0.00000   0.00000   0.00000   0.00000   0.00000  -0.00000
   D31       -0.00000   0.00000   0.00000   0.00000   0.00000   0.00000
   D32       -3.14159  -0.00000  -0.00000   0.00000  -0.00000  -3.14159
   D33        3.14159   0.00000   0.00000   0.00000   0.00000  -3.14159
   D34        0.00000  -0.00000  -0.00000   0.00000  -0.00000   0.00000
   D35       -0.00000   0.00000  -0.00000   0.00000  -0.00000  -0.00000
   D36       -3.14159  -0.00000  -0.00000   0.00000  -0.00000  -3.14159
   D37        3.14159   0.00000   0.00000   0.00000   0.00000   3.14159
   D38        0.00000  -0.00000  -0.00000   0.00000  -0.00000   0.00000
   D39        0.00000  -0.00000   0.00000   0.00000   0.00000   0.00000
   D40       -3.14159  -0.00000  -0.00000   0.00000  -0.00000   3.14159
   D41        3.14159   0.00000   0.00000   0.00000   0.00000   3.14159
   D42       -0.00000   0.00000  -0.00000   0.00000  -0.00000  -0.00000
   D43        0.00001   0.00000  -0.00000   0.00000  -0.00000   0.00001
   D44       -3.14159   0.00000   0.00000   0.00000   0.00000  -3.14159
   D45       -0.00001   0.00000  -0.00000   0.00000  -0.00000  -0.00002
         Item               Value     Threshold  Converged?
 Maximum Force            0.349636     0.000450     NO 
 RMS     Force            0.049219     0.000300     NO 
 Maximum Displacement     1.363158     0.001800     NO 
 RMS     Displacement     0.246657     0.001200     NO 
 Predicted change in Energy=-6.522593D-02
 GradGradGradGradGradGradGradGradGradGradGradGradGradGradGradGradGradGrad

                          Input orientation:                          
 ---------------------------------------------------------------------
 Center     Atomic      Atomic             Coordinates (Angstroms)
 Number     Number       Type             X           Y           Z
 ---------------------------------------------------------------------
      1          6           0        0.269150    0.064367    0.084194
      2          6           0        1.602045    0.115584   -0.345311
      3          6           0        2.348024    1.295759   -0.369429
      4          6           0        1.780625    2.486911    0.041210
      5          6           0        0.470384    2.509587    0.477128
      6          6           0       -0.240374    1.315074    0.486949
      7          6           0       -0.350238   -2.344718   -0.164204
      8          6           0        0.008838   -3.667437   -0.530923
      9          6           0       -0.878640   -4.737294   -0.439459
     10          6           0       -2.157564   -4.551317    0.016826
     11          6           0       -2.528702   -3.273886    0.379014
     12          6           0       -1.657757   -2.190830    0.295477
     13          1           0        2.081874   -0.777671   -0.671151
     14          1           0        3.374189    1.279400   -0.710573
     15          1           0        0.015753    3.433617    0.800446
     16          1           0       -0.553378   -5.726942   -0.732485
     17          1           0       -2.847422   -5.384893    0.087558
     18         17           0       -2.325392   -0.447473    0.842854
     19         17           0       -1.877787    1.420868    1.046266
     20         17           0       -4.186918   -3.043839    0.968543
     21         17           0        2.709368    3.972621    0.014263
     22         17           0        1.577642   -4.188901   -1.145716
 ---------------------------------------------------------------------
                    Distance matrix (angstroms):
                    1          2          3          4          5
     1  C    0.000000
     2  C    1.401323   0.000000
     3  C    2.458418   1.396381   0.000000
     4  C    2.855717   2.409248   1.381813   0.000000
     5  C    2.484752   2.772780   2.390726   1.381039   0.000000
     6  C    1.409289   2.350732   2.726456   2.378302   1.390012
     7  C    2.499807   3.145996   4.536056   5.284638   4.964776
     8  C    3.791107   4.109016   5.489189   6.429818   6.275732
     9  C    4.964633   5.450971   6.842075   7.713097   7.428141
    10  C    5.215172   6.003813   7.391740   8.065145   7.548135
    11  C    4.365642   5.392238   6.724900   7.202165   6.515574
    12  C    2.973806   4.044312   5.352073   5.811056   5.162935
    13  H    2.136713   1.065041   2.112104   3.354952   3.836862
    14  H    3.427714   2.151367   1.081509   2.136049   3.369878
    15  H    3.453849   3.852067   3.373208   2.141837   1.079377
    16  H    5.906164   6.239460   7.607120   8.574004   8.387590
    17  H    6.277537   7.088045   8.475412   9.131608   8.572188
    18  Cl   2.751218   4.141682   5.133158   5.110051   4.085869
    19  Cl   2.715698   3.968562   4.458399   3.940883   2.650120
    20  Cl   5.504504   6.724601   7.957874   8.189060   7.264468
    21  Cl   4.608037   4.028919   2.728256   1.752320   2.714362
    22  Cl   4.616830   4.378337   5.592638   6.783543   6.980643
[...]
                 (A) (A) (A) (A) (A) (A) (A) (A) (A) (A) (A) (A)
                 (A) (A) (A) (A) (A) (A) (A) (A) (A)
       Virtual   (A) (A) (A) (A) (A) (A) (A) (A) (A) (A) (A) (A)
                 (A) (A) (A) (A) (A) (A) (A) (A) (A) (A) (A) (A)
                 (A) (A) (A) (A) (A) (A) (A) (A) (A) (A) (A) (A)
                 (A) (A) (A) (A) (A) (A) (A) (A) (A) (A) (A) (A)
                 (A) (A) (A) (A) (A) (A) (A) (A) (A) (A) (A) (A)
                 (A) (A) (A) (A) (A) (A) (A) (A) (A) (A) (A) (A)
                 (A) (A) (A) (A) (A) (A) (A) (A) (A) (A) (A) (A)
                 (A) (A) (A) (A) (A) (A) (A) (A) (A) (A) (A) (A)
                 (A) (A) (A) (A) (A) (A) (A) (A) (A) (A) (A) (A)
                 (A) (A) (A) (A) (A) (A) (A) (A) (A) (A) (A) (A)
                 (A) (A) (A) (A) (A) (A) (A) (A) (A) (A) (A) (A)
                 (A) (A) (A) (A) (A) (A) (A) (A) (A) (A) (A) (A)
                 (A) (A) (A) (A) (A) (A) (A) (A) (A) (A) (A) (A)
                 (A) (A) (A) (A) (A) (A) (A) (A) (A) (A) (A) (A)
                 (A) (A) (A) (A) (A) (A) (A) (A) (A) (A) (A) (A)
                 (A) (A) (A) (A) (A) (A) (A) (A) (A) (A) (A) (A)
                 (A) (A) (A) (A) (A) (A) (A) (A) (A) (A) (A) (A)
                 (A) (A) (A) (A) (A) (A) (A) (A) (A) (A) (A) (A)
                 (A) (A) (A) (A) (A) (A) (A) (A) (A) (A) (A) (A)
                 (A) (A) (A) (A) (A) (A) (A) (A) (A) (A) (A) (A)
                 (A) (A) (A) (A) (A) (A) (A) (A) (A) (A) (A) (A)
                 (A) (A) (A) (A) (A) (A) (A) (A) (A) (A) (A) (A)
                 (A) (A) (A) (A) (A) (A) (A) (A) (A) (A) (A) (A)
                 (A) (A) (A) (A) (A) (A) (A) (A) (A) (A) (A) (A)
                 (A) (A) (A) (A) (A) (A) (A) (A) (A) (A) (A) (A)
                 (A) (A) (A) (A) (A) (A) (A) (A) (A) (A) (A) (A)
                 (A) (A) (A) (A) (A) (A) (A) (A) (A) (A) (A) (A)
                 (A) (A) (A) (A) (A) (A) (A) (A) (A) (A) (A) (A)
                 (A) (A) (A) (A) (A) (A) (A) (A) (A) (A) (A) (A)
                 (A) (A) (A) (A) (A) (A) (A) (A) (A) (A) (A)
 The electronic state is 1-A.
 Alpha  occ. eigenvalues -- -101.57366-101.57334-101.57167-101.56846-101.56829
 Alpha  occ. eigenvalues --  -10.27370 -10.26808 -10.26708 -10.26371 -10.26127
 Alpha  occ. eigenvalues --  -10.23544 -10.22372 -10.21796 -10.21479 -10.21152
 Alpha  occ. eigenvalues --  -10.21095 -10.20702  -9.48840  -9.48792  -9.48636
 Alpha  occ. eigenvalues --   -9.48318  -9.48283  -7.25326  -7.25278  -7.25107
 Alpha  occ. eigenvalues --   -7.24784  -7.24750  -7.24325  -7.24271  -7.24248
 Alpha  occ. eigenvalues --   -7.24214  -7.24118  -7.24068  -7.23798  -7.23765
 Alpha  occ. eigenvalues --   -7.23755  -7.23727  -0.94854  -0.92582  -0.90346
 Alpha  occ. eigenvalues --   -0.89038  -0.87856  -0.84755  -0.84146  -0.80017
 Alpha  occ. eigenvalues --   -0.77004  -0.74997  -0.73955  -0.66140  -0.64351
 Alpha  occ. eigenvalues --   -0.62654  -0.60954  -0.55314  -0.53147  -0.52516
 Alpha  occ. eigenvalues --   -0.51607  -0.49196  -0.48010  -0.46320  -0.46057
 Alpha  occ. eigenvalues --   -0.45845  -0.44382  -0.43154  -0.42433  -0.41056
 Alpha  occ. eigenvalues --   -0.39893  -0.39580  -0.39137  -0.37681  -0.36475
 Alpha  occ. eigenvalues --   -0.34740  -0.34103  -0.33524  -0.33303  -0.33219
 Alpha  occ. eigenvalues --   -0.32851  -0.32361  -0.28296  -0.27878  -0.26578
 Alpha  occ. eigenvalues --   -0.26331
 Alpha virt. eigenvalues --   -0.05545  -0.05395  -0.04749  -0.04296  -0.03050
 Alpha virt. eigenvalues --   -0.01335  -0.00459   0.00165   0.01050   0.01584
 Alpha virt. eigenvalues --    0.01787   0.02452   0.02687   0.03199   0.04431
 Alpha virt. eigenvalues --    0.04848   0.05191   0.05388   0.05828   0.06062
 Alpha virt. eigenvalues --    0.06425   0.06813   0.07803   0.08261   0.08573
 Alpha virt. eigenvalues --    0.08987   0.09506   0.09809   0.09894   0.10550
 Alpha virt. eigenvalues --    0.10795   0.11320   0.11766   0.11920   0.12320
 Alpha virt. eigenvalues --    0.12632   0.12733   0.13142   0.13239   0.13997
 Alpha virt. eigenvalues --    0.14172   0.15190   0.15369   0.15871   0.15903
 Alpha virt. eigenvalues --    0.16484   0.17079   0.17132   0.17280   0.17596
 Alpha virt. eigenvalues --    0.17921   0.18309   0.18623   0.18892   0.19387
 Alpha virt. eigenvalues --    0.20230   0.20411   0.20835   0.21722   0.21836
 Alpha virt. eigenvalues --    0.22170   0.22271   0.22449   0.22769   0.22903
 Alpha virt. eigenvalues --    0.23288   0.23618   0.24216   0.25043   0.25306
 Alpha virt. eigenvalues --    0.25521   0.25721   0.26600   0.26727   0.27445
 Alpha virt. eigenvalues --    0.27640   0.27866   0.28476   0.29077   0.29398
 Alpha virt. eigenvalues --    0.29886   0.30071   0.31111   0.31310   0.32616
 Alpha virt. eigenvalues --    0.32746   0.33478   0.34202   0.36192   0.40591
 Alpha virt. eigenvalues --    0.41021   0.42025   0.43489   0.44153   0.44979
 Alpha virt. eigenvalues --    0.45179   0.45990   0.46298   0.46971   0.47395
 Alpha virt. eigenvalues --    0.48172   0.48537   0.49239   0.49439   0.50518
 Alpha virt. eigenvalues --    0.50966   0.51348   0.52385   0.53155   0.53854
 Alpha virt. eigenvalues --    0.54772   0.56476   0.56891   0.57655   0.57989
 Alpha virt. eigenvalues --    0.58285   0.58648   0.59726   0.60389   0.60870
 Alpha virt. eigenvalues --    0.61442   0.62330   0.63421   0.64033   0.64308
 Alpha virt. eigenvalues --    0.65051   0.65293   0.66416   0.67636   0.68331
 Alpha virt. eigenvalues --    0.68619   0.68722   0.69929   0.70261   0.70753
 Alpha virt. eigenvalues --    0.71573   0.72584   0.75665   0.78880   0.79714
 Alpha virt. eigenvalues --    0.80802   0.81595   0.82349   0.83220   0.83585
 Alpha virt. eigenvalues --    0.83915   0.84245   0.84424   0.84701   0.84954
 Alpha virt. eigenvalues --    0.85192   0.85570   0.85948   0.86485   0.86716
 Alpha virt. eigenvalues --    0.87299   0.88616   0.89032   0.89612   0.89956
 Alpha virt. eigenvalues --    0.90538   0.91586   0.92451   0.94362   0.94543
 Alpha virt. eigenvalues --    0.95008   0.95522   0.95599   0.96332   0.96601
 Alpha virt. eigenvalues --    0.97008   0.98104   0.98971   0.99490   1.00260
 Alpha virt. eigenvalues --    1.01334   1.01853   1.03612   1.04051   1.05129
 Alpha virt. eigenvalues --    1.06587   1.07901   1.09602   1.12072   1.17581
 Alpha virt. eigenvalues --    1.18650   1.19987   1.21230   1.22337   1.23012
 Alpha virt. eigenvalues --    1.24577   1.24691   1.26413   1.27108   1.29307
 Alpha virt. eigenvalues --    1.30196   1.31211   1.32027   1.33834   1.34936
 Alpha virt. eigenvalues --    1.36234   1.41335   1.42846   1.45772   1.48044
 Alpha virt. eigenvalues --    1.48761   1.49118   1.52235   1.55074   1.55547
 Alpha virt. eigenvalues --    1.56582   1.58076   1.60375   1.60692   1.62319
 Alpha virt. eigenvalues --    1.64657   1.66598   1.68650   1.69796   1.70533
 Alpha virt. eigenvalues --    1.72140   1.73568   1.75849   1.79954   1.81876
 Alpha virt. eigenvalues --    1.82118   1.84001   1.85239   1.85643   1.87712
 Alpha virt. eigenvalues --    1.92363   1.92900   1.93387   1.93825   1.94258
 Alpha virt. eigenvalues --    1.97357   1.97653   1.99219   2.00105   2.01750
 Alpha virt. eigenvalues --    2.04004   2.05506   2.08477   2.12867   2.13803
 Alpha virt. eigenvalues --    2.15671   2.19199   2.23402   2.24505   2.25724
 Alpha virt. eigenvalues --    2.26220   2.26571   2.27759   2.30619   2.31776
 Alpha virt. eigenvalues --    2.33150   2.35495   2.35660   2.38549   2.39587
 Alpha virt. eigenvalues --    2.40417   2.42722   2.43883   2.46559   2.48394
 Alpha virt. eigenvalues --    2.50721   2.51092   2.53538   2.54257   2.55012
 Alpha virt. eigenvalues --    2.56665   2.58986   2.62139   2.63279   2.67574
 Alpha virt. eigenvalues --    2.68382   2.68888   2.69945   2.70771   2.72264
 Alpha virt. eigenvalues --    2.73243   2.74780   2.75517   2.76007   2.77038
 Alpha virt. eigenvalues --    2.78052   2.81378   2.82817   2.83370   2.83952
 Alpha virt. eigenvalues --    2.86615   2.89577   2.97038   2.98132   3.08109
 Alpha virt. eigenvalues --    3.09769   3.10084   3.12278   3.12823   3.13770
 Alpha virt. eigenvalues --    3.19183   3.21663   3.25053   3.27934   3.32379
 Alpha virt. eigenvalues --    3.37199   3.41405   3.44091   3.54254   3.58344
 Alpha virt. eigenvalues --    3.63286   3.68783   3.79019   3.83481   3.84940
 Alpha virt. eigenvalues --    3.99840   4.04432   4.06240   4.12483   4.34289
 Alpha virt. eigenvalues --    4.80730   4.81541   9.77068   9.77694   9.80557
 Alpha virt. eigenvalues --    9.83453   9.85021  23.37819  23.54812  23.82297
 Alpha virt. eigenvalues --   23.86535  23.88712  23.92372  23.95492  23.98152
 Alpha virt. eigenvalues --   24.05254  24.07648  24.12251  24.14849  25.79509
 Alpha virt. eigenvalues --   25.82223  25.83975  25.93829  25.97423  26.10442
 Alpha virt. eigenvalues --   26.14341  26.21771  26.29482  26.33194  26.55762
 Alpha virt. eigenvalues --   26.58023  26.66177  26.72399  26.98614 215.76194
 Alpha virt. eigenvalues --  215.77002 215.80328 215.83886 215.85985
          Condensed to atoms (all electrons):
               1          2          3          4          5          6
     1  C   26.024852  -1.544009  -3.143616  -5.043966  -0.914119  -2.473693
     2  C   -1.544009  14.435893  -1.279813   0.094703   2.218978  -5.937553
     3  C   -3.143616  -1.279813  21.079160  -3.428404 -10.950683   0.370191
     4  C   -5.043966   0.094703  -3.428404  18.832652  -0.120420  -0.406056
     5  C   -0.914119   2.218978 -10.950683  -0.120420  23.950206  -4.517371
     6  C   -2.473693  -5.937553   0.370191  -0.406056  -4.517371  38.883371
     7  C    6.992803  -2.001211   1.283557  -1.790923  -1.640822  -3.150677
     8  C   -2.678922  -0.029415   0.755211  -0.631928  -0.733069  -6.467205
     9  C   -4.155153   0.487371   0.131383  -0.097856  -0.046074  -2.474156
    10  C   -0.963119   0.129568  -0.104942   0.031621   0.102590   0.196758
    11  C   -3.587959  -0.262252   0.428913  -0.178989  -0.290905  -2.741235
    12  C   -2.090693   0.223306   0.526066  -0.604496  -0.860357  -4.735092
    13  H   -0.023811   0.323420  -0.036846  -0.025708  -0.042189  -0.099563
    14  H    0.025764  -0.056718   0.285986   0.046742   0.067912  -0.017994
    15  H    0.073150  -0.030813   0.075753   0.022318   0.216673  -0.013737
    16  H    0.010185  -0.001945  -0.000411  -0.000009  -0.000042   0.001893
    17  H    0.007690  -0.001128  -0.000175   0.000035   0.000083   0.002091
    18  Cl   0.043620   0.088433   0.076775  -0.016450  -0.035888   0.161225
    19  Cl  -0.781190  -0.484308   0.417205  -0.343408  -0.559690   0.624844
    20  Cl  -0.166077   0.011672   0.010501  -0.002372  -0.004790  -0.108452
    21  Cl  -0.248122   0.198456   0.175323  -1.237446   0.507158  -0.077637
    22  Cl   0.594054  -0.063610   0.114443  -0.022835  -0.054079   0.201551
               7          8          9         10         11         12
     1  C    6.992803  -2.678922  -4.155153  -0.963119  -3.587959  -2.090693
     2  C   -2.001211  -0.029415   0.487371   0.129568  -0.262252   0.223306
     3  C    1.283557   0.755211   0.131383  -0.104942   0.428913   0.526066
     4  C   -1.790923  -0.631928  -0.097856   0.031621  -0.178989  -0.604496
     5  C   -1.640822  -0.733069  -0.046074   0.102590  -0.290905  -0.860357
     6  C   -3.150677  -6.467205  -2.474156   0.196758  -2.741235  -4.735092
     7  C   20.403382  -3.691710  -5.278961  -1.237816  -5.623273   2.264835
     8  C   -3.691710  22.497043  -2.866432  -0.711152   4.113326  -3.061180
     9  C   -5.278961  -2.866432  15.479190   3.176406  -0.692413   2.964802
    10  C   -1.237816  -0.711152   3.176406  14.001366  -2.388005  -5.916190
    11  C   -5.623273   4.113326  -0.692413  -2.388005  18.505651  -1.897758
    12  C    2.264835  -3.061180   2.964802  -5.916190  -1.897758  21.727820
    13  H    0.068650   0.076369   0.023728   0.001780   0.015173   0.080718
    14  H    0.003043   0.001793   0.000263   0.000089  -0.000444   0.001651
    15  H    0.014927   0.000587  -0.000216   0.000113  -0.000568   0.002073
    16  H    0.056324   0.052389   0.309589  -0.032825  -0.028975  -0.011979
    17  H    0.036492   0.011813  -0.089127   0.333708   0.000464   0.047680
    18  Cl  -0.129847  -0.680230   0.445552   0.570193  -0.367699  -1.435402
    19  Cl   0.056514   0.092723  -0.153292  -0.150404   0.098357   0.030084
    20  Cl  -0.646334   0.117744   0.126177  -0.345808  -0.373255   0.812207
    21  Cl  -0.045593  -0.037366  -0.004180  -0.001151   0.000891  -0.034378
    22  Cl  -0.070257  -0.007215  -0.958845  -0.113540   0.172305  -0.720464
              13         14         15         16         17         18
     1  C   -0.023811   0.025764   0.073150   0.010185   0.007690   0.043620
     2  C    0.323420  -0.056718  -0.030813  -0.001945  -0.001128   0.088433
     3  C   -0.036846   0.285986   0.075753  -0.000411  -0.000175   0.076775
     4  C   -0.025708   0.046742   0.022318  -0.000009   0.000035  -0.016450
     5  C   -0.042189   0.067912   0.216673  -0.000042   0.000083  -0.035888
     6  C   -0.099563  -0.017994  -0.013737   0.001893   0.002091   0.161225
     7  C    0.068650   0.003043   0.014927   0.056324   0.036492  -0.129847
     8  C    0.076369   0.001793   0.000587   0.052389   0.011813  -0.680230
     9  C    0.023728   0.000263  -0.000216   0.309589  -0.089127   0.445552
    10  C    0.001780   0.000089   0.000113  -0.032825   0.333708   0.570193
    11  C    0.015173  -0.000444  -0.000568  -0.028975   0.000464  -0.367699
    12  C    0.080718   0.001651   0.002073  -0.011979   0.047680  -1.435402
    13  H    0.532383  -0.007225   0.000050   0.000003  -0.000004  -0.010350
    14  H   -0.007225   0.508950  -0.000272   0.000000  -0.000000  -0.000575
    15  H    0.000050  -0.000272   0.493253   0.000000  -0.000000  -0.000804
    16  H    0.000003   0.000000   0.000000   0.504503  -0.007533   0.000594
    17  H   -0.000004  -0.000000  -0.000000  -0.007533   0.502227  -0.001321
    18  Cl  -0.010350  -0.000575  -0.000804   0.000594  -0.001321  17.961100
    19  Cl  -0.001831   0.000709  -0.006838  -0.000817  -0.000344   0.072329
    20  Cl   0.000614  -0.000002  -0.000005  -0.000237  -0.002098  -0.218334
    21  Cl  -0.000913  -0.012809  -0.013604  -0.000001   0.000000   0.006247
    22  Cl  -0.008727  -0.000621  -0.000735  -0.006968   0.000720  -0.077133
              19         20         21         22
     1  C   -0.781190  -0.166077  -0.248122   0.594054
     2  C   -0.484308   0.011672   0.198456  -0.063610
     3  C    0.417205   0.010501   0.175323   0.114443
     4  C   -0.343408  -0.002372  -1.237446  -0.022835
     5  C   -0.559690  -0.004790   0.507158  -0.054079
     6  C    0.624844  -0.108452  -0.077637   0.201551
     7  C    0.056514  -0.646334  -0.045593  -0.070257
     8  C    0.092723   0.117744  -0.037366  -0.007215
     9  C   -0.153292   0.126177  -0.004180  -0.958845
    10  C   -0.150404  -0.345808  -0.001151  -0.113540
    11  C    0.098357  -0.373255   0.000891   0.172305
    12  C    0.030084   0.812207  -0.034378  -0.720464
    13  H   -0.001831   0.000614  -0.000913  -0.008727
    14  H    0.000709  -0.000002  -0.012809  -0.000621
    15  H   -0.006838  -0.000005  -0.013604  -0.000735
    16  H   -0.000817  -0.000237  -0.000001  -0.006968
    17  H   -0.000344  -0.002098   0.000000   0.000720
    18  Cl   0.072329  -0.218334   0.006247  -0.077133
    19  Cl  17.698115  -0.000937  -0.023063   0.056487
    20  Cl  -0.000937  17.327004   0.000032  -0.011060
    21  Cl  -0.023063   0.000032  17.429809   0.006691
    22  Cl   0.056487  -0.011060   0.006691  17.562202
 Mulliken charges:
               1
     1  C    0.042332
     2  C   -0.519026
     3  C   -0.785574
     4  C    0.923197
     5  C   -0.293101
     6  C   -1.221502
     7  C    0.126899
     8  C   -0.123174
     9  C   -0.327757
    10  C   -0.579238
    11  C    1.098650
    12  C   -1.313251
    13  H    0.134279
    14  H    0.153757
    15  H    0.168695
    16  H    0.156264
    17  H    0.158728
    18  Cl   0.547965
    19  Cl   0.358757
    20  Cl   0.473809
    21  Cl   0.411655
    22  Cl   0.407635
 Sum of Mulliken charges =  -0.00000
 Mulliken charges with hydrogens summed into heavy atoms:
               1
     1  C    0.042332
     2  C   -0.384747
     3  C   -0.631818
     4  C    0.923197
     5  C   -0.124405
     6  C   -1.221502
     7  C    0.126899
     8  C   -0.123174
     9  C   -0.171493
    10  C   -0.420510
    11  C    1.098650
    12  C   -1.313251
    18  Cl   0.547965
    19  Cl   0.358757
    20  Cl   0.473809
    21  Cl   0.411655
    22  Cl   0.407635
 Electronic spatial extent (au):  <R**2>=           6620.4509
 Charge=              0.0000 electrons
 Dipole moment (field-independent basis, Debye):
    X=             -1.1284    Y=              1.2211    Z=             -1.2900  Tot=              2.1044
 Quadrupole moment (field-independent basis, Debye-Ang):
   XX=           -129.9381   YY=           -133.9344   ZZ=           -129.4837
   XY=             -6.8128   XZ=             -0.0358   YZ=             -0.3163
 Traceless Quadrupole moment (field-independent basis, Debye-Ang):
   XX=              1.1806   YY=             -2.8157   ZZ=              1.6350
   XY=             -6.8128   XZ=             -0.0358   YZ=             -0.3163
 Octapole moment (field-independent basis, Debye-Ang**2):
  XXX=            -46.7764  YYY=             -5.1272  ZZZ=             -1.5970  XYY=            -13.2691
  XXY=             25.9367  XXZ=              5.8101  XZZ=             15.3180  YZZ=             -5.8038
  YYZ=              4.0358  XYZ=              1.7478
 Hexadecapole moment (field-independent basis, Debye-Ang**3):
 XXXX=          -5999.7002 YYYY=          -1794.6593 ZZZZ=           -872.6083 XXXY=            -57.0022
 XXXZ=             28.8503 YYYX=             17.1593 YYYZ=             -2.3483 ZZZX=            -28.2340
 ZZZY=              9.0543 XXYY=          -1274.2220 XXZZ=          -1141.6354 YYZZ=           -476.8761
 XXYZ=             -7.9860 YYXZ=              4.0857 ZZXY=              4.7267
 N-N= 1.756356126860D+03 E-N=-1.004968179685D+04  KE= 2.754122423337D+03
 1\1\GINC-CN053\FOpt\RB3LYP\6-311+G(d,p)\C12H5Cl5\20CY91R06\22-Apr-2022
 \0\\# opt b3lyp/6-311+g(d,p) scf=xqc\\Title Card Required\\0,1\C,0.234
 4219942,-0.4129593974,0.0380245218\C,1.49687979,-0.4033467814,0.639116
 5446\C,2.2583854964,0.7564499813,0.7202467195\C,1.7445341512,1.9339375
 529,0.1870826073\C,0.4945971316,1.9671435976,-0.4188579024\C,-0.246340
 0223,0.7907649565,-0.486050067\C,-0.5482793837,-1.6807001784,-0.033908
 3788\C,-0.4139588717,-2.5581163785,-1.1162062581\C,-1.1255026302,-3.75
 0975625,-1.1868985355\C,-1.9943010956,-4.0901211554,-0.1604254307\C,-2
 .1527233583,-3.2432536274,0.9325289585\C,-1.433621385,-2.045173433,0.9
 962468608\H,1.8872715998,-1.3264358062,1.0512161588\H,3.2335747791,0.7
 47534631,1.1886786077\H,0.1015753099,2.8858871353,-0.8313246098\H,-0.9
 996522725,-4.4059478466,-2.0386426584\H,-2.555491475,-5.0145587333,-0.
 2010601282\Cl,-1.6298387784,-0.9775854811,2.361566053\Cl,-1.8219626097
 ,0.8512907256,-1.2537866357\Cl,-3.2560866982,-3.7141789384,2.200906737
 9\Cl,2.6875869934,3.4109250692,0.2772464902\Cl,0.6726525251,-2.1619911
 975,-2.4342216057\\Version=EM64L-G16RevB.01\State=1-A\HF=-2761.518413\
 RMSD=6.216e-09\RMSF=1.697e-05\Dipole=0.2637372,-0.7716519,-0.1429989\Q
 uadrupole=-0.7161076,3.5557556,-2.8396479,0.0095088,3.5591129,2.397805
 \PG=C01 [X(C12H5Cl5)]\\@


 THERE IS NO SUBJECT, HOWEVER COMPLEX,
 WHICH, IF STUDIED WITH PATIENCE AND INTELLIGIENCE
 WILL NOT BECOME
 MORE COMPLEX
                        QUOTED BY D. GORDON ROHMAN
 Job cpu time:       1 days 23 hours 27 minutes 59.2 seconds.
 Elapsed time:       0 days 23 hours 48 minutes 43.3 seconds.
 File lengths (MBytes):  RWF=    133 Int=      0 D2E=      0 Chk=     20 Scr=      1
 Normal termination of Gaussian 16 at Fri Apr 22 16:08:27 2022.
