 Entering Gaussian System, Link 0=g16
 Input=2,2prime,3,4,4prime,5,6prime-Heptachlorobiphenyl.gjf
 Output=2,2prime,3,4,4prime,5,6prime-Heptachlorobiphenyl.log
 Initial command:
 /home/apps/g16/l1.exe "./Gau-185224.inp" -scrdir="./"
 Entering Link 1 = /home/apps/g16/l1.exe PID=    185225.
  
 Copyright (c) 1988-2017, Gaussian, Inc.  All Rights Reserved.
  
 This is part of the Gaussian(R) 16 program.  It is based on
 the Gaussian(R) 09 system (copyright 2009, Gaussian, Inc.),
 the Gaussian(R) 03 system (copyright 2003, Gaussian, Inc.),
 the Gaussian(R) 98 system (copyright 1998, Gaussian, Inc.),
 the Gaussian(R) 94 system (copyright 1995, Gaussian, Inc.),
 the Gaussian 92(TM) system (copyright 1992, Gaussian, Inc.),
 the Gaussian 90(TM) system (copyright 1990, Gaussian, Inc.),
 the Gaussian 88(TM) system (copyright 1988, Gaussian, Inc.),
 the Gaussian 86(TM) system (copyright 1986, Carnegie Mellon
 University), and the Gaussian 82(TM) system (copyright 1983,
 Carnegie Mellon University). Gaussian is a federally registered
 trademark of Gaussian, Inc.
  
 This software contains proprietary and confidential information,
 including trade secrets, belonging to Gaussian, Inc.
  
 This software is provided under written license and may be
 used, copied, transmitted, or stored only in accord with that
 written license.
  
 The following legend is applicable only to US Government
 contracts under FAR:
  
                    RESTRICTED RIGHTS LEGEND
  
 Use, reproduction and disclosure by the US Government is
 subject to restrictions as set forth in subparagraphs (a)
 and (c) of the Commercial Computer Software - Restricted
 Rights clause in FAR 52.227-19.
  
 Gaussian, Inc.
 340 Quinnipiac St., Bldg. 40, Wallingford CT 06492
  
  
 ---------------------------------------------------------------
 Warning -- This program may not be used in any manner that
 competes with the business of Gaussian, Inc. or will provide
 assistance to any competitor of Gaussian, Inc.  The licensee
 of this program is prohibited from giving any competitor of
 Gaussian, Inc. access to this program.  By using this program,
 the user acknowledges that Gaussian, Inc. is engaged in the
 business of creating and licensing software in the field of
 computational chemistry and represents and warrants to the
 licensee that it is not a competitor of Gaussian, Inc. and that
 it will not use this program in any manner prohibited above.
 ---------------------------------------------------------------
  

 Cite this work as:
 Gaussian 16, Revision B.01,
 M. J. Frisch, G. W. Trucks, H. B. Schlegel, G. E. Scuseria, 
 M. A. Robb, J. R. Cheeseman, G. Scalmani, V. Barone, 
 G. A. Petersson, H. Nakatsuji, X. Li, M. Caricato, A. V. Marenich, 
 J. Bloino, B. G. Janesko, R. Gomperts, B. Mennucci, H. P. Hratchian, 
 J. V. Ortiz, A. F. Izmaylov, J. L. Sonnenberg, D. Williams-Young, 
 F. Ding, F. Lipparini, F. Egidi, J. Goings, B. Peng, A. Petrone, 
 T. Henderson, D. Ranasinghe, V. G. Zakrzewski, J. Gao, N. Rega, 
 G. Zheng, W. Liang, M. Hada, M. Ehara, K. Toyota, R. Fukuda, 
 J. Hasegawa, M. Ishida, T. Nakajima, Y. Honda, O. Kitao, H. Nakai, 
 T. Vreven, K. Throssell, J. A. Montgomery, Jr., J. E. Peralta, 
 F. Ogliaro, M. J. Bearpark, J. J. Heyd, E. N. Brothers, K. N. Kudin, 
 V. N. Staroverov, T. A. Keith, R. Kobayashi, J. Normand, 
 K. Raghavachari, A. P. Rendell, J. C. Burant, S. S. Iyengar, 
 J. Tomasi, M. Cossi, J. M. Millam, M. Klene, C. Adamo, R. Cammi, 
 J. W. Ochterski, R. L. Martin, K. Morokuma, O. Farkas, 
 J. B. Foresman, and D. J. Fox, Gaussian, Inc., Wallingford CT, 2016.
 
 ******************************************
 Gaussian 16:  EM64L-G16RevB.01 20-Dec-2017
                24-Apr-2022 
 ******************************************
 %mem=120GB
 %nprocshared=40
 Will use up to   40 processors via shared memory.
 --------------------------------
 # opt b3lyp/6-311+g(d,p) scf=xqc
 --------------------------------
 1/18=20,19=15,26=3,38=1/1,3;
 2/9=110,12=2,17=6,18=5,40=1/2;
 3/5=4,6=6,7=111,11=2,25=1,30=1,71=1,74=-5/1,2,3;
 4//1;
 5/5=2,8=3,13=1,38=5/2,8;
 6/7=2,8=2,9=2,10=2,28=1/1;
 7//1,2,3,16;
 1/18=20,19=15,26=3/3(2);
 2/9=110/2;
 99//99;
 2/9=110/2;
 3/5=4,6=6,7=111,11=2,25=1,30=1,71=1,74=-5/1,2,3;
 4/5=5,16=3,69=1/1;
 5/5=2,8=3,13=1,38=5/2,8;
 7//1,2,3,16;
 1/18=20,19=15,26=3/3(-5);
 2/9=110/2;
 6/7=2,8=2,9=2,10=2,19=2,28=1/1;
 99/9=1/99;
 -------------------
 Title Card Required
 -------------------
 Symbolic Z-matrix:
 Charge =  0 Multiplicity = 1
 C                     1.38911   0.62529  -0.00393 
 C                     2.7215    0.65518  -0.43727 
 C                     3.42939   1.86463  -0.44334 
 C                     2.8049    3.04419  -0.01607 
 C                     1.47252   3.01431   0.41728 
 C                     0.76463   1.80485   0.42335 
 C                     0.36076  -1.13167   0.0049 
 C                     0.98525  -2.31123  -0.42238 
 C                     0.27736  -3.52068  -0.4163 
 C                    -1.05502  -3.55057   0.01705 
 C                    -1.67951  -2.37101   0.44432 
 C                    -0.97162  -1.16155   0.43825 
 H                     4.44669   1.88744  -0.77421 
 H                     0.99571   3.91493   0.74351 
 H                     2.00255  -2.28841  -0.75325 
 Cl                   -1.7559    0.31984   0.97486 
 Cl                   -0.90869   1.76732   0.96758 
 Cl                   -3.35283  -2.40854   0.98856 
 Cl                   -1.94405  -5.06951   0.02468 
 Cl                    3.69394   4.56312  -0.0237 
 Cl                    1.06164  -5.00209  -0.95291 
 Cl                    3.50578  -0.82623  -0.97388 
 

 GradGradGradGradGradGradGradGradGradGradGradGradGradGradGradGradGradGrad
 Berny optimization.
 Initialization pass.
                           ----------------------------
                           !    Initial Parameters    !
                           ! (Angstroms and Degrees)  !
 --------------------------                            --------------------------
 ! Name  Definition              Value          Derivative Info.                !
 --------------------------------------------------------------------------------
 ! R1    R(1,2)                  1.4014         estimate D2E/DX2                !
 ! R2    R(1,6)                  1.4014         estimate D2E/DX2                !
 ! R3    R(2,3)                  1.4014         estimate D2E/DX2                !
 ! R4    R(2,22)                 1.76           estimate D2E/DX2                !
 ! R5    R(3,4)                  1.4014         estimate D2E/DX2                !
 ! R6    R(3,13)                 1.07           estimate D2E/DX2                !
 ! R7    R(4,5)                  1.4014         estimate D2E/DX2                !
 ! R8    R(4,20)                 1.76           estimate D2E/DX2                !
 ! R9    R(5,6)                  1.4014         estimate D2E/DX2                !
 ! R10   R(5,14)                 1.07           estimate D2E/DX2                !
 ! R11   R(6,17)                 1.76           estimate D2E/DX2                !
 ! R12   R(7,8)                  1.4014         estimate D2E/DX2                !
 ! R13   R(7,12)                 1.4014         estimate D2E/DX2                !
 ! R14   R(8,9)                  1.4014         estimate D2E/DX2                !
 ! R15   R(8,15)                 1.07           estimate D2E/DX2                !
 ! R16   R(9,10)                 1.4014         estimate D2E/DX2                !
 ! R17   R(9,21)                 1.76           estimate D2E/DX2                !
 ! R18   R(10,11)                1.4014         estimate D2E/DX2                !
 ! R19   R(10,19)                1.76           estimate D2E/DX2                !
 ! R20   R(11,12)                1.4014         estimate D2E/DX2                !
 ! R21   R(11,18)                1.76           estimate D2E/DX2                !
 ! R22   R(12,16)                1.76           estimate D2E/DX2                !
 ! R23   R(16,17)                1.6772         estimate D2E/DX2                !
 ! A1    A(2,1,6)              120.0            estimate D2E/DX2                !
 ! A2    A(1,2,3)              120.0            estimate D2E/DX2                !
 ! A3    A(1,2,22)             120.0            estimate D2E/DX2                !
 ! A4    A(3,2,22)             120.0            estimate D2E/DX2                !
 ! A5    A(2,3,4)              120.0            estimate D2E/DX2                !
 ! A6    A(2,3,13)             120.0            estimate D2E/DX2                !
 ! A7    A(4,3,13)             120.0            estimate D2E/DX2                !
 ! A8    A(3,4,5)              120.0            estimate D2E/DX2                !
 ! A9    A(3,4,20)             120.0            estimate D2E/DX2                !
 ! A10   A(5,4,20)             120.0            estimate D2E/DX2                !
 ! A11   A(4,5,6)              120.0            estimate D2E/DX2                !
 ! A12   A(4,5,14)             120.0            estimate D2E/DX2                !
 ! A13   A(6,5,14)             120.0            estimate D2E/DX2                !
 ! A14   A(1,6,5)              120.0            estimate D2E/DX2                !
 ! A15   A(1,6,17)             120.0            estimate D2E/DX2                !
 ! A16   A(5,6,17)             120.0            estimate D2E/DX2                !
 ! A17   A(8,7,12)             120.0            estimate D2E/DX2                !
 ! A18   A(7,8,9)              120.0            estimate D2E/DX2                !
 ! A19   A(7,8,15)             120.0            estimate D2E/DX2                !
 ! A20   A(9,8,15)             120.0            estimate D2E/DX2                !
 ! A21   A(8,9,10)             120.0            estimate D2E/DX2                !
 ! A22   A(8,9,21)             120.0            estimate D2E/DX2                !
 ! A23   A(10,9,21)            120.0            estimate D2E/DX2                !
 ! A24   A(9,10,11)            120.0            estimate D2E/DX2                !
 ! A25   A(9,10,19)            120.0            estimate D2E/DX2                !
 ! A26   A(11,10,19)           120.0            estimate D2E/DX2                !
 ! A27   A(10,11,12)           120.0            estimate D2E/DX2                !
 ! A28   A(10,11,18)           120.0            estimate D2E/DX2                !
 ! A29   A(12,11,18)           120.0            estimate D2E/DX2                !
 ! A30   A(7,12,11)            120.0            estimate D2E/DX2                !
 ! A31   A(7,12,16)            120.0            estimate D2E/DX2                !
 ! A32   A(11,12,16)           120.0            estimate D2E/DX2                !
 ! A33   A(12,16,17)           120.0            estimate D2E/DX2                !
 ! A34   A(6,17,16)            120.0            estimate D2E/DX2                !
 ! D1    D(6,1,2,3)              0.0001         estimate D2E/DX2                !
 ! D2    D(6,1,2,22)           180.0            estimate D2E/DX2                !
 ! D3    D(2,1,6,5)             -0.0001         estimate D2E/DX2                !
 ! D4    D(2,1,6,17)           180.0            estimate D2E/DX2                !
 ! D5    D(1,2,3,4)              0.0            estimate D2E/DX2                !
 ! D6    D(1,2,3,13)           180.0            estimate D2E/DX2                !
 ! D7    D(22,2,3,4)          -179.9999         estimate D2E/DX2                !
 ! D8    D(22,2,3,13)            0.0001         estimate D2E/DX2                !
 ! D9    D(2,3,4,5)             -0.0001         estimate D2E/DX2                !
 ! D10   D(2,3,4,20)           180.0            estimate D2E/DX2                !
 ! D11   D(13,3,4,5)           179.9999         estimate D2E/DX2                !
 ! D12   D(13,3,4,20)            0.0            estimate D2E/DX2                !
 ! D13   D(3,4,5,6)              0.0001         estimate D2E/DX2                !
 ! D14   D(3,4,5,14)          -179.9999         estimate D2E/DX2                !
 ! D15   D(20,4,5,6)          -180.0            estimate D2E/DX2                !
 ! D16   D(20,4,5,14)            0.0            estimate D2E/DX2                !
 ! D17   D(4,5,6,1)              0.0            estimate D2E/DX2                !
 ! D18   D(4,5,6,17)           179.9999         estimate D2E/DX2                !
 ! D19   D(14,5,6,1)           180.0            estimate D2E/DX2                !
 ! D20   D(14,5,6,17)           -0.0001         estimate D2E/DX2                !
 ! D21   D(1,6,17,16)            0.0004         estimate D2E/DX2                !
 ! D22   D(5,6,17,16)         -179.9996         estimate D2E/DX2                !
 ! D23   D(12,7,8,9)             0.0001         estimate D2E/DX2                !
 ! D24   D(12,7,8,15)         -179.9998         estimate D2E/DX2                !
 ! D25   D(8,7,12,11)           -0.0001         estimate D2E/DX2                !
 ! D26   D(8,7,12,16)          179.9999         estimate D2E/DX2                !
 ! D27   D(7,8,9,10)             0.0            estimate D2E/DX2                !
 ! D28   D(7,8,9,21)           180.0            estimate D2E/DX2                !
 ! D29   D(15,8,9,10)          179.9998         estimate D2E/DX2                !
 ! D30   D(15,8,9,21)           -0.0002         estimate D2E/DX2                !
 ! D31   D(8,9,10,11)            0.0            estimate D2E/DX2                !
 ! D32   D(8,9,10,19)         -179.9999         estimate D2E/DX2                !
 ! D33   D(21,9,10,11)         180.0            estimate D2E/DX2                !
 ! D34   D(21,9,10,19)           0.0001         estimate D2E/DX2                !
 ! D35   D(9,10,11,12)           0.0            estimate D2E/DX2                !
 ! D36   D(9,10,11,18)        -179.9998         estimate D2E/DX2                !
 ! D37   D(19,10,11,12)        179.9999         estimate D2E/DX2                !
 ! D38   D(19,10,11,18)          0.0001         estimate D2E/DX2                !
 ! D39   D(10,11,12,7)           0.0            estimate D2E/DX2                !
 ! D40   D(10,11,12,16)       -179.9999         estimate D2E/DX2                !
 ! D41   D(18,11,12,7)         179.9999         estimate D2E/DX2                !
 ! D42   D(18,11,12,16)         -0.0001         estimate D2E/DX2                !
 ! D43   D(7,12,16,17)           0.0004         estimate D2E/DX2                !
 ! D44   D(11,12,16,17)       -179.9997         estimate D2E/DX2                !
 ! D45   D(12,16,17,6)          -0.0006         estimate D2E/DX2                !
 --------------------------------------------------------------------------------
 Trust Radius=3.00D-01 FncErr=1.00D-07 GrdErr=1.00D-06 EigMax=2.50D+02 EigMin=1.00D-04
 Number of steps in this run=    112 maximum allowed number of steps=    132.
 GradGradGradGradGradGradGradGradGradGradGradGradGradGradGradGradGradGrad

                          Input orientation:                          
 ---------------------------------------------------------------------
 Center     Atomic      Atomic             Coordinates (Angstroms)
 Number     Number       Type             X           Y           Z
 ---------------------------------------------------------------------
      1          6           0        1.389114    0.625289   -0.003925
      2          6           0        2.721495    0.655175   -0.437272
      3          6           0        3.429389    1.864626   -0.443344
      4          6           0        2.804901    3.044191   -0.016069
      5          6           0        1.472520    3.014306    0.417275
      6          6           0        0.764626    1.804855    0.423348
      7          6           0        0.360764   -1.131668    0.004897
      8          6           0        0.985252   -2.311233   -0.422378
      9          6           0        0.277359   -3.520685   -0.416303
     10          6           0       -1.055021   -3.550571    0.017046
     11          6           0       -1.679509   -2.371006    0.444322
     12          6           0       -0.971616   -1.161555    0.438247
     13          1           0        4.446691    1.887445   -0.774214
     14          1           0        0.995709    3.914930    0.743507
     15          1           0        2.002554   -2.288415   -0.753248
     16         17           0       -1.755900    0.319845    0.974859
     17         17           0       -0.908694    1.767322    0.967581
     18         17           0       -3.352826   -2.408541    0.988564
     19         17           0       -1.944054   -5.069506    0.024678
     20         17           0        3.693936    4.563125   -0.023695
     21         17           0        1.061644   -5.002085   -0.952913
     22         17           0        3.505782   -0.826226   -0.973878
 ---------------------------------------------------------------------
                    Distance matrix (angstroms):
                    1          2          3          4          5
     1  C    0.000000
     2  C    1.401400   0.000000
     3  C    2.427296   1.401400   0.000000
     4  C    2.802800   2.427296   1.401400   0.000000
     5  C    2.427296   2.802800   2.427296   1.401400   0.000000
     6  C    1.401400   2.427296   2.802800   2.427296   1.401400
     7  C    2.035800   2.993555   4.312210   4.838600   4.312210
     8  C    2.993555   3.437200   4.838600   5.670695   5.413300
     9  C    4.312210   4.838600   6.240000   7.046010   6.695474
    10  C    4.838600   5.670695   7.046010   7.641400   7.046010
    11  C    4.312210   5.413300   6.695474   7.046010   6.240000
    12  C    2.993555   4.207863   5.413300   5.670695   4.838600
    13  H    3.396345   2.146700   1.070000   2.146700   3.396345
    14  H    3.396345   3.872800   3.396345   2.146700   1.070000
    15  H    3.070418   3.046546   4.402232   5.442783   5.456181
    16  Cl   3.307934   4.706764   5.593288   5.404157   4.241900
    17  Cl   2.743718   4.048303   4.562800   4.048303   2.743718
    18  Cl   5.716219   6.951025   8.143019   8.286084   7.281319
    19  Cl   6.598600   7.399508   8.784937   9.401400   8.784937
    20  Cl   4.562800   4.048303   2.743718   1.760000   2.743718
    21  Cl   5.716219   5.918242   7.281319   8.286084   8.143019
    22  Cl   2.743718   1.760000   2.743718   4.048303   4.562800
                    6          7          8          9         10
     6  C    0.000000
     7  C    2.993555   0.000000
     8  C    4.207863   1.401400   0.000000
     9  C    5.413300   2.427296   1.401400   0.000000
    10  C    5.670695   2.802800   2.427296   1.401400   0.000000
    11  C    4.838600   2.427296   2.802800   2.427296   1.401400
    12  C    3.437200   1.401400   2.427296   2.802800   2.427296
    13  H    3.872800   5.139733   5.452912   6.838077   7.776050
    14  H    2.146700   5.139733   6.334391   7.559733   7.776050
    15  H    4.435279   2.146700   1.070000   2.146700   3.396345
    16  Cl   2.976990   2.743718   4.048303   4.562800   4.048303
    17  Cl   1.760000   3.307934   4.706764   5.593288   5.404157
    18  Cl   5.918242   4.048303   4.562800   4.048303   2.743718
    19  Cl   7.399508   4.562800   4.048303   2.743718   1.760000
    20  Cl   4.048303   6.598600   7.399508   8.784937   9.401400
    21  Cl   6.951025   4.048303   2.743718   1.760000   2.743718
    22  Cl   4.048303   3.307934   2.976990   4.241900   5.404157
                   11         12         13         14         15
    11  C    0.000000
    12  C    1.401400   0.000000
    13  H    7.559733   6.334391   0.000000
    14  H    6.838077   5.452912   4.280590   0.000000
    15  H    3.872800   3.396345   4.838600   6.460302   0.000000
    16  Cl   2.743718   1.760000   6.632403   4.533157   4.890332
    17  Cl   4.241900   2.976990   5.632800   2.879094   5.280684
    18  Cl   1.760000   2.743718   9.077189   7.678288   5.632800
    19  Cl   2.743718   4.048303   9.480455   9.480455   4.890332
    20  Cl   8.784937   7.399508   2.879094   2.879094   7.094830
    21  Cl   4.048303   4.562800   7.678288   9.077189   2.879094
    22  Cl   5.593288   4.706764   2.879094   5.632800   2.108641
                   16         17         18         19         20
    16  Cl   0.000000
    17  Cl   1.677200   0.000000
    18  Cl   3.161400   4.838600   0.000000
    19  Cl   5.475705   6.978771   3.161400   0.000000
    20  Cl   6.978771   5.475705   9.964218  11.161400   0.000000
    21  Cl   6.322800   7.307216   5.475705   3.161400   9.964218
    22  Cl   5.726810   5.475705   7.307216   6.978771   5.475705
                   21         22
    21  Cl   0.000000
    22  Cl   4.838600   0.000000
 Stoichiometry    C12H3Cl7
 Framework group  C1[X(C12H3Cl7)]
 Deg. of freedom    60
 Full point group                 C1      NOp   1
 Largest Abelian subgroup         C1      NOp   1
 Largest concise Abelian subgroup C1      NOp   1
                         Standard orientation:                         
 ---------------------------------------------------------------------
 Center     Atomic      Atomic             Coordinates (Angstroms)
 Number     Number       Type             X           Y           Z
 ---------------------------------------------------------------------
      1          6           0        1.615489    0.217130    0.000002
      2          6           0        2.325004    1.425646    0.000000
      3          6           0        3.726367    1.415446   -0.000001
      4          6           0        4.418215    0.196730   -0.000001
      5          6           0        3.708700   -1.011786    0.000003
      6          6           0        2.307337   -1.001586    0.000004
      7          6           0       -0.420257    0.231947    0.000003
      8          6           0       -1.112105    1.450663    0.000003
      9          6           0       -2.513468    1.460863    0.000003
     10          6           0       -3.222983    0.252347    0.000001
     11          6           0       -2.531135   -0.966369    0.000000
     12          6           0       -1.129772   -0.976568    0.000001
     13          1           0        4.268097    2.338175   -0.000003
     14          1           0        4.236941   -1.942302    0.000005
     15          1           0       -0.570375    2.373392    0.000002
     16         17           0       -0.260889   -2.507138   -0.000002
     17         17           0        1.416267   -2.519345    0.000007
     18         17           0       -3.422205   -2.484128   -0.000006
     19         17           0       -4.982936    0.265157   -0.000002
     20         17           0        6.178168    0.183920   -0.000004
     21         17           0       -3.382351    2.991432    0.000003
     22         17           0        1.456121    2.956215   -0.000003
 ---------------------------------------------------------------------
 Rotational constants (GHZ):           0.3501383           0.1194361           0.0890575
 Standard basis: 6-311+G(d,p) (5D, 7F)
 There are   511 symmetry adapted cartesian basis functions of A   symmetry.
 There are   492 symmetry adapted basis functions of A   symmetry.
   492 basis functions,   827 primitive gaussians,   511 cartesian basis functions
    97 alpha electrons       97 beta electrons
       nuclear repulsion energy      2336.4951688979 Hartrees.
 NAtoms=   22 NActive=   22 NUniq=   22 SFac= 1.00D+00 NAtFMM=   60 NAOKFM=F Big=F
 Integral buffers will be    131072 words long.
 Raffenetti 2 integral format.
 Two-electron integral symmetry is turned on.
 One-electron integrals computed using PRISM.
 NBasis=   492 RedAO= T EigKep=  1.10D-06  NBF=   492
 NBsUse=   486 1.00D-06 EigRej=  7.08D-07 NBFU=   486
 ExpMin= 4.38D-02 ExpMax= 1.06D+05 ExpMxC= 3.62D+03 IAcc=3 IRadAn=         5 AccDes= 0.00D+00
 Harris functional with IExCor=  402 and IRadAn=       5 diagonalized for initial guess.
 HarFok:  IExCor=  402 AccDes= 0.00D+00 IRadAn=         5 IDoV= 1 UseB2=F ITyADJ=14
 ICtDFT=  3500011 ScaDFX=  1.000000  1.000000  1.000000  1.000000
 FoFCou: FMM=F IPFlag=           0 FMFlag=      100000 FMFlg1=           0
         NFxFlg=           0 DoJE=T BraDBF=F KetDBF=T FulRan=T
         wScrn=  0.000000 ICntrl=       500 IOpCl=  0 I1Cent=   200000004 NGrid=           0
         NMat0=    1 NMatS0=      1 NMatT0=    0 NMatD0=    1 NMtDS0=    0 NMtDT0=    0
 Petite list used in FoFCou.
 Requested convergence on RMS density matrix=1.00D-08 within  32 cycles.
 Requested convergence on MAX density matrix=1.00D-06.
 Requested convergence on             energy=1.00D-06.
 No special actions if energy rises.
 EnCoef did     3 forward-backward iterations
 EnCoef did     4 forward-backward iterations
 Restarting incremental Fock formation.
 SCF Done:  E(RB3LYP) =  -3680.18746037     A.U. after   29 cycles
            NFock= 29  Conv=0.19D-08     -V/T= 2.0021
 QCSCF skips out because SCF is already converged.

 **********************************************************************

            Population analysis using the SCF Density.

 **********************************************************************

 Orbital symmetries:
       Occupied  (A) (A) (A) (A) (A) (A) (A) (A) (A) (A) (A) (A)
                 (A) (A) (A) (A) (A) (A) (A) (A) (A) (A) (A) (A)
                 (A) (A) (A) (A) (A) (A) (A) (A) (A) (A) (A) (A)
                 (A) (A) (A) (A) (A) (A) (A) (A) (A) (A) (A) (A)
                 (A) (A) (A) (A) (A) (A) (A) (A) (A) (A) (A) (A)
                 (A) (A) (A) (A) (A) (A) (A) (A) (A) (A) (A) (A)
                 (A) (A) (A) (A) (A) (A) (A) (A) (A) (A) (A) (A)
                 (A) (A) (A) (A) (A) (A) (A) (A) (A) (A) (A) (A)
                 (A)
       Virtual   (A) (A) (A) (A) (A) (A) (A) (A) (A) (A) (A) (A)
                 (A) (A) (A) (A) (A) (A) (A) (A) (A) (A) (A) (A)
                 (A) (A) (A) (A) (A) (A) (A) (A) (A) (A) (A) (A)
                 (A) (A) (A) (A) (A) (A) (A) (A) (A) (A) (A) (A)
                 (A) (A) (A) (A) (A) (A) (A) (A) (A) (A) (A) (A)
                 (A) (A) (A) (A) (A) (A) (A) (A) (A) (A) (A) (A)
                 (A) (A) (A) (A) (A) (A) (A) (A) (A) (A) (A) (A)
                 (A) (A) (A) (A) (A) (A) (A) (A) (A) (A) (A) (A)
                 (A) (A) (A) (A) (A) (A) (A) (A) (A) (A) (A) (A)
                 (A) (A) (A) (A) (A) (A) (A) (A) (A) (A) (A) (A)
                 (A) (A) (A) (A) (A) (A) (A) (A) (A) (A) (A) (A)
                 (A) (A) (A) (A) (A) (A) (A) (A) (A) (A) (A) (A)
                 (A) (A) (A) (A) (A) (A) (A) (A) (A) (A) (A) (A)
                 (A) (A) (A) (A) (A) (A) (A) (A) (A) (A) (A) (A)
                 (A) (A) (A) (A) (A) (A) (A) (A) (A) (A) (A) (A)
                 (A) (A) (A) (A) (A) (A) (A) (A) (A) (A) (A) (A)
                 (A) (A) (A) (A) (A) (A) (A) (A) (A) (A) (A) (A)
                 (A) (A) (A) (A) (A) (A) (A) (A) (A) (A) (A) (A)
                 (A) (A) (A) (A) (A) (A) (A) (A) (A) (A) (A) (A)
                 (A) (A) (A) (A) (A) (A) (A) (A) (A) (A) (A) (A)
                 (A) (A) (A) (A) (A) (A) (A) (A) (A) (A) (A) (A)
                 (A) (A) (A) (A) (A) (A) (A) (A) (A) (A) (A) (A)
                 (A) (A) (A) (A) (A) (A) (A) (A) (A) (A) (A) (A)
                 (A) (A) (A) (A) (A) (A) (A) (A) (A) (A) (A) (A)
                 (A) (A) (A) (A) (A) (A) (A) (A) (A) (A) (A) (A)
                 (A) (A) (A) (A) (A) (A) (A) (A) (A) (A) (A) (A)
                 (A) (A) (A) (A) (A) (A) (A) (A) (A) (A) (A) (A)
                 (A) (A) (A) (A) (A) (A) (A) (A) (A) (A) (A) (A)
                 (A) (A) (A) (A) (A) (A) (A) (A) (A) (A) (A) (A)
                 (A) (A) (A) (A) (A) (A) (A) (A) (A) (A) (A) (A)
                 (A) (A) (A) (A) (A) (A) (A) (A) (A) (A) (A) (A)
                 (A) (A) (A) (A) (A) (A) (A) (A) (A) (A) (A) (A)
                 (A) (A) (A) (A) (A)
 The electronic state is 1-A.
 Alpha  occ. eigenvalues -- -101.64188-101.62498-101.58435-101.58246-101.56631
 Alpha  occ. eigenvalues -- -101.56364-101.56031 -10.29709 -10.28357 -10.28129
 Alpha  occ. eigenvalues --  -10.27141 -10.26617 -10.26523 -10.24845 -10.24737
 Alpha  occ. eigenvalues --  -10.24289 -10.23813 -10.23046 -10.20996  -9.56683
 Alpha  occ. eigenvalues --   -9.55190  -9.49847  -9.49774  -9.48061  -9.47874
 Alpha  occ. eigenvalues --   -9.47489  -7.33190  -7.32184  -7.31949  -7.31738
 Alpha  occ. eigenvalues --   -7.30492  -7.30076  -7.26337  -7.26241  -7.25318
 Alpha  occ. eigenvalues --   -7.25285  -7.25243  -7.25203  -7.24549  -7.24329
 Alpha  occ. eigenvalues --   -7.23973  -7.23545  -7.23484  -7.23362  -7.23304
 Alpha  occ. eigenvalues --   -7.22984  -7.22895  -1.12216  -0.94295  -0.93872
 Alpha  occ. eigenvalues --   -0.90348  -0.89878  -0.88351  -0.86323  -0.84599
 Alpha  occ. eigenvalues --   -0.83475  -0.78918  -0.77102  -0.75233  -0.74018
 Alpha  occ. eigenvalues --   -0.68141  -0.64435  -0.63163  -0.61247  -0.58674
 Alpha  occ. eigenvalues --   -0.55792  -0.53393  -0.52782  -0.52325  -0.51489
 Alpha  occ. eigenvalues --   -0.50288  -0.48719  -0.46972  -0.45849  -0.45210
 Alpha  occ. eigenvalues --   -0.44720  -0.44156  -0.43497  -0.42287  -0.40990
 Alpha  occ. eigenvalues --   -0.39286  -0.38688  -0.37110  -0.36139  -0.35625
 Alpha  occ. eigenvalues --   -0.34868  -0.34434  -0.33815  -0.33488  -0.32711
 Alpha  occ. eigenvalues --   -0.32702  -0.30687  -0.29070  -0.28506  -0.26495
 Alpha  occ. eigenvalues --   -0.25610  -0.13360
 Alpha virt. eigenvalues --   -0.09777  -0.07472  -0.06752  -0.06204  -0.04782
 Alpha virt. eigenvalues --   -0.03276  -0.02416  -0.01755  -0.01114   0.00152
 Alpha virt. eigenvalues --    0.00974   0.01061   0.01614   0.02582   0.02903
 Alpha virt. eigenvalues --    0.02931   0.03739   0.04357   0.05055   0.05356
 Alpha virt. eigenvalues --    0.05453   0.05705   0.06108   0.07013   0.07448
 Alpha virt. eigenvalues --    0.07484   0.07891   0.07998   0.08487   0.08902
 Alpha virt. eigenvalues --    0.08996   0.09052   0.09772   0.10060   0.10225
 Alpha virt. eigenvalues --    0.10375   0.11115   0.11789   0.12025   0.12404
 Alpha virt. eigenvalues --    0.12557   0.12625   0.13066   0.13408   0.14051
 Alpha virt. eigenvalues --    0.14363   0.14500   0.14893   0.14981   0.15085
 Alpha virt. eigenvalues --    0.15805   0.16454   0.17019   0.17213   0.17571
 Alpha virt. eigenvalues --    0.17969   0.18087   0.18468   0.19042   0.20094
 Alpha virt. eigenvalues --    0.20178   0.20284   0.20533   0.20570   0.21045
 Alpha virt. eigenvalues --    0.22240   0.22257   0.22637   0.22952   0.23232
 Alpha virt. eigenvalues --    0.23519   0.24413   0.24420   0.24703   0.25106
 Alpha virt. eigenvalues --    0.25755   0.26181   0.26446   0.26893   0.27456
 Alpha virt. eigenvalues --    0.27887   0.28119   0.28586   0.29146   0.29834
 Alpha virt. eigenvalues --    0.30586   0.31026   0.31458   0.32536   0.33039
 Alpha virt. eigenvalues --    0.33422   0.34159   0.34331   0.35883   0.38355
 Alpha virt. eigenvalues --    0.39327   0.39974   0.40287   0.41430   0.42097
 Alpha virt. eigenvalues --    0.42499   0.43033   0.43163   0.43311   0.44240
 Alpha virt. eigenvalues --    0.44721   0.45443   0.45515   0.45922   0.46613
 Alpha virt. eigenvalues --    0.47061   0.47839   0.47978   0.48503   0.48893
 Alpha virt. eigenvalues --    0.49927   0.49973   0.50482   0.50873   0.52117
 Alpha virt. eigenvalues --    0.52197   0.52989   0.53967   0.55584   0.56249
 Alpha virt. eigenvalues --    0.56385   0.56815   0.57913   0.58428   0.58840
 Alpha virt. eigenvalues --    0.58990   0.59476   0.60667   0.60675   0.61313
 Alpha virt. eigenvalues --    0.61695   0.63075   0.63392   0.63599   0.64564
 Alpha virt. eigenvalues --    0.65911   0.66324   0.66784   0.67470   0.69290
 Alpha virt. eigenvalues --    0.69500   0.72747   0.74891   0.75189   0.77350
 Alpha virt. eigenvalues --    0.78057   0.81033   0.81154   0.81893   0.81974
 Alpha virt. eigenvalues --    0.82620   0.82898   0.83120   0.83456   0.83708
 Alpha virt. eigenvalues --    0.83894   0.84251   0.84891   0.85084   0.85329
 Alpha virt. eigenvalues --    0.85536   0.86456   0.86581   0.86803   0.87840
 Alpha virt. eigenvalues --    0.88177   0.88436   0.88704   0.89064   0.89863
 Alpha virt. eigenvalues --    0.91269   0.91720   0.93018   0.93122   0.93329
 Alpha virt. eigenvalues --    0.93654   0.94948   0.95046   0.95600   0.95840
 Alpha virt. eigenvalues --    0.96645   0.97301   0.97801   0.98070   0.98239
 Alpha virt. eigenvalues --    0.99218   1.00381   1.01345   1.03875   1.04182
 Alpha virt. eigenvalues --    1.04384   1.06462   1.07079   1.07169   1.08367
 Alpha virt. eigenvalues --    1.12233   1.15398   1.16029   1.16571   1.19024
 Alpha virt. eigenvalues --    1.19927   1.20763   1.20955   1.22368   1.23457
 Alpha virt. eigenvalues --    1.24250   1.24402   1.25936   1.26428   1.27025
 Alpha virt. eigenvalues --    1.27821   1.28231   1.29360   1.29569   1.30670
 Alpha virt. eigenvalues --    1.31221   1.33648   1.34513   1.44153   1.46115
 Alpha virt. eigenvalues --    1.48132   1.48736   1.50152   1.50732   1.54342
 Alpha virt. eigenvalues --    1.55005   1.58101   1.58925   1.58952   1.60925
 Alpha virt. eigenvalues --    1.62167   1.65646   1.67258   1.69690   1.71989
 Alpha virt. eigenvalues --    1.75012   1.75277   1.79132   1.81075   1.81550
 Alpha virt. eigenvalues --    1.82874   1.84445   1.84864   1.85366   1.85821
 Alpha virt. eigenvalues --    1.87159   1.88013   1.88163   1.91437   1.93786
 Alpha virt. eigenvalues --    1.93801   1.98045   2.00730   2.04891   2.05177
 Alpha virt. eigenvalues --    2.05964   2.07795   2.09721   2.16655   2.17023
 Alpha virt. eigenvalues --    2.19360   2.20872   2.23391   2.24579   2.24579
 Alpha virt. eigenvalues --    2.25127   2.25253   2.26103   2.26540   2.27989
 Alpha virt. eigenvalues --    2.28215   2.29200   2.31242   2.32239   2.33944
 Alpha virt. eigenvalues --    2.37447   2.38746   2.41373   2.42220   2.43279
 Alpha virt. eigenvalues --    2.44188   2.45088   2.50846   2.51312   2.53273
 Alpha virt. eigenvalues --    2.53430   2.56022   2.56832   2.58265   2.59064
 Alpha virt. eigenvalues --    2.60506   2.60973   2.61638   2.62799   2.67348
 Alpha virt. eigenvalues --    2.68879   2.70449   2.72674   2.73217   2.73627
 Alpha virt. eigenvalues --    2.74209   2.75730   2.76616   2.77297   2.81064
 Alpha virt. eigenvalues --    2.82647   2.85412   2.86608   2.86703   2.88095
 Alpha virt. eigenvalues --    3.03404   3.07053   3.08630   3.09268   3.10012
 Alpha virt. eigenvalues --    3.14629   3.15033   3.18766   3.20707   3.21952
 Alpha virt. eigenvalues --    3.27725   3.31666   3.33185   3.38719   3.42165
 Alpha virt. eigenvalues --    3.52805   3.61736   3.67160   3.71112   3.74953
 Alpha virt. eigenvalues --    3.78725   3.89275   4.01739   4.07239   4.08397
 Alpha virt. eigenvalues --    4.78071   4.81821   9.67867   9.75357   9.75759
 Alpha virt. eigenvalues --    9.79771   9.81593   9.83537   9.96812  23.30694
 Alpha virt. eigenvalues --   23.35634  23.79710  23.80272  23.82735  23.83799
 Alpha virt. eigenvalues --   23.94266  23.96295  23.97402  23.99424  24.05107
 Alpha virt. eigenvalues --   24.06779  25.74223  25.77641  25.80158  25.81492
 Alpha virt. eigenvalues --   25.82918  25.88445  25.97449  26.07861  26.11023
 Alpha virt. eigenvalues --   26.12174  26.16862  26.25472  26.34768  26.49193
 Alpha virt. eigenvalues --   26.57120  26.59996  26.68724  26.74746  26.93162
 Alpha virt. eigenvalues --   26.97856  27.01764 215.68512 215.74469 215.75896
 Alpha virt. eigenvalues --  215.79621 215.81644 215.84106 216.02810
          Condensed to atoms (all electrons):
               1          2          3          4          5          6
     1  C   43.703624   1.152450  -9.172935   2.316411  -6.132809 -13.360884
     2  C    1.152450  17.178405  -2.347087  -4.303749   0.940088  -3.844796
     3  C   -9.172935  -2.347087  26.434096  -1.731648 -10.420348   4.507271
     4  C    2.316411  -4.303749  -1.731648  22.873399  -3.414263  -6.122118
     5  C   -6.132809   0.940088 -10.420348  -3.414263  25.977023  -0.872259
     6  C  -13.360884  -3.844796   4.507271  -6.122118  -0.872259  29.341020
     7  C    6.131697  -2.489184  -3.150026   0.310800  -2.933602  -1.359193
     8  C    2.679964   1.304266  -0.695327   0.120880   0.240010  -4.508388
     9  C   -1.635021  -0.117485   0.592433   0.051898  -0.363668  -0.757730
    10  C    0.629422   0.984013   0.240019  -0.054292   0.143294  -0.160862
    11  C   -3.350817   0.391280  -0.250717  -0.122663   0.095514   0.644546
    12  C  -10.936475  -1.336823   0.775862  -0.814953   0.729324   1.868390
    13  H    0.028681  -0.005538   0.253630  -0.039322   0.053504   0.046704
    14  H   -0.104747  -0.009866   0.072737  -0.041747   0.321922  -0.017092
    15  H    0.009553   0.014614   0.026975   0.018713  -0.009109  -0.023199
    16  Cl   8.471717   0.442345  -1.374950   2.076477  -3.688758   5.812440
    17  Cl -11.829085  -0.496898   2.027779  -3.933569   4.981220  -5.132633
    18  Cl  -0.064344  -0.054326  -0.006002  -0.006963  -0.006596  -0.060479
    19  Cl  -0.098166   0.006355  -0.002042   0.000418  -0.002562  -0.005110
    20  Cl  -0.192101  -0.111789   0.437456  -1.616269   0.575773   0.075606
    21  Cl  -0.158495  -0.013773   0.000472  -0.000641  -0.009916  -0.043854
    22  Cl  -0.759441  -0.866140   0.210521  -0.429098   0.247144   0.781349
               7          8          9         10         11         12
     1  C    6.131697   2.679964  -1.635021   0.629422  -3.350817 -10.936475
     2  C   -2.489184   1.304266  -0.117485   0.984013   0.391280  -1.336823
     3  C   -3.150026  -0.695327   0.592433   0.240019  -0.250717   0.775862
     4  C    0.310800   0.120880   0.051898  -0.054292  -0.122663  -0.814953
     5  C   -2.933602   0.240010  -0.363668   0.143294   0.095514   0.729324
     6  C   -1.359193  -4.508388  -0.757730  -0.160862   0.644546   1.868390
     7  C   27.806720  -4.212820  -4.451685   6.782161  -6.280884  -2.955468
     8  C   -4.212820  15.811912   0.430669  -5.839276   4.440874  -3.194507
     9  C   -4.451685   0.430669  18.002853  -4.190583  -3.763856   3.390300
    10  C    6.782161  -5.839276  -4.190583  26.632686  -7.540132  -7.547117
    11  C   -6.280884   4.440874  -3.763856  -7.540132  21.369587  -2.896825
    12  C   -2.955468  -3.194507   3.390300  -7.547117  -2.896825  39.238059
    13  H   -0.000558   0.003236  -0.000465  -0.000014   0.000410  -0.000279
    14  H    0.006561  -0.003275   0.000256   0.000005  -0.000096   0.026165
    15  H    0.029401   0.255372  -0.118174   0.025680  -0.028185   0.104896
    16  Cl  -6.648720   0.802745  -1.015047  -4.038490   5.914298 -28.489806
    17  Cl   1.071174  -0.407607   0.529089   1.370954  -1.977464  17.765456
    18  Cl  -0.346544   0.357444  -0.028709  -0.354568  -0.806385   1.237393
    19  Cl  -0.176606  -0.334745  -0.398894  -0.434324   0.565298  -0.296038
    20  Cl  -0.061629  -0.005324   0.001013  -0.000520  -0.000930  -0.005460
    21  Cl  -1.021818   0.420146   0.246158  -0.459542  -0.168981   0.450241
    22  Cl   0.608507  -0.556325  -0.646480  -0.034684   0.221468   0.068827
              13         14         15         16         17         18
     1  C    0.028681  -0.104747   0.009553   8.471717 -11.829085  -0.064344
     2  C   -0.005538  -0.009866   0.014614   0.442345  -0.496898  -0.054326
     3  C    0.253630   0.072737   0.026975  -1.374950   2.027779  -0.006002
     4  C   -0.039322  -0.041747   0.018713   2.076477  -3.933569  -0.006963
     5  C    0.053504   0.321922  -0.009109  -3.688758   4.981220  -0.006596
     6  C    0.046704  -0.017092  -0.023199   5.812440  -5.132633  -0.060479
     7  C   -0.000558   0.006561   0.029401  -6.648720   1.071174  -0.346544
     8  C    0.003236  -0.003275   0.255372   0.802745  -0.407607   0.357444
     9  C   -0.000465   0.000256  -0.118174  -1.015047   0.529089  -0.028709
    10  C   -0.000014   0.000005   0.025680  -4.038490   1.370954  -0.354568
    11  C    0.000410  -0.000096  -0.028185   5.914298  -1.977464  -0.806385
    12  C   -0.000279   0.026165   0.104896 -28.489806  17.765456   1.237393
    13  H    0.496743  -0.000082  -0.000040  -0.003887   0.012027   0.000002
    14  H   -0.000082   0.502693  -0.000002  -0.062168   0.134692   0.000037
    15  H   -0.000040  -0.000002   0.586137   0.065009  -0.033345  -0.000068
    16  Cl  -0.003887  -0.062168   0.065009  85.726787 -47.051428  -1.318691
    17  Cl   0.012027   0.134692  -0.033345 -47.051428  58.340509   0.075946
    18  Cl   0.000002   0.000037  -0.000068  -1.318691   0.075946  18.192682
    19  Cl  -0.000001  -0.000002   0.004044   0.415785  -0.084653  -0.407347
    20  Cl  -0.008690  -0.003621   0.000044  -0.034706   0.066136  -0.000013
    21  Cl  -0.000003   0.000000  -0.020225  -0.013850   0.010291   0.011325
    22  Cl  -0.005095   0.001497  -0.053647  -0.228141   0.213659   0.004297
              19         20         21         22
     1  C   -0.098166  -0.192101  -0.158495  -0.759441
     2  C    0.006355  -0.111789  -0.013773  -0.866140
     3  C   -0.002042   0.437456   0.000472   0.210521
     4  C    0.000418  -1.616269  -0.000641  -0.429098
     5  C   -0.002562   0.575773  -0.009916   0.247144
     6  C   -0.005110   0.075606  -0.043854   0.781349
     7  C   -0.176606  -0.061629  -1.021818   0.608507
     8  C   -0.334745  -0.005324   0.420146  -0.556325
     9  C   -0.398894   0.001013   0.246158  -0.646480
    10  C   -0.434324  -0.000520  -0.459542  -0.034684
    11  C    0.565298  -0.000930  -0.168981   0.221468
    12  C   -0.296038  -0.005460   0.450241   0.068827
    13  H   -0.000001  -0.008690  -0.000003  -0.005095
    14  H   -0.000002  -0.003621   0.000000   0.001497
    15  H    0.004044   0.000044  -0.020225  -0.053647
    16  Cl   0.415785  -0.034706  -0.013850  -0.228141
    17  Cl  -0.084653   0.066136   0.010291   0.213659
    18  Cl  -0.407347  -0.000013   0.011325   0.004297
    19  Cl  17.829148  -0.000009  -0.230419  -0.003106
    20  Cl  -0.000009  17.450035  -0.000003  -0.007318
    21  Cl  -0.230419  -0.000003  17.517461  -0.036410
    22  Cl  -0.003106  -0.007318  -0.036410  17.661669
 Mulliken charges:
               1
     1  C   -1.328200
     2  C   -0.416362
     3  C   -0.428167
     4  C    0.862298
     5  C   -0.450925
     6  C   -0.808730
     7  C   -0.658284
     8  C   -1.109923
     9  C    0.243126
    10  C   -0.153830
    11  C   -0.455340
    12  C   -1.181163
    13  H    0.169038
    14  H    0.176131
    15  H    0.145556
    16  Cl   1.241042
    17  Cl   1.347750
    18  Cl   0.581909
    19  Cl   0.652975
    20  Cl   0.442320
    21  Cl   0.521834
    22  Cl   0.606945
 Sum of Mulliken charges =  -0.00000
 Mulliken charges with hydrogens summed into heavy atoms:
               1
     1  C   -1.328200
     2  C   -0.416362
     3  C   -0.259129
     4  C    0.862298
     5  C   -0.274794
     6  C   -0.808730
     7  C   -0.658284
     8  C   -0.964367
     9  C    0.243126
    10  C   -0.153830
    11  C   -0.455340
    12  C   -1.181163
    16  Cl   1.241042
    17  Cl   1.347750
    18  Cl   0.581909
    19  Cl   0.652975
    20  Cl   0.442320
    21  Cl   0.521834
    22  Cl   0.606945
 Electronic spatial extent (au):  <R**2>=          10362.4534
 Charge=             -0.0000 electrons
 Dipole moment (field-independent basis, Debye):
    X=              4.1000    Y=             -1.4742    Z=              0.0000  Tot=              4.3570
 Quadrupole moment (field-independent basis, Debye-Ang):
   XX=           -169.7492   YY=           -152.6806   ZZ=           -159.1091
   XY=             -0.4245   XZ=             -0.0000   YZ=             -0.0000
 Traceless Quadrupole moment (field-independent basis, Debye-Ang):
   XX=             -9.2363   YY=              7.8324   ZZ=              1.4039
   XY=             -0.4245   XZ=             -0.0000   YZ=             -0.0000
 Octapole moment (field-independent basis, Debye-Ang**2):
  XXX=             31.0767  YYY=            -17.8756  ZZZ=             -0.0001  XYY=             14.3757
  XXY=              4.2037  XXZ=             -0.0000  XZZ=             -7.1145  YZZ=             -6.3491
  YYZ=             -0.0001  XYZ=              0.0001
 Hexadecapole moment (field-independent basis, Debye-Ang**3):
 XXXX=         -10229.8119 YYYY=          -3328.7613 ZZZZ=           -185.9647 XXXY=             22.2305
 XXXZ=              0.0000 YYYX=             -1.7090 YYYZ=             -0.0000 ZZZX=             -0.0000
 ZZZY=             -0.0000 XXYY=          -2231.2712 XXZZ=          -1748.7376 YYZZ=           -609.9251
 XXYZ=              0.0000 YYXZ=             -0.0002 ZZXY=             -2.0840
 N-N= 2.336495168898D+03 E-N=-1.339339535528D+04  KE= 3.672505469524D+03
 Calling FoFJK, ICntrl=      2127 FMM=F ISym2X=0 I1Cent= 0 IOpClX= 0 NMat=1 NMatS=1 NMatT=0.
 ***** Axes restored to original set *****
 -------------------------------------------------------------------
 Center     Atomic                   Forces (Hartrees/Bohr)
 Number     Number              X              Y              Z
 -------------------------------------------------------------------
      1        6          -0.024689232   -0.035587174    0.001450659
      2        6          -0.016835243    0.014800174    0.008326087
      3        6          -0.005375571   -0.000803518    0.001620173
      4        6          -0.005048575   -0.015639152   -0.001274105
      5        6          -0.005557359    0.001629208    0.002137034
      6        6           0.046362905   -0.013151136   -0.017744195
      7        6          -0.011558410    0.020052670    0.007573924
      8        6          -0.014967706    0.002224597    0.005349120
      9        6          -0.003272712    0.007169824    0.002424774
     10        6          -0.006883792   -0.003474518    0.001615338
     11        6           0.023362028    0.009357615   -0.005939415
     12        6           0.021177219   -0.114801711   -0.028537630
     13        1           0.008627687    0.000343587   -0.002777857
     14        1          -0.001029406    0.007616894    0.001769692
     15        1          -0.003273912   -0.007000480   -0.000236292
     16       17          -0.242894858   -0.400897830    0.004734516
     17       17           0.231293168    0.513109130    0.020161681
     18       17          -0.007364168   -0.003421320    0.001783600
     19       17           0.001224927   -0.000844583   -0.000562182
     20       17          -0.003287666   -0.004772152    0.000186859
     21       17           0.001147519    0.006304863    0.000806027
     22       17           0.018843158    0.017785011   -0.002867808
 -------------------------------------------------------------------
 Cartesian Forces:  Max     0.513109130 RMS     0.092070057

 GradGradGradGradGradGradGradGradGradGradGradGradGradGradGradGradGradGrad
 Berny optimization.
 FormGI is forming the generalized inverse of G from B-inverse, IUseBI=4.
 Internal  Forces:  Max     0.541708587 RMS     0.056415772
 Search for a local minimum.
 Step number   1 out of a maximum of  112
 All quantities printed in internal units (Hartrees-Bohrs-Radians)
 Mixed Optimization -- RFO/linear search
 Second derivative matrix not updated -- first step.
 ITU=  0
     Eigenvalues ---    0.00238   0.00238   0.01655   0.01655   0.02070
     Eigenvalues ---    0.02070   0.02070   0.02070   0.02070   0.02070
     Eigenvalues ---    0.02070   0.02070   0.02070   0.02070   0.02070
     Eigenvalues ---    0.02070   0.02070   0.02070   0.04244   0.16000
     Eigenvalues ---    0.16000   0.16000   0.23353   0.23478   0.23493
     Eigenvalues ---    0.25000   0.25000   0.25000   0.25000   0.25000
     Eigenvalues ---    0.25000   0.25000   0.25000   0.25000   0.25000
     Eigenvalues ---    0.25000   0.25000   0.29539   0.29539   0.29539
     Eigenvalues ---    0.29539   0.29539   0.29539   0.29539   0.37230
     Eigenvalues ---    0.37230   0.37230   0.41554   0.41671   0.42118
     Eigenvalues ---    0.42184   0.45389   0.45389   0.45389   0.45389
     Eigenvalues ---    0.45389   0.45389   0.45389   0.45389   1.29765
 RFO step:  Lambda=-2.49444580D-01 EMin= 2.37799127D-03
 Linear search not attempted -- first point.
 Maximum step size (   0.300) exceeded in Quadratic search.
    -- Step size scaled by   0.615
 Iteration  1 RMS(Cart)=  0.23168138 RMS(Int)=  0.00443881
 Iteration  2 RMS(Cart)=  0.00742337 RMS(Int)=  0.00004839
 Iteration  3 RMS(Cart)=  0.00002546 RMS(Int)=  0.00004809
 Iteration  4 RMS(Cart)=  0.00000000 RMS(Int)=  0.00004809
 Variable       Old X    -DE/DX   Delta X   Delta X   Delta X     New X
                                 (Linear)    (Quad)   (Total)
    R1        2.64826   0.01810   0.00000   0.01662   0.01671   2.66498
    R2        2.64826   0.01657   0.00000   0.01536   0.01546   2.66372
    R3        2.64826  -0.00907   0.00000  -0.00801  -0.00801   2.64025
    R4        3.32592  -0.00570   0.00000  -0.00643  -0.00643   3.31949
    R5        2.64826  -0.02407   0.00000  -0.02192  -0.02201   2.62625
    R6        2.02201   0.00907   0.00000   0.00897   0.00897   2.03098
    R7        2.64826  -0.02177   0.00000  -0.01983  -0.01992   2.62834
    R8        3.32592  -0.00578   0.00000  -0.00652  -0.00652   3.31939
    R9        2.64826  -0.00686   0.00000  -0.00592  -0.00592   2.64234
   R10        2.02201   0.00741   0.00000   0.00733   0.00733   2.02933
   R11        3.32592   0.01366   0.00000   0.01542   0.01542   3.34134
   R12        2.64826  -0.00805   0.00000  -0.00718  -0.00719   2.64107
   R13        2.64826  -0.02516   0.00000  -0.02219  -0.02217   2.62609
   R14        2.64826  -0.00916   0.00000  -0.00796  -0.00798   2.64029
   R15        2.02201  -0.00319   0.00000  -0.00315  -0.00315   2.01885
   R16        2.64826  -0.00951   0.00000  -0.00812  -0.00813   2.64013
   R17        3.32592  -0.00504   0.00000  -0.00569  -0.00569   3.32023
   R18        2.64826  -0.01010   0.00000  -0.00868  -0.00868   2.63958
   R19        3.32592   0.00011   0.00000   0.00012   0.00012   3.32604
   R20        2.64826  -0.00801   0.00000  -0.00705  -0.00704   2.64122
   R21        3.32592   0.00763   0.00000   0.00861   0.00861   3.33452
   R22        3.32592   0.07568   0.00000   0.08541   0.08541   3.41133
   R23        3.16945   0.54171   0.00000   0.21531   0.21531   3.38476
    A1        2.09440  -0.04640   0.00000  -0.05380  -0.05353   2.04086
    A2        2.09440   0.01967   0.00000   0.02506   0.02514   2.11954
    A3        2.09440   0.03247   0.00000   0.03955   0.03951   2.13391
    A4        2.09440  -0.05214   0.00000  -0.06461  -0.06465   2.02974
    A5        2.09440   0.00369   0.00000   0.00318   0.00307   2.09746
    A6        2.09440  -0.00169   0.00000  -0.00136  -0.00130   2.09309
    A7        2.09440  -0.00200   0.00000  -0.00182  -0.00176   2.09263
    A8        2.09440   0.00080   0.00000  -0.00159  -0.00179   2.09260
    A9        2.09440   0.00036   0.00000   0.00173   0.00183   2.09623
   A10        2.09440  -0.00116   0.00000  -0.00014  -0.00004   2.09436
   A11        2.09440  -0.00176   0.00000  -0.00359  -0.00370   2.09069
   A12        2.09440  -0.00185   0.00000  -0.00231  -0.00225   2.09214
   A13        2.09440   0.00362   0.00000   0.00590   0.00596   2.10035
   A14        2.09440   0.02400   0.00000   0.03074   0.03082   2.12522
   A15        2.09440   0.02495   0.00000   0.03012   0.03008   2.12447
   A16        2.09440  -0.04895   0.00000  -0.06086  -0.06090   2.03349
   A17        2.09440  -0.01836   0.00000  -0.02344  -0.02343   2.07096
   A18        2.09440   0.00927   0.00000   0.01192   0.01190   2.10630
   A19        2.09440   0.00249   0.00000   0.00473   0.00474   2.09914
   A20        2.09440  -0.01176   0.00000  -0.01666  -0.01664   2.07775
   A21        2.09440   0.00507   0.00000   0.00651   0.00648   2.10088
   A22        2.09440  -0.00925   0.00000  -0.01152  -0.01151   2.08289
   A23        2.09440   0.00418   0.00000   0.00501   0.00503   2.09942
   A24        2.09440  -0.01367   0.00000  -0.01642  -0.01643   2.07796
   A25        2.09440   0.00420   0.00000   0.00496   0.00497   2.09936
   A26        2.09440   0.00947   0.00000   0.01146   0.01147   2.10586
   A27        2.09440   0.00181   0.00000   0.00229   0.00231   2.09671
   A28        2.09440  -0.00641   0.00000  -0.00792  -0.00793   2.08646
   A29        2.09440   0.00460   0.00000   0.00563   0.00562   2.10002
   A30        2.09440   0.01589   0.00000   0.01914   0.01917   2.11357
   A31        2.09440  -0.02634   0.00000  -0.03222  -0.03223   2.06216
   A32        2.09440   0.01045   0.00000   0.01308   0.01306   2.10746
   A33        2.09440   0.09827   0.00000   0.12099   0.12099   2.21539
   A34        2.09440  -0.02096   0.00000  -0.02581  -0.02581   2.06859
    D1        0.00000   0.00000   0.00000   0.00000   0.00000   0.00000
    D2        3.14159  -0.00000   0.00000  -0.00000   0.00000   3.14159
    D3       -0.00000  -0.00000   0.00000  -0.00000  -0.00000  -0.00000
    D4        3.14159   0.00000   0.00000   0.00000   0.00000   3.14159
    D5        0.00000  -0.00000   0.00000   0.00000  -0.00000   0.00000
    D6        3.14159  -0.00000   0.00000  -0.00000  -0.00000   3.14159
    D7       -3.14159  -0.00000   0.00000  -0.00000  -0.00000  -3.14159
    D8        0.00000  -0.00000   0.00000  -0.00000  -0.00000   0.00000
    D9       -0.00000   0.00000   0.00000   0.00000   0.00000  -0.00000
   D10        3.14159  -0.00000   0.00000  -0.00000  -0.00000   3.14159
   D11        3.14159   0.00000   0.00000   0.00000   0.00000   3.14159
   D12        0.00000  -0.00000   0.00000  -0.00000  -0.00000   0.00000
   D13        0.00000  -0.00000   0.00000  -0.00000  -0.00000   0.00000
   D14       -3.14159  -0.00000   0.00000  -0.00000  -0.00000  -3.14159
   D15       -3.14159  -0.00000   0.00000  -0.00000  -0.00000  -3.14159
   D16        0.00000  -0.00000   0.00000  -0.00000  -0.00000   0.00000
   D17       -0.00000   0.00000   0.00000   0.00000   0.00000  -0.00000
   D18        3.14159  -0.00000   0.00000  -0.00000  -0.00000   3.14159
   D19        3.14159   0.00000   0.00000   0.00000   0.00000   3.14159
   D20       -0.00000  -0.00000   0.00000  -0.00000  -0.00000  -0.00000
   D21        0.00001  -0.00000   0.00000  -0.00000  -0.00000   0.00001
   D22       -3.14159  -0.00000   0.00000  -0.00000  -0.00000  -3.14159
   D23        0.00000   0.00000   0.00000   0.00000   0.00000   0.00000
   D24       -3.14159  -0.00000   0.00000  -0.00000  -0.00000  -3.14159
   D25       -0.00000  -0.00000   0.00000  -0.00000  -0.00000  -0.00000
   D26        3.14159   0.00000   0.00000   0.00000   0.00000   3.14159
   D27       -0.00000  -0.00000   0.00000  -0.00000  -0.00000  -0.00000
   D28        3.14159  -0.00000   0.00000  -0.00000  -0.00000   3.14159
   D29        3.14159   0.00000   0.00000   0.00000   0.00000   3.14159
   D30       -0.00000   0.00000   0.00000   0.00000   0.00000  -0.00000
   D31       -0.00000   0.00000   0.00000   0.00000   0.00000  -0.00000
   D32       -3.14159  -0.00000   0.00000  -0.00000  -0.00000  -3.14159
   D33        3.14159   0.00000   0.00000   0.00000   0.00000   3.14159
   D34        0.00000   0.00000   0.00000   0.00000   0.00000   0.00000
   D35        0.00000  -0.00000   0.00000  -0.00000  -0.00000  -0.00000
   D36       -3.14159  -0.00000   0.00000  -0.00000  -0.00000  -3.14159
   D37        3.14159   0.00000   0.00000   0.00000   0.00000   3.14159
   D38        0.00000  -0.00000   0.00000  -0.00000  -0.00000   0.00000
   D39        0.00000   0.00000   0.00000   0.00000   0.00000   0.00000
   D40       -3.14159  -0.00000   0.00000  -0.00000  -0.00000  -3.14159
   D41        3.14159   0.00000   0.00000   0.00000   0.00000   3.14159
   D42       -0.00000  -0.00000   0.00000  -0.00000  -0.00000  -0.00000
   D43        0.00001  -0.00000   0.00000  -0.00000  -0.00000   0.00001
   D44       -3.14159   0.00000   0.00000  -0.00000  -0.00000  -3.14159
   D45       -0.00001  -0.00000   0.00000  -0.00000  -0.00000  -0.00001
         Item               Value     Threshold  Converged?
 Maximum Force            0.541709     0.000450     NO 
 RMS     Force            0.056416     0.000300     NO 
 Maximum Displacement     0.727327     0.001800     NO 
 RMS     Displacement     0.236660     0.001200     NO 
 Predicted change in Energy=-1.174505D-01
 GradGradGradGradGradGradGradGradGradGradGradGradGradGradGradGradGradGrad

                          Input orientation:                          
 ---------------------------------------------------------------------
 Center     Atomic      Atomic             Coordinates (Angstroms)
 Number     Number       Type             X           Y           Z
 ---------------------------------------------------------------------
      1          6           0        1.565001    0.726096   -0.042936
      2          6           0        2.904554    0.883916   -0.454617
      3          6           0        3.533172    2.131375   -0.427435
      4          6           0        2.840372    3.253317    0.011520
      5          6           0        1.517735    3.133648    0.424790
      6          6           0        0.891466    1.883794    0.396385
      7          6           0        0.342388   -1.381145   -0.035908
      8          6           0        0.872066   -2.609373   -0.441088
      9          6           0        0.093728   -3.769031   -0.402450
     10          6           0       -1.229372   -3.717202    0.043193
     11          6           0       -1.761124   -2.490876    0.448700
     12          6           0       -0.974295   -1.336494    0.406275
     13          1           0        4.555205    2.223815   -0.746786
     14          1           0        0.982800    4.000866    0.763895
     15          1           0        1.881303   -2.673300   -0.785595
     16         17           0       -1.644560    0.256929    0.926361
     17         17           0       -0.790077    1.831042    0.940467
     18         17           0       -3.430798   -2.410663    1.013861
     19         17           0       -2.207810   -5.179463    0.090927
     20         17           0        3.632506    4.820757    0.044926
     21         17           0        0.795315   -5.294430   -0.920080
     22         17           0        3.874540   -0.463961   -1.027320
 ---------------------------------------------------------------------
                    Distance matrix (angstroms):
                    1          2          3          4          5
     1  C    0.000000
     2  C    1.410245   0.000000
     3  C    2.448744   1.397159   0.000000
     4  C    2.831322   2.415671   1.389751   0.000000
     5  C    2.453020   2.785304   2.406829   1.390857   0.000000
     6  C    1.409580   2.403432   2.778235   2.412872   1.398268
     7  C    2.436246   3.445361   4.761533   5.265017   4.687967
     8  C    3.429875   4.041566   5.436577   6.200824   5.843708
     9  C    4.743423   5.436302   6.829728   7.551741   7.096414
    10  C    5.249651   6.205437   7.557061   8.071676   7.390964
    11  C    4.653356   5.828701   7.082541   7.372967   6.510511
    12  C    3.302135   4.551574   5.747908   5.981127   5.117882
    13  H    3.417585   2.146006   1.074746   2.139054   3.380327
    14  H    3.422579   3.859182   3.379151   2.139035   1.073878
    15  H    3.493921   3.716231   5.093314   6.056401   5.942883
    16  Cl   3.385400   4.795274   5.670557   5.470822   4.304322
    17  Cl   2.781075   4.061232   4.544430   4.008238   2.699759
    18  Cl   5.992836   7.290224   8.438265   8.509579   7.454821
    19  Cl   7.009112   7.949745   9.309991   9.828643   9.115863
    20  Cl   4.587869   4.034622   2.732356   1.756548   2.731830
    21  Cl   6.132580   6.545037   7.929763   8.838219   8.565224
    22  Cl   2.778348   1.756597   2.685547   3.995853   4.539377
                    6          7          8          9         10
     6  C    0.000000
     7  C    3.338890   0.000000
     8  C    4.570590   1.397596   0.000000
     9  C    5.764456   2.428618   1.397179   0.000000
    10  C    5.999488   2.816709   2.424429   1.397096   0.000000
    11  C    5.116318   2.427161   2.781987   2.408030   1.396807
    12  C    3.721749   1.389667   2.397352   2.777039   2.421707
    13  H    3.852978   5.590072   6.084297   7.479141   8.329531
    14  H    2.150674   5.478672   6.720082   7.907092   8.061122
    15  H    4.810817   2.144750   1.068331   2.131397   3.384217
    16  Cl   3.059246   2.749038   4.052038   4.582110   4.092197
    17  Cl   1.768161   3.543153   4.938492   5.826264   5.637472
    18  Cl   6.124181   4.049550   4.546537   4.034028   2.737794
    19  Cl   7.719353   4.576769   4.046485   2.744051   1.760064
    20  Cl   4.032689   7.021040   7.941226   9.300943   9.825203
    21  Cl   7.298577   4.037413   2.728526   1.756989   2.741333
    22  Cl   4.054333   3.781563   3.736484   5.060483   6.146503
                   11         12         13         14         15
    11  C    0.000000
    12  C    1.397676   0.000000
    13  H    7.972046   6.676879   0.000000
    14  H    7.054869   5.696097   4.266396   0.000000
    15  H    3.850200   3.370763   5.579695   6.910334   0.000000
    16  Cl   2.791448   1.805198   6.716036   4.576732   4.893745
    17  Cl   4.456877   3.217543   5.618997   2.807562   5.514042
    18  Cl   1.764555   2.749074   9.399708   7.787813   5.614752
    19  Cl   2.748823   4.048384  10.062239   9.742244   4.875448
    20  Cl   9.094738   7.698372   2.867453   2.865324   7.740631
    21  Cl   4.033467   4.533873   8.407783   9.448463   2.840384
    22  Cl   6.168284   5.131053   2.786780   5.612957   2.985398
                   16         17         18         19         20
    16  Cl   0.000000
    17  Cl   1.791137   0.000000
    18  Cl   3.211596   4.997085   0.000000
    19  Cl   5.528974   7.202699   3.164453   0.000000
    20  Cl   7.032274   5.412913  10.154926  11.580838   0.000000
    21  Cl   6.338764   7.533092   5.469578   3.170823  10.549782
    22  Cl   5.898899   5.558586   7.830966   7.776980   5.397827
                   21         22
    21  Cl   0.000000
    22  Cl   5.729447   0.000000
 Stoichiometry    C12H3Cl7
 Framework group  C1[X(C12H3Cl7)]
 Deg. of freedom    60
 Full point group                 C1      NOp   1
 Largest Abelian subgroup         C1      NOp   1
 Largest concise Abelian subgroup C1      NOp   1
                         Standard orientation:                         
 ---------------------------------------------------------------------
 Center     Atomic      Atomic             Coordinates (Angstroms)
 Number     Number       Type             X           Y           Z
 ---------------------------------------------------------------------
      1          6           0        1.786289    0.322187   -0.000001
      2          6           0        2.616197    1.462381   -0.000004
      3          6           0        4.008839    1.350108   -0.000004
      4          6           0        4.608596    0.096434   -0.000001
      5          6           0        3.820080   -1.049309    0.000005
      6          6           0        2.426611   -0.933562    0.000005
      7          6           0       -0.649588    0.364587    0.000008
      8          6           0       -1.424845    1.527450    0.000010
      9          6           0       -2.820098    1.454115    0.000007
     10          6           0       -3.462233    0.213333    0.000002
     11          6           0       -2.689680   -0.950381   -0.000001
     12          6           0       -1.294531   -0.866357    0.000002
     13          1           0        4.618117    2.235466   -0.000007
     14          1           0        4.283967   -2.017824    0.000010
     15          1           0       -0.955890    2.487352    0.000011
     16         17           0       -0.279994   -2.359493   -0.000002
     17         17           0        1.509099   -2.445040    0.000010
     18         17           0       -3.487356   -2.524346   -0.000011
     19         17           0       -5.220009    0.123611   -0.000005
     20         17           0        6.359636   -0.042558   -0.000001
     21         17           0       -3.760229    2.938421    0.000010
     22         17           0        1.967088    3.094646   -0.000012
 ---------------------------------------------------------------------
 Rotational constants (GHZ):           0.3540946           0.1067386           0.0820157
 Standard basis: 6-311+G(d,p) (5D, 7F)
 There are   511 symmetry adapted cartesian basis functions of A   symmetry.
 There are   492 symmetry adapted basis functions of A   symmetry.
   492 basis functions,   827 primitive gaussians,   511 cartesian basis functions
    97 alpha electrons       97 beta electrons
       nuclear repulsion energy      2275.4779300908 Hartrees.
 NAtoms=   22 NActive=   22 NUniq=   22 SFac= 1.00D+00 NAtFMM=   60 NAOKFM=F Big=F
 Integral buffers will be    131072 words long.
 Raffenetti 2 integral format.
 Two-electron integral symmetry is turned on.
 One-electron integrals computed using PRISM.
 NBasis=   492 RedAO= T EigKep=  1.04D-06  NBF=   492
 NBsUse=   487 1.00D-06 EigRej=  6.28D-07 NBFU=   487
 Initial guess from the checkpoint file:  "./Gau-185225.chk"
 B after Tr=    -0.000000   -0.000000    0.000000
         Rot=    0.999998    0.000000    0.000000    0.001927 Ang=   0.22 deg.
 ExpMin= 4.38D-02 ExpMax= 1.06D+05 ExpMxC= 3.62D+03 IAcc=3 IRadAn=         5 AccDes= 0.00D+00
 Harris functional with IExCor=  402 and IRadAn=       5 diagonalized for initial guess.
 HarFok:  IExCor=  402 AccDes= 0.00D+00 IRadAn=         5 IDoV= 1 UseB2=F ITyADJ=14
 ICtDFT=  3500011 ScaDFX=  1.000000  1.000000  1.000000  1.000000
 FoFCou: FMM=F IPFlag=           0 FMFlag=      100000 FMFlg1=           0
         NFxFlg=           0 DoJE=T BraDBF=F KetDBF=T FulRan=T
         wScrn=  0.000000 ICntrl=       500 IOpCl=  0 I1Cent=   200000004 NGrid=           0
         NMat0=    1 NMatS0=      1 NMatT0=    0 NMatD0=    1 NMtDS0=    0 NMtDT0=    0
 Petite list used in FoFCou.
 Requested convergence on RMS density matrix=1.00D-08 within  32 cycles.
 Requested convergence on MAX density matrix=1.00D-06.
 Requested convergence on             energy=1.00D-06.
 No special actions if energy rises.
 Restarting incremental Fock formation.
 SCF Done:  E(RB3LYP) =  -3680.29338629     A.U. after   21 cycles
            NFock= 21  Conv=0.44D-08     -V/T= 2.0023
 QCSCF skips out because SCF is already converged.
 Calling FoFJK, ICntrl=      2127 FMM=F ISym2X=0 I1Cent= 0 IOpClX= 0 NMat=1 NMatS=1 NMatT=0.
 ***** Axes restored to original set *****
 -------------------------------------------------------------------
 Center     Atomic                   Forces (Hartrees/Bohr)
 Number     Number              X              Y              Z
 -------------------------------------------------------------------
      1        6          -0.013506197   -0.007341816    0.003070595
      2        6          -0.018474365    0.003590787    0.006760881
      3        6           0.000067232    0.000524452    0.000076478
      4        6          -0.002177667   -0.008915387   -0.000957194
      5        6          -0.011221231    0.005904874    0.004805974
      6        6           0.036920773   -0.027223073   -0.017276056
      7        6          -0.028633513   -0.004380242    0.008611210
      8        6          -0.000010216    0.015354086    0.002887178
      9        6           0.001014664    0.001122559   -0.000123571
     10        6          -0.006170813   -0.009137208    0.000317037
     11        6           0.004824846    0.008593044    0.000024229
     12        6           0.023347613   -0.066393038   -0.020161325
     13        1           0.005073142   -0.000079505   -0.001686275
     14        1          -0.000843275    0.005270479    0.001267711
     15        1           0.010024293   -0.001306020   -0.003547959
     16       17          -0.133047199   -0.272395718   -0.007322480
     17       17           0.134923010    0.353250129    0.021889337
     18       17           0.000021580   -0.000774765   -0.000152678
     19       17           0.003866802    0.005341087   -0.000270884
     20       17          -0.002789720   -0.003946357    0.000177923
     21       17           0.000644077    0.005356829    0.000793861
     22       17          -0.003853836   -0.002415198    0.000816006
 -------------------------------------------------------------------
 Cartesian Forces:  Max     0.353250129 RMS     0.061023024

 GradGradGradGradGradGradGradGradGradGradGradGradGradGradGradGradGradGrad
 Berny optimization.
 Using GEDIIS/GDIIS optimizer.
 FormGI is forming the generalized inverse of G from B-inverse, IUseBI=4.
 Internal  Forces:  Max     0.339374743 RMS     0.041673012
 Search for a local minimum.
 Step number   2 out of a maximum of  112
 All quantities printed in internal units (Hartrees-Bohrs-Radians)
 Mixed Optimization -- RFO/linear search
 Update second derivatives using D2CorX and points    1    2
 DE= -1.06D-01 DEPred=-1.17D-01 R= 9.02D-01
 TightC=F SS=  1.41D+00  RLast= 3.00D-01 DXNew= 5.0454D-01 9.0000D-01
 Trust test= 9.02D-01 RLast= 3.00D-01 DXMaxT set to 5.05D-01
 ITU=  1  0
 Use linear search instead of GDIIS.
 Linear search step of   0.600 exceeds DXMaxT=   0.505 but not scaled.
 Quartic linear search produced a step of  2.00000.
 Iteration  1 RMS(Cart)=  0.33340441 RMS(Int)=  0.02749346
 Iteration  2 RMS(Cart)=  0.11638622 RMS(Int)=  0.00422972
 Iteration  3 RMS(Cart)=  0.00831248 RMS(Int)=  0.00028450
 Iteration  4 RMS(Cart)=  0.00000502 RMS(Int)=  0.00028449
 Iteration  5 RMS(Cart)=  0.00000000 RMS(Int)=  0.00028449
 Variable       Old X    -DE/DX   Delta X   Delta X   Delta X     New X
                                 (Linear)    (Quad)   (Total)
    R1        2.66498  -0.02321   0.03343   0.00000   0.03395   2.69893
    R2        2.66372  -0.01715   0.03092   0.00000   0.03145   2.69517
    R3        2.64025   0.00177  -0.01603   0.00000  -0.01604   2.62421
    R4        3.31949  -0.00054  -0.01286   0.00000  -0.01286   3.30662
    R5        2.62625   0.00446  -0.04403   0.00000  -0.04458   2.58166
    R6        2.03098   0.00532   0.01794   0.00000   0.01794   2.04892
    R7        2.62834  -0.00022  -0.03985   0.00000  -0.04039   2.58795
    R8        3.31939  -0.00478  -0.01305   0.00000  -0.01305   3.30635
    R9        2.64234  -0.00813  -0.01184   0.00000  -0.01182   2.63053
   R10        2.02933   0.00508   0.01466   0.00000   0.01466   2.04399
   R11        3.34134  -0.01040   0.03084   0.00000   0.03084   3.37219
   R12        2.64107  -0.01699  -0.01438   0.00000  -0.01441   2.62667
   R13        2.62609  -0.02734  -0.04434   0.00000  -0.04426   2.58183
   R14        2.64029  -0.00173  -0.01595   0.00000  -0.01606   2.62423
   R15        2.01885   0.01069  -0.00631   0.00000  -0.00631   2.01255
   R16        2.64013   0.00801  -0.01627   0.00000  -0.01635   2.62378
   R17        3.32023  -0.00463  -0.01138   0.00000  -0.01138   3.30885
   R18        2.63958   0.00582  -0.01736   0.00000  -0.01733   2.62225
   R19        3.32604  -0.00659   0.00024   0.00000   0.00024   3.32628
   R20        2.64122  -0.00936  -0.01407   0.00000  -0.01397   2.62726
   R21        3.33452  -0.00010   0.01721   0.00000   0.01721   3.35174
   R22        3.41133   0.04746   0.17082   0.00000   0.17082   3.58215
   R23        3.38476   0.33937   0.43062   0.00000   0.43062   3.81538
    A1        2.04086  -0.00618  -0.10706   0.00000  -0.10541   1.93545
    A2        2.11954   0.00127   0.05028   0.00000   0.05071   2.17025
    A3        2.13391  -0.00825   0.07903   0.00000   0.07881   2.21272
    A4        2.02974   0.00698  -0.12931   0.00000  -0.12952   1.90022
    A5        2.09746  -0.00243   0.00613   0.00000   0.00545   2.10291
    A6        2.09309   0.00066  -0.00260   0.00000  -0.00226   2.09083
    A7        2.09263   0.00177  -0.00353   0.00000  -0.00319   2.08944
    A8        2.09260   0.00442  -0.00359   0.00000  -0.00481   2.08780
    A9        2.09623  -0.00095   0.00366   0.00000   0.00427   2.10050
   A10        2.09436  -0.00347  -0.00007   0.00000   0.00054   2.09489
   A11        2.09069  -0.02186  -0.00740   0.00000  -0.00805   2.08264
   A12        2.09214   0.00882  -0.00451   0.00000  -0.00418   2.08796
   A13        2.10035   0.01304   0.01191   0.00000   0.01224   2.11259
   A14        2.12522   0.02479   0.06164   0.00000   0.06211   2.18732
   A15        2.12447  -0.05863   0.06016   0.00000   0.05993   2.18440
   A16        2.03349   0.03384  -0.12180   0.00000  -0.12203   1.91146
   A17        2.07096   0.01438  -0.04686   0.00000  -0.04678   2.02418
   A18        2.10630  -0.01109   0.02380   0.00000   0.02367   2.12996
   A19        2.09914   0.00623   0.00949   0.00000   0.00956   2.10870
   A20        2.07775   0.00486  -0.03329   0.00000  -0.03322   2.04453
   A21        2.10088   0.00202   0.01297   0.00000   0.01278   2.11366
   A22        2.08289  -0.00580  -0.02302   0.00000  -0.02292   2.05996
   A23        2.09942   0.00378   0.01005   0.00000   0.01014   2.10956
   A24        2.07796  -0.00248  -0.03287   0.00000  -0.03293   2.04503
   A25        2.09936   0.00081   0.00994   0.00000   0.00997   2.10933
   A26        2.10586   0.00167   0.02293   0.00000   0.02296   2.12882
   A27        2.09671  -0.00993   0.00462   0.00000   0.00475   2.10146
   A28        2.08646   0.00366  -0.01587   0.00000  -0.01593   2.07053
   A29        2.10002   0.00627   0.01125   0.00000   0.01118   2.11120
   A30        2.11357   0.00710   0.03834   0.00000   0.03852   2.15208
   A31        2.06216  -0.04730  -0.06446   0.00000  -0.06455   1.99761
   A32        2.10746   0.04021   0.02612   0.00000   0.02603   2.13349
   A33        2.21539  -0.05365   0.24199   0.00000   0.24199   2.45738
   A34        2.06859  -0.20902  -0.05161   0.00000  -0.05161   2.01698
    D1        0.00000  -0.00000   0.00000   0.00000   0.00000   0.00000
    D2        3.14159   0.00000   0.00000   0.00000   0.00000   3.14159
    D3       -0.00000   0.00000  -0.00000   0.00000  -0.00000  -0.00000
    D4        3.14159  -0.00000   0.00000   0.00000   0.00000  -3.14159
    D5        0.00000  -0.00000  -0.00000   0.00000  -0.00000   0.00000
    D6        3.14159   0.00000  -0.00000   0.00000  -0.00000   3.14159
    D7       -3.14159  -0.00000  -0.00000   0.00000  -0.00000  -3.14159
    D8        0.00000  -0.00000  -0.00000   0.00000  -0.00000   0.00000
    D9       -0.00000   0.00000   0.00000   0.00000   0.00000  -0.00000
   D10        3.14159   0.00000  -0.00000   0.00000  -0.00000   3.14159
   D11        3.14159   0.00000   0.00000   0.00000   0.00000   3.14159
   D12        0.00000  -0.00000  -0.00000   0.00000  -0.00000   0.00000
   D13        0.00000  -0.00000  -0.00000   0.00000  -0.00000   0.00000
   D14       -3.14159  -0.00000  -0.00000   0.00000  -0.00000  -3.14159
   D15       -3.14159  -0.00000  -0.00000   0.00000  -0.00000  -3.14159
   D16        0.00000   0.00000  -0.00000   0.00000  -0.00000   0.00000
   D17       -0.00000   0.00000   0.00000   0.00000   0.00000   0.00000
   D18        3.14159   0.00000  -0.00000   0.00000  -0.00000   3.14159
   D19        3.14159  -0.00000   0.00000   0.00000   0.00000   3.14159
   D20       -0.00000   0.00000  -0.00000   0.00000  -0.00000  -0.00000
   D21        0.00001   0.00000  -0.00000   0.00000  -0.00000   0.00000
   D22       -3.14159   0.00000  -0.00000   0.00000  -0.00000  -3.14159
   D23        0.00000   0.00000   0.00000   0.00000   0.00000   0.00000
   D24       -3.14159  -0.00000  -0.00000   0.00000  -0.00000  -3.14159
   D25       -0.00000   0.00000  -0.00000   0.00000  -0.00000  -0.00000
   D26        3.14159  -0.00000   0.00000   0.00000   0.00000  -3.14159
   D27       -0.00000  -0.00000  -0.00000   0.00000  -0.00000  -0.00000
   D28        3.14159  -0.00000  -0.00000   0.00000  -0.00000   3.14159
   D29        3.14159   0.00000   0.00000   0.00000   0.00000   3.14159
   D30       -0.00000   0.00000   0.00000   0.00000   0.00000  -0.00000
   D31       -0.00000   0.00000   0.00000   0.00000   0.00000  -0.00000
   D32       -3.14159  -0.00000  -0.00000   0.00000  -0.00000  -3.14159
   D33        3.14159   0.00000   0.00000   0.00000   0.00000  -3.14159
   D34        0.00000  -0.00000   0.00000   0.00000   0.00000   0.00000
   D35       -0.00000   0.00000  -0.00000   0.00000  -0.00000  -0.00000
   D36       -3.14159  -0.00000  -0.00000   0.00000  -0.00000  -3.14159
   D37        3.14159   0.00000   0.00000   0.00000   0.00000   3.14159
   D38        0.00000  -0.00000  -0.00000   0.00000  -0.00000   0.00000
   D39        0.00000  -0.00000   0.00000   0.00000   0.00000   0.00000
   D40       -3.14159  -0.00000  -0.00000   0.00000  -0.00000   3.14159
   D41        3.14159   0.00000   0.00000   0.00000   0.00000   3.14159
   D42       -0.00000   0.00000  -0.00000   0.00000  -0.00000  -0.00000
   D43        0.00001   0.00000  -0.00000   0.00000  -0.00000   0.00000
   D44       -3.14159   0.00000  -0.00000   0.00000  -0.00000  -3.14159
   D45       -0.00001   0.00000  -0.00001   0.00000  -0.00001  -0.00002
         Item               Value     Threshold  Converged?
 Maximum Force            0.339375     0.000450     NO 
 RMS     Force            0.041673     0.000300     NO 
 Maximum Displacement     1.469201     0.001800     NO 
 RMS     Displacement     0.452842     0.001200     NO 
 Predicted change in Energy=-9.112811D-03
 GradGradGradGradGradGradGradGradGradGradGradGradGradGradGradGradGradGrad

                          Input orientation:                          
 ---------------------------------------------------------------------
 Center     Atomic      Atomic             Coordinates (Angstroms)
 Number     Number       Type             X           Y           Z
 ---------------------------------------------------------------------
      1          6           0        1.931039    0.915890   -0.127877
      2          6           0        3.250681    1.329139   -0.485024
      3          6           0        3.714750    2.634715   -0.392719
      4          6           0        2.897731    3.630120    0.063390
      5          6           0        1.612063    3.335177    0.431560
      6          6           0        1.159097    2.022522    0.334267
      7          6           0        0.303085   -1.873855   -0.115504
      8          6           0        0.638166   -3.175332   -0.470332
      9          6           0       -0.267627   -4.223015   -0.368668
     10          6           0       -1.558814   -4.012278    0.096314
     11          6           0       -1.900307   -2.715314    0.452407
     12          6           0       -0.971524   -1.686960    0.339539
     13          1           0        4.732906    2.866509   -0.684618
     14          1           0        0.965073    4.123159    0.792695
     15          1           0        1.611426   -3.408144   -0.834711
     16         17           0       -1.381988    0.102632    0.810876
     17         17           0       -0.538551    1.935829    0.877276
     18         17           0       -3.540114   -2.402213    1.051476
     19         17           0       -2.701650   -5.345047    0.222535
     20         17           0        3.486189    5.273831    0.178218
     21         17           0        0.266150   -5.821253   -0.844695
     22         17           0        4.536332    0.313507   -1.099319
 ---------------------------------------------------------------------
                    Distance matrix (angstroms):
                    1          2          3          4          5
     1  C    0.000000
     2  C    1.428210   0.000000
     3  C    2.491209   1.388671   0.000000
     4  C    2.887581   2.391620   1.366158   0.000000
     5  C    2.503531   2.747614   2.364608   1.369483   0.000000
     6  C    1.426222   2.350902   2.726655   2.383400   1.392015
[...]
                 (A) (A) (A) (A) (A) (A) (A) (A) (A) (A) (A) (A)
                 (A) (A) (A) (A) (A) (A) (A) (A) (A) (A) (A) (A)
                 (A) (A) (A) (A) (A) (A) (A) (A) (A) (A) (A) (A)
                 (A) (A) (A) (A) (A) (A) (A) (A) (A) (A) (A) (A)
                 (A) (A) (A) (A) (A) (A) (A) (A) (A) (A) (A) (A)
                 (A) (A) (A) (A) (A) (A) (A) (A) (A) (A) (A) (A)
                 (A) (A) (A) (A) (A) (A) (A) (A) (A) (A) (A) (A)
                 (A) (A) (A) (A) (A) (A) (A) (A) (A) (A) (A) (A)
                 (A) (A) (A) (A) (A) (A) (A) (A) (A) (A) (A) (A)
                 (A) (A) (A) (A) (A) (A) (A) (A) (A) (A) (A) (A)
                 (A) (A) (A) (A) (A) (A) (A) (A) (A) (A) (A) (A)
                 (A) (A) (A) (A) (A) (A) (A) (A) (A) (A) (A) (A)
                 (A) (A) (A) (A) (A) (A) (A) (A) (A) (A) (A) (A)
                 (A) (A) (A) (A) (A) (A) (A) (A) (A) (A) (A) (A)
                 (A) (A) (A) (A) (A) (A) (A) (A) (A) (A) (A) (A)
                 (A) (A) (A) (A) (A) (A) (A) (A) (A) (A) (A) (A)
                 (A) (A) (A) (A) (A) (A) (A) (A) (A) (A) (A) (A)
                 (A) (A) (A) (A) (A)
 The electronic state is 1-A.
 Alpha  occ. eigenvalues -- -101.58052-101.58000-101.57959-101.57957-101.57955
 Alpha  occ. eigenvalues -- -101.57877-101.57861 -10.28262 -10.28204 -10.27863
 Alpha  occ. eigenvalues --  -10.27863 -10.27791 -10.27581 -10.27566 -10.24035
 Alpha  occ. eigenvalues --  -10.23894 -10.22298 -10.22254 -10.22253  -9.49515
 Alpha  occ. eigenvalues --   -9.49466  -9.49427  -9.49425  -9.49412  -9.49351
 Alpha  occ. eigenvalues --   -9.49317  -7.26019  -7.25971  -7.25902  -7.25900
 Alpha  occ. eigenvalues --   -7.25888  -7.25840  -7.25809  -7.24997  -7.24947
 Alpha  occ. eigenvalues --   -7.24910  -7.24907  -7.24905  -7.24890  -7.24860
 Alpha  occ. eigenvalues --   -7.24854  -7.24852  -7.24848  -7.24830  -7.24793
 Alpha  occ. eigenvalues --   -7.24762  -7.24735  -0.96496  -0.94866  -0.91737
 Alpha  occ. eigenvalues --   -0.90605  -0.90300  -0.89411  -0.86905  -0.85276
 Alpha  occ. eigenvalues --   -0.83882  -0.79836  -0.77131  -0.75767  -0.74316
 Alpha  occ. eigenvalues --   -0.66165  -0.64289  -0.64040  -0.61929  -0.55972
 Alpha  occ. eigenvalues --   -0.54916  -0.53998  -0.52795  -0.49842  -0.48853
 Alpha  occ. eigenvalues --   -0.47245  -0.47099  -0.47064  -0.46219  -0.45117
 Alpha  occ. eigenvalues --   -0.44184  -0.42448  -0.41962  -0.41410  -0.40401
 Alpha  occ. eigenvalues --   -0.38998  -0.38857  -0.38068  -0.35741  -0.35545
 Alpha  occ. eigenvalues --   -0.35246  -0.34780  -0.34671  -0.33952  -0.33633
 Alpha  occ. eigenvalues --   -0.33194  -0.33109  -0.31872  -0.28052  -0.27966
 Alpha  occ. eigenvalues --   -0.27779  -0.26871
 Alpha virt. eigenvalues --   -0.06491  -0.06103  -0.06042  -0.05446  -0.05023
 Alpha virt. eigenvalues --   -0.03466  -0.00913  -0.00255   0.00579   0.00891
 Alpha virt. eigenvalues --    0.01359   0.01789   0.01955   0.02147   0.02501
 Alpha virt. eigenvalues --    0.03587   0.04111   0.04430   0.05071   0.05592
 Alpha virt. eigenvalues --    0.05720   0.06290   0.06561   0.07668   0.07754
 Alpha virt. eigenvalues --    0.08135   0.08243   0.08518   0.08634   0.09140
 Alpha virt. eigenvalues --    0.09484   0.09674   0.09792   0.10501   0.10861
 Alpha virt. eigenvalues --    0.11007   0.11147   0.11402   0.11581   0.11994
 Alpha virt. eigenvalues --    0.12341   0.12841   0.13257   0.13705   0.13967
 Alpha virt. eigenvalues --    0.14446   0.14965   0.15204   0.15839   0.15861
 Alpha virt. eigenvalues --    0.16242   0.16562   0.17386   0.17439   0.17927
 Alpha virt. eigenvalues --    0.18176   0.18350   0.18647   0.19115   0.19443
 Alpha virt. eigenvalues --    0.19613   0.19851   0.20629   0.21122   0.21587
 Alpha virt. eigenvalues --    0.21608   0.21851   0.22152   0.22597   0.23115
 Alpha virt. eigenvalues --    0.23199   0.23873   0.24260   0.24755   0.24807
 Alpha virt. eigenvalues --    0.25317   0.26251   0.26265   0.26656   0.26794
 Alpha virt. eigenvalues --    0.27025   0.27320   0.27886   0.28289   0.28317
 Alpha virt. eigenvalues --    0.29211   0.29319   0.29738   0.29899   0.30467
 Alpha virt. eigenvalues --    0.31328   0.31573   0.32543   0.33974   0.35690
 Alpha virt. eigenvalues --    0.38673   0.39998   0.40195   0.42578   0.42849
 Alpha virt. eigenvalues --    0.43703   0.44357   0.44756   0.45134   0.45252
 Alpha virt. eigenvalues --    0.45329   0.45497   0.46382   0.46729   0.47300
 Alpha virt. eigenvalues --    0.47875   0.48132   0.48483   0.49037   0.49905
 Alpha virt. eigenvalues --    0.50108   0.50482   0.50653   0.52989   0.53705
 Alpha virt. eigenvalues --    0.53849   0.55719   0.56318   0.56839   0.57175
 Alpha virt. eigenvalues --    0.57835   0.59045   0.59105   0.59562   0.60481
 Alpha virt. eigenvalues --    0.60896   0.61460   0.62477   0.62568   0.63383
 Alpha virt. eigenvalues --    0.63681   0.64081   0.64247   0.65035   0.66342
 Alpha virt. eigenvalues --    0.66922   0.67001   0.67436   0.68072   0.68624
 Alpha virt. eigenvalues --    0.69643   0.70687   0.74925   0.77634   0.77654
 Alpha virt. eigenvalues --    0.79104   0.80586   0.80952   0.82323   0.82715
 Alpha virt. eigenvalues --    0.83031   0.83173   0.83370   0.83723   0.83729
 Alpha virt. eigenvalues --    0.83912   0.84013   0.84361   0.84879   0.85038
 Alpha virt. eigenvalues --    0.85396   0.85514   0.85528   0.86638   0.86714
 Alpha virt. eigenvalues --    0.88556   0.88717   0.89418   0.89484   0.90186
 Alpha virt. eigenvalues --    0.91109   0.91123   0.91507   0.92997   0.93299
 Alpha virt. eigenvalues --    0.93886   0.94078   0.94801   0.94880   0.94897
 Alpha virt. eigenvalues --    0.95614   0.95758   0.95889   0.95992   0.97703
 Alpha virt. eigenvalues --    0.99378   1.00057   1.00558   1.02215   1.02926
 Alpha virt. eigenvalues --    1.04852   1.05903   1.06038   1.06792   1.09426
 Alpha virt. eigenvalues --    1.12204   1.16054   1.18204   1.18711   1.18767
 Alpha virt. eigenvalues --    1.20136   1.20480   1.23246   1.23408   1.23687
 Alpha virt. eigenvalues --    1.23843   1.26962   1.27071   1.27952   1.28666
 Alpha virt. eigenvalues --    1.28680   1.30002   1.30756   1.32099   1.32270
 Alpha virt. eigenvalues --    1.33924   1.36793   1.38686   1.42074   1.43665
 Alpha virt. eigenvalues --    1.47217   1.47788   1.48373   1.53964   1.54339
 Alpha virt. eigenvalues --    1.55588   1.57599   1.58066   1.59321   1.61339
 Alpha virt. eigenvalues --    1.63701   1.65336   1.67990   1.71189   1.72114
 Alpha virt. eigenvalues --    1.73646   1.78534   1.79697   1.80418   1.81076
 Alpha virt. eigenvalues --    1.82471   1.83078   1.83939   1.85041   1.87290
 Alpha virt. eigenvalues --    1.91287   1.92262   1.92446   1.93947   1.94299
 Alpha virt. eigenvalues --    1.95198   2.01475   2.03898   2.04401   2.06168
 Alpha virt. eigenvalues --    2.06183   2.08559   2.11779   2.14794   2.20324
 Alpha virt. eigenvalues --    2.22377   2.22731   2.23831   2.24203   2.25787
 Alpha virt. eigenvalues --    2.26014   2.26182   2.28218   2.28986   2.30036
 Alpha virt. eigenvalues --    2.31858   2.31901   2.34023   2.34668   2.38292
 Alpha virt. eigenvalues --    2.39812   2.40905   2.41555   2.42096   2.44060
 Alpha virt. eigenvalues --    2.46934   2.47317   2.48619   2.51707   2.52526
 Alpha virt. eigenvalues --    2.54100   2.54692   2.54883   2.57606   2.60925
 Alpha virt. eigenvalues --    2.62253   2.62969   2.66904   2.67324   2.69047
 Alpha virt. eigenvalues --    2.69219   2.69369   2.71070   2.72869   2.74715
 Alpha virt. eigenvalues --    2.76340   2.76414   2.81430   2.81723   2.82467
 Alpha virt. eigenvalues --    2.85447   2.88618   2.95380   2.96771   3.05441
 Alpha virt. eigenvalues --    3.07764   3.08831   3.09798   3.10805   3.12387
 Alpha virt. eigenvalues --    3.14471   3.16128   3.20607   3.21138   3.24119
 Alpha virt. eigenvalues --    3.27778   3.32107   3.36805   3.45547   3.51472
 Alpha virt. eigenvalues --    3.61224   3.66409   3.69466   3.71808   3.78750
 Alpha virt. eigenvalues --    3.89778   3.97712   4.03005   4.06871   4.31854
 Alpha virt. eigenvalues --    4.79690   4.80523   9.74516   9.76027   9.78821
 Alpha virt. eigenvalues --    9.79476   9.80592   9.83621   9.84266  23.31681
 Alpha virt. eigenvalues --   23.48656  23.79655  23.83975  23.84785  23.85590
 Alpha virt. eigenvalues --   23.92372  23.94380  24.02072  24.02932  24.09006
 Alpha virt. eigenvalues --   24.12656  25.76626  25.79415  25.81062  25.83052
 Alpha virt. eigenvalues --   25.88924  25.92246  25.97712  26.08515  26.09382
 Alpha virt. eigenvalues --   26.10311  26.17467  26.22508  26.33267  26.34176
 Alpha virt. eigenvalues --   26.49154  26.58375  26.59296  26.63530  26.71850
 Alpha virt. eigenvalues --   26.85959  27.02934 215.73524 215.75129 215.78361
 Alpha virt. eigenvalues --  215.79156 215.80391 215.84361 215.85042
          Condensed to atoms (all electrons):
               1          2          3          4          5          6
     1  C   20.401038  -0.947114  -7.465100  -1.264257  -7.477007  -0.942232
     2  C   -0.947114  19.767109  -5.344631  -2.796622   7.002579  -1.686158
     3  C   -7.465100  -5.344631  30.665453  -0.847322 -10.713098   6.999014
     4  C   -1.264257  -2.796622  -0.847322  16.656445  -0.847978  -2.796710
     5  C   -7.477007   7.002579 -10.713098  -0.847978  30.674099  -5.342564
     6  C   -0.942232  -1.686158   6.999014  -2.796710  -5.342564  19.763696
     7  C    9.486662  -3.176806  -4.955827  -0.900272  -4.957315  -3.178525
     8  C   -3.299061  -1.180953  -0.174503  -0.066960  -0.173269  -1.181761
     9  C    0.298342  -0.432481   0.069463   0.121957   0.069882  -0.430767
    10  C   -0.313637   0.965369   0.228969  -0.027945   0.229312   0.963282
    11  C   -3.258963  -1.056502  -0.197798  -0.041735  -0.197531  -1.056851
    12  C    0.777480  -3.310663  -1.904472  -0.312062  -1.906471  -3.308629
    13  H    0.112120   0.076953   0.078075   0.041529   0.052958  -0.027454
    14  H    0.112250  -0.027458   0.052938   0.041549   0.077943   0.076934
    15  H    0.064923   0.064771   0.018130   0.007915   0.018054   0.064872
    16  Cl   0.545440  -0.140956  -0.146651   0.044169  -0.145510  -0.140809
    17  Cl  -0.228386  -0.718516   0.626152  -0.337005  -0.967408  -0.259368
    18  Cl  -0.158472  -0.045667  -0.005245   0.001233  -0.005363  -0.045656
    19  Cl  -0.003654  -0.030342  -0.002090  -0.002418  -0.002105  -0.030408
    20  Cl  -0.107113  -0.154015   0.354772  -1.032112   0.354468  -0.153828
    21  Cl  -0.070282  -0.025699  -0.000397   0.010579  -0.000324  -0.025610
    22  Cl  -0.228905  -0.260102  -0.967636  -0.337747   0.625657  -0.718559
               7          8          9         10         11         12
     1  C    9.486662  -3.299061   0.298342  -0.313637  -3.258963   0.777480
     2  C   -3.176806  -1.180953  -0.432481   0.965369  -1.056502  -3.310663
     3  C   -4.955827  -0.174503   0.069463   0.228969  -0.197798  -1.904472
     4  C   -0.900272  -0.066960   0.121957  -0.027945  -0.041735  -0.312062
     5  C   -4.957315  -0.173269   0.069882   0.229312  -0.197531  -1.906471
     6  C   -3.178525  -1.181761  -0.430767   0.963282  -1.056851  -3.308629
     7  C   25.690276  -1.927344  -8.295414   4.690233  -3.355813  -1.763202
     8  C   -1.927344  11.505412  -0.090608  -4.440515   4.091685   3.102860
     9  C   -8.295414  -0.090608  23.704780  -8.224239  -5.246083   4.932760
    10  C    4.690233  -4.440515  -8.224239  24.385112  -1.141699  -9.474521
    11  C   -3.355813   4.091685  -5.246083  -1.141699  17.378295  -0.143947
    12  C   -1.763202   3.102860   4.932760  -9.474521  -0.143947  20.470531
    13  H    0.025935  -0.003160  -0.000763   0.000118  -0.000169   0.005219
    14  H    0.025956  -0.003169  -0.000764   0.000117  -0.000168   0.005223
    15  H    0.044491   0.316041  -0.085913  -0.016753  -0.052212  -0.073139
    16  Cl  -0.210690  -0.267888   1.019655  -0.927015  -0.471354  -0.968350
    17  Cl   0.150308   0.139873   0.033172  -0.021908   0.017614   0.366516
    18  Cl  -0.560010   0.232526  -0.131035  -0.353165  -0.035981   0.566844
    19  Cl   0.205786  -0.123534  -0.930214   0.284019   0.746721  -0.785737
    20  Cl  -0.011543  -0.004603   0.007312  -0.000270  -0.002373  -0.037721
    21  Cl  -0.853427   0.320941   0.127642  -0.635858  -0.087992   0.400738
    22  Cl   0.151754   0.139942   0.033507  -0.021885   0.017982   0.365558
              13         14         15         16         17         18
     1  C    0.112120   0.112250   0.064923   0.545440  -0.228386  -0.158472
     2  C    0.076953  -0.027458   0.064771  -0.140956  -0.718516  -0.045667
     3  C    0.078075   0.052938   0.018130  -0.146651   0.626152  -0.005245
     4  C    0.041529   0.041549   0.007915   0.044169  -0.337005   0.001233
     5  C    0.052958   0.077943   0.018054  -0.145510  -0.967408  -0.005363
     6  C   -0.027454   0.076934   0.064872  -0.140809  -0.259368  -0.045656
     7  C    0.025935   0.025956   0.044491  -0.210690   0.150308  -0.560010
     8  C   -0.003160  -0.003169   0.316041  -0.267888   0.139873   0.232526
     9  C   -0.000763  -0.000764  -0.085913   1.019655   0.033172  -0.131035
    10  C    0.000118   0.000117  -0.016753  -0.927015  -0.021908  -0.353165
    11  C   -0.000169  -0.000168  -0.052212  -0.471354   0.017614  -0.035981
    12  C    0.005219   0.005223  -0.073139  -0.968350   0.366516   0.566844
    13  H    0.491467  -0.000220   0.000003  -0.000853   0.000246  -0.000005
    14  H   -0.000220   0.491481   0.000003  -0.000853  -0.008499  -0.000005
    15  H    0.000003   0.000003   0.509110  -0.002184  -0.010679   0.000484
    16  Cl  -0.000853  -0.000853  -0.002184  18.463493   0.049235  -0.284337
    17  Cl   0.000246  -0.008499  -0.010679   0.049235  17.886618  -0.005187
    18  Cl  -0.000005  -0.000005   0.000484  -0.284337  -0.005187  17.402496
    19  Cl  -0.000001  -0.000001  -0.001589  -0.042460   0.011801  -0.192251
    20  Cl  -0.014150  -0.014154   0.000070   0.009818  -0.026758  -0.000018
    21  Cl  -0.000013  -0.000013  -0.008178   0.010352  -0.007434   0.009882
    22  Cl  -0.008502   0.000247  -0.010712   0.050341  -0.050371  -0.005280
              19         20         21         22
     1  C   -0.003654  -0.107113  -0.070282  -0.228905
     2  C   -0.030342  -0.154015  -0.025699  -0.260102
     3  C   -0.002090   0.354772  -0.000397  -0.967636
     4  C   -0.002418  -1.032112   0.010579  -0.337747
     5  C   -0.002105   0.354468  -0.000324   0.625657
     6  C   -0.030408  -0.153828  -0.025610  -0.718559
     7  C    0.205786  -0.011543  -0.853427   0.151754
     8  C   -0.123534  -0.004603   0.320941   0.139942
     9  C   -0.930214   0.007312   0.127642   0.033507
    10  C    0.284019  -0.000270  -0.635858  -0.021885
    11  C    0.746721  -0.002373  -0.087992   0.017982
    12  C   -0.785737  -0.037721   0.400738   0.365558
    13  H   -0.000001  -0.014150  -0.000013  -0.008502
    14  H   -0.000001  -0.014154  -0.000013   0.000247
    15  H   -0.001589   0.000070  -0.008178  -0.010712
    16  Cl  -0.042460   0.009818   0.010352   0.050341
    17  Cl   0.011801  -0.026758  -0.007434  -0.050371
    18  Cl  -0.192251  -0.000018   0.009882  -0.005280
    19  Cl  17.479029   0.000010  -0.212390   0.011795
    20  Cl   0.000010  17.423757   0.000144  -0.026757
    21  Cl  -0.212390   0.000144  17.481125  -0.007400
    22  Cl   0.011795  -0.026757  -0.007400  17.887274
 Mulliken charges:
               1
     1  C   -0.034071
     2  C   -0.542097
     3  C   -0.368196
     4  C    0.685768
     5  C   -0.369010
     6  C   -0.541910
     7  C   -0.325212
     8  C   -0.911955
     9  C   -0.550194
    10  C   -0.147122
    11  C    0.094876
    12  C   -1.004812
    13  H    0.170667
    14  H    0.170662
    15  H    0.152493
    16  Cl   0.557407
    17  Cl   0.359984
    18  Cl   0.614210
    19  Cl   0.620033
    20  Cl   0.435066
    21  Cl   0.573615
    22  Cl   0.359801
 Sum of Mulliken charges =  -0.00000
 Mulliken charges with hydrogens summed into heavy atoms:
               1
     1  C   -0.034071
     2  C   -0.542097
     3  C   -0.197529
     4  C    0.685768
     5  C   -0.198348
     6  C   -0.541910
     7  C   -0.325212
     8  C   -0.759463
     9  C   -0.550194
    10  C   -0.147122
    11  C    0.094876
    12  C   -1.004812
    16  Cl   0.557407
    17  Cl   0.359984
    18  Cl   0.614210
    19  Cl   0.620033
    20  Cl   0.435066
    21  Cl   0.573615
    22  Cl   0.359801
 Electronic spatial extent (au):  <R**2>=           9346.3255
 Charge=             -0.0000 electrons
 Dipole moment (field-independent basis, Debye):
    X=              1.6426    Y=              0.7477    Z=              0.0012  Tot=              1.8047
 Quadrupole moment (field-independent basis, Debye-Ang):
   XX=           -157.8144   YY=           -157.6451   ZZ=           -156.2205
   XY=              0.9829   XZ=              0.0015   YZ=             -0.0054
 Traceless Quadrupole moment (field-independent basis, Debye-Ang):
   XX=             -0.5878   YY=             -0.4184   ZZ=              1.0062
   XY=              0.9829   XZ=              0.0015   YZ=             -0.0054
 Octapole moment (field-independent basis, Debye-Ang**2):
  XXX=            -15.3222  YYY=             -8.0407  ZZZ=             -0.0240  XYY=             -8.1068
  XXY=             -7.7069  XXZ=             -0.0132  XZZ=              5.2989  YZZ=             -3.0204
  YYZ=             -0.0042  XYZ=             -0.0364
 Hexadecapole moment (field-independent basis, Debye-Ang**3):
 XXXX=          -8624.6752 YYYY=          -1976.5337 ZZZZ=          -1489.3019 XXXY=              7.0801
 XXXZ=             -0.0166 YYYX=             -7.8778 YYYZ=              0.2592 ZZZX=              0.0034
 ZZZY=             -0.2380 XXYY=          -1791.7472 XXZZ=          -1653.6326 YYZZ=           -613.3616
 XXYZ=             -0.1756 YYXZ=             -0.0397 ZZXY=              2.0423
 N-N= 2.353254379601D+03 E-N=-1.342772385507D+04  KE= 3.671260877517D+03
 1\1\GINC-CN232\FOpt\RB3LYP\6-311+G(d,p)\C12H3Cl7\20CY91R06\25-Apr-2022
 \0\\# opt b3lyp/6-311+g(d,p) scf=xqc\\Title Card Required\\0,1\C,1.207
 6435032,0.3955317236,-0.0323764381\C,1.9649923204,0.7461524607,-1.1587
 285405\C,2.678887282,1.9369498598,-1.2391178309\C,2.636160904,2.807931
 4008,-0.1577432715\C,1.9041248958,2.5113105804,0.9849933435\C,1.202797
 5348,1.3111503309,1.0292056109\C,0.4664615243,-0.8966085358,0.04310718
 3\C,1.1077134469,-2.019818313,0.5573737171\C,0.4527751738,-3.240784999
 8,0.6443742705\C,-0.8726227469,-3.365251589,0.2136398469\C,-1.53114870
 63,-2.2391608059,-0.3075005398\C,-0.8589732922,-1.0120960381,-0.389880
 923\H,3.2513066562,2.1752807407,-2.124209643\H,1.8766260435,3.19430879
 05,1.822032221\H,2.1325443731,-1.9445438839,0.8956598582\Cl,-1.6665295
 016,0.3908717047,-1.0343834371\Cl,0.2820981281,0.9569352979,2.47691724
 34\Cl,-3.1757843903,-2.3707436109,-0.848260811\Cl,-1.6918187051,-4.890
 9455343,0.3218334768\Cl,3.526935392,4.3133788192,-0.2362139828\Cl,1.32
 22718431,-4.6028482447,1.3004331352\Cl,2.0276531312,-0.3373834336,-2.5
 340690088\\Version=EM64L-G16RevB.01\State=1-A\HF=-3680.7494303\RMSD=4.
 234e-09\RMSF=2.699e-05\Dipole=0.558426,0.4304329,0.0838516\Quadrupole=
 0.3512431,-0.9029633,0.5517202,0.216539,-0.1927425,0.5020536\PG=C01 [X
 (C12H3Cl7)]\\@


 ALL OUR THINKING ABOUT NATURE MUST NECESSARILY MOVE IN CIRCLES OR SPIRALS;
 FOR WE CAN ONLY UNDERSTAND NATURE IF WE THINK ABOUT HER, AND WE CAN ONLY
 THINK BECAUSE OUR BRAIN IS BUILT IN ACCORDANCE WITH NATURE'S LAWS.

                                             -- TIMOTHY FERRIS, "GALAXIES"
 Job cpu time:       4 days 17 hours 24 minutes 54.8 seconds.
 Elapsed time:       0 days 11 hours 26 minutes 17.7 seconds.
 File lengths (MBytes):  RWF=    161 Int=      0 D2E=      0 Chk=     25 Scr=      1
 Normal termination of Gaussian 16 at Mon Apr 25 02:35:42 2022.
