 Entering Gaussian System, Link 0=g16
 Input=2,2prime,3,3prime,4,4prime,5-Heptachlorobiphenyl1.gjf
 Output=2,2prime,3,3prime,4,4prime,5-Heptachlorobiphenyl1.log
 Initial command:
 /home/apps/g16/l1.exe "./Gau-154001.inp" -scrdir="./"
 Entering Link 1 = /home/apps/g16/l1.exe PID=    154002.
  
 Copyright (c) 1988-2017, Gaussian, Inc.  All Rights Reserved.
  
 This is part of the Gaussian(R) 16 program.  It is based on
 the Gaussian(R) 09 system (copyright 2009, Gaussian, Inc.),
 the Gaussian(R) 03 system (copyright 2003, Gaussian, Inc.),
 the Gaussian(R) 98 system (copyright 1998, Gaussian, Inc.),
 the Gaussian(R) 94 system (copyright 1995, Gaussian, Inc.),
 the Gaussian 92(TM) system (copyright 1992, Gaussian, Inc.),
 the Gaussian 90(TM) system (copyright 1990, Gaussian, Inc.),
 the Gaussian 88(TM) system (copyright 1988, Gaussian, Inc.),
 the Gaussian 86(TM) system (copyright 1986, Carnegie Mellon
 University), and the Gaussian 82(TM) system (copyright 1983,
 Carnegie Mellon University). Gaussian is a federally registered
 trademark of Gaussian, Inc.
  
 This software contains proprietary and confidential information,
 including trade secrets, belonging to Gaussian, Inc.
  
 This software is provided under written license and may be
 used, copied, transmitted, or stored only in accord with that
 written license.
  
 The following legend is applicable only to US Government
 contracts under FAR:
  
                    RESTRICTED RIGHTS LEGEND
  
 Use, reproduction and disclosure by the US Government is
 subject to restrictions as set forth in subparagraphs (a)
 and (c) of the Commercial Computer Software - Restricted
 Rights clause in FAR 52.227-19.
  
 Gaussian, Inc.
 340 Quinnipiac St., Bldg. 40, Wallingford CT 06492
  
  
 ---------------------------------------------------------------
 Warning -- This program may not be used in any manner that
 competes with the business of Gaussian, Inc. or will provide
 assistance to any competitor of Gaussian, Inc.  The licensee
 of this program is prohibited from giving any competitor of
 Gaussian, Inc. access to this program.  By using this program,
 the user acknowledges that Gaussian, Inc. is engaged in the
 business of creating and licensing software in the field of
 computational chemistry and represents and warrants to the
 licensee that it is not a competitor of Gaussian, Inc. and that
 it will not use this program in any manner prohibited above.
 ---------------------------------------------------------------
  

 Cite this work as:
 Gaussian 16, Revision B.01,
 M. J. Frisch, G. W. Trucks, H. B. Schlegel, G. E. Scuseria, 
 M. A. Robb, J. R. Cheeseman, G. Scalmani, V. Barone, 
 G. A. Petersson, H. Nakatsuji, X. Li, M. Caricato, A. V. Marenich, 
 J. Bloino, B. G. Janesko, R. Gomperts, B. Mennucci, H. P. Hratchian, 
 J. V. Ortiz, A. F. Izmaylov, J. L. Sonnenberg, D. Williams-Young, 
 F. Ding, F. Lipparini, F. Egidi, J. Goings, B. Peng, A. Petrone, 
 T. Henderson, D. Ranasinghe, V. G. Zakrzewski, J. Gao, N. Rega, 
 G. Zheng, W. Liang, M. Hada, M. Ehara, K. Toyota, R. Fukuda, 
 J. Hasegawa, M. Ishida, T. Nakajima, Y. Honda, O. Kitao, H. Nakai, 
 T. Vreven, K. Throssell, J. A. Montgomery, Jr., J. E. Peralta, 
 F. Ogliaro, M. J. Bearpark, J. J. Heyd, E. N. Brothers, K. N. Kudin, 
 V. N. Staroverov, T. A. Keith, R. Kobayashi, J. Normand, 
 K. Raghavachari, A. P. Rendell, J. C. Burant, S. S. Iyengar, 
 J. Tomasi, M. Cossi, J. M. Millam, M. Klene, C. Adamo, R. Cammi, 
 J. W. Ochterski, R. L. Martin, K. Morokuma, O. Farkas, 
 J. B. Foresman, and D. J. Fox, Gaussian, Inc., Wallingford CT, 2016.
 
 ******************************************
 Gaussian 16:  EM64L-G16RevB.01 20-Dec-2017
                17-Apr-2022 
 ******************************************
 %mem=120GB
 %nprocshared=40
 Will use up to   40 processors via shared memory.
 --------------------------------
 # opt b3lyp/6-311+g(d,p) scf=xqc
 --------------------------------
 1/18=20,19=15,26=3,38=1/1,3;
 2/9=110,12=2,17=6,18=5,40=1/2;
 3/5=4,6=6,7=111,11=2,25=1,30=1,71=1,74=-5/1,2,3;
 4//1;
 5/5=2,8=3,13=1,38=5/2,8;
 6/7=2,8=2,9=2,10=2,28=1/1;
 7//1,2,3,16;
 1/18=20,19=15,26=3/3(2);
 2/9=110/2;
 99//99;
 2/9=110/2;
 3/5=4,6=6,7=111,11=2,25=1,30=1,71=1,74=-5/1,2,3;
 4/5=5,16=3,69=1/1;
 5/5=2,8=3,13=1,38=5/2,8;
 7//1,2,3,16;
 1/18=20,19=15,26=3/3(-5);
 2/9=110/2;
 6/7=2,8=2,9=2,10=2,19=2,28=1/1;
 99/9=1/99;
 -------------------
 Title Card Required
 -------------------
 Symbolic Z-matrix:
 Charge =  0 Multiplicity = 1
 C                    -0.49954   1.73657   0.17897 
 C                     0.83284   1.76645  -0.25438 
 C                     1.54074   2.97591  -0.26045 
 C                     0.91625   4.15547   0.16682 
 C                    -0.41613   4.12559   0.60017 
 C                    -1.12403   2.91613   0.60624 
 C                    -1.52572  -0.01668   0.18777 
 C                    -0.90123  -1.19624  -0.2395 
 C                    -1.60912  -2.40569  -0.23343 
 C                    -2.9415   -2.43558   0.19992 
 C                    -3.56599  -1.25602   0.6272 
 C                    -2.8581   -0.04656   0.62112 
 H                     1.30965   0.86583  -0.58061 
 H                     2.55804   2.99872  -0.59132 
 H                     0.11607  -1.17342  -0.57037 
 Cl                   -3.64238   1.43484   1.15773 
 Cl                   -2.79735   2.8786    1.15047 
 Cl                   -5.23931  -1.29355   1.17144 
 Cl                   -1.20042   5.60699   1.13677 
 Cl                   -3.83053  -3.95452   0.20755 
 Cl                    1.80528   5.6744    0.1592 
 Cl                   -0.82484  -3.88709  -0.77004 
 

 GradGradGradGradGradGradGradGradGradGradGradGradGradGradGradGradGradGrad
 Berny optimization.
 Initialization pass.
                           ----------------------------
                           !    Initial Parameters    !
                           ! (Angstroms and Degrees)  !
 --------------------------                            --------------------------
 ! Name  Definition              Value          Derivative Info.                !
 --------------------------------------------------------------------------------
 ! R1    R(1,2)                  1.4014         estimate D2E/DX2                !
 ! R2    R(1,6)                  1.4014         estimate D2E/DX2                !
 ! R3    R(2,3)                  1.4014         estimate D2E/DX2                !
 ! R4    R(2,13)                 1.07           estimate D2E/DX2                !
 ! R5    R(3,4)                  1.4014         estimate D2E/DX2                !
 ! R6    R(3,14)                 1.07           estimate D2E/DX2                !
 ! R7    R(4,5)                  1.4014         estimate D2E/DX2                !
 ! R8    R(4,21)                 1.76           estimate D2E/DX2                !
 ! R9    R(5,6)                  1.4014         estimate D2E/DX2                !
 ! R10   R(5,19)                 1.76           estimate D2E/DX2                !
 ! R11   R(6,17)                 1.76           estimate D2E/DX2                !
 ! R12   R(7,8)                  1.4014         estimate D2E/DX2                !
 ! R13   R(7,12)                 1.4014         estimate D2E/DX2                !
 ! R14   R(8,9)                  1.4014         estimate D2E/DX2                !
 ! R15   R(8,15)                 1.07           estimate D2E/DX2                !
 ! R16   R(9,10)                 1.4014         estimate D2E/DX2                !
 ! R17   R(9,22)                 1.76           estimate D2E/DX2                !
 ! R18   R(10,11)                1.4014         estimate D2E/DX2                !
 ! R19   R(10,20)                1.76           estimate D2E/DX2                !
 ! R20   R(11,12)                1.4014         estimate D2E/DX2                !
 ! R21   R(11,18)                1.76           estimate D2E/DX2                !
 ! R22   R(12,16)                1.76           estimate D2E/DX2                !
 ! R23   R(16,17)                1.6729         estimate D2E/DX2                !
 ! A1    A(2,1,6)              120.0            estimate D2E/DX2                !
 ! A2    A(1,2,3)              120.0            estimate D2E/DX2                !
 ! A3    A(1,2,13)             120.0            estimate D2E/DX2                !
 ! A4    A(3,2,13)             120.0            estimate D2E/DX2                !
 ! A5    A(2,3,4)              120.0            estimate D2E/DX2                !
 ! A6    A(2,3,14)             120.0            estimate D2E/DX2                !
 ! A7    A(4,3,14)             120.0            estimate D2E/DX2                !
 ! A8    A(3,4,5)              120.0            estimate D2E/DX2                !
 ! A9    A(3,4,21)             120.0            estimate D2E/DX2                !
 ! A10   A(5,4,21)             120.0            estimate D2E/DX2                !
 ! A11   A(4,5,6)              120.0            estimate D2E/DX2                !
 ! A12   A(4,5,19)             120.0            estimate D2E/DX2                !
 ! A13   A(6,5,19)             120.0            estimate D2E/DX2                !
 ! A14   A(1,6,5)              120.0            estimate D2E/DX2                !
 ! A15   A(1,6,17)             120.0            estimate D2E/DX2                !
 ! A16   A(5,6,17)             120.0            estimate D2E/DX2                !
 ! A17   A(8,7,12)             120.0            estimate D2E/DX2                !
 ! A18   A(7,8,9)              120.0            estimate D2E/DX2                !
 ! A19   A(7,8,15)             120.0            estimate D2E/DX2                !
 ! A20   A(9,8,15)             120.0            estimate D2E/DX2                !
 ! A21   A(8,9,10)             120.0            estimate D2E/DX2                !
 ! A22   A(8,9,22)             120.0            estimate D2E/DX2                !
 ! A23   A(10,9,22)            120.0            estimate D2E/DX2                !
 ! A24   A(9,10,11)            120.0            estimate D2E/DX2                !
 ! A25   A(9,10,20)            120.0            estimate D2E/DX2                !
 ! A26   A(11,10,20)           120.0            estimate D2E/DX2                !
 ! A27   A(10,11,12)           120.0            estimate D2E/DX2                !
 ! A28   A(10,11,18)           120.0            estimate D2E/DX2                !
 ! A29   A(12,11,18)           120.0            estimate D2E/DX2                !
 ! A30   A(7,12,11)            120.0            estimate D2E/DX2                !
 ! A31   A(7,12,16)            120.0            estimate D2E/DX2                !
 ! A32   A(11,12,16)           120.0            estimate D2E/DX2                !
 ! A33   A(12,16,17)           120.0            estimate D2E/DX2                !
 ! A34   A(6,17,16)            120.0            estimate D2E/DX2                !
 ! D1    D(6,1,2,3)              0.0001         estimate D2E/DX2                !
 ! D2    D(6,1,2,13)           180.0            estimate D2E/DX2                !
 ! D3    D(2,1,6,5)             -0.0001         estimate D2E/DX2                !
 ! D4    D(2,1,6,17)           180.0            estimate D2E/DX2                !
 ! D5    D(1,2,3,4)              0.0            estimate D2E/DX2                !
 ! D6    D(1,2,3,14)           180.0            estimate D2E/DX2                !
 ! D7    D(13,2,3,4)          -179.9999         estimate D2E/DX2                !
 ! D8    D(13,2,3,14)            0.0001         estimate D2E/DX2                !
 ! D9    D(2,3,4,5)             -0.0001         estimate D2E/DX2                !
 ! D10   D(2,3,4,21)           180.0            estimate D2E/DX2                !
 ! D11   D(14,3,4,5)           179.9999         estimate D2E/DX2                !
 ! D12   D(14,3,4,21)            0.0            estimate D2E/DX2                !
 ! D13   D(3,4,5,6)              0.0001         estimate D2E/DX2                !
 ! D14   D(3,4,5,19)          -179.9999         estimate D2E/DX2                !
 ! D15   D(21,4,5,6)          -180.0            estimate D2E/DX2                !
 ! D16   D(21,4,5,19)            0.0            estimate D2E/DX2                !
 ! D17   D(4,5,6,1)              0.0            estimate D2E/DX2                !
 ! D18   D(4,5,6,17)           179.9999         estimate D2E/DX2                !
 ! D19   D(19,5,6,1)           180.0            estimate D2E/DX2                !
 ! D20   D(19,5,6,17)           -0.0001         estimate D2E/DX2                !
 ! D21   D(1,6,17,16)            0.0004         estimate D2E/DX2                !
 ! D22   D(5,6,17,16)         -179.9996         estimate D2E/DX2                !
 ! D23   D(12,7,8,9)             0.0001         estimate D2E/DX2                !
 ! D24   D(12,7,8,15)         -179.9998         estimate D2E/DX2                !
 ! D25   D(8,7,12,11)           -0.0001         estimate D2E/DX2                !
 ! D26   D(8,7,12,16)          179.9999         estimate D2E/DX2                !
 ! D27   D(7,8,9,10)             0.0            estimate D2E/DX2                !
 ! D28   D(7,8,9,22)           180.0            estimate D2E/DX2                !
 ! D29   D(15,8,9,10)          179.9998         estimate D2E/DX2                !
 ! D30   D(15,8,9,22)           -0.0002         estimate D2E/DX2                !
 ! D31   D(8,9,10,11)            0.0            estimate D2E/DX2                !
 ! D32   D(8,9,10,20)         -179.9999         estimate D2E/DX2                !
 ! D33   D(22,9,10,11)         180.0            estimate D2E/DX2                !
 ! D34   D(22,9,10,20)           0.0001         estimate D2E/DX2                !
 ! D35   D(9,10,11,12)           0.0            estimate D2E/DX2                !
 ! D36   D(9,10,11,18)        -179.9998         estimate D2E/DX2                !
 ! D37   D(20,10,11,12)        179.9999         estimate D2E/DX2                !
 ! D38   D(20,10,11,18)          0.0001         estimate D2E/DX2                !
 ! D39   D(10,11,12,7)           0.0            estimate D2E/DX2                !
 ! D40   D(10,11,12,16)       -179.9999         estimate D2E/DX2                !
 ! D41   D(18,11,12,7)         179.9999         estimate D2E/DX2                !
 ! D42   D(18,11,12,16)         -0.0001         estimate D2E/DX2                !
 ! D43   D(7,12,16,17)           0.0004         estimate D2E/DX2                !
 ! D44   D(11,12,16,17)       -179.9997         estimate D2E/DX2                !
 ! D45   D(12,16,17,6)          -0.0006         estimate D2E/DX2                !
 --------------------------------------------------------------------------------
 Trust Radius=3.00D-01 FncErr=1.00D-07 GrdErr=1.00D-06 EigMax=2.50D+02 EigMin=1.00D-04
 Number of steps in this run=    112 maximum allowed number of steps=    132.
 GradGradGradGradGradGradGradGradGradGradGradGradGradGradGradGradGradGrad

                          Input orientation:                          
 ---------------------------------------------------------------------
 Center     Atomic      Atomic             Coordinates (Angstroms)
 Number     Number       Type             X           Y           Z
 ---------------------------------------------------------------------
      1          6           0       -0.499539    1.736569    0.178967
      2          6           0        0.832842    1.766455   -0.254380
      3          6           0        1.540736    2.975906   -0.260452
      4          6           0        0.916248    4.155471    0.166823
      5          6           0       -0.416133    4.125586    0.600167
      6          6           0       -1.124027    2.916135    0.606240
      7          6           0       -1.525717   -0.016678    0.187771
      8          6           0       -0.901229   -1.196243   -0.239504
      9          6           0       -1.609122   -2.405694   -0.233430
     10          6           0       -2.941502   -2.435580    0.199920
     11          6           0       -3.565989   -1.256016    0.627195
     12          6           0       -2.858097   -0.046564    0.621121
     13          1           0        1.309653    0.865831   -0.580612
     14          1           0        2.558038    2.998724   -0.591321
     15          1           0        0.116073   -1.173424   -0.570374
     16         17           0       -3.642381    1.434836    1.157732
     17         17           0       -2.797347    2.878601    1.150473
     18         17           0       -5.239307   -1.293550    1.171438
     19         17           0       -1.200420    5.606987    1.136773
     20         17           0       -3.830535   -3.954515    0.207551
     21         17           0        1.805283    5.674405    0.159197
     22         17           0       -0.824837   -3.887094   -0.770039
 ---------------------------------------------------------------------
                    Distance matrix (angstroms):
                    1          2          3          4          5
     1  C    0.000000
     2  C    1.401400   0.000000
     3  C    2.427296   1.401400   0.000000
     4  C    2.802800   2.427296   1.401400   0.000000
     5  C    2.427296   2.802800   2.427296   1.401400   0.000000
     6  C    1.401400   2.427296   2.802800   2.427296   1.401400
     7  C    2.031500   2.989625   4.308084   4.834300   4.308084
     8  C    2.989625   3.432900   4.834300   5.666495   5.409457
     9  C    4.308084   4.834300   6.235700   7.041774   6.691466
    10  C    4.834300   5.666495   7.041774   7.637100   7.041774
    11  C    4.308084   5.409457   6.691466   7.041774   6.235700
    12  C    2.989625   4.204351   5.409457   5.666495   4.834300
    13  H    2.146700   1.070000   2.146700   3.396345   3.872800
    14  H    3.396345   2.146700   1.070000   2.146700   3.396345
    15  H    3.067336   3.042450   4.398029   5.438829   5.452790
    16  Cl   3.305523   4.704429   5.590246   5.400450   4.237887
    17  Cl   2.743718   4.048303   4.562800   4.048303   2.743718
    18  Cl   5.712445   6.947487   8.139259   8.282026   7.277114
    19  Cl   4.048303   4.562800   4.048303   2.743718   1.760000
    20  Cl   6.594300   7.395266   8.780678   9.397100   8.780678
    21  Cl   4.562800   4.048303   2.743718   1.760000   2.743718
    22  Cl   5.712445   5.914087   7.277114   8.282026   8.139259
                    6          7          8          9         10
     6  C    0.000000
     7  C    2.989625   0.000000
     8  C    4.204351   1.401400   0.000000
     9  C    5.409457   2.427296   1.401400   0.000000
    10  C    5.666495   2.802800   2.427296   1.401400   0.000000
    11  C    4.834300   2.427296   2.802800   2.427296   1.401400
    12  C    3.432900   1.401400   2.427296   2.802800   2.427296
    13  H    3.396345   3.067336   3.042450   4.398029   5.438829
    14  H    3.872800   5.135824   5.448675   6.833817   7.771916
    15  H    4.432466   2.146700   1.070000   2.146700   3.396345
    16  Cl   2.973298   2.743718   4.048303   4.562800   4.048303
    17  Cl   1.760000   3.305523   4.704429   5.590246   5.400450
    18  Cl   5.914087   4.048303   4.562800   4.048303   2.743718
    19  Cl   2.743718   5.712445   6.947487   8.139259   8.282025
    20  Cl   7.395266   4.562800   4.048303   2.743718   1.760000
    21  Cl   4.048303   6.594300   7.395266   8.780678   9.397100
    22  Cl   6.947487   4.048303   2.743718   1.760000   2.743718
                   11         12         13         14         15
    11  C    0.000000
    12  C    1.401400   0.000000
    13  H    5.452790   4.432467   0.000000
    14  H    7.555879   6.330744   2.471400   0.000000
    15  H    3.872800   3.396345   2.362900   4.834300   0.000000
    16  Cl   2.743718   1.760000   5.279038   6.629490   4.890332
    17  Cl   4.237887   2.973298   4.890332   5.632800   5.279038
    18  Cl   1.760000   2.743718   7.114877   9.073563   5.632800
    19  Cl   7.277114   5.914087   5.632800   4.890332   7.114877
    20  Cl   2.743718   4.048303   7.090731   9.476266   4.890332
    21  Cl   8.780678   7.395266   4.890332   2.879094   7.090731
    22  Cl   4.048303   4.562800   5.213657   7.674001   2.879094
                   16         17         18         19         20
    16  Cl   0.000000
    17  Cl   1.672900   0.000000
    18  Cl   3.161400   4.834300   0.000000
    19  Cl   4.834300   3.161400   7.995700   0.000000
    20  Cl   5.475705   6.974816   3.161400   9.960084   0.000000
    21  Cl   6.974816   5.475705   9.960084   3.161400  11.157100
    22  Cl   6.322800   7.304369   5.475705   9.690953   3.161400
                   21         22
    21  Cl   0.000000
    22  Cl   9.960084   0.000000
 Stoichiometry    C12H3Cl7
 Framework group  C1[X(C12H3Cl7)]
 Deg. of freedom    60
 Full point group                 C1      NOp   1
 Largest Abelian subgroup         C1      NOp   1
 Largest concise Abelian subgroup C1      NOp   1
                         Standard orientation:                         
 ---------------------------------------------------------------------
 Center     Atomic      Atomic             Coordinates (Angstroms)
 Number     Number       Type             X           Y           Z
 ---------------------------------------------------------------------
      1          6           0       -1.251766    0.848319   -0.000001
      2          6           0       -1.796656    2.139449    0.000001
      3          6           0       -3.187253    2.313124    0.000003
      4          6           0       -4.032959    1.195670    0.000003
      5          6           0       -3.488068   -0.095460   -0.000001
      6          6           0       -2.097471   -0.269135   -0.000003
      7          6           0        0.764073    0.596555   -0.000002
      8          6           0        1.609779    1.714009   -0.000003
      9          6           0        3.000376    1.540333   -0.000002
     10          6           0        3.545267    0.249203   -0.000001
     11          6           0        2.699561   -0.868251   -0.000000
     12          6           0        1.308964   -0.694575   -0.000001
     13          1           0       -1.150941    2.992649    0.000003
     14          1           0       -3.603289    3.298931    0.000005
     15          1           0        1.193743    2.699815   -0.000001
     16         17           0        0.246853   -2.097971    0.000003
     17         17           0       -1.413150   -1.890648   -0.000006
     18         17           0        3.383882   -2.489764    0.000006
     19         17           0       -4.550179   -1.498856   -0.000004
     20         17           0        5.291699    0.031086    0.000002
     21         17           0       -5.779391    1.413787    0.000006
     22         17           0        4.062487    2.943729   -0.000003
 ---------------------------------------------------------------------
 Rotational constants (GHZ):           0.4199071           0.1028247           0.0825984
 Standard basis: 6-311+G(d,p) (5D, 7F)
 There are   511 symmetry adapted cartesian basis functions of A   symmetry.
 There are   492 symmetry adapted basis functions of A   symmetry.
   492 basis functions,   827 primitive gaussians,   511 cartesian basis functions
    97 alpha electrons       97 beta electrons
       nuclear repulsion energy      2323.3915552643 Hartrees.
 NAtoms=   22 NActive=   22 NUniq=   22 SFac= 1.00D+00 NAtFMM=   60 NAOKFM=F Big=F
 Integral buffers will be    131072 words long.
 Raffenetti 2 integral format.
 Two-electron integral symmetry is turned on.
 One-electron integrals computed using PRISM.
 NBasis=   492 RedAO= T EigKep=  1.57D-06  NBF=   492
 NBsUse=   485 1.00D-06 EigRej=  8.48D-07 NBFU=   485
 ExpMin= 4.38D-02 ExpMax= 1.06D+05 ExpMxC= 3.62D+03 IAcc=3 IRadAn=         5 AccDes= 0.00D+00
 Harris functional with IExCor=  402 and IRadAn=       5 diagonalized for initial guess.
 HarFok:  IExCor=  402 AccDes= 0.00D+00 IRadAn=         5 IDoV= 1 UseB2=F ITyADJ=14
 ICtDFT=  3500011 ScaDFX=  1.000000  1.000000  1.000000  1.000000
 FoFCou: FMM=F IPFlag=           0 FMFlag=      100000 FMFlg1=           0
         NFxFlg=           0 DoJE=T BraDBF=F KetDBF=T FulRan=T
         wScrn=  0.000000 ICntrl=       500 IOpCl=  0 I1Cent=   200000004 NGrid=           0
         NMat0=    1 NMatS0=      1 NMatT0=    0 NMatD0=    1 NMtDS0=    0 NMtDT0=    0
 Petite list used in FoFCou.
 Requested convergence on RMS density matrix=1.00D-08 within  32 cycles.
 Requested convergence on MAX density matrix=1.00D-06.
 Requested convergence on             energy=1.00D-06.
 No special actions if energy rises.
 EnCoef did     4 forward-backward iterations
 EnCoef did     4 forward-backward iterations
 EnCoef did     5 forward-backward iterations
 Restarting incremental Fock formation.
 SCF Done:  E(RB3LYP) =  -3680.19102157     A.U. after   28 cycles
            NFock= 28  Conv=0.73D-08     -V/T= 2.0023
 QCSCF skips out because SCF is already converged.

 **********************************************************************

            Population analysis using the SCF Density.

 **********************************************************************

 Orbital symmetries:
       Occupied  (A) (A) (A) (A) (A) (A) (A) (A) (A) (A) (A) (A)
                 (A) (A) (A) (A) (A) (A) (A) (A) (A) (A) (A) (A)
                 (A) (A) (A) (A) (A) (A) (A) (A) (A) (A) (A) (A)
                 (A) (A) (A) (A) (A) (A) (A) (A) (A) (A) (A) (A)
                 (A) (A) (A) (A) (A) (A) (A) (A) (A) (A) (A) (A)
                 (A) (A) (A) (A) (A) (A) (A) (A) (A) (A) (A) (A)
                 (A) (A) (A) (A) (A) (A) (A) (A) (A) (A) (A) (A)
                 (A) (A) (A) (A) (A) (A) (A) (A) (A) (A) (A) (A)
                 (A)
       Virtual   (A) (A) (A) (A) (A) (A) (A) (A) (A) (A) (A) (A)
                 (A) (A) (A) (A) (A) (A) (A) (A) (A) (A) (A) (A)
                 (A) (A) (A) (A) (A) (A) (A) (A) (A) (A) (A) (A)
                 (A) (A) (A) (A) (A) (A) (A) (A) (A) (A) (A) (A)
                 (A) (A) (A) (A) (A) (A) (A) (A) (A) (A) (A) (A)
                 (A) (A) (A) (A) (A) (A) (A) (A) (A) (A) (A) (A)
                 (A) (A) (A) (A) (A) (A) (A) (A) (A) (A) (A) (A)
                 (A) (A) (A) (A) (A) (A) (A) (A) (A) (A) (A) (A)
                 (A) (A) (A) (A) (A) (A) (A) (A) (A) (A) (A) (A)
                 (A) (A) (A) (A) (A) (A) (A) (A) (A) (A) (A) (A)
                 (A) (A) (A) (A) (A) (A) (A) (A) (A) (A) (A) (A)
                 (A) (A) (A) (A) (A) (A) (A) (A) (A) (A) (A) (A)
                 (A) (A) (A) (A) (A) (A) (A) (A) (A) (A) (A) (A)
                 (A) (A) (A) (A) (A) (A) (A) (A) (A) (A) (A) (A)
                 (A) (A) (A) (A) (A) (A) (A) (A) (A) (A) (A) (A)
                 (A) (A) (A) (A) (A) (A) (A) (A) (A) (A) (A) (A)
                 (A) (A) (A) (A) (A) (A) (A) (A) (A) (A) (A) (A)
                 (A) (A) (A) (A) (A) (A) (A) (A) (A) (A) (A) (A)
                 (A) (A) (A) (A) (A) (A) (A) (A) (A) (A) (A) (A)
                 (A) (A) (A) (A) (A) (A) (A) (A) (A) (A) (A) (A)
                 (A) (A) (A) (A) (A) (A) (A) (A) (A) (A) (A) (A)
                 (A) (A) (A) (A) (A) (A) (A) (A) (A) (A) (A) (A)
                 (A) (A) (A) (A) (A) (A) (A) (A) (A) (A) (A) (A)
                 (A) (A) (A) (A) (A) (A) (A) (A) (A) (A) (A) (A)
                 (A) (A) (A) (A) (A) (A) (A) (A) (A) (A) (A) (A)
                 (A) (A) (A) (A) (A) (A) (A) (A) (A) (A) (A) (A)
                 (A) (A) (A) (A) (A) (A) (A) (A) (A) (A) (A) (A)
                 (A) (A) (A) (A) (A) (A) (A) (A) (A) (A) (A) (A)
                 (A) (A) (A) (A) (A) (A) (A) (A) (A) (A) (A) (A)
                 (A) (A) (A) (A) (A) (A) (A) (A) (A) (A) (A) (A)
                 (A) (A) (A) (A) (A) (A) (A) (A) (A) (A) (A) (A)
                 (A) (A) (A) (A) (A) (A) (A) (A) (A) (A) (A) (A)
                 (A) (A) (A) (A)
 The electronic state is 1-A.
 Alpha  occ. eigenvalues -- -101.69751-101.69670-101.57631-101.57593-101.57432
 Alpha  occ. eigenvalues -- -101.56858-101.56749 -10.27364 -10.27304 -10.27244
 Alpha  occ. eigenvalues --  -10.27070 -10.26900 -10.25555 -10.25359 -10.22104
 Alpha  occ. eigenvalues --  -10.21690 -10.21631 -10.21485 -10.21062  -9.61011
 Alpha  occ. eigenvalues --   -9.60926  -9.49086  -9.49049  -9.48852  -9.48302
 Alpha  occ. eigenvalues --   -9.48196  -7.37601  -7.37448  -7.36697  -7.36606
 Alpha  occ. eigenvalues --   -7.36085  -7.35996  -7.25537  -7.25499  -7.25352
 Alpha  occ. eigenvalues --   -7.24772  -7.24680  -7.24569  -7.24539  -7.24531
 Alpha  occ. eigenvalues --   -7.24502  -7.24328  -7.24272  -7.23791  -7.23734
 Alpha  occ. eigenvalues --   -7.23689  -7.23607  -1.15008  -0.94642  -0.93725
 Alpha  occ. eigenvalues --   -0.90335  -0.88662  -0.87154  -0.86674  -0.85505
 Alpha  occ. eigenvalues --   -0.84040  -0.78431  -0.76168  -0.75122  -0.73814
 Alpha  occ. eigenvalues --   -0.68099  -0.64335  -0.62729  -0.60731  -0.59170
 Alpha  occ. eigenvalues --   -0.56741  -0.54894  -0.52532  -0.51684  -0.51373
 Alpha  occ. eigenvalues --   -0.50384  -0.47923  -0.47584  -0.45526  -0.44915
 Alpha  occ. eigenvalues --   -0.44866  -0.43885  -0.43150  -0.42509  -0.40153
 Alpha  occ. eigenvalues --   -0.39188  -0.37537  -0.36492  -0.36374  -0.36140
 Alpha  occ. eigenvalues --   -0.35152  -0.34870  -0.34720  -0.33776  -0.33504
 Alpha  occ. eigenvalues --   -0.32260  -0.31488  -0.28351  -0.27798  -0.26751
 Alpha  occ. eigenvalues --   -0.25836  -0.13580
 Alpha virt. eigenvalues --   -0.10206  -0.06658  -0.06108  -0.05519  -0.04403
 Alpha virt. eigenvalues --   -0.03189  -0.02534  -0.01804  -0.01073  -0.00200
 Alpha virt. eigenvalues --    0.01009   0.01026   0.01803   0.02680   0.03077
 Alpha virt. eigenvalues --    0.03216   0.03400   0.03849   0.05361   0.05383
 Alpha virt. eigenvalues --    0.05556   0.05781   0.06763   0.06849   0.06953
 Alpha virt. eigenvalues --    0.06983   0.07702   0.08087   0.08474   0.08991
 Alpha virt. eigenvalues --    0.09173   0.09203   0.09437   0.09771   0.10070
 Alpha virt. eigenvalues --    0.11079   0.11104   0.11837   0.12033   0.12394
 Alpha virt. eigenvalues --    0.12671   0.12796   0.12833   0.13411   0.13848
 Alpha virt. eigenvalues --    0.14340   0.14583   0.15000   0.15032   0.15414
 Alpha virt. eigenvalues --    0.15539   0.16999   0.17114   0.17133   0.17574
 Alpha virt. eigenvalues --    0.17893   0.18227   0.18631   0.18879   0.19421
 Alpha virt. eigenvalues --    0.19424   0.20062   0.20849   0.20859   0.21506
 Alpha virt. eigenvalues --    0.21690   0.22163   0.22354   0.23043   0.23324
 Alpha virt. eigenvalues --    0.23701   0.23932   0.24762   0.25073   0.25448
 Alpha virt. eigenvalues --    0.25958   0.26310   0.26727   0.26788   0.27187
 Alpha virt. eigenvalues --    0.27568   0.28964   0.29565   0.30180   0.30434
 Alpha virt. eigenvalues --    0.30520   0.30929   0.31970   0.32358   0.33237
 Alpha virt. eigenvalues --    0.34416   0.34853   0.35186   0.37436   0.38724
 Alpha virt. eigenvalues --    0.38911   0.39955   0.41490   0.42062   0.42149
 Alpha virt. eigenvalues --    0.43420   0.43522   0.43554   0.44527   0.45166
 Alpha virt. eigenvalues --    0.45200   0.45262   0.46219   0.46797   0.46828
 Alpha virt. eigenvalues --    0.47517   0.47917   0.48023   0.49129   0.49449
 Alpha virt. eigenvalues --    0.49566   0.49924   0.50595   0.50880   0.51450
 Alpha virt. eigenvalues --    0.52917   0.53281   0.56038   0.56146   0.56324
 Alpha virt. eigenvalues --    0.57542   0.57808   0.58235   0.58887   0.59573
 Alpha virt. eigenvalues --    0.59735   0.60281   0.60819   0.61648   0.61857
 Alpha virt. eigenvalues --    0.62235   0.63456   0.63763   0.63831   0.64512
 Alpha virt. eigenvalues --    0.66685   0.67769   0.67931   0.69372   0.69426
 Alpha virt. eigenvalues --    0.71012   0.73325   0.75979   0.76643   0.77681
 Alpha virt. eigenvalues --    0.79218   0.80226   0.81072   0.81834   0.82530
 Alpha virt. eigenvalues --    0.82985   0.83548   0.83790   0.84373   0.84475
 Alpha virt. eigenvalues --    0.84786   0.85012   0.85364   0.85421   0.85521
 Alpha virt. eigenvalues --    0.85709   0.86902   0.87100   0.87155   0.87574
 Alpha virt. eigenvalues --    0.87678   0.88947   0.89104   0.90864   0.91468
 Alpha virt. eigenvalues --    0.92191   0.93108   0.93419   0.93620   0.94053
 Alpha virt. eigenvalues --    0.94557   0.94796   0.94884   0.95852   0.96060
 Alpha virt. eigenvalues --    0.96461   0.96759   0.97501   0.97752   0.98751
 Alpha virt. eigenvalues --    1.00548   1.01058   1.01407   1.01944   1.02617
 Alpha virt. eigenvalues --    1.03630   1.05116   1.06697   1.06785   1.11775
 Alpha virt. eigenvalues --    1.12609   1.16540   1.18948   1.19532   1.20096
 Alpha virt. eigenvalues --    1.21187   1.21242   1.22664   1.23136   1.24330
 Alpha virt. eigenvalues --    1.24562   1.24844   1.26268   1.26804   1.27477
 Alpha virt. eigenvalues --    1.28330   1.28825   1.29399   1.31204   1.31320
 Alpha virt. eigenvalues --    1.34470   1.35919   1.42703   1.44450   1.47348
 Alpha virt. eigenvalues --    1.49271   1.49850   1.49987   1.51470   1.55900
 Alpha virt. eigenvalues --    1.57932   1.59638   1.59788   1.62744   1.64975
 Alpha virt. eigenvalues --    1.65170   1.67766   1.69886   1.71485   1.73995
 Alpha virt. eigenvalues --    1.75701   1.79144   1.81785   1.83332   1.83672
 Alpha virt. eigenvalues --    1.83782   1.84599   1.85444   1.86354   1.86439
 Alpha virt. eigenvalues --    1.86824   1.87494   1.88479   1.91138   1.95073
 Alpha virt. eigenvalues --    1.98094   1.98733   2.02968   2.04786   2.08896
 Alpha virt. eigenvalues --    2.13540   2.13632   2.14914   2.17438   2.18746
 Alpha virt. eigenvalues --    2.21222   2.21769   2.23227   2.24217   2.24613
 Alpha virt. eigenvalues --    2.25898   2.26525   2.26697   2.29322   2.29773
 Alpha virt. eigenvalues --    2.29946   2.31729   2.32856   2.34096   2.36067
 Alpha virt. eigenvalues --    2.38147   2.40135   2.42092   2.42373   2.42613
 Alpha virt. eigenvalues --    2.43978   2.44601   2.50039   2.51493   2.52404
 Alpha virt. eigenvalues --    2.54442   2.56556   2.57998   2.59545   2.60013
 Alpha virt. eigenvalues --    2.60724   2.61333   2.62888   2.66539   2.68757
 Alpha virt. eigenvalues --    2.69488   2.72381   2.73426   2.73478   2.74599
 Alpha virt. eigenvalues --    2.76917   2.77834   2.77976   2.79074   2.84335
 Alpha virt. eigenvalues --    2.85324   2.86620   2.86817   2.88938   3.04825
 Alpha virt. eigenvalues --    3.07498   3.08215   3.09651   3.12989   3.13684
 Alpha virt. eigenvalues --    3.15246   3.18695   3.20224   3.22692   3.28498
 Alpha virt. eigenvalues --    3.32338   3.36166   3.38378   3.42668   3.51308
 Alpha virt. eigenvalues --    3.61543   3.66559   3.69719   3.74492   3.82822
 Alpha virt. eigenvalues --    3.93321   4.01727   4.05129   4.11286   4.79668
 Alpha virt. eigenvalues --    4.81417   9.63784   9.74301   9.75958   9.78850
 Alpha virt. eigenvalues --    9.79998   9.80828   9.94115  23.29876  23.36994
 Alpha virt. eigenvalues --   23.80140  23.82149  23.82990  23.87370  23.94270
 Alpha virt. eigenvalues --   23.96594  23.97905  23.99600  24.05796  24.09511
 Alpha virt. eigenvalues --   25.70359  25.76148  25.77683  25.80836  25.85021
 Alpha virt. eigenvalues --   25.88197  25.96236  26.07967  26.10037  26.11741
 Alpha virt. eigenvalues --   26.12843  26.20660  26.23918  26.45045  26.49830
 Alpha virt. eigenvalues --   26.57744  26.67077  26.80125  26.93009  26.97838
 Alpha virt. eigenvalues --   26.98904 215.63158 215.73501 215.75408 215.78568
 Alpha virt. eigenvalues --  215.79830 215.80685 215.98306
          Condensed to atoms (all electrons):
               1          2          3          4          5          6
     1  C   16.095700  -2.666920   1.359271  -3.093975   0.480495  -0.719857
     2  C   -2.666920  17.844751   1.529668  -0.861596  -1.127279  -5.999295
     3  C    1.359271   1.529668  17.974293  -5.835710  -4.957363  -1.576467
     4  C   -3.093975  -0.861596  -5.835710  22.706319  -3.494942  -2.561423
     5  C    0.480495  -1.127279  -4.957363  -3.494942  20.527341  -3.532179
     6  C   -0.719857  -5.999295  -1.576467  -2.561423  -3.532179  35.379143
     7  C    3.915891  -1.380266   0.163949  -1.494803  -0.980479  -0.607872
     8  C   -0.149194   1.204176  -0.531325  -0.037968   0.208754  -1.418761
     9  C   -1.936391  -1.536742   0.368056  -0.438434  -0.044042   0.193793
    10  C   -1.718213   0.833265  -0.043773   0.292067  -0.388496  -0.284048
    11  C   -0.483053  -0.031581  -0.024770  -0.113242   0.013852  -0.266196
    12  C   -1.054997  -3.002123   0.336172  -0.710529  -0.044378   8.391393
    13  H   -0.006661   0.341071  -0.111707   0.040010  -0.055348   0.037289
    14  H    0.015706  -0.040622   0.333487   0.043516  -0.019996   0.010216
    15  H    0.039071   0.025841   0.016524   0.017495  -0.014853   0.021711
    16  Cl  -1.478289   0.226542  -0.662959   0.598971  -0.658375  -6.554058
    17  Cl  -2.126942   1.012986  -2.282314   1.115744   3.170671 -15.904329
    18  Cl   0.174830  -0.046146   0.004921  -0.002115   0.049965   0.100815
    19  Cl   0.049936   0.207669   1.648131  -0.500978  -3.504519   2.825683
    20  Cl  -0.071115   0.012640  -0.001872   0.002668  -0.009149  -0.038608
    21  Cl  -0.464240  -0.213922  -1.245650  -0.143680   1.204103  -0.013064
    22  Cl  -0.091710  -0.087967   0.008033  -0.017327   0.003301  -0.030120
               7          8          9         10         11         12
     1  C    3.915891  -0.149194  -1.936391  -1.718213  -0.483053  -1.054997
     2  C   -1.380266   1.204176  -1.536742   0.833265  -0.031581  -3.002123
     3  C    0.163949  -0.531325   0.368056  -0.043773  -0.024770   0.336172
     4  C   -1.494803  -0.037968  -0.438434   0.292067  -0.113242  -0.710529
     5  C   -0.980479   0.208754  -0.044042  -0.388496   0.013852  -0.044378
     6  C   -0.607872  -1.418761   0.193793  -0.284048  -0.266196   8.391393
     7  C   18.912995  -0.555510  -6.331431   4.415200  -1.333936  -4.791107
     8  C   -0.555510  12.484991   2.663208  -7.379078   2.718493  -1.155237
     9  C   -6.331431   2.663208  26.397086 -15.722204   0.446108   7.003806
    10  C    4.415200  -7.379078 -15.722204  31.413764  -3.609278  -5.785721
    11  C   -1.333936   2.718493   0.446108  -3.609278  14.331192  -5.370726
    12  C   -4.791107  -1.155237   7.003806  -5.785721  -5.370726  36.701675
    13  H    0.056754  -0.010412  -0.008823   0.014332  -0.011463   0.004788
    14  H    0.003679   0.004299   0.000341   0.000211   0.000062   0.000564
    15  H    0.103435   0.208570  -0.190558   0.135334  -0.072005   0.007725
    16  Cl  -1.732914  -1.796488  -4.094162   3.802265   3.045960 -19.047822
    17  Cl  -1.166731  -0.209366  -1.113349   1.197715  -0.269033  -7.411539
    18  Cl  -0.130972   0.579914   1.516531  -1.256277  -2.680883   3.012781
    19  Cl   0.210713  -0.033368   0.037111  -0.036580  -0.004317   0.247932
    20  Cl   0.304636  -0.569653  -2.287090   1.536787   0.482506  -0.698566
    21  Cl  -0.120154  -0.009008  -0.007390   0.003997  -0.004589  -0.043107
    22  Cl  -1.057528   0.429489   0.948229  -1.209791   0.023883   0.335996
              13         14         15         16         17         18
     1  C   -0.006661   0.015706   0.039071  -1.478289  -2.126942   0.174830
     2  C    0.341071  -0.040622   0.025841   0.226542   1.012986  -0.046146
     3  C   -0.111707   0.333487   0.016524  -0.662959  -2.282314   0.004921
     4  C    0.040010   0.043516   0.017495   0.598971   1.115744  -0.002115
     5  C   -0.055348  -0.019996  -0.014853  -0.658375   3.170671   0.049965
     6  C    0.037289   0.010216   0.021711  -6.554058 -15.904329   0.100815
     7  C    0.056754   0.003679   0.103435  -1.732914  -1.166731  -0.130972
     8  C   -0.010412   0.004299   0.208570  -1.796488  -0.209366   0.579914
     9  C   -0.008823   0.000341  -0.190558  -4.094162  -1.113349   1.516531
    10  C    0.014332   0.000211   0.135334   3.802265   1.197715  -1.256277
    11  C   -0.011463   0.000062  -0.072005   3.045960  -0.269033  -2.680883
    12  C    0.004788   0.000564   0.007725 -19.047822  -7.411539   3.012781
    13  H    0.546434  -0.006914   0.005750   0.011986   0.021318  -0.000230
    14  H   -0.006914   0.502790   0.000012   0.000042   0.002797  -0.000001
    15  H    0.005750   0.000012   0.537375   0.031780   0.012448  -0.001487
    16  Cl   0.011986   0.000042   0.031780  39.879822   7.675822  -2.970592
    17  Cl   0.021318   0.002797   0.012448   7.675822  35.265237  -0.566930
    18  Cl  -0.000230  -0.000001  -0.001487  -2.970592  -0.566930  19.262689
    19  Cl  -0.001263  -0.002133  -0.000307  -0.745046  -2.768768   0.002435
    20  Cl   0.000215   0.000000   0.004048   0.483627   0.051652  -0.743028
    21  Cl   0.001285  -0.004107   0.000222   0.056053   0.332299  -0.000301
    22  Cl  -0.001363  -0.000002  -0.030939  -0.090828  -0.014792   0.046559
              19         20         21         22
     1  C    0.049936  -0.071115  -0.464240  -0.091710
     2  C    0.207669   0.012640  -0.213922  -0.087967
     3  C    1.648131  -0.001872  -1.245650   0.008033
     4  C   -0.500978   0.002668  -0.143680  -0.017327
     5  C   -3.504519  -0.009149   1.204103   0.003301
     6  C    2.825683  -0.038608  -0.013064  -0.030120
     7  C    0.210713   0.304636  -0.120154  -1.057528
     8  C   -0.033368  -0.569653  -0.009008   0.429489
     9  C    0.037111  -2.287090  -0.007390   0.948229
    10  C   -0.036580   1.536787   0.003997  -1.209791
    11  C   -0.004317   0.482506  -0.004589   0.023883
    12  C    0.247932  -0.698566  -0.043107   0.335996
    13  H   -0.001263   0.000215   0.001285  -0.001363
    14  H   -0.002133   0.000000  -0.004107  -0.000002
    15  H   -0.000307   0.004048   0.000222  -0.030939
    16  Cl  -0.745046   0.483627   0.056053  -0.090828
    17  Cl  -2.768768   0.051652   0.332299  -0.014792
    18  Cl   0.002435  -0.743028  -0.000301   0.046559
    19  Cl  19.268689  -0.000402  -0.575017   0.000348
    20  Cl  -0.000402  18.226995   0.000025  -0.317985
    21  Cl  -0.575017   0.000025  17.759716  -0.000112
    22  Cl   0.000348  -0.317985  -0.000112  17.608198
 Mulliken charges:
               1
     1  C   -0.069343
     2  C   -0.244148
     3  C   -0.468595
     4  C    0.489930
     5  C   -0.827086
     6  C   -1.453766
     7  C   -0.403550
     8  C   -0.646529
     9  C    0.136349
    10  C   -0.211480
    11  C   -0.786986
    12  C   -0.926979
    13  H    0.132952
    14  H    0.156049
    15  H    0.142806
    16  Cl   1.018665
    17  Cl   0.975404
    18  Cl   0.647520
    19  Cl   0.674051
    20  Cl   0.631668
    21  Cl   0.486642
    22  Cl   0.546426
 Sum of Mulliken charges =  -0.00000
 Mulliken charges with hydrogens summed into heavy atoms:
               1
     1  C   -0.069343
     2  C   -0.111196
     3  C   -0.312546
     4  C    0.489930
     5  C   -0.827086
     6  C   -1.453766
     7  C   -0.403550
     8  C   -0.503723
     9  C    0.136349
    10  C   -0.211480
    11  C   -0.786986
    12  C   -0.926979
    16  Cl   1.018665
    17  Cl   0.975404
    18  Cl   0.647520
    19  Cl   0.674051
    20  Cl   0.631668
    21  Cl   0.486642
    22  Cl   0.546426
 Electronic spatial extent (au):  <R**2>=          11124.8817
 Charge=             -0.0000 electrons
 Dipole moment (field-independent basis, Debye):
    X=             -1.0736    Y=              0.1883    Z=              0.0000  Tot=              1.0900
 Quadrupole moment (field-independent basis, Debye-Ang):
   XX=           -181.8965   YY=           -148.7057   ZZ=           -159.2195
   XY=             -1.7637   XZ=              0.0000   YZ=              0.0000
 Traceless Quadrupole moment (field-independent basis, Debye-Ang):
   XX=            -18.6226   YY=             14.5682   ZZ=              4.0544
   XY=             -1.7637   XZ=              0.0000   YZ=              0.0000
 Octapole moment (field-independent basis, Debye-Ang**2):
  XXX=             23.5703  YYY=             -6.0869  ZZZ=              0.0000  XYY=            -16.8987
  XXY=            -10.4611  XXZ=             -0.0000  XZZ=              3.3511  YZZ=            -14.5981
  YYZ=              0.0001  XYZ=             -0.0000
 Hexadecapole moment (field-independent basis, Debye-Ang**3):
 XXXX=         -11938.7318 YYYY=          -2828.8764 ZZZZ=           -187.4845 XXXY=             38.6394
 XXXZ=              0.0004 YYYX=            -13.0179 YYYZ=              0.0001 ZZZX=              0.0001
 ZZZY=              0.0000 XXYY=          -2380.5886 XXZZ=          -1985.7304 YYZZ=           -537.5873
 XXYZ=              0.0000 YYXZ=              0.0001 ZZXY=             15.7921
 N-N= 2.323391555264D+03 E-N=-1.336567680549D+04  KE= 3.671839951731D+03
 Calling FoFJK, ICntrl=      2127 FMM=F ISym2X=0 I1Cent= 0 IOpClX= 0 NMat=1 NMatS=1 NMatT=0.
 ***** Axes restored to original set *****
 -------------------------------------------------------------------
 Center     Atomic                   Forces (Hartrees/Bohr)
 Number     Number              X              Y              Z
 -------------------------------------------------------------------
      1        6          -0.022370476   -0.053967795   -0.002765600
      2        6          -0.014555504    0.004142134    0.005573503
      3        6          -0.015839096    0.000162387    0.005248853
      4        6          -0.005378292   -0.004924221    0.000846897
      5        6           0.004924687   -0.023310123   -0.006000125
      6        6           0.129552974   -0.008282112   -0.044237704
      7        6           0.031656437    0.042999427   -0.002353670
      8        6          -0.006167137    0.012495012    0.004378522
      9        6          -0.000359594    0.004297440    0.000925529
     10        6          -0.006640627   -0.000974204    0.002004873
     11        6           0.029626211    0.009582623   -0.007960869
     12        6           0.068349341   -0.118047157   -0.044688332
     13        1           0.006456338   -0.007811734   -0.003594263
     14        1           0.008127313    0.000952950   -0.002498595
     15        1           0.009523423   -0.002578150   -0.003621840
     16       17          -0.189087712   -0.088112736    0.045748932
     17       17          -0.016211550    0.217898774    0.046263222
     18       17          -0.007784789    0.005146574    0.003531334
     19       17          -0.008296794    0.003569634    0.003403791
     20       17           0.000561338    0.000245517   -0.000138885
     21       17           0.003548641   -0.001810672   -0.001509157
     22       17           0.000364866    0.008326433    0.001443584
 -------------------------------------------------------------------
 Cartesian Forces:  Max     0.217898774 RMS     0.046754915

 GradGradGradGradGradGradGradGradGradGradGradGradGradGradGradGradGradGrad
 Berny optimization.
 FormGI is forming the generalized inverse of G from B-inverse, IUseBI=4.
 Internal  Forces:  Max     0.495431376 RMS     0.074244806
 Search for a local minimum.
 Step number   1 out of a maximum of  112
 All quantities printed in internal units (Hartrees-Bohrs-Radians)
 Mixed Optimization -- RFO/linear search
 Second derivative matrix not updated -- first step.
 ITU=  0
     Eigenvalues ---    0.00238   0.00238   0.01655   0.01655   0.02070
     Eigenvalues ---    0.02070   0.02070   0.02070   0.02070   0.02070
     Eigenvalues ---    0.02070   0.02070   0.02070   0.02070   0.02070
     Eigenvalues ---    0.02070   0.02070   0.02070   0.04301   0.16000
     Eigenvalues ---    0.16000   0.16000   0.22422   0.23353   0.24427
     Eigenvalues ---    0.25000   0.25000   0.25000   0.25000   0.25000
     Eigenvalues ---    0.25000   0.25000   0.25000   0.25000   0.25000
     Eigenvalues ---    0.25000   0.25000   0.29539   0.29539   0.29539
     Eigenvalues ---    0.29539   0.29539   0.29539   0.29539   0.37230
     Eigenvalues ---    0.37230   0.37230   0.41541   0.41671   0.42141
     Eigenvalues ---    0.42184   0.45389   0.45389   0.45389   0.45389
     Eigenvalues ---    0.45389   0.45389   0.45389   0.45389   1.32680
 RFO step:  Lambda=-6.26434046D-01 EMin= 2.37799081D-03
 Linear search not attempted -- first point.
 Maximum step size (   0.300) exceeded in Quadratic search.
    -- Step size scaled by   0.357
 Iteration  1 RMS(Cart)=  0.28672527 RMS(Int)=  0.01801802
 Iteration  2 RMS(Cart)=  0.32088778 RMS(Int)=  0.00922511
 Iteration  3 RMS(Cart)=  0.09948300 RMS(Int)=  0.00058066
 Iteration  4 RMS(Cart)=  0.00095095 RMS(Int)=  0.00000394
 Iteration  5 RMS(Cart)=  0.00000024 RMS(Int)=  0.00000394
 Variable       Old X    -DE/DX   Delta X   Delta X   Delta X     New X
                                 (Linear)    (Quad)   (Total)
    R1        2.64826  -0.01508   0.00000  -0.00492  -0.00491   2.64335
    R2        2.64826   0.02656   0.00000   0.00880   0.00880   2.65706
    R3        2.64826   0.00192   0.00000   0.00068   0.00068   2.64894
    R4        2.02201   0.01055   0.00000   0.00377   0.00377   2.02578
    R5        2.64826   0.00340   0.00000   0.00111   0.00110   2.64936
    R6        2.02201   0.00852   0.00000   0.00305   0.00305   2.02505
    R7        2.64826  -0.00315   0.00000  -0.00110  -0.00111   2.64715
    R8        3.32592   0.00024   0.00000   0.00009   0.00009   3.32601
    R9        2.64826  -0.03033   0.00000  -0.01007  -0.01007   2.63819
   R10        3.32592   0.00774   0.00000   0.00300   0.00300   3.32892
   R11        3.32592   0.09406   0.00000   0.03643   0.03643   3.36235
   R12        2.64826  -0.01789   0.00000  -0.00587  -0.00587   2.64240
   R13        2.64826   0.02237   0.00000   0.00734   0.00735   2.65561
   R14        2.64826   0.00173   0.00000   0.00067   0.00067   2.64893
   R15        2.02201   0.01012   0.00000   0.00362   0.00362   2.02562
   R16        2.64826   0.01208   0.00000   0.00405   0.00404   2.65230
   R17        3.32592  -0.00729   0.00000  -0.00282  -0.00282   3.32310
   R18        2.64826  -0.00321   0.00000  -0.00110  -0.00110   2.64716
   R19        3.32592  -0.00050   0.00000  -0.00019  -0.00019   3.32573
   R20        2.64826  -0.03268   0.00000  -0.01089  -0.01089   2.63737
   R21        3.32592   0.00838   0.00000   0.00325   0.00325   3.32917
   R22        3.32592   0.09967   0.00000   0.03860   0.03860   3.36452
   R23        3.16132   0.14461   0.00000   0.02643   0.02643   3.18776
    A1        2.09440  -0.01795   0.00000  -0.00719  -0.00717   2.08722
    A2        2.09440  -0.00608   0.00000  -0.00244  -0.00244   2.09196
    A3        2.09440   0.00515   0.00000   0.00218   0.00218   2.09657
    A4        2.09440   0.00093   0.00000   0.00026   0.00026   2.09466
    A5        2.09440   0.01145   0.00000   0.00485   0.00484   2.09923
    A6        2.09440  -0.00493   0.00000  -0.00206  -0.00206   2.09234
    A7        2.09440  -0.00652   0.00000  -0.00278  -0.00278   2.09162
    A8        2.09440   0.00080   0.00000   0.00020   0.00019   2.09459
    A9        2.09440  -0.00748   0.00000  -0.00298  -0.00298   2.09142
   A10        2.09440   0.00667   0.00000   0.00278   0.00279   2.09718
   A11        2.09440  -0.01796   0.00000  -0.00748  -0.00748   2.08691
   A12        2.09440   0.01857   0.00000   0.00765   0.00765   2.10204
   A13        2.09440  -0.00061   0.00000  -0.00017  -0.00016   2.09423
   A14        2.09440   0.02975   0.00000   0.01206   0.01207   2.10646
   A15        2.09440  -0.10497   0.00000  -0.04273  -0.04274   2.05166
   A16        2.09440   0.07522   0.00000   0.03067   0.03067   2.12506
   A17        2.09440  -0.01562   0.00000  -0.00636  -0.00635   2.08805
   A18        2.09440  -0.00763   0.00000  -0.00303  -0.00302   2.09137
   A19        2.09440   0.00669   0.00000   0.00282   0.00281   2.09721
   A20        2.09440   0.00095   0.00000   0.00021   0.00021   2.09460
   A21        2.09440   0.01331   0.00000   0.00563   0.00562   2.10001
   A22        2.09440  -0.01380   0.00000  -0.00572  -0.00572   2.08868
   A23        2.09440   0.00049   0.00000   0.00010   0.00010   2.09450
   A24        2.09440  -0.00529   0.00000  -0.00212  -0.00213   2.09226
   A25        2.09440   0.00201   0.00000   0.00080   0.00081   2.09520
   A26        2.09440   0.00329   0.00000   0.00132   0.00133   2.09572
   A27        2.09440  -0.01462   0.00000  -0.00611  -0.00611   2.08828
   A28        2.09440   0.01631   0.00000   0.00672   0.00672   2.10112
   A29        2.09440  -0.00169   0.00000  -0.00061  -0.00061   2.09379
   A30        2.09440   0.02985   0.00000   0.01199   0.01200   2.10639
   A31        2.09440  -0.10877   0.00000  -0.04423  -0.04423   2.05017
   A32        2.09440   0.07892   0.00000   0.03223   0.03223   2.12663
   A33        2.09440  -0.48333   0.00000  -0.19689  -0.19689   1.89751
   A34        2.09440  -0.49543   0.00000  -0.20182  -0.20182   1.89257
    D1        0.00000  -0.00000   0.00000  -0.00000  -0.00000   0.00000
    D2        3.14159   0.00000   0.00000   0.00000   0.00000   3.14159
    D3       -0.00000   0.00000   0.00000   0.00000   0.00000  -0.00000
    D4        3.14159   0.00000   0.00000   0.00000   0.00000   3.14159
    D5        0.00000  -0.00000   0.00000  -0.00000  -0.00000   0.00000
    D6        3.14159   0.00000   0.00000   0.00000   0.00000   3.14159
    D7       -3.14159  -0.00000   0.00000  -0.00000  -0.00000  -3.14159
    D8        0.00000  -0.00000   0.00000  -0.00000  -0.00000   0.00000
    D9       -0.00000   0.00000   0.00000   0.00000   0.00000  -0.00000
   D10        3.14159  -0.00000   0.00000  -0.00000  -0.00000   3.14159
   D11        3.14159   0.00000   0.00000   0.00000   0.00000   3.14159
   D12        0.00000  -0.00000   0.00000  -0.00000  -0.00000   0.00000
   D13        0.00000  -0.00000   0.00000  -0.00000  -0.00000   0.00000
   D14       -3.14159  -0.00000   0.00000  -0.00000  -0.00000  -3.14159
   D15       -3.14159  -0.00000   0.00000  -0.00000  -0.00000  -3.14159
   D16        0.00000  -0.00000   0.00000   0.00000   0.00000   0.00000
   D17       -0.00000   0.00000   0.00000   0.00000   0.00000  -0.00000
   D18        3.14159  -0.00000   0.00000  -0.00000  -0.00000   3.14159
   D19        3.14159   0.00000   0.00000   0.00000   0.00000   3.14159
   D20       -0.00000  -0.00000   0.00000  -0.00000  -0.00000  -0.00000
   D21        0.00001  -0.00000   0.00000  -0.00000  -0.00000   0.00001
   D22       -3.14159   0.00000   0.00000   0.00000   0.00000  -3.14159
   D23        0.00000  -0.00000   0.00000  -0.00000  -0.00000   0.00000
   D24       -3.14159  -0.00000   0.00000  -0.00000  -0.00000  -3.14159
   D25       -0.00000   0.00000   0.00000   0.00000   0.00000  -0.00000
   D26        3.14159   0.00000   0.00000   0.00000   0.00000   3.14159
   D27       -0.00000  -0.00000   0.00000  -0.00000  -0.00000  -0.00000
   D28        3.14159  -0.00000   0.00000  -0.00000  -0.00000   3.14159
   D29        3.14159   0.00000   0.00000   0.00000   0.00000   3.14159
   D30       -0.00000   0.00000   0.00000   0.00000   0.00000  -0.00000
   D31       -0.00000   0.00000   0.00000   0.00000   0.00000  -0.00000
   D32       -3.14159  -0.00000   0.00000  -0.00000  -0.00000  -3.14159
   D33        3.14159   0.00000   0.00000   0.00000   0.00000   3.14159
   D34        0.00000  -0.00000   0.00000  -0.00000  -0.00000   0.00000
   D35        0.00000   0.00000   0.00000   0.00000   0.00000   0.00000
   D36       -3.14159  -0.00000   0.00000  -0.00000  -0.00000  -3.14159
   D37        3.14159   0.00000   0.00000   0.00000   0.00000   3.14159
   D38        0.00000   0.00000   0.00000   0.00000   0.00000   0.00000
   D39        0.00000  -0.00000   0.00000  -0.00000  -0.00000   0.00000
   D40       -3.14159  -0.00000   0.00000  -0.00000  -0.00000  -3.14159
   D41        3.14159   0.00000   0.00000   0.00000   0.00000   3.14159
   D42       -0.00000  -0.00000   0.00000  -0.00000  -0.00000  -0.00000
   D43        0.00001  -0.00000   0.00000  -0.00000  -0.00000   0.00001
   D44       -3.14159   0.00000   0.00000   0.00000   0.00000  -3.14159
   D45       -0.00001   0.00000   0.00000   0.00000   0.00000  -0.00001
         Item               Value     Threshold  Converged?
 Maximum Force            0.495431     0.000450     NO 
 RMS     Force            0.074245     0.000300     NO 
 Maximum Displacement     2.115076     0.001800     NO 
 RMS     Displacement     0.703797     0.001200     NO 
 Predicted change in Energy=-2.119183D-01
 GradGradGradGradGradGradGradGradGradGradGradGradGradGradGradGradGradGrad

                          Input orientation:                          
 ---------------------------------------------------------------------
 Center     Atomic      Atomic             Coordinates (Angstroms)
 Number     Number       Type             X           Y           Z
 ---------------------------------------------------------------------
      1          6           0       -1.115365    1.419030    0.322218
      2          6           0        0.164317    1.118224   -0.155873
      3          6           0        1.120204    2.136013   -0.279645
      4          6           0        0.799021    3.454163    0.073731
      5          6           0       -0.481551    3.758890    0.552850
      6          6           0       -1.431282    2.742957    0.674942
      7          6           0       -1.557670    0.668578    0.326995
      8          6           0       -0.682748   -0.314353   -0.145857
      9          6           0       -1.118007   -1.642590   -0.251913
     10          6           0       -2.427530   -1.990501    0.114179
     11          6           0       -3.304492   -1.006245    0.587953
     12          6           0       -2.867836    0.315212    0.692275
     13          1           0        0.414433    0.111771   -0.427294
     14          1           0        2.100666    1.905956   -0.645868
     15          1           0        0.318430   -0.054174   -0.426837
     16         17           0       -3.932736    1.612337    1.286729
     17         17           0       -3.074530    3.064567    1.276717
     18         17           0       -4.951040   -1.428063    1.051205
     19         17           0       -0.897237    5.411262    1.000126
     20         17           0       -2.966373   -3.660343   -0.021904
     21         17           0        2.008321    4.722912   -0.086395
     22         17           0       -0.014304   -2.875457   -0.847080
 ---------------------------------------------------------------------
                    Distance matrix (angstroms):
                    1          2          3          4          5
     1  C    0.000000
     2  C    1.398800   0.000000
     3  C    2.423648   1.401761   0.000000
     4  C    2.805064   2.431497   1.401982   0.000000
     5  C    2.435129   2.809368   2.427425   1.400813   0.000000
     6  C    1.406058   2.424035   2.791003   2.416923   1.396071
     7  C    0.871112   1.844067   3.113260   3.657543   3.280102
     8  C    1.846854   1.664301   3.045132   4.055314   4.137629
     9  C    3.114988   3.045598   4.391832   5.455083   5.498063
    10  C    3.659230   4.056448   5.456155   6.329031   6.085619
    11  C    3.277935   4.135128   5.495857   6.082638   5.538659
    12  C    2.103928   3.249329   4.490480   4.866359   4.191982
    13  H    2.147318   1.071995   2.148829   3.401546   3.881358
    14  H    3.393692   2.147106   1.071612   2.146869   3.396782
    15  H    2.187963   1.213132   2.336969   3.576306   4.017364
    16  Cl   2.984163   4.371623   5.316010   5.220461   4.130005
    17  Cl   2.730785   4.041125   4.569493   4.074721   2.780217
    18  Cl   4.832159   5.840161   7.164761   7.606233   6.865069
    19  Cl   4.055250   4.570931   4.054028   2.750588   1.761586
    20  Cl   5.417074   5.714356   7.096780   8.050064   7.845361
    21  Cl   4.565086   4.049562   2.741924   1.760048   2.745439
    22  Cl   4.584999   4.056989   5.169519   6.447750   6.796520
                    6          7          8          9         10
     6  C    0.000000
     7  C    2.107152   0.000000
     8  C    3.252869   1.398296   0.000000
     9  C    4.493353   2.422795   1.401752   0.000000
    10  C    4.869557   2.805824   2.433384   1.403538   0.000000
    11  C    4.192016   2.434033   2.809045   2.427144   1.400815
    12  C    2.820981   1.405287   2.423515   2.790409   2.417515
    13  H    3.397753   2.183615   1.210204   2.336003   3.576240
    14  H    3.862611   3.982586   3.595439   4.806998   6.022011
    15  H    3.478412   2.147181   1.071914   2.148723   3.403286
    16  Cl   2.812447   2.729964   4.040650   4.569974   4.076881
    17  Cl   1.779278   2.990585   4.377378   5.321844   5.227219
    18  Cl   5.470619   4.054052   4.570735   4.054168   2.749992
    19  Cl   2.740584   4.835527   5.843111   7.167507   7.610046
    20  Cl   6.621506   4.565713   4.052895   2.746032   1.759898
    21  Cl   4.041129   5.415239   5.711342   7.093725   8.049032
    22  Cl   5.990906   4.039878   2.738209   1.758507   2.744235
                   11         12         13         14         15
    11  C    0.000000
    12  C    1.395636   0.000000
    13  H    4.013862   3.473919   0.000000
    14  H    6.262505   5.385825   2.471893   0.000000
    15  H    3.880954   3.397227   0.191715   2.658280   0.000000
    16  Cl   2.782077   1.780427   4.907896   6.342167   4.877087
    17  Cl   4.135069   2.818377   4.878065   5.641043   4.913331
    18  Cl   1.761718   2.739995   5.774542   7.982625   5.642649
    19  Cl   6.866524   5.472454   5.642925   4.897335   5.777981
    20  Cl   2.744173   4.040396   5.081637   7.553006   4.894727
    21  Cl   7.842447   6.618992   4.890737   2.873461   5.078601
    22  Cl   4.047050   4.548915   3.046895   5.232160   2.871751
                   16         17         18         19         20
    16  Cl   0.000000
    17  Cl   1.686888   0.000000
    18  Cl   3.215035   4.874000   0.000000
    19  Cl   4.871162   3.213111   7.950615   0.000000
    20  Cl   5.517928   6.850002   3.173884   9.360549   0.000000
    21  Cl   6.845239   5.517568   9.357421   3.177519   9.748369
    22  Cl   6.328313   7.011376   5.483593   8.535892   3.164123
                   21         22
    21  Cl   0.000000
    22  Cl   7.899675   0.000000
 Stoichiometry    C12H3Cl7
 Framework group  C1[X(C12H3Cl7)]
 Deg. of freedom    60
 Full point group                 C1      NOp   1
 Largest Abelian subgroup         C1      NOp   1
 Largest concise Abelian subgroup C1      NOp   1
                         Standard orientation:                         
 ---------------------------------------------------------------------
 Center     Atomic      Atomic             Coordinates (Angstroms)
 Number     Number       Type             X           Y           Z
 ---------------------------------------------------------------------
      1          6           0       -0.626794    0.269527   -0.000001
      2          6           0       -0.835889    1.652610    0.000001
      3          6           0       -2.142222    2.160967    0.000004
      4          6           0       -3.240044    1.288992    0.000004
      5          6           0       -3.034238   -0.096620   -0.000001
      6          6           0       -1.731969   -0.599719   -0.000003
      7          6           0        0.236401    0.152351   -0.000002
      8          6           0        0.812947    1.426253   -0.000003
      9          6           0        2.208302    1.560024   -0.000003
     10          6           0        3.029273    0.421637   -0.000002
     11          6           0        2.452278   -0.854827   -0.000000
     12          6           0        1.062666   -0.984363   -0.000000
     13          1           0        0.000475    2.323184    0.000003
     14          1           0       -2.302809    3.220478    0.000006
     15          1           0        0.190665    2.299045   -0.000002
     16         17           0        0.267656   -2.577435    0.000004
     17         17           0       -1.403617   -2.348437   -0.000007
     18         17           0        3.470066   -2.292798    0.000006
     19         17           0       -4.405438   -1.202512   -0.000004
     20         17           0        4.780311    0.598015    0.000001
     21         17           0       -4.875234    1.940085    0.000007
     22         17           0        2.929046    3.164041   -0.000005
 ---------------------------------------------------------------------
 Rotational constants (GHZ):           0.3702040           0.1362081           0.0995726
 Standard basis: 6-311+G(d,p) (5D, 7F)
 There are   511 symmetry adapted cartesian basis functions of A   symmetry.
 There are   492 symmetry adapted basis functions of A   symmetry.
   492 basis functions,   827 primitive gaussians,   511 cartesian basis functions
    97 alpha electrons       97 beta electrons
       nuclear repulsion energy      2458.9515666631 Hartrees.
 NAtoms=   22 NActive=   22 NUniq=   22 SFac= 1.00D+00 NAtFMM=   60 NAOKFM=F Big=F
 Integral buffers will be    131072 words long.
 Raffenetti 2 integral format.
 Two-electron integral symmetry is turned on.
 One-electron integrals computed using PRISM.
 NBasis=   492 RedAO= T EigKep=  1.24D-06  NBF=   492
 NBsUse=   483 1.00D-06 EigRej=  7.03D-07 NBFU=   483
 Initial guess from the checkpoint file:  "./Gau-154002.chk"
 B after Tr=    -0.000000    0.000000    0.000000
         Rot=    0.999967    0.000000   -0.000000   -0.008086 Ang=   0.93 deg.
 ExpMin= 4.38D-02 ExpMax= 1.06D+05 ExpMxC= 3.62D+03 IAcc=3 IRadAn=         5 AccDes= 0.00D+00
 Harris functional with IExCor=  402 and IRadAn=       5 diagonalized for initial guess.
 HarFok:  IExCor=  402 AccDes= 0.00D+00 IRadAn=         5 IDoV= 1 UseB2=F ITyADJ=14
 ICtDFT=  3500011 ScaDFX=  1.000000  1.000000  1.000000  1.000000
 FoFCou: FMM=F IPFlag=           0 FMFlag=      100000 FMFlg1=           0
         NFxFlg=           0 DoJE=T BraDBF=F KetDBF=T FulRan=T
         wScrn=  0.000000 ICntrl=       500 IOpCl=  0 I1Cent=   200000004 NGrid=           0
         NMat0=    1 NMatS0=      1 NMatT0=    0 NMatD0=    1 NMtDS0=    0 NMtDT0=    0
 Petite list used in FoFCou.
 Requested convergence on RMS density matrix=1.00D-08 within  32 cycles.
 Requested convergence on MAX density matrix=1.00D-06.
 Requested convergence on             energy=1.00D-06.
 No special actions if energy rises.
 Restarting incremental Fock formation.
 >>>>>>>>>> Convergence criterion not met.
 SCF Done:  E(RB3LYP) =  -3677.62892510     A.U. after   33 cycles
            NFock= 32  Conv=0.77D-07     -V/T= 2.0001
 SCF Done:  E(RB3LYP) =  -3677.62892510     a.u. after    1 cycles
            Convg  =    0.1186D-06                     1 Fock formations.
              S**2 =  0.0000                  -V/T =  2.0001
 Calling FoFJK, ICntrl=      2127 FMM=F ISym2X=0 I1Cent= 0 IOpClX= 0 NMat=1 NMatS=1 NMatT=0.
 ***** Axes restored to original set *****
 -------------------------------------------------------------------
 Center     Atomic                   Forces (Hartrees/Bohr)
 Number     Number              X              Y              Z
 -------------------------------------------------------------------
      1        6           1.067363949    1.919535036    0.008859226
      2        6           0.131335325    0.195524629   -0.006545806
      3        6           0.023159491    0.003636389   -0.006947592
      4        6           0.017391439   -0.019564379   -0.009404651
      5        6          -0.045051281   -0.015322221    0.011964760
      6        6           0.109224409    0.033267475   -0.029735839
      7        6          -1.147318398   -1.879835380    0.024938066
      8        6          -0.292657758   -0.244123022    0.050566866
      9        6           0.001629748   -0.012074965   -0.002803371
     10        6           0.022176118   -0.014983457   -0.010119713
     11        6           0.001465958    0.049838357    0.008876875
     12        6           0.027662010   -0.124672049   -0.032527782
     13        1           3.498796077    5.834062827   -0.056815663
     14        1           0.009452020    0.002668767   -0.002612681
     15        1          -3.268087759   -5.817847393   -0.016147610
     16       17          -0.195535370   -0.152518861    0.035778020
     17       17           0.044279071    0.248901162    0.032155230
     18       17          -0.002257684    0.003459648    0.001393505
     19       17          -0.004128223   -0.000428426    0.001279557
     20       17          -0.001648829   -0.005616934   -0.000511872
     21       17          -0.000262328   -0.005982152   -0.001036863
     22       17           0.003012015    0.002074948   -0.000602660
 -------------------------------------------------------------------
 Cartesian Forces:  Max     5.834062827 RMS     1.236157767

 GradGradGradGradGradGradGradGradGradGradGradGradGradGradGradGradGradGrad
 Berny optimization.
 Using GEDIIS/GDIIS optimizer.
 FormGI is forming the generalized inverse of G from B-inverse, IUseBI=4.
 Internal  Forces:  Max    75.043578804 RMS    11.693616715
 Search for a local minimum.
 Step number   2 out of a maximum of  112
 All quantities printed in internal units (Hartrees-Bohrs-Radians)
 Mixed Optimization -- RFO/linear search
 Update second derivatives using D2CorX and points    2    1
 DE=  2.56D+00 DEPred=-2.12D-01 R=-1.21D+01
 Trust test=-1.21D+01 RLast= 3.00D-01 DXMaxT set to 1.50D-01
 ITU= -1  0
 Use linear search instead of GDIIS.
     Eigenvalues ---    0.00238   0.00238   0.01666   0.01666   0.02070
     Eigenvalues ---    0.02070   0.02070   0.02070   0.02070   0.02070
     Eigenvalues ---    0.02070   0.02070   0.02070   0.02070   0.02070
     Eigenvalues ---    0.02070   0.02070   0.02070   0.04301   0.15822
     Eigenvalues ---    0.16000   0.16000   0.22374   0.23126   0.23895
     Eigenvalues ---    0.24601   0.25000   0.25000   0.25000   0.25000
     Eigenvalues ---    0.25000   0.25000   0.25000   0.25000   0.25000
     Eigenvalues ---    0.25000   0.28309   0.29539   0.29539   0.29539
     Eigenvalues ---    0.29539   0.29539   0.29539   0.37175   0.37227
     Eigenvalues ---    0.37230   0.41523   0.41647   0.41904   0.42172
     Eigenvalues ---    0.45225   0.45336   0.45389   0.45389   0.45389
     Eigenvalues ---    0.45389   0.45389   0.45389   1.25184 423.12214
 RFO step:  Lambda=-2.35769222D+01 EMin= 2.37799081D-03
 Quartic linear search produced a step of -0.39575.
 Maximum step size (   0.150) exceeded in Quadratic search.
    -- Step size scaled by   0.152
 Iteration  1 RMS(Cart)=  0.24990817 RMS(Int)=  0.00521025
 Iteration  2 RMS(Cart)=  0.03634103 RMS(Int)=  0.00011331
 Iteration  3 RMS(Cart)=  0.00023607 RMS(Int)=  0.00001375
 Iteration  4 RMS(Cart)=  0.00000001 RMS(Int)=  0.00001375
 Variable       Old X    -DE/DX   Delta X   Delta X   Delta X     New X
                                 (Linear)    (Quad)   (Total)
    R1        2.64335   5.32215   0.00194   0.01105   0.01301   2.65636
    R2        2.65706  -1.30127  -0.00348   0.00807   0.00461   2.66167
    R3        2.64894  -1.85614  -0.00027  -0.00531  -0.00559   2.64336
    R4        2.02578  -4.64665  -0.00149  -0.01041  -0.01190   2.01388
    R5        2.64936  -5.11451  -0.00044  -0.01574  -0.01620   2.63316
    R6        2.02505   0.00897  -0.00121   0.00434   0.00314   2.02819
    R7        2.64715  -3.23005   0.00044  -0.01250  -0.01207   2.63508
    R8        3.32601  -0.00440  -0.00004   0.00012   0.00008   3.32609
    R9        2.63819   1.84353   0.00399  -0.00800  -0.00401   2.63418
   R10        3.32892   0.00090  -0.00119   0.00426   0.00307   3.33199
   R11        3.36235   3.03401  -0.01442   0.06202   0.04761   3.40996
   R12        2.64240   5.28579   0.00232   0.00958   0.01191   2.65431
   R13        2.65561  -1.29677  -0.00291   0.00602   0.00314   2.65874
   R14        2.64893  -1.86080  -0.00026  -0.00535  -0.00562   2.64331
   R15        2.02562  -4.46032  -0.00143  -0.00999  -0.01142   2.01420
   R16        2.65230  -5.10547  -0.00160  -0.01156  -0.01317   2.63913
   R17        3.32310   0.00064   0.00112  -0.00400  -0.00289   3.32021
   R18        2.64716  -3.22400   0.00044  -0.01247  -0.01204   2.63511
   R19        3.32573   0.00587   0.00008  -0.00025  -0.00018   3.32555
   R20        2.63737   1.84465   0.00431  -0.00916  -0.00484   2.63253
   R21        3.32917   0.00165  -0.00129   0.00461   0.00333   3.33249
   R22        3.36452   3.06774  -0.01528   0.06522   0.04994   3.41446
   R23        3.18776   9.52472  -0.01046   0.06750   0.05704   3.24479
    A1        2.08722  -5.32366   0.00284  -0.02827  -0.02537   2.06185
    A2        2.09196   4.58754   0.00096   0.01219   0.01316   2.10511
    A3        2.09657   2.73916  -0.00086   0.01248   0.01162   2.10819
    A4        2.09466  -7.32669  -0.00010  -0.02467  -0.02477   2.06988
    A5        2.09923  -0.60699  -0.00192   0.00478   0.00283   2.10206
    A6        2.09234   0.30833   0.00082  -0.00186  -0.00103   2.09131
    A7        2.09162   0.29865   0.00110  -0.00292  -0.00180   2.08981
    A8        2.09459  -2.02955  -0.00008  -0.00669  -0.00681   2.08777
    A9        2.09142   1.00780   0.00118  -0.00077   0.00043   2.09184
   A10        2.09718   1.02175  -0.00110   0.00747   0.00639   2.10357
   A11        2.08691   5.03908   0.00296   0.00650   0.00945   2.09636
   A12        2.10204  -2.51247  -0.00303   0.00233  -0.00069   2.10135
   A13        2.09423  -2.52661   0.00007  -0.00883  -0.00876   2.08547
   A14        2.10646  -1.66643  -0.00478   0.01149   0.00675   2.11321
   A15        2.05166  23.59566   0.01691   0.01962   0.03652   2.08818
   A16        2.12506 -21.92923  -0.01214  -0.03111  -0.04326   2.08180
   A17        2.08805  -5.32418   0.00251  -0.02710  -0.02454   2.06351
   A18        2.09137   4.58832   0.00120   0.01136   0.01256   2.10393
   A19        2.09721   2.73265  -0.00111   0.01336   0.01225   2.10946
   A20        2.09460  -7.32097  -0.00008  -0.02472  -0.02481   2.06980
   A21        2.10001  -0.59304  -0.00222   0.00594   0.00368   2.10369
   A22        2.08868   0.29045   0.00226  -0.00712  -0.00484   2.08383
   A23        2.09450   0.30259  -0.00004   0.00119   0.00117   2.09566
   A24        2.09226  -2.04846   0.00084  -0.01006  -0.00925   2.08301
   A25        2.09520   1.02395  -0.00032   0.00466   0.00436   2.09956
   A26        2.09572   1.02450  -0.00053   0.00540   0.00489   2.10062
   A27        2.08828   5.04392   0.00242   0.00847   0.01088   2.09916
   A28        2.10112  -2.51524  -0.00266   0.00100  -0.00166   2.09946
   A29        2.09379  -2.52868   0.00024  -0.00947  -0.00922   2.08456
   A30        2.10639  -1.66657  -0.00475   0.01140   0.00667   2.11307
   A31        2.05017  23.58470   0.01750   0.01746   0.03495   2.08511
   A32        2.12663 -21.91813  -0.01276  -0.02885  -0.04162   2.08500
   A33        1.89751  75.02071   0.07792  -0.02431   0.05361   1.95111
   A34        1.89257  75.04358   0.07987  -0.03124   0.04863   1.94120
    D1        0.00000  -0.00006   0.00000  -0.00000  -0.00000   0.00000
    D2        3.14159  -0.00014  -0.00000  -0.00000  -0.00000   3.14159
    D3       -0.00000   0.00002  -0.00000   0.00000   0.00000  -0.00000
    D4        3.14159   0.00028  -0.00000   0.00000   0.00000  -3.14159
    D5        0.00000   0.00004   0.00000   0.00000   0.00000   0.00000
    D6        3.14159  -0.00000  -0.00000   0.00000   0.00000   3.14159
    D7       -3.14159   0.00011   0.00000   0.00000   0.00000  -3.14159
    D8        0.00000   0.00007   0.00000   0.00000   0.00000   0.00000
    D9       -0.00000   0.00003  -0.00000   0.00000   0.00000  -0.00000
   D10        3.14159  -0.00003   0.00000  -0.00000  -0.00000   3.14159
   D11        3.14159   0.00006  -0.00000   0.00000   0.00000   3.14159
   D12        0.00000   0.00001   0.00000  -0.00000  -0.00000   0.00000
   D13        0.00000  -0.00006   0.00000  -0.00000  -0.00000   0.00000
   D14       -3.14159  -0.00009   0.00000  -0.00000  -0.00000  -3.14159
   D15       -3.14159  -0.00000   0.00000  -0.00000  -0.00000  -3.14159
   D16        0.00000  -0.00003  -0.00000  -0.00000  -0.00000   0.00000
   D17       -0.00000   0.00004  -0.00000   0.00000   0.00000  -0.00000
   D18        3.14159  -0.00021   0.00000  -0.00000  -0.00000   3.14159
   D19        3.14159   0.00007  -0.00000   0.00000   0.00000   3.14159
   D20       -0.00000  -0.00018   0.00000  -0.00000  -0.00000  -0.00000
   D21        0.00001  -0.00052   0.00000  -0.00000  -0.00000   0.00000
   D22       -3.14159  -0.00027  -0.00000  -0.00000  -0.00000  -3.14159
   D23        0.00000  -0.00006   0.00000  -0.00000  -0.00000   0.00000
   D24       -3.14159  -0.00013   0.00000  -0.00000  -0.00000  -3.14159
   D25       -0.00000   0.00003  -0.00000   0.00000   0.00000  -0.00000
   D26        3.14159   0.00027  -0.00000   0.00000   0.00000   3.14159
   D27       -0.00000   0.00004   0.00000   0.00000   0.00000  -0.00000
   D28        3.14159  -0.00000   0.00000  -0.00000  -0.00000   3.14159
   D29        3.14159   0.00011  -0.00000   0.00000   0.00000   3.14159
   D30       -0.00000   0.00007  -0.00000   0.00000   0.00000  -0.00000
   D31       -0.00000   0.00003  -0.00000   0.00000   0.00000  -0.00000
   D32       -3.14159  -0.00004   0.00000  -0.00000  -0.00000  -3.14159
   D33        3.14159   0.00007  -0.00000   0.00000   0.00000  -3.14159
   D34        0.00000   0.00000   0.00000  -0.00000  -0.00000   0.00000
   D35        0.00000  -0.00007  -0.00000  -0.00000  -0.00000  -0.00000
   D36       -3.14159  -0.00010   0.00000  -0.00000  -0.00000  -3.14159
   D37        3.14159  -0.00000  -0.00000   0.00000   0.00000   3.14159
   D38        0.00000  -0.00003  -0.00000  -0.00000  -0.00000   0.00000
   D39        0.00000   0.00004   0.00000   0.00000   0.00000   0.00000
   D40       -3.14159  -0.00023   0.00000  -0.00000  -0.00000  -3.14159
   D41        3.14159   0.00007  -0.00000   0.00000   0.00000   3.14159
   D42       -0.00000  -0.00020   0.00000  -0.00000  -0.00000  -0.00000
   D43        0.00001  -0.00049   0.00000  -0.00000  -0.00000   0.00000
   D44       -3.14159  -0.00024  -0.00000  -0.00000  -0.00000  -3.14159
   D45       -0.00001  -0.00218  -0.00000  -0.00000  -0.00001  -0.00001
         Item               Value     Threshold  Converged?
 Maximum Force            ********     0.000450     NO 
 RMS     Force            ********     0.000300     NO 
 Maximum Displacement     0.909935     0.001800     NO 
 RMS     Displacement     0.285015     0.001200     NO 
 Predicted change in Energy=-8.186262D+00
 GradGradGradGradGradGradGradGradGradGradGradGradGradGradGradGradGradGrad

                          Input orientation:                          
 ---------------------------------------------------------------------
 Center     Atomic      Atomic             Coordinates (Angstroms)
 Number     Number       Type             X           Y           Z
 ---------------------------------------------------------------------
      1          6           0       -0.881572    1.514708    0.263171
      2          6           0        0.437951    1.368873   -0.198937
      3          6           0        1.292908    2.473497   -0.273151
      4          6           0        0.848519    3.737167    0.110576
      5          6           0       -0.457803    3.897887    0.571129
      6          6           0       -1.312852    2.799570    0.646558
      7          6           0       -1.523875    0.417273    0.268655
      8          6           0       -0.759708   -0.669526   -0.187219
      9          6           0       -1.313128   -1.952829   -0.245903
     10          6           0       -2.634598   -2.174298    0.147879
     11          6           0       -3.401322   -1.101711    0.601927
     12          6           0       -2.853395    0.177689    0.661688
     13          1           0        0.808385    0.416034   -0.499922
[...]
                 (A) (A) (A) (A) (A) (A) (A) (A) (A) (A) (A) (A)
                 (A) (A) (A) (A) (A) (A) (A) (A) (A) (A) (A) (A)
                 (A) (A) (A) (A) (A) (A) (A) (A) (A) (A) (A) (A)
                 (A) (A) (A) (A) (A) (A) (A) (A) (A) (A) (A) (A)
                 (A) (A) (A) (A) (A) (A) (A) (A) (A) (A) (A) (A)
                 (A) (A) (A) (A) (A) (A) (A) (A) (A) (A) (A) (A)
                 (A) (A) (A) (A) (A) (A) (A) (A) (A) (A) (A) (A)
                 (A) (A) (A) (A) (A) (A) (A) (A) (A) (A) (A) (A)
                 (A) (A) (A) (A) (A) (A) (A) (A) (A) (A) (A) (A)
                 (A) (A) (A) (A) (A) (A) (A) (A) (A) (A) (A) (A)
                 (A) (A) (A) (A) (A) (A) (A) (A) (A) (A) (A) (A)
                 (A) (A) (A) (A) (A) (A) (A) (A) (A) (A) (A) (A)
                 (A) (A) (A) (A) (A) (A) (A) (A) (A) (A) (A) (A)
                 (A) (A) (A) (A) (A) (A) (A) (A) (A) (A) (A) (A)
                 (A) (A) (A) (A) (A) (A) (A) (A) (A) (A) (A) (A)
                 (A) (A) (A) (A) (A) (A) (A) (A) (A) (A) (A) (A)
                 (A) (A) (A) (A) (A) (A) (A) (A) (A) (A) (A) (A)
                 (A) (A) (A) (A) (A) (A) (A) (A) (A) (A) (A) (A)
                 (A) (A) (A) (A) (A) (A) (A) (A) (A) (A) (A) (A)
                 (A) (A) (A) (A) (A) (A) (A) (A) (A) (A) (A) (A)
                 (A) (A) (A) (A) (A)
 The electronic state is 1-A.
 Alpha  occ. eigenvalues -- -101.58180-101.58139-101.58022-101.57952-101.57840
 Alpha  occ. eigenvalues -- -101.57805-101.57759 -10.28411 -10.28328 -10.27903
 Alpha  occ. eigenvalues --  -10.27871 -10.27795 -10.27727 -10.27502 -10.23906
 Alpha  occ. eigenvalues --  -10.23486 -10.22413 -10.21892 -10.21825  -9.49644
 Alpha  occ. eigenvalues --   -9.49606  -9.49478  -9.49426  -9.49305  -9.49281
 Alpha  occ. eigenvalues --   -9.49217  -7.26148  -7.26110  -7.25970  -7.25916
 Alpha  occ. eigenvalues --   -7.25806  -7.25767  -7.25704  -7.25125  -7.25087
 Alpha  occ. eigenvalues --   -7.25038  -7.24999  -7.24955  -7.24907  -7.24896
 Alpha  occ. eigenvalues --   -7.24835  -7.24787  -7.24764  -7.24702  -7.24698
 Alpha  occ. eigenvalues --   -7.24691  -7.24635  -0.96553  -0.95325  -0.91916
 Alpha  occ. eigenvalues --   -0.90709  -0.89729  -0.88026  -0.86998  -0.85949
 Alpha  occ. eigenvalues --   -0.84844  -0.79373  -0.76512  -0.75766  -0.74244
 Alpha  occ. eigenvalues --   -0.66390  -0.64434  -0.64125  -0.61695  -0.55562
 Alpha  occ. eigenvalues --   -0.54929  -0.53645  -0.52754  -0.49941  -0.48715
 Alpha  occ. eigenvalues --   -0.47210  -0.47098  -0.46931  -0.46335  -0.45411
 Alpha  occ. eigenvalues --   -0.44232  -0.42665  -0.41723  -0.41157  -0.40423
 Alpha  occ. eigenvalues --   -0.38858  -0.38163  -0.36712  -0.35877  -0.35726
 Alpha  occ. eigenvalues --   -0.35504  -0.35226  -0.34727  -0.34359  -0.33740
 Alpha  occ. eigenvalues --   -0.33684  -0.32082  -0.31961  -0.27988  -0.27672
 Alpha  occ. eigenvalues --   -0.27548  -0.26987
 Alpha virt. eigenvalues --   -0.06630  -0.06286  -0.05696  -0.05215  -0.05051
 Alpha virt. eigenvalues --   -0.03893  -0.01086  -0.00397   0.00587   0.01462
 Alpha virt. eigenvalues --    0.01539   0.01983   0.02053   0.02253   0.02494
 Alpha virt. eigenvalues --    0.03703   0.04050   0.04892   0.05034   0.05513
 Alpha virt. eigenvalues --    0.05927   0.06100   0.06858   0.07390   0.07574
 Alpha virt. eigenvalues --    0.07846   0.08196   0.08263   0.08658   0.08912
 Alpha virt. eigenvalues --    0.09068   0.09337   0.09530   0.10510   0.10916
 Alpha virt. eigenvalues --    0.11207   0.11340   0.11478   0.12079   0.12312
 Alpha virt. eigenvalues --    0.12796   0.13276   0.13684   0.13996   0.14138
 Alpha virt. eigenvalues --    0.14347   0.14903   0.15217   0.15530   0.15931
 Alpha virt. eigenvalues --    0.16220   0.17205   0.17396   0.17456   0.17741
 Alpha virt. eigenvalues --    0.18102   0.18361   0.18598   0.18964   0.19231
 Alpha virt. eigenvalues --    0.19667   0.19896   0.20359   0.20738   0.21245
 Alpha virt. eigenvalues --    0.21476   0.21890   0.22438   0.22617   0.22905
 Alpha virt. eigenvalues --    0.23399   0.23739   0.24133   0.24480   0.24742
 Alpha virt. eigenvalues --    0.25651   0.25768   0.26297   0.26570   0.26874
 Alpha virt. eigenvalues --    0.27032   0.27589   0.27757   0.28050   0.28707
 Alpha virt. eigenvalues --    0.28815   0.28940   0.29462   0.29953   0.30346
 Alpha virt. eigenvalues --    0.31325   0.31644   0.32090   0.34378   0.34771
 Alpha virt. eigenvalues --    0.39893   0.40572   0.42046   0.42664   0.43060
 Alpha virt. eigenvalues --    0.43280   0.43883   0.44411   0.44733   0.45034
 Alpha virt. eigenvalues --    0.45443   0.45543   0.46149   0.46690   0.47109
 Alpha virt. eigenvalues --    0.47583   0.47821   0.48357   0.48713   0.49338
 Alpha virt. eigenvalues --    0.49830   0.50682   0.50954   0.51713   0.52796
 Alpha virt. eigenvalues --    0.53641   0.55749   0.55903   0.56707   0.57110
 Alpha virt. eigenvalues --    0.57561   0.58621   0.58775   0.60327   0.60684
 Alpha virt. eigenvalues --    0.60859   0.61373   0.62188   0.62938   0.63029
 Alpha virt. eigenvalues --    0.63410   0.64114   0.64782   0.65902   0.66593
 Alpha virt. eigenvalues --    0.67147   0.67475   0.67819   0.68728   0.69384
 Alpha virt. eigenvalues --    0.70164   0.71601   0.74008   0.76574   0.77554
 Alpha virt. eigenvalues --    0.78293   0.79393   0.80380   0.80785   0.82256
 Alpha virt. eigenvalues --    0.82442   0.83097   0.83523   0.83587   0.83895
 Alpha virt. eigenvalues --    0.83992   0.84187   0.84419   0.84590   0.84784
 Alpha virt. eigenvalues --    0.85431   0.85549   0.86220   0.86628   0.86795
 Alpha virt. eigenvalues --    0.87886   0.88078   0.88846   0.89445   0.89748
 Alpha virt. eigenvalues --    0.90168   0.91065   0.91553   0.92109   0.92932
 Alpha virt. eigenvalues --    0.93535   0.93930   0.94052   0.94183   0.94697
 Alpha virt. eigenvalues --    0.94735   0.95465   0.96042   0.97206   0.97537
 Alpha virt. eigenvalues --    0.98583   0.99116   1.00068   1.01643   1.03164
 Alpha virt. eigenvalues --    1.03974   1.04831   1.06169   1.08784   1.09686
 Alpha virt. eigenvalues --    1.12716   1.13544   1.17623   1.18510   1.19455
 Alpha virt. eigenvalues --    1.20040   1.21960   1.22934   1.23303   1.24968
 Alpha virt. eigenvalues --    1.26222   1.26604   1.26971   1.27544   1.27847
 Alpha virt. eigenvalues --    1.28514   1.29617   1.30378   1.31426   1.33782
 Alpha virt. eigenvalues --    1.35932   1.37002   1.37966   1.40826   1.42436
 Alpha virt. eigenvalues --    1.44871   1.47058   1.47997   1.51825   1.55670
 Alpha virt. eigenvalues --    1.55814   1.57722   1.59920   1.61734   1.64467
 Alpha virt. eigenvalues --    1.64869   1.66760   1.68277   1.70953   1.71738
 Alpha virt. eigenvalues --    1.75260   1.77076   1.78287   1.79364   1.80495
 Alpha virt. eigenvalues --    1.82800   1.83600   1.84246   1.84771   1.85327
 Alpha virt. eigenvalues --    1.87781   1.88658   1.91300   1.93198   1.94646
 Alpha virt. eigenvalues --    1.95919   1.98363   2.04052   2.04762   2.05704
 Alpha virt. eigenvalues --    2.10448   2.11421   2.11868   2.17506   2.20591
 Alpha virt. eigenvalues --    2.22367   2.22994   2.23489   2.23988   2.24837
 Alpha virt. eigenvalues --    2.25731   2.26363   2.27958   2.28219   2.30546
 Alpha virt. eigenvalues --    2.31524   2.32571   2.33847   2.34376   2.36105
 Alpha virt. eigenvalues --    2.38325   2.41333   2.41611   2.42019   2.42994
 Alpha virt. eigenvalues --    2.44761   2.46212   2.48229   2.49192   2.51449
 Alpha virt. eigenvalues --    2.51861   2.53993   2.54514   2.58059   2.60759
 Alpha virt. eigenvalues --    2.62249   2.64262   2.65487   2.66602   2.68101
 Alpha virt. eigenvalues --    2.68983   2.69606   2.71154   2.73325   2.74529
 Alpha virt. eigenvalues --    2.76506   2.79001   2.81928   2.82194   2.83814
 Alpha virt. eigenvalues --    2.87784   2.89731   2.96370   2.97330   3.05080
 Alpha virt. eigenvalues --    3.07455   3.08494   3.10735   3.11717   3.12228
 Alpha virt. eigenvalues --    3.14188   3.16203   3.18851   3.20836   3.23453
 Alpha virt. eigenvalues --    3.26809   3.35424   3.36520   3.42345   3.50530
 Alpha virt. eigenvalues --    3.59938   3.65882   3.68348   3.71614   3.81932
 Alpha virt. eigenvalues --    3.91142   4.00333   4.02494   4.06722   4.29777
 Alpha virt. eigenvalues --    4.80014   4.80645   9.73728   9.75319   9.78529
 Alpha virt. eigenvalues --    9.79468   9.80430   9.81778   9.83876  23.30313
 Alpha virt. eigenvalues --   23.46489  23.79257  23.83548  23.84669  23.87032
 Alpha virt. eigenvalues --   23.93115  23.94075  23.95315  24.02102  24.09660
 Alpha virt. eigenvalues --   24.14311  25.76578  25.77529  25.80136  25.83430
 Alpha virt. eigenvalues --   25.86796  25.91251  25.96796  26.07421  26.09829
 Alpha virt. eigenvalues --   26.10317  26.16468  26.17417  26.23834  26.35373
 Alpha virt. eigenvalues --   26.46307  26.51463  26.59086  26.66062  26.75331
 Alpha virt. eigenvalues --   26.91016  26.98969 215.72688 215.74391 215.78043
 Alpha virt. eigenvalues --  215.79097 215.80229 215.82227 215.84234
          Condensed to atoms (all electrons):
               1          2          3          4          5          6
     1  C   17.762656  -5.871907  -1.038056   0.646895  -2.250534   1.536683
     2  C   -5.871907  23.576974  -2.397929   0.899311  -0.175022  -8.269406
     3  C   -1.038056  -2.397929  16.564364  -3.533521  -6.511724   1.583848
     4  C    0.646895   0.899311  -3.533521  17.773218  -1.526236  -6.636908
     5  C   -2.250534  -0.175022  -6.511724  -1.526236  21.267269   0.118202
     6  C    1.536683  -8.269406   1.583848  -6.636908   0.118202  26.606653
     7  C    2.757133  -1.367335   0.825195  -0.691046  -3.733209  -0.176485
     8  C   -3.164001  -0.273117   0.364164  -0.078012  -0.436945  -1.587179
     9  C    0.517792   0.567694   0.232637  -0.005772   0.180651  -0.509930
    10  C   -0.686699  -0.074238  -0.095341  -0.021958   0.010968   0.354634
    11  C   -3.190367  -0.394566   0.139523  -0.040898  -0.266070  -1.050840
    12  C   -0.210827  -1.290466   0.103703  -0.058668  -1.389674  -1.741617
    13  H    0.029706   0.337772  -0.062001  -0.022067  -0.050493  -0.035058
    14  H    0.020806  -0.022806   0.336462   0.023089  -0.008780   0.004573
    15  H    0.094506  -0.001639  -0.013764   0.004277   0.016433   0.083376
    16  Cl   0.000673   0.465045   0.169434   0.014010   0.098287  -0.230643
    17  Cl  -0.168394   0.504566   0.400943   0.085441   0.058851  -3.204584
    18  Cl  -0.138514  -0.020289   0.004904  -0.000205  -0.011532  -0.049302
    19  Cl  -0.600434   0.201201   0.121973  -0.546081  -0.499976   1.008744
    20  Cl  -0.040997   0.000455   0.003156  -0.001072  -0.001234  -0.048129
    21  Cl  -0.217990   0.023524  -0.237700  -0.532228   0.725923  -0.361162
    22  Cl  -0.048702   0.023359   0.009641   0.004824  -0.003036  -0.038186
               7          8          9         10         11         12
     1  C    2.757133  -3.164001   0.517792  -0.686699  -3.190367  -0.210827
     2  C   -1.367335  -0.273117   0.567694  -0.074238  -0.394566  -1.290466
     3  C    0.825195   0.364164   0.232637  -0.095341   0.139523   0.103703
     4  C   -0.691046  -0.078012  -0.005772  -0.021958  -0.040898  -0.058668
     5  C   -3.733209  -0.436945   0.180651   0.010968  -0.266070  -1.389674
     6  C   -0.176485  -1.587179  -0.509930   0.354634  -1.050840  -1.741617
     7  C   21.334468  -1.781760  -8.547354   5.823431  -2.921011  -3.254285
     8  C   -1.781760  10.557621   0.373352  -3.676820   3.333500   2.436312
     9  C   -8.547354   0.373352  22.560406  -8.840531  -4.741328   4.456050
    10  C    5.823431  -3.676820  -8.840531  23.338866  -0.148098  -8.039625
    11  C   -2.921011   3.333500  -4.741328  -0.148098  15.797755  -0.639445
    12  C   -3.254285   2.436312   4.456050  -8.039625  -0.639445  17.271792
    13  H    0.078062   0.022690  -0.026616   0.006340   0.017056   0.068277
    14  H   -0.003667  -0.001344  -0.000804   0.000128   0.000007   0.002514
    15  H    0.060819   0.329749  -0.081354  -0.023113  -0.045543  -0.055778
    16  Cl  -0.766098  -0.169863   1.033377  -1.023170  -0.335671  -1.231726
    17  Cl  -0.082091   0.209089   0.132437  -0.096503   0.042257   0.323440
    18  Cl  -0.492041   0.204909  -0.113789  -0.269669  -0.175397   0.545508
    19  Cl  -0.149950  -0.019056   0.011827  -0.001448  -0.011839  -0.077007
    20  Cl   0.203455  -0.103354  -1.005967   0.312442   0.767618  -0.749581
    21  Cl  -0.028193  -0.000216   0.007736  -0.001764  -0.002092  -0.036945
    22  Cl  -0.855964   0.246570   0.301962  -0.660331  -0.138661   0.373857
              13         14         15         16         17         18
     1  C    0.029706   0.020806   0.094506   0.000673  -0.168394  -0.138514
     2  C    0.337772  -0.022806  -0.001639   0.465045   0.504566  -0.020289
     3  C   -0.062001   0.336462  -0.013764   0.169434   0.400943   0.004904
     4  C   -0.022067   0.023089   0.004277   0.014010   0.085441  -0.000205
     5  C   -0.050493  -0.008780   0.016433   0.098287   0.058851  -0.011532
     6  C   -0.035058   0.004573   0.083376  -0.230643  -3.204584  -0.049302
     7  C    0.078062  -0.003667   0.060819  -0.766098  -0.082091  -0.492041
     8  C    0.022690  -0.001344   0.329749  -0.169863   0.209089   0.204909
     9  C   -0.026616  -0.000804  -0.081354   1.033377   0.132437  -0.113789
    10  C    0.006340   0.000128  -0.023113  -1.023170  -0.096503  -0.269669
    11  C    0.017056   0.000007  -0.045543  -0.335671   0.042257  -0.175397
    12  C    0.068277   0.002514  -0.055778  -1.231726   0.323440   0.545508
    13  H    0.525033  -0.006789  -0.000596  -0.015409  -0.000880   0.000629
    14  H   -0.006789   0.502934   0.000008  -0.001179   0.001603  -0.000001
    15  H   -0.000596   0.000008   0.507224  -0.001587  -0.016224   0.000469
    16  Cl  -0.015409  -0.001179  -0.001587  18.587253   0.156253  -0.284527
    17  Cl  -0.000880   0.001603  -0.016224   0.156253  18.457369  -0.002719
    18  Cl   0.000629  -0.000001   0.000469  -0.284527  -0.002719  17.375644
    19  Cl  -0.000073  -0.000808   0.000756   0.003298  -0.298972  -0.000281
    20  Cl   0.000164  -0.000001  -0.001238  -0.038568   0.014870  -0.192263
    21  Cl  -0.001327  -0.005692   0.000021   0.011108  -0.024444   0.000019
    22  Cl  -0.000075  -0.000007  -0.008215   0.009044  -0.009703   0.007683
              19         20         21         22
     1  C   -0.600434  -0.040997  -0.217990  -0.048702
     2  C    0.201201   0.000455   0.023524   0.023359
     3  C    0.121973   0.003156  -0.237700   0.009641
     4  C   -0.546081  -0.001072  -0.532228   0.004824
     5  C   -0.499976  -0.001234   0.725923  -0.003036
     6  C    1.008744  -0.048129  -0.361162  -0.038186
     7  C   -0.149950   0.203455  -0.028193  -0.855964
     8  C   -0.019056  -0.103354  -0.000216   0.246570
     9  C    0.011827  -1.005967   0.007736   0.301962
    10  C   -0.001448   0.312442  -0.001764  -0.660331
    11  C   -0.011839   0.767618  -0.002092  -0.138661
    12  C   -0.077007  -0.749581  -0.036945   0.373857
    13  H   -0.000073   0.000164  -0.001327  -0.000075
    14  H   -0.000808  -0.000001  -0.005692  -0.000007
    15  H    0.000756  -0.001238   0.000021  -0.008215
    16  Cl   0.003298  -0.038568   0.011108   0.009044
    17  Cl  -0.298972   0.014870  -0.024444  -0.009703
    18  Cl  -0.000281  -0.192263   0.000019   0.007683
    19  Cl  17.417584  -0.000019  -0.139851   0.000123
    20  Cl  -0.000019  17.451152   0.000011  -0.192550
    21  Cl  -0.139851   0.000011  17.318486   0.000137
    22  Cl   0.000123  -0.192550   0.000137  17.422092
 Mulliken charges:
               1
     1  C    0.260571
     2  C   -0.441181
     3  C   -0.969913
     4  C    0.243609
     5  C    0.387880
     6  C   -1.357285
     7  C   -0.232075
     8  C   -0.786288
     9  C   -0.502473
    10  C   -0.187499
    11  C    0.004110
    12  C   -0.805809
    13  H    0.135656
    14  H    0.159755
    15  H    0.151413
    16  Cl   0.550659
    17  Cl   0.517393
    18  Cl   0.610764
    19  Cl   0.580287
    20  Cl   0.621647
    21  Cl   0.502638
    22  Cl   0.556140
 Sum of Mulliken charges =  -0.00000
 Mulliken charges with hydrogens summed into heavy atoms:
               1
     1  C    0.260571
     2  C   -0.305525
     3  C   -0.810157
     4  C    0.243609
     5  C    0.387880
     6  C   -1.357285
     7  C   -0.232075
     8  C   -0.634875
     9  C   -0.502473
    10  C   -0.187499
    11  C    0.004110
    12  C   -0.805809
    16  Cl   0.550659
    17  Cl   0.517393
    18  Cl   0.610764
    19  Cl   0.580287
    20  Cl   0.621647
    21  Cl   0.502638
    22  Cl   0.556140
 Electronic spatial extent (au):  <R**2>=          10152.5727
 Charge=              0.0000 electrons
 Dipole moment (field-independent basis, Debye):
    X=             -0.3067    Y=              0.9180    Z=              1.9717  Tot=              2.1964
 Quadrupole moment (field-independent basis, Debye-Ang):
   XX=           -165.3383   YY=           -157.5646   ZZ=           -152.1411
   XY=             -0.8158   XZ=             -3.7278   YZ=              1.4321
 Traceless Quadrupole moment (field-independent basis, Debye-Ang):
   XX=             -6.9903   YY=              0.7834   ZZ=              6.2069
   XY=             -0.8158   XZ=             -3.7278   YZ=              1.4321
 Octapole moment (field-independent basis, Debye-Ang**2):
  XXX=             22.7330  YYY=             -9.6040  ZZZ=             -1.0514  XYY=              3.8114
  XXY=             -9.5761  XXZ=             -1.6223  XZZ=            -10.8201  YZZ=             -0.7447
  YYZ=             -6.1119  XYZ=             -1.9235
 Hexadecapole moment (field-independent basis, Debye-Ang**3):
 XXXX=          -9959.7164 YYYY=          -1978.3885 ZZZZ=          -1162.9227 XXXY=            -10.0649
 XXXZ=              5.7965 YYYX=              6.4857 YYYZ=             -9.1599 ZZZX=             -8.4242
 ZZZY=             10.1083 XXYY=          -2004.3081 XXZZ=          -1836.0760 YYZZ=           -565.0190
 XXYZ=              3.8756 YYXZ=              5.6443 ZZXY=             -6.0236
 N-N= 2.326849660433D+03 E-N=-1.337496588106D+04  KE= 3.671259785126D+03
 1\1\GINC-CN215\FOpt\RB3LYP\6-311+G(d,p)\C12H3Cl7\20CY91R06\18-Apr-2022
 \0\\# opt b3lyp/6-311+g(d,p) scf=xqc\\Title Card Required\\0,1\C,-0.68
 20235897,1.5231049711,0.2815336414\C,0.6098231249,1.49441554,0.8094343
 791\C,1.3737935238,2.6488506214,0.9008158056\C,0.8533503252,3.86054310
 02,0.4593157122\C,-0.4381801011,3.9249174473,-0.0796147425\C,-1.197215
 1151,2.7465542992,-0.1646018089\C,-1.4644654421,0.2553046742,0.1800469
 359\C,-1.2745891771,-0.5721156174,-0.9238170763\C,-1.9634206673,-1.771
 7290692,-1.048998426\C,-2.8666388429,-2.1756946651,-0.0601994457\C,-3.
 0649297767,-1.3529910705,1.0613984142\C,-2.3633967247,-0.1447171195,1.
 1760983006\H,1.0158873264,0.5531973726,1.1594788191\H,2.3732463806,2.6
 198408008,1.3140082417\H,-0.5856725919,-0.2746424528,-1.7032100701\Cl,
 -2.5997824152,0.8775160787,2.5679623969\Cl,-2.8060750321,2.7950520037,
 -0.83750802\Cl,-4.1760358388,-1.8385536522,2.3040842402\Cl,-1.08596703
 37,5.4361073883,-0.6379958913\Cl,-3.7276665928,-3.6741569046,-0.215414
 714\Cl,1.8452126135,5.2901155232,0.5912224844\Cl,-1.6725639056,-2.7507
 732682,-2.462784764\\Version=EM64L-G16RevB.01\State=1-A\HF=-3680.74320
 34\RMSD=7.880e-09\RMSF=1.588e-05\Dipole=0.8197098,-0.2627099,0.0761344
 \Quadrupole=4.7923398,-5.4820051,0.6896653,-2.1442463,1.4616183,0.1554
 953\PG=C01 [X(C12H3Cl7)]\\@


 Discoveries are often made by not following instructions,
 by going off the main road, by trying the untried.
 -- Frank Tyger
 Job cpu time:       4 days  5 hours 14 minutes 38.6 seconds.
 Elapsed time:       0 days 20 hours 15 minutes 49.4 seconds.
 File lengths (MBytes):  RWF=    148 Int=      0 D2E=      0 Chk=     23 Scr=      1
 Normal termination of Gaussian 16 at Mon Apr 18 19:35:29 2022.
