 Entering Gaussian System, Link 0=g16
 Input=2,2prime,4,4prime,5-Pentachlorobiphenyl.gjf
 Output=2,2prime,4,4prime,5-Pentachlorobiphenyl.log
 Initial command:
 /opt/g16/l1.exe "/scratch/gour/Gau-46251.inp" -scrdir="/scratch/gour/"
 Entering Link 1 = /opt/g16/l1.exe PID=     46252.
  
 Copyright (c) 1988-2017, Gaussian, Inc.  All Rights Reserved.
  
 This is part of the Gaussian(R) 16 program.  It is based on
 the Gaussian(R) 09 system (copyright 2009, Gaussian, Inc.),
 the Gaussian(R) 03 system (copyright 2003, Gaussian, Inc.),
 the Gaussian(R) 98 system (copyright 1998, Gaussian, Inc.),
 the Gaussian(R) 94 system (copyright 1995, Gaussian, Inc.),
 the Gaussian 92(TM) system (copyright 1992, Gaussian, Inc.),
 the Gaussian 90(TM) system (copyright 1990, Gaussian, Inc.),
 the Gaussian 88(TM) system (copyright 1988, Gaussian, Inc.),
 the Gaussian 86(TM) system (copyright 1986, Carnegie Mellon
 University), and the Gaussian 82(TM) system (copyright 1983,
 Carnegie Mellon University). Gaussian is a federally registered
 trademark of Gaussian, Inc.
  
 This software contains proprietary and confidential information,
 including trade secrets, belonging to Gaussian, Inc.
  
 This software is provided under written license and may be
 used, copied, transmitted, or stored only in accord with that
 written license.
  
 The following legend is applicable only to US Government
 contracts under FAR:
  
                    RESTRICTED RIGHTS LEGEND
  
 Use, reproduction and disclosure by the US Government is
 subject to restrictions as set forth in subparagraphs (a)
 and (c) of the Commercial Computer Software - Restricted
 Rights clause in FAR 52.227-19.
  
 Gaussian, Inc.
 340 Quinnipiac St., Bldg. 40, Wallingford CT 06492
  
  
 ---------------------------------------------------------------
 Warning -- This program may not be used in any manner that
 competes with the business of Gaussian, Inc. or will provide
 assistance to any competitor of Gaussian, Inc.  The licensee
 of this program is prohibited from giving any competitor of
 Gaussian, Inc. access to this program.  By using this program,
 the user acknowledges that Gaussian, Inc. is engaged in the
 business of creating and licensing software in the field of
 computational chemistry and represents and warrants to the
 licensee that it is not a competitor of Gaussian, Inc. and that
 it will not use this program in any manner prohibited above.
 ---------------------------------------------------------------
  

 Cite this work as:
 Gaussian 16, Revision B.01,
 M. J. Frisch, G. W. Trucks, H. B. Schlegel, G. E. Scuseria, 
 M. A. Robb, J. R. Cheeseman, G. Scalmani, V. Barone, 
 G. A. Petersson, H. Nakatsuji, X. Li, M. Caricato, A. V. Marenich, 
 J. Bloino, B. G. Janesko, R. Gomperts, B. Mennucci, H. P. Hratchian, 
 J. V. Ortiz, A. F. Izmaylov, J. L. Sonnenberg, D. Williams-Young, 
 F. Ding, F. Lipparini, F. Egidi, J. Goings, B. Peng, A. Petrone, 
 T. Henderson, D. Ranasinghe, V. G. Zakrzewski, J. Gao, N. Rega, 
 G. Zheng, W. Liang, M. Hada, M. Ehara, K. Toyota, R. Fukuda, 
 J. Hasegawa, M. Ishida, T. Nakajima, Y. Honda, O. Kitao, H. Nakai, 
 T. Vreven, K. Throssell, J. A. Montgomery, Jr., J. E. Peralta, 
 F. Ogliaro, M. J. Bearpark, J. J. Heyd, E. N. Brothers, K. N. Kudin, 
 V. N. Staroverov, T. A. Keith, R. Kobayashi, J. Normand, 
 K. Raghavachari, A. P. Rendell, J. C. Burant, S. S. Iyengar, 
 J. Tomasi, M. Cossi, J. M. Millam, M. Klene, C. Adamo, R. Cammi, 
 J. W. Ochterski, R. L. Martin, K. Morokuma, O. Farkas, 
 J. B. Foresman, and D. J. Fox, Gaussian, Inc., Wallingford CT, 2016.
 
 ******************************************
 Gaussian 16:  EM64L-G16RevB.01 20-Dec-2017
                16-Mar-2022 
 ******************************************
 %mem=10GB
 %nprocshared=4
 Will use up to    4 processors via shared memory.
 --------------------------------
 # opt b3lyp/6-311+g(d,p) scf=xqc
 --------------------------------
 1/18=20,19=15,26=3,38=1/1,3;
 2/9=110,12=2,17=6,18=5,40=1/2;
 3/5=4,6=6,7=111,11=2,25=1,30=1,71=1,74=-5/1,2,3;
 4//1;
 5/5=2,8=3,13=1,38=5/2,8;
 6/7=2,8=2,9=2,10=2,28=1/1;
 7//1,2,3,16;
 1/18=20,19=15,26=3/3(2);
 2/9=110/2;
 99//99;
 2/9=110/2;
 3/5=4,6=6,7=111,11=2,25=1,30=1,71=1,74=-5/1,2,3;
 4/5=5,16=3,69=1/1;
 5/5=2,8=3,13=1,38=5/2,8;
 7//1,2,3,16;
 1/18=20,19=15,26=3/3(-5);
 2/9=110/2;
 6/7=2,8=2,9=2,10=2,19=2,28=1/1;
 99/9=1/99;
 -------------------
 Title Card Required
 -------------------
 Symbolic Z-matrix:
 Charge =  0 Multiplicity = 1
 C                     0.70651   0.34577  -0.00285 
 C                     2.0389    0.37566  -0.4362 
 C                     2.74679   1.58511  -0.44227 
 C                     2.1223    2.76467  -0.015 
 C                     0.78992   2.73479   0.41835 
 C                     0.08203   1.52534   0.42442 
 C                    -0.07139  -0.9833    0.00382 
 C                     0.5531   -2.16286  -0.42345 
 C                    -0.1548   -3.37231  -0.41738 
 C                    -1.48718  -3.4022    0.01597 
 C                    -2.11166  -2.22263   0.44325 
 C                    -1.40377  -1.01318   0.43717 
 H                     2.51571  -0.52497  -0.76243 
 H                     3.76409   1.60793  -0.77314 
 H                     0.31311   3.63541   0.74458 
 H                     1.5704   -2.14004  -0.75432 
 H                    -3.12896  -2.24545   0.77412 
 Cl                   -2.18805   0.46822   0.97378 
 Cl                   -1.59129   1.4878    0.96866 
 Cl                   -2.37621  -4.92113   0.0236 
 Cl                    3.01134   4.28361  -0.02262 
 Cl                    0.62949  -4.85371  -0.95399 
 

 GradGradGradGradGradGradGradGradGradGradGradGradGradGradGradGradGradGrad
 Berny optimization.
 Initialization pass.
                           ----------------------------
                           !    Initial Parameters    !
                           ! (Angstroms and Degrees)  !
 --------------------------                            --------------------------
 ! Name  Definition              Value          Derivative Info.                !
 --------------------------------------------------------------------------------
 ! R1    R(1,2)                  1.4014         estimate D2E/DX2                !
 ! R2    R(1,6)                  1.4014         estimate D2E/DX2                !
 ! R3    R(1,7)                  1.54           estimate D2E/DX2                !
 ! R4    R(2,3)                  1.4014         estimate D2E/DX2                !
 ! R5    R(2,13)                 1.07           estimate D2E/DX2                !
 ! R6    R(3,4)                  1.4014         estimate D2E/DX2                !
 ! R7    R(3,14)                 1.07           estimate D2E/DX2                !
 ! R8    R(4,5)                  1.4014         estimate D2E/DX2                !
 ! R9    R(4,21)                 1.76           estimate D2E/DX2                !
 ! R10   R(5,6)                  1.4014         estimate D2E/DX2                !
 ! R11   R(5,15)                 1.07           estimate D2E/DX2                !
 ! R12   R(6,19)                 1.76           estimate D2E/DX2                !
 ! R13   R(7,8)                  1.4014         estimate D2E/DX2                !
 ! R14   R(7,12)                 1.4014         estimate D2E/DX2                !
 ! R15   R(8,9)                  1.4014         estimate D2E/DX2                !
 ! R16   R(8,16)                 1.07           estimate D2E/DX2                !
 ! R17   R(9,10)                 1.4014         estimate D2E/DX2                !
 ! R18   R(9,22)                 1.76           estimate D2E/DX2                !
 ! R19   R(10,11)                1.4014         estimate D2E/DX2                !
 ! R20   R(10,20)                1.76           estimate D2E/DX2                !
 ! R21   R(11,12)                1.4014         estimate D2E/DX2                !
 ! R22   R(11,17)                1.07           estimate D2E/DX2                !
 ! R23   R(12,18)                1.76           estimate D2E/DX2                !
 ! R24   R(18,19)                1.1814         estimate D2E/DX2                !
 ! A1    A(2,1,6)              120.0            estimate D2E/DX2                !
 ! A2    A(2,1,7)              120.0            estimate D2E/DX2                !
 ! A3    A(6,1,7)              120.0            estimate D2E/DX2                !
 ! A4    A(1,2,3)              120.0            estimate D2E/DX2                !
 ! A5    A(1,2,13)             120.0            estimate D2E/DX2                !
 ! A6    A(3,2,13)             120.0            estimate D2E/DX2                !
 ! A7    A(2,3,4)              120.0            estimate D2E/DX2                !
 ! A8    A(2,3,14)             120.0            estimate D2E/DX2                !
 ! A9    A(4,3,14)             120.0            estimate D2E/DX2                !
 ! A10   A(3,4,5)              120.0            estimate D2E/DX2                !
 ! A11   A(3,4,21)             120.0            estimate D2E/DX2                !
 ! A12   A(5,4,21)             120.0            estimate D2E/DX2                !
 ! A13   A(4,5,6)              120.0            estimate D2E/DX2                !
 ! A14   A(4,5,15)             120.0            estimate D2E/DX2                !
 ! A15   A(6,5,15)             120.0            estimate D2E/DX2                !
 ! A16   A(1,6,5)              120.0            estimate D2E/DX2                !
 ! A17   A(1,6,19)             120.0            estimate D2E/DX2                !
 ! A18   A(5,6,19)             120.0            estimate D2E/DX2                !
 ! A19   A(1,7,8)              120.0            estimate D2E/DX2                !
 ! A20   A(1,7,12)             120.0            estimate D2E/DX2                !
 ! A21   A(8,7,12)             120.0            estimate D2E/DX2                !
 ! A22   A(7,8,9)              120.0            estimate D2E/DX2                !
 ! A23   A(7,8,16)             120.0            estimate D2E/DX2                !
 ! A24   A(9,8,16)             120.0            estimate D2E/DX2                !
 ! A25   A(8,9,10)             120.0            estimate D2E/DX2                !
 ! A26   A(8,9,22)             120.0            estimate D2E/DX2                !
 ! A27   A(10,9,22)            120.0            estimate D2E/DX2                !
 ! A28   A(9,10,11)            120.0            estimate D2E/DX2                !
 ! A29   A(9,10,20)            120.0            estimate D2E/DX2                !
 ! A30   A(11,10,20)           120.0            estimate D2E/DX2                !
 ! A31   A(10,11,12)           120.0            estimate D2E/DX2                !
 ! A32   A(10,11,17)           120.0            estimate D2E/DX2                !
 ! A33   A(12,11,17)           120.0            estimate D2E/DX2                !
 ! A34   A(7,12,11)            120.0            estimate D2E/DX2                !
 ! A35   A(7,12,18)            120.0            estimate D2E/DX2                !
 ! A36   A(11,12,18)           120.0            estimate D2E/DX2                !
 ! A37   A(12,18,19)           120.0            estimate D2E/DX2                !
 ! A38   A(6,19,18)            120.0            estimate D2E/DX2                !
 ! D1    D(6,1,2,3)              0.0001         estimate D2E/DX2                !
 ! D2    D(6,1,2,13)           180.0            estimate D2E/DX2                !
 ! D3    D(7,1,2,3)           -180.0            estimate D2E/DX2                !
 ! D4    D(7,1,2,13)            -0.0001         estimate D2E/DX2                !
 ! D5    D(2,1,6,5)             -0.0001         estimate D2E/DX2                !
 ! D6    D(2,1,6,19)           180.0            estimate D2E/DX2                !
 ! D7    D(7,1,6,5)            180.0            estimate D2E/DX2                !
 ! D8    D(7,1,6,19)             0.0            estimate D2E/DX2                !
 ! D9    D(2,1,7,8)             -0.0001         estimate D2E/DX2                !
 ! D10   D(2,1,7,12)           179.9998         estimate D2E/DX2                !
 ! D11   D(6,1,7,8)            179.9999         estimate D2E/DX2                !
 ! D12   D(6,1,7,12)            -0.0002         estimate D2E/DX2                !
 ! D13   D(1,2,3,4)              0.0            estimate D2E/DX2                !
 ! D14   D(1,2,3,14)           180.0            estimate D2E/DX2                !
 ! D15   D(13,2,3,4)          -179.9999         estimate D2E/DX2                !
 ! D16   D(13,2,3,14)            0.0001         estimate D2E/DX2                !
 ! D17   D(2,3,4,5)             -0.0001         estimate D2E/DX2                !
 ! D18   D(2,3,4,21)           180.0            estimate D2E/DX2                !
 ! D19   D(14,3,4,5)           179.9999         estimate D2E/DX2                !
 ! D20   D(14,3,4,21)            0.0            estimate D2E/DX2                !
 ! D21   D(3,4,5,6)              0.0001         estimate D2E/DX2                !
 ! D22   D(3,4,5,15)          -179.9999         estimate D2E/DX2                !
 ! D23   D(21,4,5,6)          -180.0            estimate D2E/DX2                !
 ! D24   D(21,4,5,15)            0.0            estimate D2E/DX2                !
 ! D25   D(4,5,6,1)              0.0            estimate D2E/DX2                !
 ! D26   D(4,5,6,19)           179.9999         estimate D2E/DX2                !
 ! D27   D(15,5,6,1)           180.0            estimate D2E/DX2                !
 ! D28   D(15,5,6,19)           -0.0001         estimate D2E/DX2                !
 ! D29   D(1,6,19,18)            0.0006         estimate D2E/DX2                !
 ! D30   D(5,6,19,18)         -179.9994         estimate D2E/DX2                !
 ! D31   D(1,7,8,9)            179.9999         estimate D2E/DX2                !
 ! D32   D(1,7,8,16)             0.0001         estimate D2E/DX2                !
 ! D33   D(12,7,8,9)             0.0001         estimate D2E/DX2                !
 ! D34   D(12,7,8,16)         -179.9998         estimate D2E/DX2                !
 ! D35   D(1,7,12,11)         -179.9999         estimate D2E/DX2                !
 ! D36   D(1,7,12,18)            0.0            estimate D2E/DX2                !
 ! D37   D(8,7,12,11)           -0.0001         estimate D2E/DX2                !
 ! D38   D(8,7,12,18)          179.9999         estimate D2E/DX2                !
 ! D39   D(7,8,9,10)             0.0            estimate D2E/DX2                !
 ! D40   D(7,8,9,22)           180.0            estimate D2E/DX2                !
 ! D41   D(16,8,9,10)          179.9998         estimate D2E/DX2                !
 ! D42   D(16,8,9,22)           -0.0002         estimate D2E/DX2                !
 ! D43   D(8,9,10,11)            0.0            estimate D2E/DX2                !
 ! D44   D(8,9,10,20)         -179.9999         estimate D2E/DX2                !
 ! D45   D(22,9,10,11)         180.0            estimate D2E/DX2                !
 ! D46   D(22,9,10,20)           0.0001         estimate D2E/DX2                !
 ! D47   D(9,10,11,12)           0.0            estimate D2E/DX2                !
 ! D48   D(9,10,11,17)        -179.9998         estimate D2E/DX2                !
 ! D49   D(20,10,11,12)        179.9999         estimate D2E/DX2                !
 ! D50   D(20,10,11,17)          0.0001         estimate D2E/DX2                !
 ! D51   D(10,11,12,7)           0.0            estimate D2E/DX2                !
 ! D52   D(10,11,12,18)       -179.9999         estimate D2E/DX2                !
 ! D53   D(17,11,12,7)         179.9999         estimate D2E/DX2                !
 ! D54   D(17,11,12,18)         -0.0001         estimate D2E/DX2                !
 ! D55   D(7,12,18,19)           0.0005         estimate D2E/DX2                !
 ! D56   D(11,12,18,19)       -179.9995         estimate D2E/DX2                !
 ! D57   D(12,18,19,6)          -0.0008         estimate D2E/DX2                !
 --------------------------------------------------------------------------------
 Trust Radius=3.00D-01 FncErr=1.00D-07 GrdErr=1.00D-06 EigMax=2.50D+02 EigMin=1.00D-04
 Number of steps in this run=    129 maximum allowed number of steps=    132.
 GradGradGradGradGradGradGradGradGradGradGradGradGradGradGradGradGradGrad

                          Input orientation:                          
 ---------------------------------------------------------------------
 Center     Atomic      Atomic             Coordinates (Angstroms)
 Number     Number       Type             X           Y           Z
 ---------------------------------------------------------------------
      1          6           0        0.706514    0.345770   -0.002851
      2          6           0        2.038896    0.375656   -0.436198
      3          6           0        2.746789    1.585107   -0.442270
      4          6           0        2.122302    2.764672   -0.014995
      5          6           0        0.789920    2.734787    0.418350
      6          6           0        0.082026    1.525336    0.424422
      7          6           0       -0.071390   -0.983297    0.003823
      8          6           0        0.553097   -2.162862   -0.423452
      9          6           0       -0.154796   -3.372313   -0.417378
     10          6           0       -1.487176   -3.402200    0.015972
     11          6           0       -2.111663   -2.222635    0.443247
     12          6           0       -1.403770   -1.013183    0.437173
     13          1           0        2.515706   -0.524968   -0.762430
     14          1           0        3.764092    1.607926   -0.773139
     15          1           0        0.313109    3.635411    0.744581
     16          1           0        1.570400   -2.140043   -0.754322
     17          1           0       -3.128964   -2.245454    0.774122
     18         17           0       -2.188055    0.468216    0.973785
     19         17           0       -1.591294    1.487803    0.968656
     20         17           0       -2.376209   -4.921134    0.023603
     21         17           0        3.011336    4.283606   -0.022621
     22         17           0        0.629489   -4.853714   -0.953987
 ---------------------------------------------------------------------
                    Distance matrix (angstroms):
                    1          2          3          4          5
     1  C    0.000000
     2  C    1.401400   0.000000
     3  C    2.427296   1.401400   0.000000
     4  C    2.802800   2.427296   1.401400   0.000000
     5  C    2.427296   2.802800   2.427296   1.401400   0.000000
     6  C    1.401400   2.427296   2.802800   2.427296   1.401400
     7  C    1.540000   2.548270   3.838989   4.342800   3.838989
     8  C    2.548270   2.941400   4.342800   5.187469   4.975106
     9  C    3.838989   4.342800   5.744200   6.558176   6.235992
    10  C    4.342800   5.187469   6.558176   7.145600   6.558176
    11  C    3.838989   4.975106   6.235992   6.558176   5.744200
    12  C    2.548270   3.813607   4.975106   5.187469   4.342800
    13  H    2.146700   1.070000   2.146700   3.396345   3.872800
    14  H    3.396345   2.146700   1.070000   2.146700   3.396345
    15  H    3.396345   3.872800   3.396345   2.146700   1.070000
    16  H    2.736837   2.578650   3.918930   4.990735   5.074276
    17  H    4.693509   5.919617   7.118798   7.300676   6.347206
    18  Cl   3.057342   4.456874   5.254079   4.983028   3.783409
    19  Cl   2.743718   4.048303   4.562800   4.048303   2.743718
    20  Cl   6.102800   6.910901   8.294174   8.905600   8.294174
    21  Cl   4.562800   4.048303   2.743718   1.760000   2.743718
    22  Cl   5.286324   5.440665   6.797295   7.819846   7.713260
                    6          7          8          9         10
     6  C    0.000000
     7  C    2.548270   0.000000
     8  C    3.813607   1.401400   0.000000
     9  C    4.975106   2.427296   1.401400   0.000000
    10  C    5.187469   2.802800   2.427296   1.401400   0.000000
    11  C    4.342800   2.427296   2.802800   2.427296   1.401400
    12  C    2.941400   1.401400   2.427296   2.802800   2.427296
    13  H    3.396345   2.736837   2.578650   3.918930   4.990735
    14  H    3.872800   4.693509   4.965039   6.347206   7.300676
    15  H    2.146700   4.693509   5.919617   7.118798   7.300676
    16  H    4.127917   2.146700   1.070000   2.146700   3.396345
    17  H    4.965039   3.396345   3.872800   3.396345   2.146700
    18  Cl   2.563702   2.743718   4.048303   4.562800   4.048303
    19  Cl   1.760000   3.057342   4.456874   5.254079   4.983028
    20  Cl   6.910901   4.562800   4.048303   2.743718   1.760000
    21  Cl   4.048303   6.102800   6.910901   8.294174   8.905600
    22  Cl   6.549198   4.048303   2.743718   1.760000   2.743718
                   11         12         13         14         15
    11  C    0.000000
    12  C    1.401400   0.000000
    13  H    5.074276   4.127917   0.000000
    14  H    7.118798   5.919617   2.471400   0.000000
    15  H    6.347206   4.965039   4.942800   4.280590   0.000000
    16  H    3.872800   3.396345   1.871400   4.342800   6.097816
    17  H    1.070000   2.146700   6.097816   8.047159   6.814200
    18  Cl   2.743718   1.760000   5.111382   6.307038   4.042212
    19  Cl   3.783409   2.563702   4.890332   5.632800   2.879094
    20  Cl   2.743718   4.048303   6.623817   8.998151   8.998151
    21  Cl   8.294174   6.910901   4.890332   2.879094   2.879094
    22  Cl   4.048303   4.562800   4.725732   7.184095   8.663168
                   16         17         18         19         20
    16  H    0.000000
    17  H    4.942800   0.000000
    18  Cl   4.890332   2.879094   0.000000
    19  Cl   5.111382   4.042212   1.181400   0.000000
    20  Cl   4.890332   2.879094   5.475705   6.525618   0.000000
    21  Cl   6.623817   8.998151   6.525618   5.475705  10.665600
    22  Cl   2.879094   4.890332   6.322800   6.988795   3.161400
                   21         22
    21  Cl   0.000000
    22  Cl   9.488480   0.000000
 Stoichiometry    C12H5Cl5
 Framework group  C1[X(C12H5Cl5)]
 Deg. of freedom    60
 Full point group                 C1      NOp   1
 Largest Abelian subgroup         C1      NOp   1
 Largest concise Abelian subgroup C1      NOp   1
                         Standard orientation:                         
 ---------------------------------------------------------------------
 Center     Atomic      Atomic             Coordinates (Angstroms)
 Number     Number       Type             X           Y           Z
 ---------------------------------------------------------------------
      1          6           0       -1.088370   -0.443124    0.000002
      2          6           0       -1.598226   -1.748485    0.000000
      3          6           0       -2.983630   -1.959617   -0.000001
      4          6           0       -3.859179   -0.865388   -0.000001
      5          6           0       -3.349322    0.439973    0.000002
      6          6           0       -1.963918    0.651106    0.000003
      7          6           0        0.434052   -0.211110    0.000002
      8          6           0        1.309600   -1.305339    0.000003
      9          6           0        2.695005   -1.094207    0.000002
     10          6           0        3.204861    0.211155   -0.000000
     11          6           0        2.329313    1.305384   -0.000001
     12          6           0        0.943908    1.094252   -0.000000
     13          1           0       -0.929726   -2.583953   -0.000002
     14          1           0       -3.372917   -2.956290   -0.000003
     15          1           0       -4.017823    1.275442    0.000004
     16          1           0        0.920314   -2.302012    0.000001
     17          1           0        2.718599    2.302056   -0.000005
     18         17           0       -0.155681    2.468480   -0.000004
     19         17           0       -1.323596    2.290492    0.000006
     20         17           0        4.944772    0.476313   -0.000004
     21         17           0       -5.599090   -1.130547   -0.000004
     22         17           0        3.794594   -2.468435    0.000003
 ---------------------------------------------------------------------
 Rotational constants (GHZ):           0.5862055           0.1497797           0.1192982
 Standard basis: 6-311+G(d,p) (5D, 7F)
 There are   461 symmetry adapted cartesian basis functions of A   symmetry.
 There are   444 symmetry adapted basis functions of A   symmetry.
   444 basis functions,   737 primitive gaussians,   461 cartesian basis functions
    81 alpha electrons       81 beta electrons
       nuclear repulsion energy      1789.1778722234 Hartrees.
 NAtoms=   22 NActive=   22 NUniq=   22 SFac= 1.00D+00 NAtFMM=   60 NAOKFM=F Big=F
 Integral buffers will be    131072 words long.
 Raffenetti 2 integral format.
 Two-electron integral symmetry is turned on.
 One-electron integrals computed using PRISM.
 NBasis=   444 RedAO= T EigKep=  1.82D-06  NBF=   444
 NBsUse=   437 1.00D-06 EigRej=  9.43D-07 NBFU=   437
 ExpMin= 4.38D-02 ExpMax= 1.06D+05 ExpMxC= 3.62D+03 IAcc=3 IRadAn=         5 AccDes= 0.00D+00
 Harris functional with IExCor=  402 and IRadAn=       5 diagonalized for initial guess.
 HarFok:  IExCor=  402 AccDes= 0.00D+00 IRadAn=         5 IDoV= 1 UseB2=F ITyADJ=14
 ICtDFT=  3500011 ScaDFX=  1.000000  1.000000  1.000000  1.000000
 FoFCou: FMM=F IPFlag=           0 FMFlag=      100000 FMFlg1=           0
         NFxFlg=           0 DoJE=T BraDBF=F KetDBF=T FulRan=T
         wScrn=  0.000000 ICntrl=       500 IOpCl=  0 I1Cent=   200000004 NGrid=           0
         NMat0=    1 NMatS0=      1 NMatT0=    0 NMatD0=    1 NMtDS0=    0 NMtDT0=    0
 Petite list used in FoFCou.
 Requested convergence on RMS density matrix=1.00D-08 within  32 cycles.
 Requested convergence on MAX density matrix=1.00D-06.
 Requested convergence on             energy=1.00D-06.
 No special actions if energy rises.
 SCF Done:  E(RB3LYP) =  -2759.89832868     A.U. after   20 cycles
            NFock= 20  Conv=0.72D-08     -V/T= 1.9999
 QCSCF skips out because SCF is already converged.

 **********************************************************************

            Population analysis using the SCF Density.

 **********************************************************************

 Orbital symmetries:
       Occupied  (A) (A) (A) (A) (A) (A) (A) (A) (A) (A) (A) (A)
                 (A) (A) (A) (A) (A) (A) (A) (A) (A) (A) (A) (A)
                 (A) (A) (A) (A) (A) (A) (A) (A) (A) (A) (A) (A)
                 (A) (A) (A) (A) (A) (A) (A) (A) (A) (A) (A) (A)
                 (A) (A) (A) (A) (A) (A) (A) (A) (A) (A) (A) (A)
                 (A) (A) (A) (A) (A) (A) (A) (A) (A) (A) (A) (A)
                 (A) (A) (A) (A) (A) (A) (A) (A) (A)
       Virtual   (A) (A) (A) (A) (A) (A) (A) (A) (A) (A) (A) (A)
                 (A) (A) (A) (A) (A) (A) (A) (A) (A) (A) (A) (A)
                 (A) (A) (A) (A) (A) (A) (A) (A) (A) (A) (A) (A)
                 (A) (A) (A) (A) (A) (A) (A) (A) (A) (A) (A) (A)
                 (A) (A) (A) (A) (A) (A) (A) (A) (A) (A) (A) (A)
                 (A) (A) (A) (A) (A) (A) (A) (A) (A) (A) (A) (A)
                 (A) (A) (A) (A) (A) (A) (A) (A) (A) (A) (A) (A)
                 (A) (A) (A) (A) (A) (A) (A) (A) (A) (A) (A) (A)
                 (A) (A) (A) (A) (A) (A) (A) (A) (A) (A) (A) (A)
                 (A) (A) (A) (A) (A) (A) (A) (A) (A) (A) (A) (A)
                 (A) (A) (A) (A) (A) (A) (A) (A) (A) (A) (A) (A)
                 (A) (A) (A) (A) (A) (A) (A) (A) (A) (A) (A) (A)
                 (A) (A) (A) (A) (A) (A) (A) (A) (A) (A) (A) (A)
                 (A) (A) (A) (A) (A) (A) (A) (A) (A) (A) (A) (A)
                 (A) (A) (A) (A) (A) (A) (A) (A) (A) (A) (A) (A)
                 (A) (A) (A) (A) (A) (A) (A) (A) (A) (A) (A) (A)
                 (A) (A) (A) (A) (A) (A) (A) (A) (A) (A) (A) (A)
                 (A) (A) (A) (A) (A) (A) (A) (A) (A) (A) (A) (A)
                 (A) (A) (A) (A) (A) (A) (A) (A) (A) (A) (A) (A)
                 (A) (A) (A) (A) (A) (A) (A) (A) (A) (A) (A) (A)
                 (A) (A) (A) (A) (A) (A) (A) (A) (A) (A) (A) (A)
                 (A) (A) (A) (A) (A) (A) (A) (A) (A) (A) (A) (A)
                 (A) (A) (A) (A) (A) (A) (A) (A) (A) (A) (A) (A)
                 (A) (A) (A) (A) (A) (A) (A) (A) (A) (A) (A) (A)
                 (A) (A) (A) (A) (A) (A) (A) (A) (A) (A) (A) (A)
                 (A) (A) (A) (A) (A) (A) (A) (A) (A) (A) (A) (A)
                 (A) (A) (A) (A) (A) (A) (A) (A) (A) (A) (A) (A)
                 (A) (A) (A) (A) (A) (A) (A) (A) (A) (A) (A) (A)
                 (A) (A) (A) (A) (A) (A) (A) (A) (A) (A) (A) (A)
                 (A) (A) (A) (A) (A) (A) (A) (A)
 The electronic state is 1-A.
 Alpha  occ. eigenvalues -- -101.66476-101.66473-101.56259-101.56188-101.56041
 Alpha  occ. eigenvalues --  -10.25859 -10.25684 -10.25166 -10.21317 -10.20868
 Alpha  occ. eigenvalues --  -10.20565 -10.20320 -10.20021 -10.19721 -10.19663
 Alpha  occ. eigenvalues --  -10.17965 -10.17884  -9.65263  -9.63136  -9.47695
 Alpha  occ. eigenvalues --   -9.47629  -9.47486  -7.43669  -7.38696  -7.38670
 Alpha  occ. eigenvalues --   -7.38232  -7.38069  -7.37630  -7.24177  -7.24105
 Alpha  occ. eigenvalues --   -7.23942  -7.23177  -7.23124  -7.23117  -7.23059
 Alpha  occ. eigenvalues --   -7.22973  -7.22937  -1.39637  -0.92320  -0.90456
 Alpha  occ. eigenvalues --   -0.87406  -0.86284  -0.85740  -0.81272  -0.80342
 Alpha  occ. eigenvalues --   -0.77847  -0.74426  -0.72885  -0.72852  -0.70607
 Alpha  occ. eigenvalues --   -0.65688  -0.64013  -0.61851  -0.58731  -0.57307
 Alpha  occ. eigenvalues --   -0.52551  -0.50637  -0.49588  -0.48332  -0.47647
 Alpha  occ. eigenvalues --   -0.45831  -0.44721  -0.42878  -0.42627  -0.41369
 Alpha  occ. eigenvalues --   -0.41042  -0.40115  -0.37383  -0.36697  -0.35690
 Alpha  occ. eigenvalues --   -0.35381  -0.34689  -0.33666  -0.32401  -0.31245
 Alpha  occ. eigenvalues --   -0.30130  -0.28472  -0.27578  -0.25052  -0.21348
 Alpha  occ. eigenvalues --   -0.16568
 Alpha virt. eigenvalues --   -0.06804  -0.05758  -0.02712  -0.02417  -0.01522
 Alpha virt. eigenvalues --    0.00052   0.00129   0.00565   0.00729   0.01604
 Alpha virt. eigenvalues --    0.01687   0.02272   0.02637   0.03365   0.04664
 Alpha virt. eigenvalues --    0.05053   0.05158   0.05908   0.06013   0.06093
 Alpha virt. eigenvalues --    0.06650   0.07534   0.07854   0.08343   0.09566
 Alpha virt. eigenvalues --    0.09596   0.09845   0.10158   0.10342   0.10991
 Alpha virt. eigenvalues --    0.11245   0.11859   0.12260   0.12591   0.13181
 Alpha virt. eigenvalues --    0.13281   0.13361   0.13864   0.14092   0.14297
 Alpha virt. eigenvalues --    0.14675   0.15113   0.15524   0.16299   0.16637
 Alpha virt. eigenvalues --    0.17067   0.17081   0.17712   0.17803   0.18506
 Alpha virt. eigenvalues --    0.18997   0.19384   0.19605   0.19644   0.19937
 Alpha virt. eigenvalues --    0.20262   0.20512   0.20959   0.21234   0.22004
 Alpha virt. eigenvalues --    0.22827   0.23108   0.23461   0.23947   0.23953
 Alpha virt. eigenvalues --    0.24625   0.24685   0.25200   0.25502   0.26564
 Alpha virt. eigenvalues --    0.26842   0.27090   0.27357   0.27937   0.28001
 Alpha virt. eigenvalues --    0.29149   0.29788   0.30663   0.31520   0.32218
 Alpha virt. eigenvalues --    0.32659   0.33233   0.33390   0.33996   0.34606
 Alpha virt. eigenvalues --    0.37491   0.38141   0.38872   0.41393   0.42946
 Alpha virt. eigenvalues --    0.43822   0.44003   0.44302   0.44600   0.45475
 Alpha virt. eigenvalues --    0.45662   0.46375   0.46816   0.47122   0.48211
 Alpha virt. eigenvalues --    0.48356   0.48655   0.50398   0.50630   0.50800
 Alpha virt. eigenvalues --    0.52202   0.53500   0.54264   0.54386   0.54682
 Alpha virt. eigenvalues --    0.55693   0.56849   0.57209   0.58305   0.58425
 Alpha virt. eigenvalues --    0.59189   0.60749   0.61779   0.61889   0.62094
 Alpha virt. eigenvalues --    0.62697   0.65002   0.65083   0.65512   0.66098
 Alpha virt. eigenvalues --    0.66613   0.67103   0.67722   0.68159   0.70176
 Alpha virt. eigenvalues --    0.70785   0.71372   0.72247   0.72908   0.74082
 Alpha virt. eigenvalues --    0.76407   0.78803   0.79116   0.79578   0.80871
 Alpha virt. eigenvalues --    0.83673   0.83824   0.84335   0.84810   0.85065
 Alpha virt. eigenvalues --    0.85721   0.85792   0.85811   0.86340   0.86598
 Alpha virt. eigenvalues --    0.87325   0.87906   0.89226   0.89687   0.90538
 Alpha virt. eigenvalues --    0.91277   0.91729   0.91865   0.92255   0.92995
 Alpha virt. eigenvalues --    0.94558   0.94625   0.95313   0.95585   0.96373
 Alpha virt. eigenvalues --    0.96538   0.97953   0.99432   0.99552   0.99931
 Alpha virt. eigenvalues --    1.02781   1.04492   1.05988   1.06754   1.08642
 Alpha virt. eigenvalues --    1.08751   1.09502   1.10255   1.10627   1.12643
 Alpha virt. eigenvalues --    1.14585   1.16178   1.19760   1.21202   1.23739
 Alpha virt. eigenvalues --    1.24286   1.25449   1.27770   1.27841   1.29009
 Alpha virt. eigenvalues --    1.29612   1.30610   1.31601   1.33954   1.34892
 Alpha virt. eigenvalues --    1.36370   1.41097   1.42958   1.43910   1.48209
 Alpha virt. eigenvalues --    1.49990   1.50354   1.50610   1.53123   1.54817
 Alpha virt. eigenvalues --    1.55517   1.58042   1.58754   1.59516   1.61406
 Alpha virt. eigenvalues --    1.63512   1.64205   1.68166   1.68764   1.70016
 Alpha virt. eigenvalues --    1.71083   1.73621   1.76267   1.78124   1.78790
 Alpha virt. eigenvalues --    1.83387   1.84208   1.88586   1.88794   1.90189
 Alpha virt. eigenvalues --    1.91038   1.91285   1.93538   1.94127   1.94189
 Alpha virt. eigenvalues --    1.97629   1.98641   1.99358   2.00084   2.01062
 Alpha virt. eigenvalues --    2.02475   2.06677   2.07311   2.07522   2.07944
 Alpha virt. eigenvalues --    2.11126   2.14202   2.19757   2.19904   2.22276
 Alpha virt. eigenvalues --    2.24670   2.25633   2.26098   2.26223   2.27584
 Alpha virt. eigenvalues --    2.29118   2.30278   2.30508   2.32259   2.34768
 Alpha virt. eigenvalues --    2.36073   2.39378   2.41128   2.42485   2.43970
 Alpha virt. eigenvalues --    2.46659   2.47247   2.52217   2.53003   2.55194
 Alpha virt. eigenvalues --    2.57494   2.58886   2.61008   2.61850   2.62356
 Alpha virt. eigenvalues --    2.64317   2.64901   2.66234   2.69950   2.72593
 Alpha virt. eigenvalues --    2.73357   2.73862   2.74476   2.76322   2.76665
 Alpha virt. eigenvalues --    2.77703   2.80538   2.80937   2.82685   2.84385
 Alpha virt. eigenvalues --    2.85782   2.86471   2.92156   2.92466   2.95475
 Alpha virt. eigenvalues --    3.02418   3.03142   3.06744   3.08137   3.12212
 Alpha virt. eigenvalues --    3.14130   3.17871   3.19344   3.19945   3.24866
 Alpha virt. eigenvalues --    3.34676   3.36050   3.37815   3.44542   3.51433
 Alpha virt. eigenvalues --    3.52192   3.57524   3.60719   3.71776   3.79483
 Alpha virt. eigenvalues --    3.84702   3.88715   3.93503   4.08481   4.13416
 Alpha virt. eigenvalues --    4.21677   4.47745   4.80738   4.84061   9.74771
 Alpha virt. eigenvalues --    9.77600   9.79845   9.80758  10.54221  23.39714
 Alpha virt. eigenvalues --   23.56534  23.83367  23.85192  23.89598  23.94454
 Alpha virt. eigenvalues --   23.97927  24.01886  24.03913  24.05757  24.10192
 Alpha virt. eigenvalues --   24.12629  25.40646  25.78651  25.82521  25.87147
 Alpha virt. eigenvalues --   25.99880  26.10625  26.13702  26.16981  26.19416
 Alpha virt. eigenvalues --   26.51347  26.61086  26.77235  27.10255  27.39105
 Alpha virt. eigenvalues --   28.43747 215.74323 215.76906 215.80290 215.89367
 Alpha virt. eigenvalues --  216.86015
          Condensed to atoms (all electrons):
               1          2          3          4          5          6
     1  C   15.522327  -1.751134   1.536930  -4.347733  -5.770056   8.835239
     2  C   -1.751134  14.025426  -2.553138   0.959668  -0.336794  -0.903069
     3  C    1.536930  -2.553138  16.846328  -1.428860  -4.175454  -1.296899
     4  C   -4.347733   0.959668  -1.428860  16.122945   3.206318  -8.196753
     5  C   -5.770056  -0.336794  -4.175454   3.206318  19.788284 -11.466920
     6  C    8.835239  -0.903069  -1.296899  -8.196753 -11.466920  39.257451
     7  C    5.633205  -1.295795  -0.434023  -1.821848  -3.788351   3.533186
     8  C   -1.071968  -1.197017   0.387587  -1.122275  -1.340350  -1.277594
     9  C   -1.901545  -0.363916   1.625475  -0.454624  -1.347886  -2.327274
    10  C   -0.162281  -0.733432  -0.402775   0.085646   0.740863  -0.276515
    11  C   -2.727901  -0.314103  -0.685564   0.368623   2.093409  -3.383322
    12  C    2.379438  -0.021167  -0.384310  -1.249648  -4.791906   6.517972
    13  H    0.054928   0.420326  -0.259200  -0.004979  -0.020458   0.027320
    14  H    0.027359  -0.066049   0.305999   0.017910   0.034983   0.019461
    15  H    0.146373  -0.026032   0.048674   0.005656   0.223111   0.018817
    16  H    0.116253   0.037387  -0.044609   0.012656   0.010788   0.081245
    17  H    0.025790   0.005904   0.001361  -0.000636  -0.006029   0.009850
    18  Cl  -2.246117  -0.292579  -0.404219   1.240664   1.742538  -3.013241
    19  Cl  -7.543725   0.799555  -2.562927   3.106000  11.608093 -19.641924
    20  Cl  -0.034329  -0.055163  -0.009559  -0.001171   0.008020  -0.014671
    21  Cl  -0.292485  -0.050145   0.254974  -0.820102   0.331069  -0.119088
    22  Cl  -0.262446  -0.004281   0.061637  -0.007101  -0.030313  -0.158018
               7          8          9         10         11         12
     1  C    5.633205  -1.071968  -1.901545  -0.162281  -2.727901   2.379438
     2  C   -1.295795  -1.197017  -0.363916  -0.733432  -0.314103  -0.021167
     3  C   -0.434023   0.387587   1.625475  -0.402775  -0.685564  -0.384310
     4  C   -1.821848  -1.122275  -0.454624   0.085646   0.368623  -1.249648
     5  C   -3.788351  -1.340350  -1.347886   0.740863   2.093409  -4.791906
     6  C    3.533186  -1.277594  -2.327274  -0.276515  -3.383322   6.517972
     7  C   17.853819   0.376487  -4.126710   0.574349  -3.992818   2.276046
     8  C    0.376487  12.486945   3.233025  -4.148145   0.011838   1.581910
     9  C   -4.126710   3.233025  22.014181  -7.195972  -1.905738   1.962505
    10  C    0.574349  -4.148145  -7.195972  22.049634   1.418443  -9.971869
    11  C   -3.992818   0.011838  -1.905738   1.418443  13.316850  -7.250414
    12  C    2.276046   1.581910   1.962505  -9.971869  -7.250414  39.111049
    13  H    0.082669   0.010696  -0.062092   0.004610   0.007070   0.018755
    14  H    0.007587   0.004729  -0.000472  -0.000222   0.000417   0.004487
    15  H    0.021526   0.006023   0.001234  -0.000490  -0.004516   0.007943
    16  H    0.165650   0.197756  -0.323290   0.100599  -0.039640  -0.017044
    17  H    0.143780  -0.030111   0.001866   0.049725   0.249066   0.004341
    18  Cl  -2.993162  -0.347506  -1.858631   1.992831   3.606183 -11.111172
    19  Cl  -4.605886  -1.287769  -1.711110   2.666464   5.886704 -12.789157
    20  Cl  -0.007717  -0.023867   0.278775  -0.179571  -0.168527  -0.681102
    21  Cl  -0.065519  -0.029375   0.000131  -0.001941  -0.002744  -0.031054
    22  Cl  -1.079358   0.208069   0.101103  -0.543646   0.408455   0.456144
              13         14         15         16         17         18
     1  C    0.054928   0.027359   0.146373   0.116253   0.025790  -2.246117
     2  C    0.420326  -0.066049  -0.026032   0.037387   0.005904  -0.292579
     3  C   -0.259200   0.305999   0.048674  -0.044609   0.001361  -0.404219
     4  C   -0.004979   0.017910   0.005656   0.012656  -0.000636   1.240664
     5  C   -0.020458   0.034983   0.223111   0.010788  -0.006029   1.742538
     6  C    0.027320   0.019461   0.018817   0.081245   0.009850  -3.013241
     7  C    0.082669   0.007587   0.021526   0.165650   0.143780  -2.993162
     8  C    0.010696   0.004729   0.006023   0.197756  -0.030111  -0.347506
     9  C   -0.062092  -0.000472   0.001234  -0.323290   0.001866  -1.858631
    10  C    0.004610  -0.000222  -0.000490   0.100599   0.049725   1.992831
    11  C    0.007070   0.000417  -0.004516  -0.039640   0.249066   3.606183
    12  C    0.018755   0.004487   0.007943  -0.017044   0.004341 -11.111172
    13  H    0.575953  -0.007478   0.000043   0.005893  -0.000003   0.008737
    14  H   -0.007478   0.516146  -0.000358   0.000069   0.000000  -0.000941
    15  H    0.000043  -0.000358   0.517283  -0.000004   0.000001   0.020089
    16  H    0.005893   0.000069  -0.000004   0.564831   0.000025   0.021158
    17  H   -0.000003   0.000000   0.000001   0.000025   0.512283  -0.090840
    18  Cl   0.008737  -0.000941   0.020089   0.021158  -0.090840  28.595412
    19  Cl   0.020483   0.002968  -0.114240   0.017993  -0.015126   1.393941
    20  Cl   0.000236  -0.000001  -0.000002   0.000801  -0.011040   0.043483
    21  Cl  -0.000599  -0.012212  -0.014258   0.000029  -0.000001  -0.008735
    22  Cl  -0.001407   0.000011   0.000004  -0.041218   0.000874  -0.049278
              19         20         21         22
     1  C   -7.543725  -0.034329  -0.292485  -0.262446
     2  C    0.799555  -0.055163  -0.050145  -0.004281
     3  C   -2.562927  -0.009559   0.254974   0.061637
     4  C    3.106000  -0.001171  -0.820102  -0.007101
     5  C   11.608093   0.008020   0.331069  -0.030313
     6  C  -19.641924  -0.014671  -0.119088  -0.158018
     7  C   -4.605886  -0.007717  -0.065519  -1.079358
     8  C   -1.287769  -0.023867  -0.029375   0.208069
     9  C   -1.711110   0.278775   0.000131   0.101103
    10  C    2.666464  -0.179571  -0.001941  -0.543646
    11  C    5.886704  -0.168527  -0.002744   0.408455
    12  C  -12.789157  -0.681102  -0.031054   0.456144
    13  H    0.020483   0.000236  -0.000599  -0.001407
    14  H    0.002968  -0.000001  -0.012212   0.000011
    15  H   -0.114240  -0.000002  -0.014258   0.000004
    16  H    0.017993   0.000801   0.000029  -0.041218
    17  H   -0.015126  -0.011040  -0.000001   0.000874
    18  Cl   1.393941   0.043483  -0.008735  -0.049278
    19  Cl  41.513243   0.035086  -0.013041  -0.042926
    20  Cl   0.035086  17.522028  -0.000004  -0.215113
    21  Cl  -0.013041  -0.000004  17.453253   0.000007
    22  Cl  -0.042926  -0.215113   0.000007  17.659918
 Mulliken charges:
               1
     1  C   -0.166121
     2  C   -0.284453
     3  C   -0.427427
     4  C    0.329644
     5  C   -0.712959
     6  C   -0.225254
     7  C   -0.457116
     8  C   -0.629088
     9  C    0.360966
    10  C   -0.066307
    11  C   -0.891771
    12  C   -0.021744
    13  H    0.118497
    14  H    0.145606
    15  H    0.143123
    16  H    0.132673
    17  H    0.148919
    18  Cl   0.751385
    19  Cl   0.277300
    20  Cl   0.513407
    21  Cl   0.421839
    22  Cl   0.538882
 Sum of Mulliken charges =  -0.00000
 Mulliken charges with hydrogens summed into heavy atoms:
               1
     1  C   -0.166121
     2  C   -0.165956
     3  C   -0.281821
     4  C    0.329644
     5  C   -0.569835
     6  C   -0.225254
     7  C   -0.457116
     8  C   -0.496415
     9  C    0.360966
    10  C   -0.066307
    11  C   -0.742853
    12  C   -0.021744
    18  Cl   0.751385
    19  Cl   0.277300
    20  Cl   0.513407
    21  Cl   0.421839
    22  Cl   0.538882
 Electronic spatial extent (au):  <R**2>=           7823.9138
 Charge=             -0.0000 electrons
 Dipole moment (field-independent basis, Debye):
    X=             -1.3500    Y=              2.9148    Z=             -0.0000  Tot=              3.2122
 Quadrupole moment (field-independent basis, Debye-Ang):
   XX=           -154.7799   YY=           -117.9480   ZZ=           -134.7414
   XY=             -1.2315   XZ=             -0.0000   YZ=              0.0000
 Traceless Quadrupole moment (field-independent basis, Debye-Ang):
   XX=            -18.9568   YY=             17.8751   ZZ=              1.0817
   XY=             -1.2315   XZ=             -0.0000   YZ=              0.0000
 Octapole moment (field-independent basis, Debye-Ang**2):
  XXX=             21.5457  YYY=             34.9485  ZZZ=             -0.0000  XYY=            -14.9695
  XXY=             27.8350  XXZ=              0.0000  XZZ=              3.9226  YZZ=             10.9236
  YYZ=             -0.0000  XYZ=             -0.0000
 Hexadecapole moment (field-independent basis, Debye-Ang**3):
 XXXX=          -8495.6863 YYYY=          -1975.7131 ZZZZ=           -160.6315 XXXY=            -75.5210
 XXXZ=             -0.0004 YYYX=            -27.0902 YYYZ=              0.0001 ZZZX=              0.0000
 ZZZY=              0.0000 XXYY=          -1682.7302 XXZZ=          -1413.8938 YYZZ=           -390.6700
 XXYZ=              0.0000 YYXZ=             -0.0000 ZZXY=            -17.8023
 N-N= 1.789177872223D+03 E-N=-1.011484816673D+04  KE= 2.760291286150D+03
 Calling FoFJK, ICntrl=      2127 FMM=F ISym2X=0 I1Cent= 0 IOpClX= 0 NMat=1 NMatS=1 NMatT=0.
 ***** Axes restored to original set *****
 -------------------------------------------------------------------
 Center     Atomic                   Forces (Hartrees/Bohr)
 Number     Number              X              Y              Z
 -------------------------------------------------------------------
      1        6           0.002237769   -0.030971018   -0.006553879
      2        6          -0.006560422    0.020932211    0.006092841
      3        6          -0.008863426    0.000273695    0.002971603
      4        6          -0.008656841   -0.011919899    0.000613154
      5        6           0.005209309   -0.015726150   -0.004669617
      6        6           0.110997418   -0.005208526   -0.037547497
      7        6           0.025660951    0.010663398   -0.006451477
      8        6          -0.016342894   -0.003584873    0.004711012
      9        6           0.001017208    0.001165116   -0.000116358
     10        6          -0.001650332    0.002531244    0.001019156
     11        6           0.021023157    0.006231794   -0.005755785
     12        6           0.056904333   -0.095572692   -0.036696563
     13        1           0.007673810   -0.004305334   -0.003336826
     14        1           0.008568458    0.000892250   -0.002655338
     15        1          -0.006026455    0.011164279    0.004082217
     16        1           0.006738258   -0.005090278   -0.003176059
     17        1          -0.012291076   -0.001251304    0.003814342
     18       17          -1.716256245   -2.718122426    0.054969959
     19       17           1.530956922    2.828073854    0.026727999
     20       17          -0.001517028    0.004327576    0.001312501
     21       17          -0.000113807   -0.000929252   -0.000137019
     22       17           0.001290933    0.006426333    0.000781635
 -------------------------------------------------------------------
 Cartesian Forces:  Max     2.828073854 RMS     0.560183959

 GradGradGradGradGradGradGradGradGradGradGradGradGradGradGradGradGradGrad
 Berny optimization.
 FormGI is forming the generalized inverse of G from B-inverse, IUseBI=4.
 Internal  Forces:  Max     3.117453064 RMS     0.292542555
 Search for a local minimum.
 Step number   1 out of a maximum of  129
 All quantities printed in internal units (Hartrees-Bohrs-Radians)
 Mixed Optimization -- RFO/linear search
 Second derivative matrix not updated -- first step.
 ITU=  0
     Eigenvalues ---    0.01035   0.01214   0.01489   0.01712   0.01738
     Eigenvalues ---    0.01829   0.02070   0.02070   0.02070   0.02070
     Eigenvalues ---    0.02070   0.02070   0.02070   0.02070   0.02070
     Eigenvalues ---    0.02070   0.02070   0.02070   0.03966   0.16000
     Eigenvalues ---    0.16000   0.16000   0.16000   0.16000   0.22443
     Eigenvalues ---    0.23084   0.23515   0.23991   0.24620   0.25000
     Eigenvalues ---    0.25000   0.25000   0.25000   0.25000   0.25000
     Eigenvalues ---    0.25000   0.28335   0.29042   0.29447   0.29539
     Eigenvalues ---    0.29539   0.29539   0.37230   0.37230   0.37230
     Eigenvalues ---    0.37230   0.37230   0.40059   0.40942   0.41414
     Eigenvalues ---    0.41468   0.44582   0.45130   0.45389   0.45389
     Eigenvalues ---    0.45389   0.45389   0.45389   0.45389  16.61567
 RFO step:  Lambda=-6.26874037D-01 EMin= 1.03510892D-02
 Linear search not attempted -- first point.
 Iteration  1 RMS(Cart)=  0.03084597 RMS(Int)=  0.00050898
 Iteration  2 RMS(Cart)=  0.00126165 RMS(Int)=  0.00023400
 Iteration  3 RMS(Cart)=  0.00000065 RMS(Int)=  0.00023400
 Variable       Old X    -DE/DX   Delta X   Delta X   Delta X     New X
                                 (Linear)    (Quad)   (Total)
    R1        2.64826   0.01849   0.00000   0.00254   0.00248   2.65075
    R2        2.64826   0.10211   0.00000   0.01698   0.01665   2.66491
    R3        2.91018   0.11854   0.00000  -0.01377  -0.01428   2.89590
    R4        2.64826  -0.01101   0.00000  -0.00789  -0.00787   2.64039
    R5        2.02201   0.00806   0.00000   0.00807   0.00807   2.03007
    R6        2.64826  -0.03015   0.00000  -0.01103  -0.01096   2.63731
    R7        2.02201   0.00899   0.00000   0.00899   0.00899   2.03100
    R8        2.64826  -0.02704   0.00000  -0.01046  -0.01039   2.63787
    R9        3.32592  -0.00086   0.00000  -0.00093  -0.00093   3.32499
   R10        2.64826  -0.00801   0.00000  -0.00970  -0.00972   2.63855
   R11        2.02201   0.01333   0.00000   0.01334   0.01334   2.03534
   R12        3.32592   0.05119   0.00000   0.12660   0.12683   3.45275
   R13        2.64826   0.01584   0.00000   0.00004  -0.00002   2.64824
   R14        2.64826   0.10174   0.00000   0.01651   0.01618   2.66444
   R15        2.64826  -0.01154   0.00000  -0.00833  -0.00832   2.63994
   R16        2.02201   0.00728   0.00000   0.00729   0.00729   2.02929
   R17        2.64826  -0.02267   0.00000  -0.00402  -0.00395   2.64432
   R18        3.32592  -0.00507   0.00000  -0.00550  -0.00550   3.32042
   R19        2.64826  -0.02674   0.00000  -0.01013  -0.01007   2.63819
   R20        3.32592  -0.00296   0.00000  -0.00321  -0.00321   3.32271
   R21        2.64826  -0.00920   0.00000  -0.01086  -0.01087   2.63739
   R22        2.02201   0.01289   0.00000   0.01290   0.01290   2.03491
   R23        3.32592   0.05235   0.00000   0.12782   0.12806   3.45397
   R24        2.23252   3.11745   0.00000   0.18081   0.18132   2.41384
    A1        2.09440  -0.08132   0.00000  -0.01173  -0.01145   2.08295
    A2        2.09440  -0.16481   0.00000  -0.00011   0.00055   2.09495
    A3        2.09440   0.24613   0.00000   0.01184   0.01089   2.10529
    A4        2.09440   0.04802   0.00000   0.00788   0.00772   2.10211
    A5        2.09440  -0.01910   0.00000   0.00230   0.00238   2.09678
    A6        2.09440  -0.02892   0.00000  -0.01018  -0.01010   2.08430
    A7        2.09440   0.00400   0.00000  -0.00322  -0.00324   2.09115
    A8        2.09440  -0.00128   0.00000   0.00252   0.00254   2.09693
    A9        2.09440  -0.00272   0.00000   0.00070   0.00071   2.09510
   A10        2.09440  -0.00250   0.00000   0.00489   0.00491   2.09931
   A11        2.09440   0.00059   0.00000  -0.00320  -0.00321   2.09119
   A12        2.09440   0.00191   0.00000  -0.00169  -0.00170   2.09269
   A13        2.09440   0.01723   0.00000   0.00344   0.00338   2.09777
   A14        2.09440  -0.00851   0.00000  -0.00159  -0.00155   2.09284
   A15        2.09440  -0.00872   0.00000  -0.00185  -0.00182   2.09257
   A16        2.09440   0.01457   0.00000  -0.00126  -0.00132   2.09308
   A17        2.09440   0.06938   0.00000   0.03116   0.03097   2.12537
   A18        2.09440  -0.08395   0.00000  -0.02990  -0.02966   2.06474
   A19        2.09440  -0.16681   0.00000  -0.00225  -0.00159   2.09280
   A20        2.09440   0.24689   0.00000   0.01277   0.01183   2.10623
   A21        2.09440  -0.08008   0.00000  -0.01052  -0.01024   2.08416
   A22        2.09440   0.04692   0.00000   0.00653   0.00636   2.10076
   A23        2.09440  -0.01807   0.00000   0.00358   0.00367   2.09806
   A24        2.09440  -0.02885   0.00000  -0.01011  -0.01003   2.08437
   A25        2.09440   0.00699   0.00000   0.00043   0.00040   2.09480
   A26        2.09440  -0.01052   0.00000  -0.00823  -0.00821   2.08618
   A27        2.09440   0.00353   0.00000   0.00780   0.00781   2.10220
   A28        2.09440  -0.00887   0.00000  -0.00223  -0.00221   2.09219
   A29        2.09440   0.01065   0.00000   0.00821   0.00819   2.10259
   A30        2.09440  -0.00178   0.00000  -0.00597  -0.00599   2.08841
   A31        2.09440   0.02088   0.00000   0.00770   0.00764   2.10204
   A32        2.09440  -0.01144   0.00000  -0.00513  -0.00510   2.08930
   A33        2.09440  -0.00944   0.00000  -0.00258  -0.00255   2.09185
   A34        2.09440   0.01416   0.00000  -0.00191  -0.00197   2.09243
   A35        2.09440   0.06881   0.00000   0.03054   0.03036   2.12475
   A36        2.09440  -0.08297   0.00000  -0.02863  -0.02839   2.06600
   A37        2.09440  -0.31569   0.00000  -0.04328  -0.04215   2.05224
   A38        2.09440  -0.31551   0.00000  -0.04303  -0.04190   2.05249
    D1        0.00000   0.00000   0.00000   0.00000   0.00000   0.00000
    D2        3.14159   0.00000   0.00000   0.00000   0.00000   3.14159
    D3       -3.14159   0.00000   0.00000   0.00000   0.00000  -3.14159
    D4       -0.00000   0.00000   0.00000   0.00000   0.00000  -0.00000
    D5       -0.00000  -0.00000   0.00000  -0.00000  -0.00000  -0.00000
    D6        3.14159  -0.00000   0.00000   0.00000   0.00000   3.14159
    D7        3.14159  -0.00000   0.00000  -0.00000  -0.00000   3.14159
    D8        0.00000  -0.00000   0.00000   0.00000   0.00000   0.00000
    D9       -0.00000  -0.00000   0.00000  -0.00000  -0.00000  -0.00000
   D10        3.14159  -0.00000   0.00000  -0.00000  -0.00000   3.14159
   D11        3.14159  -0.00000   0.00000  -0.00000  -0.00000   3.14159
   D12       -0.00000  -0.00000   0.00000  -0.00000  -0.00000  -0.00000
   D13        0.00000  -0.00000   0.00000  -0.00000  -0.00000   0.00000
   D14        3.14159  -0.00000   0.00000   0.00000   0.00000   3.14159
   D15       -3.14159   0.00000   0.00000  -0.00000  -0.00000  -3.14159
   D16        0.00000   0.00000   0.00000  -0.00000  -0.00000   0.00000
   D17       -0.00000  -0.00000   0.00000   0.00000   0.00000  -0.00000
   D18        3.14159   0.00000   0.00000  -0.00000  -0.00000   3.14159
   D19        3.14159  -0.00000   0.00000   0.00000   0.00000   3.14159
   D20        0.00000   0.00000   0.00000  -0.00000  -0.00000   0.00000
   D21        0.00000   0.00000   0.00000  -0.00000  -0.00000   0.00000
   D22       -3.14159   0.00000   0.00000  -0.00000  -0.00000  -3.14159
   D23       -3.14159  -0.00000   0.00000  -0.00000  -0.00000  -3.14159
   D24        0.00000   0.00000   0.00000   0.00000   0.00000   0.00000
   D25       -0.00000   0.00000   0.00000   0.00000   0.00000  -0.00000
   D26        3.14159   0.00000   0.00000  -0.00000  -0.00000   3.14159
   D27        3.14159  -0.00000   0.00000   0.00000   0.00000   3.14159
   D28       -0.00000   0.00000   0.00000  -0.00000  -0.00000  -0.00000
   D29        0.00001  -0.00000   0.00000  -0.00000  -0.00000   0.00001
   D30       -3.14158  -0.00000   0.00000  -0.00000  -0.00000  -3.14158
   D31        3.14159   0.00000   0.00000   0.00000   0.00000   3.14159
   D32        0.00000   0.00000   0.00000   0.00000   0.00000   0.00000
   D33        0.00000   0.00000   0.00000   0.00000   0.00000   0.00000
   D34       -3.14159   0.00000   0.00000  -0.00000  -0.00000  -3.14159
   D35       -3.14159  -0.00000   0.00000  -0.00000  -0.00000  -3.14159
   D36        0.00000  -0.00000   0.00000   0.00000   0.00000   0.00000
   D37       -0.00000  -0.00000   0.00000  -0.00000  -0.00000  -0.00000
   D38        3.14159  -0.00000   0.00000   0.00000   0.00000   3.14159
   D39       -0.00000  -0.00000   0.00000   0.00000   0.00000  -0.00000
   D40        3.14159  -0.00000   0.00000  -0.00000  -0.00000   3.14159
   D41        3.14159   0.00000   0.00000   0.00000   0.00000   3.14159
   D42       -0.00000   0.00000   0.00000   0.00000   0.00000  -0.00000
   D43       -0.00000  -0.00000   0.00000  -0.00000  -0.00000  -0.00000
   D44       -3.14159  -0.00000   0.00000  -0.00000  -0.00000  -3.14159
   D45        3.14159  -0.00000   0.00000   0.00000   0.00000   3.14159
   D46        0.00000   0.00000   0.00000  -0.00000  -0.00000   0.00000
   D47        0.00000   0.00000   0.00000  -0.00000  -0.00000   0.00000
   D48       -3.14159   0.00000   0.00000  -0.00000  -0.00000  -3.14159
   D49        3.14159  -0.00000   0.00000   0.00000   0.00000   3.14159
   D50        0.00000   0.00000   0.00000  -0.00000  -0.00000   0.00000
   D51        0.00000   0.00000   0.00000   0.00000   0.00000   0.00000
   D52       -3.14159   0.00000   0.00000  -0.00000  -0.00000  -3.14159
   D53        3.14159   0.00000   0.00000   0.00000   0.00000   3.14159
   D54       -0.00000   0.00000   0.00000  -0.00000  -0.00000  -0.00000
   D55        0.00001  -0.00000   0.00000  -0.00000  -0.00000   0.00001
   D56       -3.14158  -0.00000   0.00000  -0.00000  -0.00000  -3.14158
   D57       -0.00001   0.00000   0.00000   0.00000   0.00000  -0.00001
         Item               Value     Threshold  Converged?
 Maximum Force            3.117453     0.000450     NO 
 RMS     Force            0.292543     0.000300     NO 
 Maximum Displacement     0.194943     0.001800     NO 
 RMS     Displacement     0.030188     0.001200     NO 
 Predicted change in Energy=-3.355365D-01
 GradGradGradGradGradGradGradGradGradGradGradGradGradGradGradGradGradGrad

                          Input orientation:                          
 ---------------------------------------------------------------------
 Center     Atomic      Atomic             Coordinates (Angstroms)
 Number     Number       Type             X           Y           Z
 ---------------------------------------------------------------------
      1          6           0        0.702285    0.342358   -0.002098
      2          6           0        2.035919    0.372393   -0.435830
      3          6           0        2.750283    1.573162   -0.445664
      4          6           0        2.133534    2.750964   -0.021270
      5          6           0        0.806885    2.733974    0.412607
      6          6           0        0.087376    1.537441    0.424933
      7          6           0       -0.072378   -0.979850    0.004795
      8          6           0        0.553434   -2.158597   -0.422762
      9          6           0       -0.143777   -3.369172   -0.420418
     10          6           0       -1.474510   -3.409887    0.010355
     11          6           0       -2.103287   -2.238881    0.437437
     12          6           0       -1.413362   -1.025689    0.437985
     13          1           0        2.516859   -0.530469   -0.763842
     14          1           0        3.771909    1.590692   -0.778951
     15          1           0        0.336785    3.646456    0.738855
     16          1           0        1.574306   -2.138377   -0.755296
     17          1           0       -3.127419   -2.273274    0.768389
     18         17           0       -2.291214    0.472485    1.008573
     19         17           0       -1.645543    1.574618    1.002832
     20         17           0       -2.363106   -4.927107    0.018165
     21         17           0        3.033072    4.263096   -0.033634
     22         17           0        0.662311   -4.833850   -0.961070
 ---------------------------------------------------------------------
                    Distance matrix (angstroms):
                    1          2          3          4          5
     1  C    0.000000
     2  C    1.402714   0.000000
     3  C    2.430211   1.397233   0.000000
     4  C    2.801824   2.416400   1.395602   0.000000
     5  C    2.429557   2.794179   2.420931   1.395899   0.000000
     6  C    1.410210   2.427977   2.801837   2.420433   1.396258
     7  C    1.532444   2.543153   3.832519   4.334247   3.838217
     8  C    2.540451   2.933230   4.330438   5.173170   4.969842
     9  C    3.829656   4.330198   5.727380   6.542287   6.232662
    10  C    4.337965   5.179560   6.548863   7.139682   6.566095
    11  C    3.837606   4.971356   6.234476   6.561982   5.761858
    12  C    2.557574   3.823052   4.987063   5.201393   4.366372
    13  H    2.152849   1.074269   2.140324   3.386171   3.868415
    14  H    3.403591   2.148406   1.074759   2.145830   3.393858
    15  H    3.405828   3.871231   3.395085   2.146626   1.077058
    16  H    2.735283   2.572763   3.905678   4.975659   5.068801
    17  H    4.701257   5.925349   7.128561   7.317387   6.377920
    18  Cl   3.162187   4.562938   5.361249   5.082365   3.881717
    19  Cl   2.835603   4.131374   4.628329   4.088275   2.776126
    20  Cl   6.096252   6.902335   8.283440   8.897982   8.300397
    21  Cl   4.561332   4.036539   2.735961   1.759507   2.737380
    22  Cl   5.264443   5.409958   6.758334   7.783131   7.692845
                    6          7          8          9         10
     6  C    0.000000
     7  C    2.557107   0.000000
     8  C    3.820536   1.401388   0.000000
     9  C    4.984266   2.427913   1.396997   0.000000
    10  C    5.204558   2.805545   2.421957   1.399312   0.000000
    11  C    4.365750   2.428360   2.793664   2.419330   1.396072
    12  C    2.970189   1.409962   2.427479   2.800110   2.423017
    13  H    3.404678   2.738046   2.573358   3.905785   4.982114
    14  H    3.876591   4.690468   4.954051   6.329407   7.290659
    15  H    2.146787   4.702017   5.924097   7.126983   7.321440
    16  H    4.137094   2.152089   1.073856   2.139814   3.390905
    17  H    4.997441   3.404306   3.870488   3.393579   2.144438
    18  Cl   2.670666   2.835504   4.130780   4.627293   4.090998
    19  Cl   1.827117   3.161682   4.561218   5.359291   5.085229
    20  Cl   6.925367   4.563819   4.045401   2.746805   1.758300
    21  Cl   4.039381   6.093749   6.894792   8.276079   8.899152
    22  Cl   6.545603   4.040542   2.731046   1.757090   2.745421
                   11         12         13         14         15
    11  C    0.000000
    12  C    1.395648   0.000000
    13  H    5.070256   4.139598   0.000000
    14  H    7.117806   5.934090   2.464691   0.000000
    15  H    6.378243   4.998247   4.945455   4.281353   0.000000
    16  H    3.867480   3.404138   1.863826   4.328508   6.101495
    17  H    1.076828   2.145606   6.102702   8.057619   6.858919
    18  Cl   2.777232   1.827764   5.221584   6.419275   4.129554
    19  Cl   3.882264   2.671059   4.987797   5.702964   2.879552
    20  Cl   2.733103   4.037242   6.614833   8.986407   9.017471
    21  Cl   8.299385   6.925636   4.876263   2.871084   2.871750
    22  Cl   4.042057   4.557177   4.690132   7.139854   8.655131
                   16         17         18         19         20
    16  H    0.000000
    17  H    4.944293   0.000000
    18  Cl   4.986991   2.880299   0.000000
    19  Cl   5.219652   4.130035   1.277349   0.000000
    20  Cl   4.886559   2.861790   5.490143   6.614899   0.000000
    21  Cl   6.605123   9.017706   6.618379   5.494689  10.657450
    22  Cl   2.853008   4.889748   6.384356   7.088833   3.181312
                   21         22
    21  Cl   0.000000
    22  Cl   9.446432   0.000000
 Stoichiometry    C12H5Cl5
 Framework group  C1[X(C12H5Cl5)]
 Deg. of freedom    60
 Full point group                 C1      NOp   1
 Largest Abelian subgroup         C1      NOp   1
 Largest concise Abelian subgroup C1      NOp   1
                         Standard orientation:                         
 ---------------------------------------------------------------------
 Center     Atomic      Atomic             Coordinates (Angstroms)
 Number     Number       Type             X           Y           Z
 ---------------------------------------------------------------------
      1          6           0       -1.079112   -0.452035    0.000002
      2          6           0       -1.587458   -1.759395    0.000000
      3          6           0       -2.966739   -1.982653   -0.000001
      4          6           0       -3.845184   -0.898200   -0.000001
      5          6           0       -3.351544    0.407501    0.000002
      6          6           0       -1.974369    0.637555    0.000003
      7          6           0        0.435359   -0.218019    0.000002
      8          6           0        1.311424   -1.311819    0.000002
      9          6           0        2.693690   -1.109479    0.000002
     10          6           0        3.210972    0.190711   -0.000000
     11          6           0        2.343206    1.284329   -0.000001
     12          6           0        0.961119    1.090251   -0.000001
     13          1           0       -0.917011   -2.598773   -0.000002
     14          1           0       -3.351036   -2.986358   -0.000003
     15          1           0       -4.034883    1.240028    0.000004
     16          1           0        0.924885   -2.313694    0.000001
     17          1           0        2.744163    2.283724   -0.000005
     18         17           0       -0.122658    2.562036   -0.000004
     19         17           0       -1.385032    2.367017    0.000006
     20         17           0        4.948694    0.458926   -0.000004
     21         17           0       -5.582094   -1.179287   -0.000004
     22         17           0        3.772012   -2.496774    0.000003
 ---------------------------------------------------------------------
 Rotational constants (GHZ):           0.5608841           0.1500685           0.1183919
 Standard basis: 6-311+G(d,p) (5D, 7F)
 There are   461 symmetry adapted cartesian basis functions of A   symmetry.
 There are   444 symmetry adapted basis functions of A   symmetry.
   444 basis functions,   737 primitive gaussians,   461 cartesian basis functions
    81 alpha electrons       81 beta electrons
       nuclear repulsion energy      1768.5725222709 Hartrees.
 NAtoms=   22 NActive=   22 NUniq=   22 SFac= 1.00D+00 NAtFMM=   60 NAOKFM=F Big=F
 Integral buffers will be    131072 words long.
 Raffenetti 2 integral format.
 Two-electron integral symmetry is turned on.
 One-electron integrals computed using PRISM.
 NBasis=   444 RedAO= T EigKep=  1.12D-06  NBF=   444
 NBsUse=   438 1.00D-06 EigRej=  8.79D-07 NBFU=   438
 Initial guess from the checkpoint file:  "/scratch/gour/Gau-46252.chk"
 B after Tr=    -0.000000    0.000000    0.000000
         Rot=    1.000000    0.000000    0.000000   -0.000321 Ang=  -0.04 deg.
 ExpMin= 4.38D-02 ExpMax= 1.06D+05 ExpMxC= 3.62D+03 IAcc=3 IRadAn=         5 AccDes= 0.00D+00
 Harris functional with IExCor=  402 and IRadAn=       5 diagonalized for initial guess.
 HarFok:  IExCor=  402 AccDes= 0.00D+00 IRadAn=         5 IDoV= 1 UseB2=F ITyADJ=14
 ICtDFT=  3500011 ScaDFX=  1.000000  1.000000  1.000000  1.000000
 FoFCou: FMM=F IPFlag=           0 FMFlag=      100000 FMFlg1=           0
         NFxFlg=           0 DoJE=T BraDBF=F KetDBF=T FulRan=T
         wScrn=  0.000000 ICntrl=       500 IOpCl=  0 I1Cent=   200000004 NGrid=           0
         NMat0=    1 NMatS0=      1 NMatT0=    0 NMatD0=    1 NMtDS0=    0 NMtDT0=    0
 Petite list used in FoFCou.
 Requested convergence on RMS density matrix=1.00D-08 within  32 cycles.
 Requested convergence on MAX density matrix=1.00D-06.
 Requested convergence on             energy=1.00D-06.
 No special actions if energy rises.
 SCF Done:  E(RB3LYP) =  -2760.40661764     A.U. after   17 cycles
            NFock= 17  Conv=0.36D-08     -V/T= 2.0007
 QCSCF skips out because SCF is already converged.
 Calling FoFJK, ICntrl=      2127 FMM=F ISym2X=0 I1Cent= 0 IOpClX= 0 NMat=1 NMatS=1 NMatT=0.
 ***** Axes restored to original set *****
 -------------------------------------------------------------------
 Center     Atomic                   Forces (Hartrees/Bohr)
 Number     Number              X              Y              Z
 -------------------------------------------------------------------
      1        6          -0.001233740   -0.024714861   -0.004235237
      2        6          -0.005066753    0.014740782    0.004437902
      3        6          -0.004223120   -0.000578046    0.001282869
      4        6          -0.005066398   -0.007323961    0.000293423
      5        6          -0.001517519   -0.010515723   -0.001474873
      6        6           0.092377491   -0.017696772   -0.033758303
      7        6           0.018899110    0.011780744   -0.004013855
      8        6          -0.011463997   -0.002232788    0.003357588
      9        6           0.000706248    0.000184017   -0.000198175
     10        6          -0.000966595   -0.000969757    0.000136386
     11        6           0.012665727    0.009207445   -0.002443508
     12        6           0.058976874   -0.072934977   -0.033127947
     13        1           0.005762540   -0.002341528   -0.002338323
     14        1           0.005271782    0.000597376   -0.001624613
     15        1          -0.003550602    0.007498082    0.002578001
     16        1           0.004275454   -0.004413638   -0.002237603
     17        1          -0.008106775   -0.001452900    0.002397911
     18       17          -1.101465064   -1.697351749    0.044123102
     19       17           0.943548684    1.791157975    0.025521145
     20       17          -0.001008110    0.002719477    0.000842823
     21       17           0.000467558    0.000260827   -0.000105044
     22       17           0.000717203    0.004379974    0.000586331
 -------------------------------------------------------------------
 Cartesian Forces:  Max     1.791157975 RMS     0.352857511

 GradGradGradGradGradGradGradGradGradGradGradGradGradGradGradGradGradGrad
 Berny optimization.
 Using GEDIIS/GDIIS optimizer.
 FormGI is forming the generalized inverse of G from B-inverse, IUseBI=4.
 Internal  Forces:  Max     1.969175576 RMS     0.184789981
 Search for a local minimum.
 Step number   2 out of a maximum of  129
 All quantities printed in internal units (Hartrees-Bohrs-Radians)
 Mixed Optimization -- RFO/linear search
 Update second derivatives using D2CorX and points    1    2
 DE= -5.08D-01 DEPred=-3.36D-01 R= 1.51D+00
 TightC=F SS=  1.41D+00  RLast= 2.75D-01 DXNew= 5.0454D-01 8.2544D-01
 Trust test= 1.51D+00 RLast= 2.75D-01 DXMaxT set to 5.05D-01
 ITU=  1  0
 Use linear search instead of GDIIS.
 Linear search step of   0.550 exceeds DXMaxT=   0.505 but not scaled.
 Quartic linear search produced a step of  2.00000.
 Iteration  1 RMS(Cart)=  0.03980069 RMS(Int)=  0.01615166
 Iteration  2 RMS(Cart)=  0.02304503 RMS(Int)=  0.00129547
 Iteration  3 RMS(Cart)=  0.00022464 RMS(Int)=  0.00129044
 Iteration  4 RMS(Cart)=  0.00000007 RMS(Int)=  0.00129044
 Variable       Old X    -DE/DX   Delta X   Delta X   Delta X     New X
                                 (Linear)    (Quad)   (Total)
    R1        2.65075   0.01228   0.00497   0.00000   0.00463   2.65537
    R2        2.66491   0.06038   0.03330   0.00000   0.03147   2.69638
    R3        2.89590   0.06076  -0.02856   0.00000  -0.03121   2.86469
    R4        2.64039  -0.00705  -0.01575   0.00000  -0.01566   2.62473
    R5        2.03007   0.00526   0.01614   0.00000   0.01614   2.04621
    R6        2.63731  -0.01863  -0.02191   0.00000  -0.02148   2.61583
    R7        2.03100   0.00552   0.01799   0.00000   0.01799   2.04899
    R8        2.63787  -0.01556  -0.02079   0.00000  -0.02044   2.61742
    R9        3.32499   0.00046  -0.00186   0.00000  -0.00186   3.32312
   R10        2.63855  -0.00612  -0.01943   0.00000  -0.01951   2.61903
   R11        2.03534   0.00868   0.02668   0.00000   0.02668   2.06202
   R12        3.45275   0.06205   0.25366   0.00000   0.25470   3.70745
   R13        2.64824   0.01095  -0.00004   0.00000  -0.00038   2.64786
   R14        2.66444   0.06006   0.03236   0.00000   0.03055   2.69499
   R15        2.63994  -0.00728  -0.01664   0.00000  -0.01656   2.62338
   R16        2.02929   0.00467   0.01457   0.00000   0.01457   2.04386
   R17        2.64432  -0.01491  -0.00789   0.00000  -0.00746   2.63685
   R18        3.32042  -0.00350  -0.01100   0.00000  -0.01100   3.30942
   R19        2.63819  -0.01494  -0.02014   0.00000  -0.01979   2.61840
   R20        3.32271  -0.00183  -0.00643   0.00000  -0.00643   3.31628
   R21        2.63739  -0.00701  -0.02174   0.00000  -0.02182   2.61558
   R22        2.03491   0.00849   0.02581   0.00000   0.02581   2.06072
   R23        3.45397   0.06322   0.25611   0.00000   0.25716   3.71113
   R24        2.41384   1.96918   0.36263   0.00000   0.36528   2.77912
    A1        2.08295  -0.04919  -0.02289   0.00000  -0.02140   2.06154
    A2        2.09495  -0.09718   0.00110   0.00000   0.00475   2.09970
    A3        2.10529   0.14637   0.02179   0.00000   0.01665   2.12194
    A4        2.10211   0.03007   0.01544   0.00000   0.01454   2.11666
    A5        2.09678  -0.01092   0.00476   0.00000   0.00521   2.10198
    A6        2.08430  -0.01916  -0.02020   0.00000  -0.01975   2.06455
    A7        2.09115   0.00137  -0.00648   0.00000  -0.00659   2.08456
    A8        2.09693  -0.00016   0.00507   0.00000   0.00512   2.10205
    A9        2.09510  -0.00121   0.00141   0.00000   0.00147   2.09657
   A10        2.09931  -0.00197   0.00982   0.00000   0.00997   2.10927
   A11        2.09119   0.00051  -0.00642   0.00000  -0.00649   2.08469
   A12        2.09269   0.00146  -0.00340   0.00000  -0.00348   2.08922
   A13        2.09777   0.01159   0.00675   0.00000   0.00638   2.10415
   A14        2.09284  -0.00609  -0.00311   0.00000  -0.00292   2.08992
   A15        2.09257  -0.00551  -0.00364   0.00000  -0.00346   2.08912
   A16        2.09308   0.00813  -0.00264   0.00000  -0.00290   2.09018
   A17        2.12537   0.05482   0.06195   0.00000   0.06072   2.18609
   A18        2.06474  -0.06295  -0.05931   0.00000  -0.05783   2.00691
   A19        2.09280  -0.09852  -0.00319   0.00000   0.00044   2.09324
   A20        2.10623   0.14700   0.02366   0.00000   0.01854   2.12476
   A21        2.08416  -0.04848  -0.02047   0.00000  -0.01898   2.06518
   A22        2.10076   0.02936   0.01273   0.00000   0.01183   2.11259
   A23        2.09806  -0.01004   0.00733   0.00000   0.00778   2.10584
   A24        2.08437  -0.01932  -0.02006   0.00000  -0.01961   2.06476
   A25        2.09480   0.00368   0.00081   0.00000   0.00069   2.09549
   A26        2.08618  -0.00647  -0.01643   0.00000  -0.01637   2.06981
   A27        2.10220   0.00279   0.01562   0.00000   0.01568   2.11788
   A28        2.09219  -0.00662  -0.00442   0.00000  -0.00427   2.08792
   A29        2.10259   0.00730   0.01639   0.00000   0.01631   2.11890
   A30        2.08841  -0.00068  -0.01197   0.00000  -0.01205   2.07636
   A31        2.10204   0.01470   0.01529   0.00000   0.01492   2.11696
   A32        2.08930  -0.00857  -0.01019   0.00000  -0.01001   2.07929
   A33        2.09185  -0.00613  -0.00509   0.00000  -0.00491   2.08694
   A34        2.09243   0.00736  -0.00393   0.00000  -0.00419   2.08824
   A35        2.12475   0.05451   0.06071   0.00000   0.05950   2.18426
   A36        2.06600  -0.06187  -0.05678   0.00000  -0.05532   2.01069
   A37        2.05224  -0.20155  -0.08431   0.00000  -0.07795   1.97430
   A38        2.05249  -0.20115  -0.08380   0.00000  -0.07747   1.97502
    D1        0.00000   0.00000   0.00000   0.00000  -0.00000   0.00000
    D2        3.14159   0.00000   0.00000   0.00000   0.00000   3.14159
    D3       -3.14159   0.00000   0.00000   0.00000   0.00000  -3.14159
    D4       -0.00000   0.00000   0.00000   0.00000   0.00000  -0.00000
    D5       -0.00000  -0.00000  -0.00000   0.00000  -0.00000  -0.00000
    D6        3.14159  -0.00000   0.00000   0.00000   0.00000   3.14159
    D7        3.14159  -0.00000  -0.00000   0.00000  -0.00000   3.14159
    D8        0.00000  -0.00000   0.00000   0.00000   0.00000   0.00000
    D9       -0.00000  -0.00000  -0.00000   0.00000  -0.00000  -0.00000
   D10        3.14159  -0.00000  -0.00000   0.00000  -0.00000   3.14159
   D11        3.14159  -0.00000  -0.00000   0.00000  -0.00000   3.14159
   D12       -0.00000  -0.00000  -0.00000   0.00000  -0.00000  -0.00000
   D13        0.00000  -0.00000  -0.00000   0.00000  -0.00000   0.00000
   D14        3.14159  -0.00000   0.00000   0.00000   0.00000   3.14159
   D15       -3.14159   0.00000  -0.00000   0.00000  -0.00000  -3.14159
   D16        0.00000   0.00000  -0.00000   0.00000  -0.00000   0.00000
   D17       -0.00000  -0.00000   0.00000   0.00000   0.00000  -0.00000
   D18        3.14159   0.00000  -0.00000   0.00000  -0.00000   3.14159
   D19        3.14159  -0.00000   0.00000   0.00000   0.00000   3.14159
   D20        0.00000   0.00000  -0.00000   0.00000  -0.00000   0.00000
   D21        0.00000   0.00000  -0.00000   0.00000  -0.00000   0.00000
   D22       -3.14159   0.00000  -0.00000   0.00000  -0.00000  -3.14159
   D23       -3.14159  -0.00000  -0.00000   0.00000  -0.00000  -3.14159
   D24        0.00000   0.00000   0.00000   0.00000   0.00000   0.00000
   D25       -0.00000   0.00000   0.00000   0.00000   0.00000  -0.00000
   D26        3.14159   0.00000  -0.00000   0.00000  -0.00000   3.14159
   D27        3.14159  -0.00000   0.00000   0.00000   0.00000   3.14159
   D28       -0.00000   0.00000  -0.00000   0.00000  -0.00000  -0.00000
   D29        0.00001  -0.00000  -0.00000   0.00000  -0.00000   0.00001
   D30       -3.14158  -0.00000  -0.00000   0.00000  -0.00000  -3.14158
   D31        3.14159   0.00000   0.00000   0.00000   0.00000   3.14159
   D32        0.00000   0.00000   0.00000   0.00000   0.00000   0.00000
   D33        0.00000   0.00000   0.00000   0.00000   0.00000   0.00000
   D34       -3.14159   0.00000  -0.00000   0.00000  -0.00000  -3.14159
   D35       -3.14159  -0.00000  -0.00000   0.00000  -0.00000  -3.14159
   D36        0.00000  -0.00000   0.00000   0.00000   0.00000   0.00000
   D37       -0.00000  -0.00000  -0.00000   0.00000  -0.00000  -0.00000
   D38        3.14159  -0.00000   0.00000   0.00000   0.00000   3.14159
   D39       -0.00000  -0.00000   0.00000   0.00000   0.00000  -0.00000
   D40        3.14159  -0.00000  -0.00000   0.00000  -0.00000   3.14159
   D41        3.14159   0.00000   0.00000   0.00000   0.00000   3.14159
   D42       -0.00000   0.00000   0.00000   0.00000   0.00000  -0.00000
   D43       -0.00000  -0.00000  -0.00000   0.00000  -0.00000  -0.00000
   D44       -3.14159  -0.00000  -0.00000   0.00000  -0.00000  -3.14159
   D45        3.14159  -0.00000   0.00000   0.00000   0.00000   3.14159
   D46        0.00000   0.00000  -0.00000   0.00000  -0.00000   0.00000
   D47        0.00000   0.00000  -0.00000   0.00000  -0.00000   0.00000
   D48       -3.14159   0.00000  -0.00000   0.00000  -0.00000  -3.14159
   D49        3.14159  -0.00000   0.00000   0.00000   0.00000   3.14159
   D50        0.00000   0.00000  -0.00000   0.00000  -0.00000   0.00000
   D51        0.00000   0.00000   0.00000   0.00000   0.00000   0.00000
   D52       -3.14159   0.00000  -0.00000   0.00000  -0.00000  -3.14159
   D53        3.14159   0.00000   0.00000   0.00000   0.00000   3.14159
   D54       -0.00000   0.00000  -0.00000   0.00000  -0.00000  -0.00000
   D55        0.00001  -0.00000  -0.00000   0.00000  -0.00000   0.00001
   D56       -3.14158  -0.00000  -0.00000   0.00000  -0.00000  -3.14158
   D57       -0.00001   0.00000   0.00000   0.00000   0.00000  -0.00001
         Item               Value     Threshold  Converged?
 Maximum Force            1.969176     0.000450     NO 
 RMS     Force            0.184790     0.000300     NO 
 Maximum Displacement     0.374966     0.001800     NO 
 RMS     Displacement     0.056059     0.001200     NO 
 Predicted change in Energy=-3.663311D-01
 GradGradGradGradGradGradGradGradGradGradGradGradGradGradGradGradGradGrad

[...]
                 (A) (A) (A) (A) (A) (A) (A) (A) (A) (A) (A) (A)
                 (A) (A) (A) (A) (A) (A) (A) (A) (A)
       Virtual   (A) (A) (A) (A) (A) (A) (A) (A) (A) (A) (A) (A)
                 (A) (A) (A) (A) (A) (A) (A) (A) (A) (A) (A) (A)
                 (A) (A) (A) (A) (A) (A) (A) (A) (A) (A) (A) (A)
                 (A) (A) (A) (A) (A) (A) (A) (A) (A) (A) (A) (A)
                 (A) (A) (A) (A) (A) (A) (A) (A) (A) (A) (A) (A)
                 (A) (A) (A) (A) (A) (A) (A) (A) (A) (A) (A) (A)
                 (A) (A) (A) (A) (A) (A) (A) (A) (A) (A) (A) (A)
                 (A) (A) (A) (A) (A) (A) (A) (A) (A) (A) (A) (A)
                 (A) (A) (A) (A) (A) (A) (A) (A) (A) (A) (A) (A)
                 (A) (A) (A) (A) (A) (A) (A) (A) (A) (A) (A) (A)
                 (A) (A) (A) (A) (A) (A) (A) (A) (A) (A) (A) (A)
                 (A) (A) (A) (A) (A) (A) (A) (A) (A) (A) (A) (A)
                 (A) (A) (A) (A) (A) (A) (A) (A) (A) (A) (A) (A)
                 (A) (A) (A) (A) (A) (A) (A) (A) (A) (A) (A) (A)
                 (A) (A) (A) (A) (A) (A) (A) (A) (A) (A) (A) (A)
                 (A) (A) (A) (A) (A) (A) (A) (A) (A) (A) (A) (A)
                 (A) (A) (A) (A) (A) (A) (A) (A) (A) (A) (A) (A)
                 (A) (A) (A) (A) (A) (A) (A) (A) (A) (A) (A) (A)
                 (A) (A) (A) (A) (A) (A) (A) (A) (A) (A) (A) (A)
                 (A) (A) (A) (A) (A) (A) (A) (A) (A) (A) (A) (A)
                 (A) (A) (A) (A) (A) (A) (A) (A) (A) (A) (A) (A)
                 (A) (A) (A) (A) (A) (A) (A) (A) (A) (A) (A) (A)
                 (A) (A) (A) (A) (A) (A) (A) (A) (A) (A) (A) (A)
                 (A) (A) (A) (A) (A) (A) (A) (A) (A) (A) (A) (A)
                 (A) (A) (A) (A) (A) (A) (A) (A) (A) (A) (A) (A)
                 (A) (A) (A) (A) (A) (A) (A) (A) (A) (A) (A) (A)
                 (A) (A) (A) (A) (A) (A) (A) (A) (A) (A) (A) (A)
                 (A) (A) (A) (A) (A) (A) (A) (A) (A) (A) (A) (A)
                 (A) (A) (A) (A) (A) (A) (A) (A) (A) (A) (A) (A)
                 (A) (A) (A) (A) (A) (A) (A) (A) (A) (A) (A) (A)
 The electronic state is 1-A.
 Alpha  occ. eigenvalues -- -101.57594-101.57474-101.57263-101.57104-101.57092
 Alpha  occ. eigenvalues --  -10.27256 -10.26927 -10.26807 -10.26683 -10.26426
 Alpha  occ. eigenvalues --  -10.23060 -10.22597 -10.22017 -10.21976 -10.21475
 Alpha  occ. eigenvalues --  -10.21419 -10.21036  -9.49049  -9.48929  -9.48731
 Alpha  occ. eigenvalues --   -9.48563  -9.48559  -7.25536  -7.25415  -7.25203
 Alpha  occ. eigenvalues --   -7.25030  -7.25026  -7.24528  -7.24470  -7.24407
 Alpha  occ. eigenvalues --   -7.24352  -7.24211  -7.24165  -7.24044  -7.24040
 Alpha  occ. eigenvalues --   -7.24002  -7.23998  -0.94717  -0.93033  -0.90540
 Alpha  occ. eigenvalues --   -0.89174  -0.88019  -0.85437  -0.84128  -0.79831
 Alpha  occ. eigenvalues --   -0.77291  -0.75959  -0.73465  -0.66082  -0.64709
 Alpha  occ. eigenvalues --   -0.63737  -0.60596  -0.55507  -0.53345  -0.52227
 Alpha  occ. eigenvalues --   -0.51717  -0.49478  -0.48426  -0.46434  -0.46282
 Alpha  occ. eigenvalues --   -0.46115  -0.44600  -0.43378  -0.42926  -0.41129
 Alpha  occ. eigenvalues --   -0.40302  -0.39671  -0.39032  -0.37964  -0.36693
 Alpha  occ. eigenvalues --   -0.34854  -0.34176  -0.33804  -0.33486  -0.33247
 Alpha  occ. eigenvalues --   -0.33052  -0.32729  -0.28447  -0.28238  -0.26990
 Alpha  occ. eigenvalues --   -0.26356
 Alpha virt. eigenvalues --   -0.06070  -0.05597  -0.04647  -0.04474  -0.02865
 Alpha virt. eigenvalues --   -0.01696  -0.00629   0.00075   0.00889   0.01524
 Alpha virt. eigenvalues --    0.01659   0.01989   0.02481   0.03534   0.03759
 Alpha virt. eigenvalues --    0.04591   0.04835   0.05095   0.05486   0.06063
 Alpha virt. eigenvalues --    0.06719   0.06935   0.07854   0.08404   0.08464
 Alpha virt. eigenvalues --    0.08749   0.08960   0.09708   0.09851   0.10398
 Alpha virt. eigenvalues --    0.10816   0.11059   0.11183   0.11350   0.12002
 Alpha virt. eigenvalues --    0.12087   0.12283   0.12767   0.13125   0.13342
 Alpha virt. eigenvalues --    0.13922   0.14373   0.14651   0.15253   0.15567
 Alpha virt. eigenvalues --    0.15855   0.16104   0.16950   0.17235   0.17507
 Alpha virt. eigenvalues --    0.17772   0.18220   0.18733   0.19097   0.19308
 Alpha virt. eigenvalues --    0.19939   0.20041   0.20307   0.20461   0.20990
 Alpha virt. eigenvalues --    0.21551   0.22067   0.22318   0.22623   0.22810
 Alpha virt. eigenvalues --    0.23492   0.23872   0.24122   0.24548   0.24953
 Alpha virt. eigenvalues --    0.25303   0.25484   0.25853   0.26551   0.27114
 Alpha virt. eigenvalues --    0.27372   0.27852   0.28160   0.28307   0.28866
 Alpha virt. eigenvalues --    0.29119   0.29361   0.29927   0.30798   0.31837
 Alpha virt. eigenvalues --    0.32185   0.32952   0.33659   0.35119   0.35917
 Alpha virt. eigenvalues --    0.40273   0.41747   0.41966   0.43193   0.43964
 Alpha virt. eigenvalues --    0.44211   0.45088   0.45458   0.45838   0.46295
 Alpha virt. eigenvalues --    0.46947   0.47546   0.47862   0.48259   0.48624
 Alpha virt. eigenvalues --    0.49903   0.50215   0.50786   0.52484   0.53848
 Alpha virt. eigenvalues --    0.54475   0.54732   0.55976   0.56636   0.57378
 Alpha virt. eigenvalues --    0.57623   0.57751   0.58372   0.59419   0.61062
 Alpha virt. eigenvalues --    0.61491   0.61805   0.62949   0.63471   0.64001
 Alpha virt. eigenvalues --    0.65153   0.65325   0.65748   0.65865   0.67182
 Alpha virt. eigenvalues --    0.67748   0.68372   0.69291   0.69677   0.70359
 Alpha virt. eigenvalues --    0.70818   0.71275   0.72227   0.75282   0.78390
 Alpha virt. eigenvalues --    0.79466   0.80325   0.81479   0.82359   0.83165
 Alpha virt. eigenvalues --    0.83670   0.83968   0.84347   0.84414   0.84660
 Alpha virt. eigenvalues --    0.84837   0.85194   0.85507   0.85547   0.86549
 Alpha virt. eigenvalues --    0.86853   0.87635   0.87792   0.87904   0.89763
 Alpha virt. eigenvalues --    0.90218   0.90514   0.91096   0.91844   0.92431
 Alpha virt. eigenvalues --    0.93415   0.93787   0.94133   0.94646   0.95415
 Alpha virt. eigenvalues --    0.95703   0.97024   0.97386   0.97773   0.98392
 Alpha virt. eigenvalues --    0.99059   0.99851   1.01272   1.01497   1.02990
 Alpha virt. eigenvalues --    1.04193   1.07348   1.10654   1.11800   1.13176
 Alpha virt. eigenvalues --    1.15034   1.17525   1.18677   1.21605   1.22007
 Alpha virt. eigenvalues --    1.22716   1.23798   1.23973   1.25539   1.26742
 Alpha virt. eigenvalues --    1.27396   1.28498   1.30181   1.31127   1.32214
 Alpha virt. eigenvalues --    1.33288   1.34573   1.39542   1.41037   1.44194
 Alpha virt. eigenvalues --    1.48183   1.48914   1.50967   1.54086   1.54678
 Alpha virt. eigenvalues --    1.55143   1.56065   1.57171   1.57805   1.60212
 Alpha virt. eigenvalues --    1.61302   1.64708   1.65734   1.68408   1.69381
 Alpha virt. eigenvalues --    1.71127   1.72441   1.74920   1.75833   1.77398
 Alpha virt. eigenvalues --    1.81663   1.82583   1.83729   1.85494   1.86560
 Alpha virt. eigenvalues --    1.89643   1.92026   1.92633   1.92745   1.94710
 Alpha virt. eigenvalues --    1.95875   1.98688   1.99374   2.00357   2.01411
 Alpha virt. eigenvalues --    2.02162   2.03854   2.06141   2.08213   2.10532
 Alpha virt. eigenvalues --    2.12883   2.13349   2.19137   2.22665   2.23048
 Alpha virt. eigenvalues --    2.23530   2.25689   2.26629   2.27405   2.28579
 Alpha virt. eigenvalues --    2.29305   2.31144   2.33950   2.35513   2.37143
 Alpha virt. eigenvalues --    2.39283   2.41860   2.42523   2.44280   2.48039
 Alpha virt. eigenvalues --    2.48814   2.50309   2.51853   2.53657   2.54722
 Alpha virt. eigenvalues --    2.55650   2.56791   2.59466   2.59825   2.62658
 Alpha virt. eigenvalues --    2.66959   2.67993   2.68698   2.70368   2.70935
 Alpha virt. eigenvalues --    2.71989   2.73628   2.74492   2.74605   2.76331
 Alpha virt. eigenvalues --    2.77007   2.77863   2.81705   2.83309   2.83899
 Alpha virt. eigenvalues --    2.84343   2.87381   2.89891   2.97920   2.98540
 Alpha virt. eigenvalues --    3.05509   3.08972   3.08992   3.11842   3.12254
 Alpha virt. eigenvalues --    3.13653   3.15677   3.20436   3.24155   3.27549
 Alpha virt. eigenvalues --    3.32082   3.34653   3.42741   3.50020   3.53638
 Alpha virt. eigenvalues --    3.54760   3.62564   3.72788   3.78331   3.80914
 Alpha virt. eigenvalues --    3.85036   3.92841   4.05573   4.11330   4.12004
 Alpha virt. eigenvalues --    4.33428   4.80402   4.81485   9.75645   9.76681
 Alpha virt. eigenvalues --    9.79483   9.81144   9.82572  23.37988  23.54759
 Alpha virt. eigenvalues --   23.82621  23.85777  23.88630  23.91508  23.94993
 Alpha virt. eigenvalues --   24.02011  24.04871  24.05943  24.10838  24.14781
 Alpha virt. eigenvalues --   25.77887  25.81897  25.85981  25.86261  25.95566
 Alpha virt. eigenvalues --   26.07166  26.10345  26.13394  26.26962  26.34133
 Alpha virt. eigenvalues --   26.50567  26.57466  26.66322  26.76615  26.82350
 Alpha virt. eigenvalues --  215.74746 215.75740 215.78983 215.81434 215.82638
          Condensed to atoms (all electrons):
               1          2          3          4          5          6
     1  C   24.494179  -0.345713  -3.168747  -4.595203   0.573447  -5.120842
     2  C   -0.345713  14.314304  -0.790498  -0.487801   2.078160  -7.179381
     3  C   -3.168747  -0.790498  18.751584  -2.483074 -10.163371   1.456382
     4  C   -4.595203  -0.487801  -2.483074  17.935304  -1.029061  -0.548674
     5  C    0.573447   2.078160 -10.163371  -1.029061  23.812548  -6.119480
     6  C   -5.120842  -7.179381   1.456382  -0.548674  -6.119480  36.497125
     7  C    3.771175  -1.169375   0.944005  -1.409853  -1.420847  -4.713769
     8  C   -1.697340   0.183297  -0.029744   0.075590   0.212665  -0.209688
     9  C    1.029650  -0.442605   0.147003   0.089003   0.060458   0.876684
    10  C    0.490101  -0.326390  -0.054548  -0.010483   0.036264   0.472546
    11  C   -2.989240   0.434620   0.058010  -0.118460  -0.160668  -2.400948
    12  C   -5.917316   0.301066   0.978123  -0.793197  -1.556725  -6.779521
    13  H   -0.010950   0.355432  -0.049516  -0.014312  -0.033637  -0.080480
    14  H    0.023719  -0.060810   0.308795   0.031837   0.063210  -0.012716
    15  H    0.084803  -0.032026   0.081373   0.015386   0.200436  -0.008676
    16  H    0.102782   0.008513  -0.018113   0.009054   0.015285   0.074235
    17  H    0.020157  -0.000485  -0.000455   0.000050   0.000210   0.002776
    18  Cl   0.247391  -0.031942   0.079311  -0.010842  -0.032953   0.241443
    19  Cl  -1.063997  -0.503270   0.488633  -0.320260  -0.647890   0.784946
    20  Cl  -0.037406  -0.000090   0.004359  -0.000995  -0.002691  -0.037257
    21  Cl  -0.191403   0.188218   0.141767  -1.234664   0.532191  -0.135815
    22  Cl  -0.155210   0.049007   0.014108   0.003024  -0.000288  -0.096515
               7          8          9         10         11         12
     1  C    3.771175  -1.697340   1.029650   0.490101  -2.989240  -5.917316
     2  C   -1.169375   0.183297  -0.442605  -0.326390   0.434620   0.301066
     3  C    0.944005  -0.029744   0.147003  -0.054548   0.058010   0.978123
     4  C   -1.409853   0.075590   0.089003  -0.010483  -0.118460  -0.793197
     5  C   -1.420847   0.212665   0.060458   0.036264  -0.160668  -1.556725
     6  C   -4.713769  -0.209688   0.876684   0.472546  -2.400948  -6.779521
     7  C   35.376029   2.499051 -12.297884  -4.064094  -3.604341  -6.901446
     8  C    2.499051  23.266611   0.482186  -8.287915   0.297043 -10.327992
     9  C  -12.297884   0.482186  32.655814  -6.324077 -11.036190   0.481894
    10  C   -4.064094  -8.287915  -6.324077  30.178253   4.637538  -9.108420
    11  C   -3.604341   0.297043 -11.036190   4.637538  25.123508  -3.038102
    12  C   -6.901446 -10.327992   0.481894  -9.108420  -3.038102  48.522224
    13  H    0.090621  -0.004116  -0.032056   0.001046   0.028695   0.104936
    14  H    0.003211  -0.002275  -0.000961  -0.000001   0.000413   0.002945
    15  H    0.014147  -0.001417  -0.000787   0.000116   0.000361   0.003181
    16  H    0.002458   0.260869  -0.018339   0.065142  -0.053947  -0.085970
    17  H    0.120373  -0.041089   0.040360  -0.012805   0.210690   0.010495
    18  Cl  -1.145994  -0.420841   0.723142  -0.534449  -1.108265   0.715383
    19  Cl   0.022738   0.018541   0.166264  -0.013512  -0.158123   0.111505
    20  Cl   0.135284   0.367407   0.046048  -1.000983   0.287337  -0.444731
    21  Cl  -0.042024   0.016773   0.010896  -0.000864  -0.006258  -0.051317
    22  Cl  -0.592222   0.254618  -0.929111  -0.238333   0.198243   0.685455
              13         14         15         16         17         18
     1  C   -0.010950   0.023719   0.084803   0.102782   0.020157   0.247391
     2  C    0.355432  -0.060810  -0.032026   0.008513  -0.000485  -0.031942
     3  C   -0.049516   0.308795   0.081373  -0.018113  -0.000455   0.079311
     4  C   -0.014312   0.031837   0.015386   0.009054   0.000050  -0.010842
     5  C   -0.033637   0.063210   0.200436   0.015285   0.000210  -0.032953
     6  C   -0.080480  -0.012716  -0.008676   0.074235   0.002776   0.241443
     7  C    0.090621   0.003211   0.014147   0.002458   0.120373  -1.145994
     8  C   -0.004116  -0.002275  -0.001417   0.260869  -0.041089  -0.420841
     9  C   -0.032056  -0.000961  -0.000787  -0.018339   0.040360   0.723142
    10  C    0.001046  -0.000001   0.000116   0.065142  -0.012805  -0.534449
    11  C    0.028695   0.000413   0.000361  -0.053947   0.210690  -1.108265
    12  C    0.104936   0.002945   0.003181  -0.085970   0.010495   0.715383
    13  H    0.527955  -0.007182   0.000049  -0.000750  -0.000001  -0.009479
    14  H   -0.007182   0.507117  -0.000273   0.000010   0.000000  -0.000545
    15  H    0.000049  -0.000273   0.492181   0.000003   0.000000  -0.001199
    16  H   -0.000750   0.000010   0.000003   0.509459   0.000044  -0.000007
    17  H   -0.000001   0.000000   0.000000   0.000044   0.490139  -0.005394
    18  Cl  -0.009479  -0.000545  -0.001199  -0.000007  -0.005394  17.901520
    19  Cl  -0.001256   0.000760  -0.005143  -0.008768  -0.001166   0.057730
    20  Cl   0.000139  -0.000001  -0.000001  -0.000703  -0.007770  -0.045771
    21  Cl  -0.000333  -0.011952  -0.013515   0.000024  -0.000001   0.006753
    22  Cl   0.000290  -0.000004  -0.000010  -0.013007   0.000106  -0.001301
              19         20         21         22
     1  C   -1.063997  -0.037406  -0.191403  -0.155210
     2  C   -0.503270  -0.000090   0.188218   0.049007
     3  C    0.488633   0.004359   0.141767   0.014108
     4  C   -0.320260  -0.000995  -1.234664   0.003024
     5  C   -0.647890  -0.002691   0.532191  -0.000288
     6  C    0.784946  -0.037257  -0.135815  -0.096515
     7  C    0.022738   0.135284  -0.042024  -0.592222
     8  C    0.018541   0.367407   0.016773   0.254618
     9  C    0.166264   0.046048   0.010896  -0.929111
    10  C   -0.013512  -1.000983  -0.000864  -0.238333
    11  C   -0.158123   0.287337  -0.006258   0.198243
    12  C    0.111505  -0.444731  -0.051317   0.685455
    13  H   -0.001256   0.000139  -0.000333   0.000290
    14  H    0.000760  -0.000001  -0.011952  -0.000004
    15  H   -0.005143  -0.000001  -0.013515  -0.000010
    16  H   -0.008768  -0.000703   0.000024  -0.013007
    17  H   -0.001166  -0.007770  -0.000001   0.000106
    18  Cl   0.057730  -0.045771   0.006753  -0.001301
    19  Cl  17.739043   0.006373  -0.025045  -0.004122
    20  Cl   0.006373  17.409556   0.000013  -0.172573
    21  Cl  -0.025045   0.000013  17.409908   0.000101
    22  Cl  -0.004122  -0.172573   0.000101  17.478129
 Mulliken charges:
               1
     1  C    0.455962
     2  C   -0.542229
     3  C   -0.695389
     4  C    0.897630
     5  C   -0.417264
     6  C   -0.962375
     7  C    0.382756
     8  C   -0.912234
     9  C    0.272607
    10  C    0.095867
    11  C   -0.601917
    12  C   -0.912472
    13  H    0.134906
    14  H    0.154704
    15  H    0.171010
    16  H    0.151725
    17  H    0.173766
    18  Cl   0.376309
    19  Cl   0.356021
    20  Cl   0.494456
    21  Cl   0.406548
    22  Cl   0.519615
 Sum of Mulliken charges =  -0.00000
 Mulliken charges with hydrogens summed into heavy atoms:
               1
     1  C    0.455962
     2  C   -0.407324
     3  C   -0.540685
     4  C    0.897630
     5  C   -0.246253
     6  C   -0.962375
     7  C    0.382756
     8  C   -0.760509
     9  C    0.272607
    10  C    0.095867
    11  C   -0.428151
    12  C   -0.912472
    18  Cl   0.376309
    19  Cl   0.356021
    20  Cl   0.494456
    21  Cl   0.406548
    22  Cl   0.519615
 Electronic spatial extent (au):  <R**2>=           7763.1342
 Charge=              0.0000 electrons
 Dipole moment (field-independent basis, Debye):
    X=             -0.5495    Y=             -0.3893    Z=             -1.1937  Tot=              1.3706
 Quadrupole moment (field-independent basis, Debye-Ang):
   XX=           -139.8862   YY=           -132.6572   ZZ=           -129.9788
   XY=              3.5244   XZ=              0.3901   YZ=              1.4779
 Traceless Quadrupole moment (field-independent basis, Debye-Ang):
   XX=             -5.7121   YY=              1.5169   ZZ=              4.1952
   XY=              3.5244   XZ=              0.3901   YZ=              1.4779
 Octapole moment (field-independent basis, Debye-Ang**2):
  XXX=             16.8966  YYY=              4.7416  ZZZ=             -0.9542  XYY=             11.5446
  XXY=             17.2859  XXZ=              6.7944  XZZ=            -10.3303  YZZ=             -3.3595
  YYZ=              1.7645  XYZ=             -5.9870
 Hexadecapole moment (field-independent basis, Debye-Ang**3):
 XXXX=          -7985.5141 YYYY=          -1488.8739 ZZZZ=           -858.5663 XXXY=             -0.6342
 XXXZ=            -34.5363 YYYX=            -30.1094 YYYZ=            -13.4032 ZZZX=             22.5903
 ZZZY=             21.2237 XXYY=          -1555.7452 XXZZ=          -1428.6957 YYZZ=           -406.8627
 XXYZ=              6.4705 YYXZ=              3.8685 ZZXY=              8.5450
 N-N= 1.696917701337D+03 E-N=-9.930495893044D+03  KE= 2.754121962017D+03
 1\1\GINC-LOCALHOST\FOpt\RB3LYP\6-311+G(d,p)\C12H5Cl5\GOUR\16-Mar-2022\
 0\\# opt b3lyp/6-311+g(d,p) scf=xqc\\Title Card Required\\0,1\C,0.6586
 021114,0.3415209281,0.0585065435\C,1.9746651499,0.3525303489,0.5340476
 938\C,2.7285514205,1.520159656,0.5797652924\C,2.1532923246,2.706315049
 6,0.1371100133\C,0.8513171613,2.7394416046,-0.3477497502\C,0.119268430
 8,1.5558118631,-0.381753095\C,-0.1048745501,-0.9388193048,0.0134025357
 \C,0.0967134476,-1.8239276544,-1.0476148664\C,-0.5769080794,-3.0395729
 18,-1.1250272255\C,-1.4788978159,-3.3918080535,-0.1176217009\C,-1.6912
 692403,-2.5266065468,0.9519360208\C,-1.0099007344,-1.3171167507,1.0122
 071051\H,2.4111607875,-0.576226823,0.8825686019\H,3.7436513188,1.51020
 49911,0.9540188473\H,0.4122832353,3.6642774251,-0.6951844934\H,0.78774
 10751,-1.5569860736,-1.8369059423\H,-2.38525886,-2.8007596951,1.734359
 4742\Cl,-1.3027253725,-0.2712559676,2.3872123999\Cl,-1.5170785765,1.61
 98204956,-1.0104371369\Cl,-2.3532360324,-4.9001472058,-0.1574859202\Cl
 ,3.0833372975,4.1931186113,0.1848435035\Cl,-0.2700747789,-4.0874883302
 ,-2.4861064507\\Version=EM64L-G16RevB.01\State=1-A\HF=-2761.5207881\RM
 SD=5.449e-09\RMSF=3.780e-06\Dipole=0.5003918,-0.0264511,0.1991584\Quad
 rupole=3.4215188,-3.8224113,0.4008924,-1.7494251,-0.1825133,-2.5183734
 \PG=C01 [X(C12H5Cl5)]\\@


 ALMOST ANYTHING IS EASIER TO GET INTO THAN OUT OF.

                         -- AGNES ALLEN'S LAW FROM
                PAUL DICKSON'S "THE OFFICIAL RULES"
 Job cpu time:       0 days 23 hours 29 minutes 47.6 seconds.
 Elapsed time:       0 days  5 hours 53 minutes 28.4 seconds.
 File lengths (MBytes):  RWF=    133 Int=      0 D2E=      0 Chk=     21 Scr=      1
 Normal termination of Gaussian 16 at Wed Mar 16 17:27:32 2022.
