 Entering Gaussian System, Link 0=g16
 Input=2,2prime,3,4,4prime,5,6-Heptachlorobiphenyl1.gjf
 Output=2,2prime,3,4,4prime,5,6-Heptachlorobiphenyl1.log
 Initial command:
 /home/apps/g16/l1.exe "./Gau-331464.inp" -scrdir="./"
 Entering Link 1 = /home/apps/g16/l1.exe PID=    331465.
  
 Copyright (c) 1988-2017, Gaussian, Inc.  All Rights Reserved.
  
 This is part of the Gaussian(R) 16 program.  It is based on
 the Gaussian(R) 09 system (copyright 2009, Gaussian, Inc.),
 the Gaussian(R) 03 system (copyright 2003, Gaussian, Inc.),
 the Gaussian(R) 98 system (copyright 1998, Gaussian, Inc.),
 the Gaussian(R) 94 system (copyright 1995, Gaussian, Inc.),
 the Gaussian 92(TM) system (copyright 1992, Gaussian, Inc.),
 the Gaussian 90(TM) system (copyright 1990, Gaussian, Inc.),
 the Gaussian 88(TM) system (copyright 1988, Gaussian, Inc.),
 the Gaussian 86(TM) system (copyright 1986, Carnegie Mellon
 University), and the Gaussian 82(TM) system (copyright 1983,
 Carnegie Mellon University). Gaussian is a federally registered
 trademark of Gaussian, Inc.
  
 This software contains proprietary and confidential information,
 including trade secrets, belonging to Gaussian, Inc.
  
 This software is provided under written license and may be
 used, copied, transmitted, or stored only in accord with that
 written license.
  
 The following legend is applicable only to US Government
 contracts under FAR:
  
                    RESTRICTED RIGHTS LEGEND
  
 Use, reproduction and disclosure by the US Government is
 subject to restrictions as set forth in subparagraphs (a)
 and (c) of the Commercial Computer Software - Restricted
 Rights clause in FAR 52.227-19.
  
 Gaussian, Inc.
 340 Quinnipiac St., Bldg. 40, Wallingford CT 06492
  
  
 ---------------------------------------------------------------
 Warning -- This program may not be used in any manner that
 competes with the business of Gaussian, Inc. or will provide
 assistance to any competitor of Gaussian, Inc.  The licensee
 of this program is prohibited from giving any competitor of
 Gaussian, Inc. access to this program.  By using this program,
 the user acknowledges that Gaussian, Inc. is engaged in the
 business of creating and licensing software in the field of
 computational chemistry and represents and warrants to the
 licensee that it is not a competitor of Gaussian, Inc. and that
 it will not use this program in any manner prohibited above.
 ---------------------------------------------------------------
  

 Cite this work as:
 Gaussian 16, Revision B.01,
 M. J. Frisch, G. W. Trucks, H. B. Schlegel, G. E. Scuseria, 
 M. A. Robb, J. R. Cheeseman, G. Scalmani, V. Barone, 
 G. A. Petersson, H. Nakatsuji, X. Li, M. Caricato, A. V. Marenich, 
 J. Bloino, B. G. Janesko, R. Gomperts, B. Mennucci, H. P. Hratchian, 
 J. V. Ortiz, A. F. Izmaylov, J. L. Sonnenberg, D. Williams-Young, 
 F. Ding, F. Lipparini, F. Egidi, J. Goings, B. Peng, A. Petrone, 
 T. Henderson, D. Ranasinghe, V. G. Zakrzewski, J. Gao, N. Rega, 
 G. Zheng, W. Liang, M. Hada, M. Ehara, K. Toyota, R. Fukuda, 
 J. Hasegawa, M. Ishida, T. Nakajima, Y. Honda, O. Kitao, H. Nakai, 
 T. Vreven, K. Throssell, J. A. Montgomery, Jr., J. E. Peralta, 
 F. Ogliaro, M. J. Bearpark, J. J. Heyd, E. N. Brothers, K. N. Kudin, 
 V. N. Staroverov, T. A. Keith, R. Kobayashi, J. Normand, 
 K. Raghavachari, A. P. Rendell, J. C. Burant, S. S. Iyengar, 
 J. Tomasi, M. Cossi, J. M. Millam, M. Klene, C. Adamo, R. Cammi, 
 J. W. Ochterski, R. L. Martin, K. Morokuma, O. Farkas, 
 J. B. Foresman, and D. J. Fox, Gaussian, Inc., Wallingford CT, 2016.
 
 ******************************************
 Gaussian 16:  EM64L-G16RevB.01 20-Dec-2017
                13-Apr-2022 
 ******************************************
 %mem=48GB
 %nprocshared=16
 Will use up to   16 processors via shared memory.
 --------------------------------
 # opt b3lyp/6-311+g(d,p) scf=xqc
 --------------------------------
 1/18=20,19=15,26=3,38=1/1,3;
 2/9=110,12=2,17=6,18=5,40=1/2;
 3/5=4,6=6,7=111,11=2,25=1,30=1,71=1,74=-5/1,2,3;
 4//1;
 5/5=2,8=3,13=1,38=5/2,8;
 6/7=2,8=2,9=2,10=2,28=1/1;
 7//1,2,3,16;
 1/18=20,19=15,26=3/3(2);
 2/9=110/2;
 99//99;
 2/9=110/2;
 3/5=4,6=6,7=111,11=2,25=1,30=1,71=1,74=-5/1,2,3;
 4/5=5,16=3,69=1/1;
 5/5=2,8=3,13=1,38=5/2,8;
 7//1,2,3,16;
 1/18=20,19=15,26=3/3(-5);
 2/9=110/2;
 6/7=2,8=2,9=2,10=2,19=2,28=1/1;
 99/9=1/99;
 -------------------
 Title Card Required
 -------------------
 Symbolic Z-matrix:
 Charge =  0 Multiplicity = 1
 C                     0.89622   0.86934  -0.00392 
 C                     2.22861   0.89922  -0.43726 
 C                     2.9365    2.10867  -0.44333 
 C                     2.31201   3.28824  -0.01606 
 C                     0.97963   3.25835   0.41728 
 C                     0.27174   2.0489    0.42336 
 C                    -0.12995  -0.88391   0.00489 
 C                     0.49453  -2.06348  -0.42239 
 C                    -0.21336  -3.27293  -0.41631 
 C                    -1.54574  -3.30281   0.01704 
 C                    -2.17023  -2.12325   0.44431 
 C                    -1.46233  -0.9138    0.43824 
 H                     2.70542  -0.0014   -0.76349 
 H                     3.9538    2.13149  -0.7742 
 H                     0.50282   4.15898   0.74352 
 Cl                   -2.24662   0.5676    0.97485 
 Cl                   -1.40158   2.01137   0.96759 
 Cl                   -3.84354  -2.16078   0.98855 
 Cl                   -2.43477  -4.82175   0.02467 
 Cl                    3.20105   4.80717  -0.02369 
 Cl                    0.57093  -4.75433  -0.95292 
 Cl                    2.16785  -2.02594  -0.96662 
 

 GradGradGradGradGradGradGradGradGradGradGradGradGradGradGradGradGradGrad
 Berny optimization.
 Initialization pass.
                           ----------------------------
                           !    Initial Parameters    !
                           ! (Angstroms and Degrees)  !
 --------------------------                            --------------------------
 ! Name  Definition              Value          Derivative Info.                !
 --------------------------------------------------------------------------------
 ! R1    R(1,2)                  1.4014         estimate D2E/DX2                !
 ! R2    R(1,6)                  1.4014         estimate D2E/DX2                !
 ! R3    R(2,3)                  1.4014         estimate D2E/DX2                !
 ! R4    R(2,13)                 1.07           estimate D2E/DX2                !
 ! R5    R(3,4)                  1.4014         estimate D2E/DX2                !
 ! R6    R(3,14)                 1.07           estimate D2E/DX2                !
 ! R7    R(4,5)                  1.4014         estimate D2E/DX2                !
 ! R8    R(4,20)                 1.76           estimate D2E/DX2                !
 ! R9    R(5,6)                  1.4014         estimate D2E/DX2                !
 ! R10   R(5,15)                 1.07           estimate D2E/DX2                !
 ! R11   R(6,17)                 1.76           estimate D2E/DX2                !
 ! R12   R(7,8)                  1.4014         estimate D2E/DX2                !
 ! R13   R(7,12)                 1.4014         estimate D2E/DX2                !
 ! R14   R(8,9)                  1.4014         estimate D2E/DX2                !
 ! R15   R(8,22)                 1.76           estimate D2E/DX2                !
 ! R16   R(9,10)                 1.4014         estimate D2E/DX2                !
 ! R17   R(9,21)                 1.76           estimate D2E/DX2                !
 ! R18   R(10,11)                1.4014         estimate D2E/DX2                !
 ! R19   R(10,19)                1.76           estimate D2E/DX2                !
 ! R20   R(11,12)                1.4014         estimate D2E/DX2                !
 ! R21   R(11,18)                1.76           estimate D2E/DX2                !
 ! R22   R(12,16)                1.76           estimate D2E/DX2                !
 ! R23   R(16,17)                1.6729         estimate D2E/DX2                !
 ! A1    A(2,1,6)              120.0            estimate D2E/DX2                !
 ! A2    A(1,2,3)              120.0            estimate D2E/DX2                !
 ! A3    A(1,2,13)             120.0            estimate D2E/DX2                !
 ! A4    A(3,2,13)             120.0            estimate D2E/DX2                !
 ! A5    A(2,3,4)              120.0            estimate D2E/DX2                !
 ! A6    A(2,3,14)             120.0            estimate D2E/DX2                !
 ! A7    A(4,3,14)             120.0            estimate D2E/DX2                !
 ! A8    A(3,4,5)              120.0            estimate D2E/DX2                !
 ! A9    A(3,4,20)             120.0            estimate D2E/DX2                !
 ! A10   A(5,4,20)             120.0            estimate D2E/DX2                !
 ! A11   A(4,5,6)              120.0            estimate D2E/DX2                !
 ! A12   A(4,5,15)             120.0            estimate D2E/DX2                !
 ! A13   A(6,5,15)             120.0            estimate D2E/DX2                !
 ! A14   A(1,6,5)              120.0            estimate D2E/DX2                !
 ! A15   A(1,6,17)             120.0            estimate D2E/DX2                !
 ! A16   A(5,6,17)             120.0            estimate D2E/DX2                !
 ! A17   A(8,7,12)             120.0            estimate D2E/DX2                !
 ! A18   A(7,8,9)              120.0            estimate D2E/DX2                !
 ! A19   A(7,8,22)             120.0            estimate D2E/DX2                !
 ! A20   A(9,8,22)             120.0            estimate D2E/DX2                !
 ! A21   A(8,9,10)             120.0            estimate D2E/DX2                !
 ! A22   A(8,9,21)             120.0            estimate D2E/DX2                !
 ! A23   A(10,9,21)            120.0            estimate D2E/DX2                !
 ! A24   A(9,10,11)            120.0            estimate D2E/DX2                !
 ! A25   A(9,10,19)            120.0            estimate D2E/DX2                !
 ! A26   A(11,10,19)           120.0            estimate D2E/DX2                !
 ! A27   A(10,11,12)           120.0            estimate D2E/DX2                !
 ! A28   A(10,11,18)           120.0            estimate D2E/DX2                !
 ! A29   A(12,11,18)           120.0            estimate D2E/DX2                !
 ! A30   A(7,12,11)            120.0            estimate D2E/DX2                !
 ! A31   A(7,12,16)            120.0            estimate D2E/DX2                !
 ! A32   A(11,12,16)           120.0            estimate D2E/DX2                !
 ! A33   A(12,16,17)           120.0            estimate D2E/DX2                !
 ! A34   A(6,17,16)            120.0            estimate D2E/DX2                !
 ! D1    D(6,1,2,3)              0.0001         estimate D2E/DX2                !
 ! D2    D(6,1,2,13)           180.0            estimate D2E/DX2                !
 ! D3    D(2,1,6,5)             -0.0001         estimate D2E/DX2                !
 ! D4    D(2,1,6,17)           180.0            estimate D2E/DX2                !
 ! D5    D(1,2,3,4)              0.0            estimate D2E/DX2                !
 ! D6    D(1,2,3,14)           180.0            estimate D2E/DX2                !
 ! D7    D(13,2,3,4)          -179.9999         estimate D2E/DX2                !
 ! D8    D(13,2,3,14)            0.0001         estimate D2E/DX2                !
 ! D9    D(2,3,4,5)             -0.0001         estimate D2E/DX2                !
 ! D10   D(2,3,4,20)           180.0            estimate D2E/DX2                !
 ! D11   D(14,3,4,5)           179.9999         estimate D2E/DX2                !
 ! D12   D(14,3,4,20)            0.0            estimate D2E/DX2                !
 ! D13   D(3,4,5,6)              0.0001         estimate D2E/DX2                !
 ! D14   D(3,4,5,15)          -179.9999         estimate D2E/DX2                !
 ! D15   D(20,4,5,6)          -180.0            estimate D2E/DX2                !
 ! D16   D(20,4,5,15)            0.0            estimate D2E/DX2                !
 ! D17   D(4,5,6,1)              0.0            estimate D2E/DX2                !
 ! D18   D(4,5,6,17)           179.9999         estimate D2E/DX2                !
 ! D19   D(15,5,6,1)           180.0            estimate D2E/DX2                !
 ! D20   D(15,5,6,17)           -0.0001         estimate D2E/DX2                !
 ! D21   D(1,6,17,16)            0.0004         estimate D2E/DX2                !
 ! D22   D(5,6,17,16)         -179.9996         estimate D2E/DX2                !
 ! D23   D(12,7,8,9)             0.0001         estimate D2E/DX2                !
 ! D24   D(12,7,8,22)         -179.9998         estimate D2E/DX2                !
 ! D25   D(8,7,12,11)           -0.0001         estimate D2E/DX2                !
 ! D26   D(8,7,12,16)          179.9999         estimate D2E/DX2                !
 ! D27   D(7,8,9,10)             0.0            estimate D2E/DX2                !
 ! D28   D(7,8,9,21)           180.0            estimate D2E/DX2                !
 ! D29   D(22,8,9,10)          179.9998         estimate D2E/DX2                !
 ! D30   D(22,8,9,21)           -0.0002         estimate D2E/DX2                !
 ! D31   D(8,9,10,11)            0.0            estimate D2E/DX2                !
 ! D32   D(8,9,10,19)         -179.9999         estimate D2E/DX2                !
 ! D33   D(21,9,10,11)         180.0            estimate D2E/DX2                !
 ! D34   D(21,9,10,19)           0.0001         estimate D2E/DX2                !
 ! D35   D(9,10,11,12)           0.0            estimate D2E/DX2                !
 ! D36   D(9,10,11,18)        -179.9998         estimate D2E/DX2                !
 ! D37   D(19,10,11,12)        179.9999         estimate D2E/DX2                !
 ! D38   D(19,10,11,18)          0.0001         estimate D2E/DX2                !
 ! D39   D(10,11,12,7)           0.0            estimate D2E/DX2                !
 ! D40   D(10,11,12,16)       -179.9999         estimate D2E/DX2                !
 ! D41   D(18,11,12,7)         179.9999         estimate D2E/DX2                !
 ! D42   D(18,11,12,16)         -0.0001         estimate D2E/DX2                !
 ! D43   D(7,12,16,17)           0.0004         estimate D2E/DX2                !
 ! D44   D(11,12,16,17)       -179.9997         estimate D2E/DX2                !
 ! D45   D(12,16,17,6)          -0.0006         estimate D2E/DX2                !
 --------------------------------------------------------------------------------
 Trust Radius=3.00D-01 FncErr=1.00D-07 GrdErr=1.00D-06 EigMax=2.50D+02 EigMin=1.00D-04
 Number of steps in this run=    112 maximum allowed number of steps=    132.
 GradGradGradGradGradGradGradGradGradGradGradGradGradGradGradGradGradGrad

                          Input orientation:                          
 ---------------------------------------------------------------------
 Center     Atomic      Atomic             Coordinates (Angstroms)
 Number     Number       Type             X           Y           Z
 ---------------------------------------------------------------------
      1          6           0        0.896225    0.869335   -0.003916
      2          6           0        2.228606    0.899221   -0.437263
      3          6           0        2.936499    2.108672   -0.443335
      4          6           0        2.312012    3.288237   -0.016060
      5          6           0        0.979630    3.258352    0.417284
      6          6           0        0.271737    2.048901    0.423357
      7          6           0       -0.129953   -0.883911    0.004888
      8          6           0        0.494534   -2.063476   -0.422387
      9          6           0       -0.213359   -3.272928   -0.416313
     10          6           0       -1.545739   -3.302814    0.017037
     11          6           0       -2.170226   -2.123249    0.444312
     12          6           0       -1.462333   -0.913798    0.438238
     13          1           0        2.705416   -0.001403   -0.763495
     14          1           0        3.953802    2.131491   -0.774204
     15          1           0        0.502820    4.158976    0.743516
     16         17           0       -2.246618    0.567602    0.974850
     17         17           0       -1.401584    2.011368    0.967591
     18         17           0       -3.843543   -2.160784    0.988555
     19         17           0       -2.434771   -4.821749    0.024668
     20         17           0        3.201047    4.807171   -0.023686
     21         17           0        0.570927   -4.754328   -0.952922
     22         17           0        2.167855   -2.025943   -0.966621
 ---------------------------------------------------------------------
                    Distance matrix (angstroms):
                    1          2          3          4          5
     1  C    0.000000
     2  C    1.401400   0.000000
     3  C    2.427296   1.401400   0.000000
     4  C    2.802800   2.427296   1.401400   0.000000
     5  C    2.427296   2.802800   2.427296   1.401400   0.000000
     6  C    1.401400   2.427296   2.802800   2.427296   1.401400
     7  C    2.031500   2.989625   4.308084   4.834300   4.308084
     8  C    2.989625   3.432900   4.834300   5.666495   5.409457
     9  C    4.308084   4.834300   6.235700   7.041774   6.691466
    10  C    4.834300   5.666495   7.041774   7.637100   7.041774
    11  C    4.308084   5.409457   6.691466   7.041774   6.235700
    12  C    2.989625   4.204351   5.409457   5.666495   4.834300
    13  H    2.146700   1.070000   2.146700   3.396345   3.872800
    14  H    3.396345   2.146700   1.070000   2.146700   3.396345
    15  H    3.396345   3.872800   3.396345   2.146700   1.070000
    16  Cl   3.305523   4.704429   5.590246   5.400450   4.237887
    17  Cl   2.743718   4.048303   4.562800   4.048303   2.743718
    18  Cl   5.712445   6.947487   8.139259   8.282026   7.277114
    19  Cl   6.594300   7.395266   8.780678   9.397100   8.780678
    20  Cl   4.562800   4.048303   2.743718   1.760000   2.743718
    21  Cl   5.712445   5.914087   7.277114   8.282026   8.139259
    22  Cl   3.305523   2.973298   4.237887   5.400450   5.590246
                    6          7          8          9         10
     6  C    0.000000
     7  C    2.989625   0.000000
     8  C    4.204351   1.401400   0.000000
     9  C    5.409457   2.427296   1.401400   0.000000
    10  C    5.666495   2.802800   2.427296   1.401400   0.000000
    11  C    4.834300   2.427296   2.802800   2.427296   1.401400
    12  C    3.432900   1.401400   2.427296   2.802800   2.427296
    13  H    3.396345   3.067336   3.042450   4.398029   5.438829
    14  H    3.872800   5.135824   5.448675   6.833817   7.771916
    15  H    2.146700   5.135824   6.330744   7.555879   7.771916
    16  Cl   2.973298   2.743718   4.048303   4.562800   4.048303
    17  Cl   1.760000   3.305523   4.704429   5.590246   5.400450
    18  Cl   5.914087   4.048303   4.562800   4.048303   2.743718
    19  Cl   7.395266   4.562800   4.048303   2.743718   1.760000
    20  Cl   4.048303   6.594300   7.395266   8.780678   9.397100
    21  Cl   6.947487   4.048303   2.743718   1.760000   2.743718
    22  Cl   4.704429   2.743718   1.760000   2.743718   4.048303
                   11         12         13         14         15
    11  C    0.000000
    12  C    1.401400   0.000000
    13  H    5.452790   4.432467   0.000000
    14  H    7.555879   6.330744   2.471400   0.000000
    15  H    6.833817   5.448675   4.942800   4.280590   0.000000
    16  Cl   2.743718   1.760000   5.279038   6.629490   4.528895
    17  Cl   4.237887   2.973298   4.890332   5.632800   2.879094
    18  Cl   1.760000   2.743718   7.114877   9.073563   7.674001
    19  Cl   2.743718   4.048303   7.090731   9.476266   9.476266
    20  Cl   8.780678   7.395266   4.890332   2.879094   2.879094
    21  Cl   4.048303   4.562800   5.213657   7.674001   9.073563
    22  Cl   4.562800   4.048303   2.104518   4.528895   6.629490
                   16         17         18         19         20
    16  Cl   0.000000
    17  Cl   1.672900   0.000000
    18  Cl   3.161400   4.834300   0.000000
    19  Cl   5.475705   6.974816   3.161400   0.000000
    20  Cl   6.974816   5.475705   9.960084  11.157100   0.000000
    21  Cl   6.322800   7.304369   5.475705   3.161400   9.960084
    22  Cl   5.475705   5.725552   6.322800   5.475705   6.974816
                   21         22
    21  Cl   0.000000
    22  Cl   3.161400   0.000000
 Stoichiometry    C12H3Cl7
 Framework group  C1[X(C12H3Cl7)]
 Deg. of freedom    60
 Full point group                 C1      NOp   1
 Largest Abelian subgroup         C1      NOp   1
 Largest concise Abelian subgroup C1      NOp   1
                         Standard orientation:                         
 ---------------------------------------------------------------------
 Center     Atomic      Atomic             Coordinates (Angstroms)
 Number     Number       Type             X           Y           Z
 ---------------------------------------------------------------------
      1          6           0        1.731978    0.317791    0.000002
      2          6           0        2.369753    1.565655   -0.000001
      3          6           0        3.769323    1.637258   -0.000002
      4          6           0        4.531117    0.460997   -0.000002
      5          6           0        3.893342   -0.786867    0.000002
      6          6           0        2.493773   -0.858470    0.000004
      7          6           0       -0.296868    0.213994    0.000003
      8          6           0       -1.058663    1.390255    0.000003
      9          6           0       -2.458233    1.318652    0.000002
     10          6           0       -3.096008    0.070788    0.000001
     11          6           0       -2.334213   -1.105473    0.000001
     12          6           0       -0.934643   -1.033870    0.000001
     13          1           0        1.788106    2.463757   -0.000003
     14          1           0        4.256278    2.590030   -0.000004
     15          1           0        4.474990   -1.684969    0.000005
     16         17           0        0.022085   -2.511122   -0.000002
     17         17           0        1.692800   -2.425647    0.000007
     18         17           0       -3.135186   -2.672650   -0.000005
     19         17           0       -4.853709   -0.019137   -0.000003
     20         17           0        6.288818    0.550922   -0.000005
     21         17           0       -3.414961    2.795904    0.000002
     22         17           0       -0.257690    2.957432   -0.000000
 ---------------------------------------------------------------------
 Rotational constants (GHZ):           0.3521084           0.1215798           0.0903744
 Standard basis: 6-311+G(d,p) (5D, 7F)
 There are   511 symmetry adapted cartesian basis functions of A   symmetry.
 There are   492 symmetry adapted basis functions of A   symmetry.
   492 basis functions,   827 primitive gaussians,   511 cartesian basis functions
    97 alpha electrons       97 beta electrons
       nuclear repulsion energy      2354.3364143621 Hartrees.
 NAtoms=   22 NActive=   22 NUniq=   22 SFac= 1.00D+00 NAtFMM=   60 NAOKFM=F Big=F
 Integral buffers will be    131072 words long.
 Raffenetti 2 integral format.
 Two-electron integral symmetry is turned on.
 One-electron integrals computed using PRISM.
 NBasis=   492 RedAO= T EigKep=  1.35D-06  NBF=   492
 NBsUse=   485 1.00D-06 EigRej=  8.23D-07 NBFU=   485
 ExpMin= 4.38D-02 ExpMax= 1.06D+05 ExpMxC= 3.62D+03 IAcc=3 IRadAn=         5 AccDes= 0.00D+00
 Harris functional with IExCor=  402 and IRadAn=       5 diagonalized for initial guess.
 HarFok:  IExCor=  402 AccDes= 0.00D+00 IRadAn=         5 IDoV= 1 UseB2=F ITyADJ=14
 ICtDFT=  3500011 ScaDFX=  1.000000  1.000000  1.000000  1.000000
 FoFCou: FMM=F IPFlag=           0 FMFlag=      100000 FMFlg1=           0
         NFxFlg=           0 DoJE=T BraDBF=F KetDBF=T FulRan=T
         wScrn=  0.000000 ICntrl=       500 IOpCl=  0 I1Cent=   200000004 NGrid=           0
         NMat0=    1 NMatS0=      1 NMatT0=    0 NMatD0=    1 NMtDS0=    0 NMtDT0=    0
 Petite list used in FoFCou.
 Requested convergence on RMS density matrix=1.00D-08 within  32 cycles.
 Requested convergence on MAX density matrix=1.00D-06.
 Requested convergence on             energy=1.00D-06.
 No special actions if energy rises.
 EnCoef did     5 forward-backward iterations
 EnCoef did     5 forward-backward iterations
 EnCoef did     7 forward-backward iterations
 EnCoef did     5 forward-backward iterations
 EnCoef did     6 forward-backward iterations
 Restarting incremental Fock formation.
 SCF Done:  E(RB3LYP) =  -3680.18410587     A.U. after   31 cycles
            NFock= 31  Conv=0.17D-08     -V/T= 2.0021
 QCSCF skips out because SCF is already converged.

 **********************************************************************

            Population analysis using the SCF Density.

 **********************************************************************

 Orbital symmetries:
       Occupied  (A) (A) (A) (A) (A) (A) (A) (A) (A) (A) (A) (A)
                 (A) (A) (A) (A) (A) (A) (A) (A) (A) (A) (A) (A)
                 (A) (A) (A) (A) (A) (A) (A) (A) (A) (A) (A) (A)
                 (A) (A) (A) (A) (A) (A) (A) (A) (A) (A) (A) (A)
                 (A) (A) (A) (A) (A) (A) (A) (A) (A) (A) (A) (A)
                 (A) (A) (A) (A) (A) (A) (A) (A) (A) (A) (A) (A)
                 (A) (A) (A) (A) (A) (A) (A) (A) (A) (A) (A) (A)
                 (A) (A) (A) (A) (A) (A) (A) (A) (A) (A) (A) (A)
                 (A)
       Virtual   (A) (A) (A) (A) (A) (A) (A) (A) (A) (A) (A) (A)
                 (A) (A) (A) (A) (A) (A) (A) (A) (A) (A) (A) (A)
                 (A) (A) (A) (A) (A) (A) (A) (A) (A) (A) (A) (A)
                 (A) (A) (A) (A) (A) (A) (A) (A) (A) (A) (A) (A)
                 (A) (A) (A) (A) (A) (A) (A) (A) (A) (A) (A) (A)
                 (A) (A) (A) (A) (A) (A) (A) (A) (A) (A) (A) (A)
                 (A) (A) (A) (A) (A) (A) (A) (A) (A) (A) (A) (A)
                 (A) (A) (A) (A) (A) (A) (A) (A) (A) (A) (A) (A)
                 (A) (A) (A) (A) (A) (A) (A) (A) (A) (A) (A) (A)
                 (A) (A) (A) (A) (A) (A) (A) (A) (A) (A) (A) (A)
                 (A) (A) (A) (A) (A) (A) (A) (A) (A) (A) (A) (A)
                 (A) (A) (A) (A) (A) (A) (A) (A) (A) (A) (A) (A)
                 (A) (A) (A) (A) (A) (A) (A) (A) (A) (A) (A) (A)
                 (A) (A) (A) (A) (A) (A) (A) (A) (A) (A) (A) (A)
                 (A) (A) (A) (A) (A) (A) (A) (A) (A) (A) (A) (A)
                 (A) (A) (A) (A) (A) (A) (A) (A) (A) (A) (A) (A)
                 (A) (A) (A) (A) (A) (A) (A) (A) (A) (A) (A) (A)
                 (A) (A) (A) (A) (A) (A) (A) (A) (A) (A) (A) (A)
                 (A) (A) (A) (A) (A) (A) (A) (A) (A) (A) (A) (A)
                 (A) (A) (A) (A) (A) (A) (A) (A) (A) (A) (A) (A)
                 (A) (A) (A) (A) (A) (A) (A) (A) (A) (A) (A) (A)
                 (A) (A) (A) (A) (A) (A) (A) (A) (A) (A) (A) (A)
                 (A) (A) (A) (A) (A) (A) (A) (A) (A) (A) (A) (A)
                 (A) (A) (A) (A) (A) (A) (A) (A) (A) (A) (A) (A)
                 (A) (A) (A) (A) (A) (A) (A) (A) (A) (A) (A) (A)
                 (A) (A) (A) (A) (A) (A) (A) (A) (A) (A) (A) (A)
                 (A) (A) (A) (A) (A) (A) (A) (A) (A) (A) (A) (A)
                 (A) (A) (A) (A) (A) (A) (A) (A) (A) (A) (A) (A)
                 (A) (A) (A) (A) (A) (A) (A) (A) (A) (A) (A) (A)
                 (A) (A) (A) (A) (A) (A) (A) (A) (A) (A) (A) (A)
                 (A) (A) (A) (A) (A) (A) (A) (A) (A) (A) (A) (A)
                 (A) (A) (A) (A) (A) (A) (A) (A) (A) (A) (A) (A)
                 (A) (A) (A) (A)
 The electronic state is 1-A.
 Alpha  occ. eigenvalues -- -101.67368-101.65384-101.58375-101.56853-101.56522
 Alpha  occ. eigenvalues -- -101.56371-101.55672 -10.29253 -10.28021 -10.27249
 Alpha  occ. eigenvalues --  -10.26907 -10.26553 -10.26283 -10.24983 -10.24676
 Alpha  occ. eigenvalues --  -10.24102 -10.22267 -10.21436 -10.21351  -9.59347
 Alpha  occ. eigenvalues --   -9.57584  -9.49790  -9.48421  -9.47956  -9.47884
 Alpha  occ. eigenvalues --   -9.47145  -7.35639  -7.35064  -7.34499  -7.34437
 Alpha  occ. eigenvalues --   -7.32959  -7.32423  -7.26279  -7.25261  -7.25229
 Alpha  occ. eigenvalues --   -7.24868  -7.24459  -7.24307  -7.23905  -7.23847
 Alpha  occ. eigenvalues --   -7.23614  -7.23439  -7.23372  -7.23359  -7.23347
 Alpha  occ. eigenvalues --   -7.22646  -7.22557  -1.13965  -0.94394  -0.93532
 Alpha  occ. eigenvalues --   -0.90599  -0.89413  -0.88010  -0.85693  -0.84766
 Alpha  occ. eigenvalues --   -0.83300  -0.79551  -0.77544  -0.73916  -0.73674
 Alpha  occ. eigenvalues --   -0.68405  -0.65510  -0.62303  -0.61062  -0.58728
 Alpha  occ. eigenvalues --   -0.56423  -0.54121  -0.53308  -0.52001  -0.51196
 Alpha  occ. eigenvalues --   -0.50785  -0.48827  -0.46748  -0.45718  -0.44996
 Alpha  occ. eigenvalues --   -0.44752  -0.43840  -0.43345  -0.42052  -0.41072
 Alpha  occ. eigenvalues --   -0.39474  -0.38190  -0.37159  -0.36271  -0.34784
 Alpha  occ. eigenvalues --   -0.34777  -0.34291  -0.33818  -0.33123  -0.32604
 Alpha  occ. eigenvalues --   -0.32342  -0.30135  -0.29750  -0.28693  -0.25848
 Alpha  occ. eigenvalues --   -0.25500  -0.13760
 Alpha virt. eigenvalues --   -0.10101  -0.07271  -0.06503  -0.06455  -0.04553
 Alpha virt. eigenvalues --   -0.03233  -0.01989  -0.01524  -0.00850  -0.00287
 Alpha virt. eigenvalues --    0.00344   0.01281   0.02001   0.02915   0.02995
 Alpha virt. eigenvalues --    0.03019   0.03487   0.04281   0.05177   0.05392
 Alpha virt. eigenvalues --    0.05490   0.05575   0.06524   0.06902   0.07252
 Alpha virt. eigenvalues --    0.07385   0.07950   0.08198   0.08704   0.09145
 Alpha virt. eigenvalues --    0.09362   0.09461   0.09673   0.10081   0.10484
 Alpha virt. eigenvalues --    0.10757   0.10817   0.11109   0.11890   0.12497
 Alpha virt. eigenvalues --    0.12722   0.13216   0.13489   0.13512   0.13954
 Alpha virt. eigenvalues --    0.14545   0.15129   0.15195   0.15260   0.15725
 Alpha virt. eigenvalues --    0.15766   0.16129   0.16758   0.17355   0.17734
 Alpha virt. eigenvalues --    0.18020   0.18459   0.18488   0.19423   0.19639
 Alpha virt. eigenvalues --    0.20262   0.20710   0.20742   0.20982   0.21589
 Alpha virt. eigenvalues --    0.21930   0.22773   0.23014   0.23208   0.23375
 Alpha virt. eigenvalues --    0.23995   0.24215   0.24510   0.24716   0.25573
 Alpha virt. eigenvalues --    0.25932   0.26317   0.27167   0.27483   0.27920
 Alpha virt. eigenvalues --    0.28136   0.28435   0.29009   0.29440   0.30302
 Alpha virt. eigenvalues --    0.31232   0.31494   0.32401   0.32720   0.32828
 Alpha virt. eigenvalues --    0.33521   0.34401   0.35539   0.37019   0.39039
 Alpha virt. eigenvalues --    0.39378   0.39975   0.40995   0.41967   0.42514
 Alpha virt. eigenvalues --    0.42657   0.43707   0.43747   0.44077   0.44386
 Alpha virt. eigenvalues --    0.45214   0.45834   0.46131   0.46449   0.47044
 Alpha virt. eigenvalues --    0.47382   0.47461   0.48178   0.49136   0.49401
 Alpha virt. eigenvalues --    0.49994   0.50248   0.50682   0.52067   0.52139
 Alpha virt. eigenvalues --    0.52949   0.54358   0.54894   0.56151   0.56185
 Alpha virt. eigenvalues --    0.56809   0.56884   0.58347   0.58659   0.59374
 Alpha virt. eigenvalues --    0.59717   0.60900   0.60906   0.61274   0.62046
 Alpha virt. eigenvalues --    0.62298   0.63731   0.64214   0.64394   0.64894
 Alpha virt. eigenvalues --    0.65178   0.67101   0.68468   0.69017   0.69957
 Alpha virt. eigenvalues --    0.72304   0.74454   0.75766   0.77560   0.78296
 Alpha virt. eigenvalues --    0.80160   0.80239   0.81497   0.81582   0.82058
 Alpha virt. eigenvalues --    0.82544   0.83347   0.83466   0.83646   0.83848
 Alpha virt. eigenvalues --    0.84058   0.84858   0.85252   0.85427   0.85928
 Alpha virt. eigenvalues --    0.85953   0.86844   0.87649   0.87897   0.88197
 Alpha virt. eigenvalues --    0.88777   0.89215   0.89814   0.90281   0.91242
 Alpha virt. eigenvalues --    0.91697   0.92635   0.93243   0.93535   0.94361
 Alpha virt. eigenvalues --    0.94875   0.95445   0.95569   0.95860   0.96195
 Alpha virt. eigenvalues --    0.96511   0.97035   0.98339   0.99815   1.00045
 Alpha virt. eigenvalues --    1.00135   1.01167   1.03220   1.03784   1.04404
 Alpha virt. eigenvalues --    1.04918   1.06851   1.08301   1.08640   1.11720
 Alpha virt. eigenvalues --    1.13761   1.15977   1.16959   1.18077   1.19896
 Alpha virt. eigenvalues --    1.20476   1.20737   1.21482   1.23644   1.24121
 Alpha virt. eigenvalues --    1.24653   1.26559   1.27300   1.27797   1.28922
 Alpha virt. eigenvalues --    1.29278   1.30049   1.30225   1.30555   1.30906
 Alpha virt. eigenvalues --    1.33354   1.34578   1.44876   1.47048   1.47593
 Alpha virt. eigenvalues --    1.49490   1.50574   1.50975   1.52209   1.54003
 Alpha virt. eigenvalues --    1.54094   1.58953   1.61612   1.65189   1.65960
 Alpha virt. eigenvalues --    1.67229   1.67612   1.67613   1.70178   1.74229
 Alpha virt. eigenvalues --    1.76326   1.76507   1.78837   1.82020   1.83362
 Alpha virt. eigenvalues --    1.85120   1.85911   1.86197   1.86595   1.86714
 Alpha virt. eigenvalues --    1.86755   1.88172   1.92040   1.92242   1.94901
 Alpha virt. eigenvalues --    1.95885   1.97794   1.98931   2.04488   2.05962
 Alpha virt. eigenvalues --    2.13304   2.13947   2.15114   2.16349   2.20946
 Alpha virt. eigenvalues --    2.22935   2.23129   2.23866   2.24726   2.25773
 Alpha virt. eigenvalues --    2.26457   2.26782   2.27678   2.28374   2.29373
 Alpha virt. eigenvalues --    2.29534   2.32611   2.32976   2.33847   2.35192
 Alpha virt. eigenvalues --    2.37520   2.38411   2.42846   2.43513   2.43992
 Alpha virt. eigenvalues --    2.45485   2.49075   2.51320   2.51771   2.52788
 Alpha virt. eigenvalues --    2.54024   2.55291   2.58703   2.59400   2.60341
 Alpha virt. eigenvalues --    2.60958   2.62020   2.62874   2.65876   2.68541
 Alpha virt. eigenvalues --    2.69757   2.72559   2.73473   2.74148   2.74479
 Alpha virt. eigenvalues --    2.76544   2.77418   2.79699   2.81866   2.83879
 Alpha virt. eigenvalues --    2.85097   2.86578   2.87411   2.88231   3.03650
 Alpha virt. eigenvalues --    3.07464   3.07983   3.09125   3.11942   3.14808
 Alpha virt. eigenvalues --    3.15243   3.15650   3.21674   3.23916   3.27777
 Alpha virt. eigenvalues --    3.30064   3.34166   3.39801   3.50070   3.52583
 Alpha virt. eigenvalues --    3.53641   3.63631   3.71009   3.78200   3.83859
 Alpha virt. eigenvalues --    3.91194   3.94298   4.06943   4.14341   4.78869
 Alpha virt. eigenvalues --    4.81980   9.65977   9.75154   9.75499   9.79944
 Alpha virt. eigenvalues --    9.81862   9.84580   9.95023  23.23835  23.42430
 Alpha virt. eigenvalues --   23.79159  23.80355  23.80844  23.89172  23.94483
 Alpha virt. eigenvalues --   23.95315  23.97290  24.00405  24.02125  24.09794
 Alpha virt. eigenvalues --   25.72474  25.76923  25.80205  25.80396  25.84590
 Alpha virt. eigenvalues --   25.90275  25.96633  26.08177  26.10984  26.11960
 Alpha virt. eigenvalues --   26.17225  26.22185  26.37589  26.49525  26.55725
 Alpha virt. eigenvalues --   26.59117  26.70900  26.77684  26.90965  26.96686
 Alpha virt. eigenvalues --   27.06170 215.66414 215.74536 215.74958 215.79832
 Alpha virt. eigenvalues --  215.81828 215.85157 216.00257
          Condensed to atoms (all electrons):
               1          2          3          4          5          6
     1  C   20.196286  -1.220359  -1.674047   0.988316  -1.966951  -0.493915
     2  C   -1.220359  10.784778  -0.150892  -0.872919   0.323352  -2.055227
     3  C   -1.674047  -0.150892  17.882414  -0.984144  -9.584530   0.867928
     4  C    0.988316  -0.872919  -0.984144  18.240376  -2.860903  -6.043375
     5  C   -1.966951   0.323352  -9.584530  -2.860903  22.797807  -0.460158
     6  C   -0.493915  -2.055227   0.867928  -6.043375  -0.460158  15.401035
     7  C    2.661677  -0.482724  -0.438018  -0.240040  -2.194966  -0.252967
     8  C   -2.775939   0.167066  -0.050858  -0.294955   0.210963   0.160818
     9  C   -4.032625   0.043477   0.255297  -0.122217  -0.355472  -0.162423
    10  C    0.910055   0.530563   0.004464   0.047039   0.033176  -0.210883
    11  C   -3.194672   0.286431  -0.143995  -0.228453   0.192813   0.533066
    12  C   -3.272803  -0.864406   0.024270  -1.161879  -1.013429  -0.325754
    13  H    0.061384   0.349818  -0.064917  -0.001192  -0.059596  -0.010234
    14  H    0.025649  -0.042024   0.322002  -0.040207   0.043923   0.035536
    15  H    0.039279  -0.026472   0.078456  -0.015663   0.200760   0.045497
    16  Cl   3.260677   0.442043  -0.954721   2.044683   1.036416   0.048843
    17  Cl  -2.568012  -0.356172   0.838564  -1.969720   0.091468  -0.188645
    18  Cl  -0.122696  -0.023870   0.007141  -0.017821  -0.027368  -0.104811
    19  Cl  -0.049409   0.003266  -0.001626   0.001191   0.001293   0.001014
    20  Cl  -0.126191  -0.015496   0.400643  -1.141792   0.316333  -0.153811
    21  Cl  -0.188276  -0.020279   0.005338   0.000380  -0.006443  -0.016548
    22  Cl   0.042111  -0.204233  -0.435053  -0.036058   0.111653  -0.032325
               7          8          9         10         11         12
     1  C    2.661677  -2.775939  -4.032625   0.910055  -3.194672  -3.272803
     2  C   -0.482724   0.167066   0.043477   0.530563   0.286431  -0.864406
     3  C   -0.438018  -0.050858   0.255297   0.004464  -0.143995   0.024270
     4  C   -0.240040  -0.294955  -0.122217   0.047039  -0.228453  -1.161879
     5  C   -2.194966   0.210963  -0.355472   0.033176   0.192813  -1.013429
     6  C   -0.252967   0.160818  -0.162423  -0.210883   0.533066  -0.325754
     7  C   24.991576  -4.552442  -5.658783   7.982266  -6.905576  -1.636058
     8  C   -4.552442  12.634154   2.486564  -5.005224   4.364046   2.323732
     9  C   -5.658783   2.486564  20.096781  -8.617254   0.962417   4.225858
    10  C    7.982266  -5.005224  -8.617254  22.522053  -5.213994  -5.016076
    11  C   -6.905576   4.364046   0.962417  -5.213994  19.442323  -6.712411
    12  C   -1.636058   2.323732   4.225858  -5.016076  -6.712411  41.743111
    13  H    0.069548   0.016999  -0.011265   0.008433  -0.013603   0.012062
    14  H    0.008164   0.000543   0.000800  -0.000132   0.000601   0.001480
    15  H    0.021187   0.001151   0.000633  -0.000183   0.000330   0.018301
    16  Cl  -6.580942  -4.141279  -3.649452  -0.842671   5.229338 -35.199983
    17  Cl   1.445784   0.923407   0.774973   0.105933  -0.874607  11.378966
    18  Cl  -0.441746   0.825686   0.804741   0.366163  -2.523573   2.736092
    19  Cl   0.228287  -0.779188  -0.935401  -0.108430   0.507640  -0.275590
    20  Cl  -0.050153  -0.009577  -0.000723  -0.000535  -0.002128  -0.014944
    21  Cl  -1.044158   0.528139  -0.096367  -0.550287  -0.136319   0.698024
    22  Cl  -0.192136  -0.498106   0.573654  -0.633723   0.547022  -0.284144
              13         14         15         16         17         18
     1  C    0.061384   0.025649   0.039279   3.260677  -2.568012  -0.122696
     2  C    0.349818  -0.042024  -0.026472   0.442043  -0.356172  -0.023870
     3  C   -0.064917   0.322002   0.078456  -0.954721   0.838564   0.007141
     4  C   -0.001192  -0.040207  -0.015663   2.044683  -1.969720  -0.017821
     5  C   -0.059596   0.043923   0.200760   1.036416   0.091468  -0.027368
     6  C   -0.010234   0.035536   0.045497   0.048843  -0.188645  -0.104811
     7  C    0.069548   0.008164   0.021187  -6.580942   1.445784  -0.441746
     8  C    0.016999   0.000543   0.001151  -4.141279   0.923407   0.825686
     9  C   -0.011265   0.000800   0.000633  -3.649452   0.774973   0.804741
    10  C    0.008433  -0.000132  -0.000183  -0.842671   0.105933   0.366163
    11  C   -0.013603   0.000601   0.000330   5.229338  -0.874607  -2.523573
    12  C    0.012062   0.001480   0.018301 -35.199983  11.378966   2.736092
    13  H    0.561539  -0.010630   0.000037   0.012904  -0.005804  -0.000235
    14  H   -0.010630   0.509812  -0.000176  -0.002618   0.005565   0.000003
    15  H    0.000037  -0.000176   0.491207  -0.037336   0.015308   0.000090
    16  Cl   0.012904  -0.002618  -0.037336  81.604787 -23.307076  -3.727905
    17  Cl  -0.005804   0.005565   0.015308 -23.307076  29.349005   0.330979
    18  Cl  -0.000235   0.000003   0.000090  -3.727905   0.330979  19.131862
    19  Cl   0.000246  -0.000001  -0.000002   0.671694  -0.062011  -0.703417
    20  Cl   0.000931  -0.013302  -0.012239  -0.000290  -0.030721  -0.000062
    21  Cl   0.002021  -0.000008  -0.000000   0.046610   0.001310  -0.016846
    22  Cl  -0.070204   0.001008  -0.000087  -0.234839   0.043744   0.042468
              19         20         21         22
     1  C   -0.049409  -0.126191  -0.188276   0.042111
     2  C    0.003266  -0.015496  -0.020279  -0.204233
     3  C   -0.001626   0.400643   0.005338  -0.435053
     4  C    0.001191  -1.141792   0.000380  -0.036058
     5  C    0.001293   0.316333  -0.006443   0.111653
     6  C    0.001014  -0.153811  -0.016548  -0.032325
     7  C    0.228287  -0.050153  -1.044158  -0.192136
     8  C   -0.779188  -0.009577   0.528139  -0.498106
     9  C   -0.935401  -0.000723  -0.096367   0.573654
    10  C   -0.108430  -0.000535  -0.550287  -0.633723
    11  C    0.507640  -0.002128  -0.136319   0.547022
    12  C   -0.275590  -0.014944   0.698024  -0.284144
    13  H    0.000246   0.000931   0.002021  -0.070204
    14  H   -0.000001  -0.013302  -0.000008   0.001008
    15  H   -0.000002  -0.012239  -0.000000  -0.000087
    16  Cl   0.671694  -0.000290   0.046610  -0.234839
    17  Cl  -0.062011  -0.030721   0.001310   0.043744
    18  Cl  -0.703417  -0.000062  -0.016846   0.042468
    19  Cl  18.153283  -0.000004  -0.246695  -0.043297
    20  Cl  -0.000004  17.400277   0.000002  -0.002026
    21  Cl  -0.246695   0.000002  17.647779  -0.263678
    22  Cl  -0.043297  -0.002026  -0.263678  17.936230
 Mulliken charges:
               1
     1  C   -0.499537
     2  C   -0.595722
     3  C   -0.203713
     4  C    0.709352
     5  C   -0.830142
     6  C   -0.582661
     7  C   -0.737781
     8  C   -0.535700
     9  C   -0.583211
    10  C   -0.310753
    11  C   -0.116695
    12  C   -1.384421
    13  H    0.151757
    14  H    0.154011
    15  H    0.179922
    16  Cl   1.281118
    17  Cl   1.057761
    18  Cl   0.465125
    19  Cl   0.637159
    20  Cl   0.455809
    21  Cl   0.656304
    22  Cl   0.632019
 Sum of Mulliken charges =  -0.00000
 Mulliken charges with hydrogens summed into heavy atoms:
               1
     1  C   -0.499537
     2  C   -0.443965
     3  C   -0.049702
     4  C    0.709352
     5  C   -0.650220
     6  C   -0.582661
     7  C   -0.737781
     8  C   -0.535700
     9  C   -0.583211
    10  C   -0.310753
    11  C   -0.116695
    12  C   -1.384421
    16  Cl   1.281118
    17  Cl   1.057761
    18  Cl   0.465125
    19  Cl   0.637159
    20  Cl   0.455809
    21  Cl   0.656304
    22  Cl   0.632019
 Electronic spatial extent (au):  <R**2>=          10229.8705
 Charge=             -0.0000 electrons
 Dipole moment (field-independent basis, Debye):
    X=              4.7162    Y=             -1.5573    Z=              0.0000  Tot=              4.9667
 Quadrupole moment (field-independent basis, Debye-Ang):
   XX=           -169.1839   YY=           -152.0940   ZZ=           -159.1962
   XY=              0.6353   XZ=             -0.0000   YZ=             -0.0000
 Traceless Quadrupole moment (field-independent basis, Debye-Ang):
   XX=             -9.0259   YY=              8.0640   ZZ=              0.9618
   XY=              0.6353   XZ=             -0.0000   YZ=             -0.0000
 Octapole moment (field-independent basis, Debye-Ang**2):
  XXX=             21.0989  YYY=            -12.2563  ZZZ=             -0.0000  XYY=             25.6315
  XXY=              6.4758  XXZ=             -0.0000  XZZ=             -9.1035  YZZ=             -7.2518
  YYZ=             -0.0001  XYZ=             -0.0000
 Hexadecapole moment (field-independent basis, Debye-Ang**3):
 XXXX=         -10120.8992 YYYY=          -3311.0682 ZZZZ=           -186.6159 XXXY=            -22.9718
 XXXZ=              0.0001 YYYX=             31.9247 YYYZ=             -0.0001 ZZZX=              0.0000
 ZZZY=             -0.0000 XXYY=          -2175.1228 XXZZ=          -1726.8936 YYZZ=           -607.6657
 XXYZ=             -0.0001 YYXZ=             -0.0002 ZZXY=            -10.2814
 N-N= 2.354336414362D+03 E-N=-1.342865601918D+04  KE= 3.672304783452D+03
 Calling FoFJK, ICntrl=      2127 FMM=F ISym2X=0 I1Cent= 0 IOpClX= 0 NMat=1 NMatS=1 NMatT=0.
 ***** Axes restored to original set *****
 -------------------------------------------------------------------
 Center     Atomic                   Forces (Hartrees/Bohr)
 Number     Number              X              Y              Z
 -------------------------------------------------------------------
      1        6          -0.019659210   -0.055900643   -0.004021676
      2        6          -0.007398495    0.024927880    0.007119231
      3        6          -0.013101266    0.003616413    0.004995558
      4        6          -0.004052737   -0.014736603   -0.001432763
      5        6          -0.011035277    0.002873223    0.004175338
      6        6           0.033964551   -0.046722996   -0.019964374
      7        6          -0.007858181    0.028544717    0.007949893
      8        6          -0.010008272    0.019039479    0.006873152
      9        6           0.002308533   -0.002529544   -0.001235651
     10        6          -0.008537219    0.004457503    0.003649794
     11        6           0.040291796    0.006177938   -0.012114277
     12        6           0.041042580   -0.171922821   -0.045810078
     13        1           0.001870375    0.005268293    0.000373171
     14        1           0.008591249    0.000612162   -0.002715440
     15        1          -0.003167885    0.007582114    0.002467728
     16       17          -0.164105121   -0.260228274    0.005194689
     17       17           0.138144707    0.475590949    0.043804533
     18       17          -0.011706935    0.001254852    0.004092625
     19       17          -0.000117713   -0.005051657   -0.000909971
     20       17          -0.004899675   -0.004693482    0.000732745
     21       17          -0.002258886    0.004722415    0.001631080
     22       17           0.001693081   -0.022881918   -0.004855307
 -------------------------------------------------------------------
 Cartesian Forces:  Max     0.475590949 RMS     0.076689155

 GradGradGradGradGradGradGradGradGradGradGradGradGradGradGradGradGradGrad
 Berny optimization.
 FormGI is forming the generalized inverse of G from B-inverse, IUseBI=4.
 Internal  Forces:  Max     0.403932632 RMS     0.050895032
 Search for a local minimum.
 Step number   1 out of a maximum of  112
 All quantities printed in internal units (Hartrees-Bohrs-Radians)
 Mixed Optimization -- RFO/linear search
 Second derivative matrix not updated -- first step.
 ITU=  0
     Eigenvalues ---    0.00238   0.00238   0.01655   0.01655   0.02070
     Eigenvalues ---    0.02070   0.02070   0.02070   0.02070   0.02070
     Eigenvalues ---    0.02070   0.02070   0.02070   0.02070   0.02070
     Eigenvalues ---    0.02070   0.02070   0.02070   0.04301   0.16000
     Eigenvalues ---    0.16000   0.16000   0.22308   0.23491   0.24544
     Eigenvalues ---    0.25000   0.25000   0.25000   0.25000   0.25000
     Eigenvalues ---    0.25000   0.25000   0.25000   0.25000   0.25000
     Eigenvalues ---    0.25000   0.25000   0.29539   0.29539   0.29539
     Eigenvalues ---    0.29539   0.29539   0.29539   0.29539   0.37230
     Eigenvalues ---    0.37230   0.37230   0.41409   0.41797   0.42102
     Eigenvalues ---    0.42201   0.45389   0.45389   0.45389   0.45389
     Eigenvalues ---    0.45389   0.45389   0.45389   0.45389   1.32680
 RFO step:  Lambda=-2.85483295D-01 EMin= 2.37799032D-03
 Linear search not attempted -- first point.
 Maximum step size (   0.300) exceeded in Quadratic search.
    -- Step size scaled by   0.475
 Iteration  1 RMS(Cart)=  0.14681486 RMS(Int)=  0.00390752
 Iteration  2 RMS(Cart)=  0.03144300 RMS(Int)=  0.00007528
 Iteration  3 RMS(Cart)=  0.00011485 RMS(Int)=  0.00002614
 Iteration  4 RMS(Cart)=  0.00000000 RMS(Int)=  0.00002614
 Variable       Old X    -DE/DX   Delta X   Delta X   Delta X     New X
                                 (Linear)    (Quad)   (Total)
    R1        2.64826  -0.00143   0.00000  -0.00067  -0.00062   2.64764
    R2        2.64826   0.01774   0.00000   0.01175   0.01180   2.66006
    R3        2.64826  -0.00289   0.00000  -0.00197  -0.00197   2.64629
    R4        2.02201  -0.00371   0.00000  -0.00268  -0.00268   2.01933
    R5        2.64826  -0.01465   0.00000  -0.00977  -0.00982   2.63844
    R6        2.02201   0.00902   0.00000   0.00651   0.00651   2.02851
    R7        2.64826  -0.01912   0.00000  -0.01251  -0.01256   2.63570
    R8        3.32592  -0.00653   0.00000  -0.00533  -0.00533   3.32058
    R9        2.64826  -0.01522   0.00000  -0.00965  -0.00965   2.63862
   R10        2.02201   0.00855   0.00000   0.00617   0.00617   2.02817
   R11        3.32592  -0.01705   0.00000  -0.01393  -0.01393   3.31199
   R12        2.64826   0.01210   0.00000   0.00822   0.00822   2.65649
   R13        2.64826  -0.00424   0.00000  -0.00258  -0.00256   2.64571
   R14        2.64826  -0.00050   0.00000  -0.00002  -0.00003   2.64823
   R15        3.32592   0.00262   0.00000   0.00214   0.00214   3.32806
   R16        2.64826  -0.01372   0.00000  -0.00895  -0.00897   2.63929
   R17        3.32592  -0.00548   0.00000  -0.00448  -0.00448   3.32144
   R18        2.64826  -0.01933   0.00000  -0.01285  -0.01286   2.63540
   R19        3.32592   0.00442   0.00000   0.00361   0.00361   3.32952
   R20        2.64826  -0.01741   0.00000  -0.01148  -0.01146   2.63680
   R21        3.32592   0.01237   0.00000   0.01010   0.01010   3.33602
   R22        3.32592   0.14872   0.00000   0.12149   0.12149   3.44741
   R23        3.16132   0.40393   0.00000   0.11888   0.11888   3.28020
    A1        2.09440  -0.04479   0.00000  -0.03858  -0.03844   2.05595
    A2        2.09440   0.01591   0.00000   0.01499   0.01503   2.10942
    A3        2.09440  -0.00371   0.00000  -0.00298  -0.00300   2.09140
    A4        2.09440  -0.01219   0.00000  -0.01201  -0.01203   2.08236
    A5        2.09440   0.00486   0.00000   0.00370   0.00365   2.09804
    A6        2.09440  -0.00200   0.00000  -0.00139  -0.00136   2.09303
    A7        2.09440  -0.00286   0.00000  -0.00231  -0.00228   2.09211
    A8        2.09440   0.00107   0.00000  -0.00003  -0.00014   2.09426
    A9        2.09440   0.00277   0.00000   0.00294   0.00300   2.09739
   A10        2.09440  -0.00384   0.00000  -0.00291  -0.00286   2.09154
   A11        2.09440  -0.01249   0.00000  -0.01204  -0.01209   2.08230
   A12        2.09440   0.00547   0.00000   0.00520   0.00523   2.09962
   A13        2.09440   0.00701   0.00000   0.00684   0.00687   2.10126
   A14        2.09440   0.03543   0.00000   0.03196   0.03200   2.12639
   A15        2.09440  -0.00827   0.00000  -0.00761  -0.00763   2.08676
   A16        2.09440  -0.02716   0.00000  -0.02435  -0.02437   2.07003
   A17        2.09440  -0.02904   0.00000  -0.02458  -0.02454   2.06986
   A18        2.09440   0.00846   0.00000   0.00849   0.00848   2.10288
   A19        2.09440   0.03452   0.00000   0.03010   0.03010   2.12450
   A20        2.09440  -0.04299   0.00000  -0.03859  -0.03858   2.05581
   A21        2.09440   0.00666   0.00000   0.00606   0.00602   2.10042
   A22        2.09440  -0.00369   0.00000  -0.00335  -0.00333   2.09106
   A23        2.09440  -0.00297   0.00000  -0.00271  -0.00269   2.09170
   A24        2.09440  -0.01336   0.00000  -0.01273  -0.01277   2.08163
   A25        2.09440   0.00232   0.00000   0.00251   0.00252   2.09692
   A26        2.09440   0.01104   0.00000   0.01023   0.01025   2.10464
   A27        2.09440   0.01223   0.00000   0.00972   0.00972   2.10412
   A28        2.09440  -0.00355   0.00000  -0.00259  -0.00259   2.09181
   A29        2.09440  -0.00868   0.00000  -0.00713  -0.00714   2.08726
   A30        2.09440   0.01505   0.00000   0.01304   0.01308   2.10747
   A31        2.09440  -0.00400   0.00000  -0.00340  -0.00342   2.09098
   A32        2.09440  -0.01104   0.00000  -0.00964  -0.00966   2.08474
   A33        2.09440   0.09180   0.00000   0.08135   0.08135   2.17574
   A34        2.09440  -0.24067   0.00000  -0.21326  -0.21326   1.88113
    D1        0.00000  -0.00000   0.00000  -0.00000  -0.00000   0.00000
    D2        3.14159   0.00000   0.00000   0.00000   0.00000   3.14159
    D3       -0.00000  -0.00000   0.00000  -0.00000  -0.00000  -0.00000
    D4        3.14159   0.00000   0.00000   0.00000   0.00000   3.14159
    D5        0.00000  -0.00000   0.00000   0.00000   0.00000   0.00000
    D6        3.14159   0.00000   0.00000   0.00000   0.00000   3.14159
    D7       -3.14159  -0.00000   0.00000  -0.00000  -0.00000  -3.14159
    D8        0.00000  -0.00000   0.00000  -0.00000  -0.00000   0.00000
    D9       -0.00000   0.00000   0.00000   0.00000   0.00000  -0.00000
   D10        3.14159  -0.00000   0.00000  -0.00000  -0.00000   3.14159
   D11        3.14159   0.00000   0.00000   0.00000   0.00000   3.14159
   D12        0.00000  -0.00000   0.00000  -0.00000  -0.00000   0.00000
   D13        0.00000  -0.00000   0.00000  -0.00000  -0.00000   0.00000
   D14       -3.14159  -0.00000   0.00000  -0.00000  -0.00000  -3.14159
   D15       -3.14159  -0.00000   0.00000  -0.00000  -0.00000  -3.14159
   D16        0.00000   0.00000   0.00000   0.00000   0.00000   0.00000
   D17       -0.00000   0.00000   0.00000   0.00000   0.00000  -0.00000
   D18        3.14159   0.00000   0.00000   0.00000   0.00000   3.14159
   D19        3.14159   0.00000   0.00000   0.00000   0.00000   3.14159
   D20       -0.00000   0.00000   0.00000   0.00000   0.00000  -0.00000
   D21        0.00001  -0.00000   0.00000  -0.00000  -0.00000   0.00001
   D22       -3.14159  -0.00000   0.00000  -0.00000  -0.00000  -3.14159
   D23        0.00000   0.00000   0.00000   0.00000   0.00000   0.00000
   D24       -3.14159  -0.00000   0.00000  -0.00000  -0.00000  -3.14159
   D25       -0.00000   0.00000   0.00000   0.00000   0.00000  -0.00000
   D26        3.14159   0.00000   0.00000   0.00000   0.00000   3.14159
   D27       -0.00000  -0.00000   0.00000  -0.00000  -0.00000  -0.00000
   D28        3.14159  -0.00000   0.00000  -0.00000  -0.00000   3.14159
   D29        3.14159   0.00000   0.00000   0.00000   0.00000   3.14159
   D30       -0.00000   0.00000   0.00000   0.00000   0.00000  -0.00000
   D31       -0.00000   0.00000   0.00000   0.00000   0.00000  -0.00000
   D32       -3.14159  -0.00000   0.00000  -0.00000  -0.00000  -3.14159
   D33        3.14159   0.00000   0.00000   0.00000   0.00000   3.14159
   D34        0.00000   0.00000   0.00000   0.00000   0.00000   0.00000
   D35        0.00000  -0.00000   0.00000  -0.00000  -0.00000   0.00000
   D36       -3.14159  -0.00000   0.00000  -0.00000  -0.00000  -3.14159
   D37        3.14159   0.00000   0.00000   0.00000   0.00000   3.14159
   D38        0.00000  -0.00000   0.00000  -0.00000  -0.00000   0.00000
   D39        0.00000  -0.00000   0.00000   0.00000   0.00000   0.00000
   D40       -3.14159  -0.00000   0.00000  -0.00000  -0.00000  -3.14159
   D41        3.14159   0.00000   0.00000   0.00000   0.00000   3.14159
   D42       -0.00000  -0.00000   0.00000  -0.00000  -0.00000  -0.00000
   D43        0.00001  -0.00000   0.00000  -0.00000  -0.00000   0.00001
   D44       -3.14159   0.00000   0.00000   0.00000   0.00000  -3.14159
   D45       -0.00001  -0.00000   0.00000  -0.00000  -0.00000  -0.00001
         Item               Value     Threshold  Converged?
 Maximum Force            0.403933     0.000450     NO 
 RMS     Force            0.050895     0.000300     NO 
 Maximum Displacement     0.615608     0.001800     NO 
 RMS     Displacement     0.176305     0.001200     NO 
 Predicted change in Energy=-1.161711D-01
 GradGradGradGradGradGradGradGradGradGradGradGradGradGradGradGradGradGrad

                          Input orientation:                          
 ---------------------------------------------------------------------
 Center     Atomic      Atomic             Coordinates (Angstroms)
 Number     Number       Type             X           Y           Z
 ---------------------------------------------------------------------
      1          6           0        0.650085    0.838758    0.071434
      2          6           0        1.974815    0.765359   -0.378789
      3          6           0        2.780713    1.909456   -0.429424
      4          6           0        2.270924    3.146118   -0.029214
      5          6           0        0.955119    3.244589    0.422775
      6          6           0        0.160664    2.097268    0.469033
      7          6           0       -0.026765   -0.775467   -0.008743
      8          6           0        0.605655   -1.955034   -0.438632
      9          6           0       -0.086843   -3.173362   -0.439295
     10          6           0       -1.415395   -3.230061   -0.012241
     11          6           0       -2.044826   -2.061103    0.414671
     12          6           0       -1.358699   -0.846120    0.416806
     13          1           0        2.379650   -0.173804   -0.688546
     14          1           0        3.793677    1.835933   -0.776957
     15          1           0        0.558191    4.192724    0.731611
     16         17           0       -2.211525    0.664463    0.981479
     17         17           0       -1.489993    2.242118    1.040052
     18         17           0       -3.723723   -2.115092    0.957663
     19         17           0       -2.281027   -4.764660   -0.015260
     20         17           0        3.283037    4.581114   -0.093153
     21         17           0        0.721233   -4.637397   -0.980481
     22         17           0        2.278015   -1.960855   -0.990693
 ---------------------------------------------------------------------
                    Distance matrix (angstroms):
                    1          2          3          4          5
     1  C    0.000000
     2  C    1.401071   0.000000
     3  C    2.436561   1.400355   0.000000
     4  C    2.821553   2.424438   1.396204   0.000000
     5  C    2.450409   2.798011   2.416943   1.394753   0.000000
     6  C    1.407645   2.404980   2.776176   2.408638   1.396296
     7  C    1.752221   2.552920   3.907393   4.545176   4.160667
     8  C    2.840320   3.046099   4.434551   5.381681   5.282066
     9  C    4.111084   4.446078   5.835924   6.757444   6.558882
    10  C    4.563825   5.252738   6.648007   7.365113   6.908665
    11  C    3.973607   4.977548   6.305844   6.777750   6.095088
    12  C    2.644487   3.787104   5.044209   5.413970   4.699754
    13  H    2.143420   1.068582   2.137280   3.386506   3.866488
    14  H    3.405334   2.147772   1.073443   2.143474   3.388374
    15  H    3.419556   3.871259   3.391300   2.146554   1.073262
    16  Cl   3.007884   4.402948   5.335081   5.222304   4.122721
    17  Cl   2.736342   4.024776   4.528681   4.013109   2.713770
    18  Cl   5.351713   6.523530   7.773589   8.036794   7.134693
    19  Cl   6.324336   6.987521   8.386690   9.126931   8.649426
    20  Cl   4.578728   4.043887   2.739190   1.757178   2.733439
    21  Cl   5.576726   5.578824   6.885232   7.993095   8.009340
    22  Cl   3.408241   2.810445   3.942974   5.196698   5.553791
                    6          7          8          9         10
     6  C    0.000000
     7  C    2.918220   0.000000
     8  C    4.176484   1.405751   0.000000
     9  C    5.354050   2.436982   1.401384   0.000000
    10  C    5.576380   2.820166   2.427374   1.396654   0.000000
    11  C    4.707355   2.429961   2.786472   2.408335   1.394596
    12  C    3.312812   1.400047   2.412499   2.786859   2.422905
    13  H    3.379594   2.571958   2.526321   3.891409   4.919397
    14  H    3.849619   4.690985   4.964814   6.345509   7.306402
    15  H    2.148933   5.056997   6.258326   7.486408   7.716612
    16  Cl   2.818299   2.797697   4.100607   4.611049   4.097391
    17  Cl   1.752630   3.513805   4.918773   5.786598   5.572936
    18  Cl   5.750757   4.049201   4.551787   4.037118   2.740848
    19  Cl   7.299483   4.582073   4.050454   2.743443   1.761909
    20  Cl   4.029238   6.297212   7.071701   8.462139   9.115715
    21  Cl   6.911660   4.051948   2.738984   1.757632   2.735556
    22  Cl   4.804408   2.771531   1.761134   2.714178   4.026106
                   11         12         13         14         15
    11  C    0.000000
    12  C    1.395335   0.000000
    13  H    4.935077   3.955891   0.000000
    14  H    7.120041   5.930047   2.458928   0.000000
    15  H    6.781336   5.400327   4.939749   4.277687   0.000000
    16  Cl   2.788866   1.824288   4.956870   6.366073   4.492482
    17  Cl   4.383680   3.153234   4.878408   5.602113   2.845182
    18  Cl   1.765347   2.737910   6.612849   8.667803   7.627217
    19  Cl   2.747699   4.048743   6.576563   9.002779   9.426225
    20  Cl   8.530127   7.159654   4.876458   2.874780   2.873302
    21  Cl   4.029246   4.544482   4.770665   7.168357   8.996048
    22  Cl   4.546653   4.055783   1.815262   4.093717   6.617451
                   16         17         18         19         20
    16  Cl   0.000000
    17  Cl   1.735809   0.000000
    18  Cl   3.164370   4.897103   0.000000
    19  Cl   5.520298   7.129821   3.169883   0.000000
    20  Cl   6.832657   5.434783   9.748748  10.876965   0.000000
    21  Cl   6.368679   7.503319   5.465900   3.156171   9.608909
    22  Cl   5.562169   5.998899   6.311952   5.440372   6.679297
                   21         22
    21  Cl   0.000000
    22  Cl   3.096377   0.000000
 Stoichiometry    C12H3Cl7
 Framework group  C1[X(C12H3Cl7)]
 Deg. of freedom    60
 Full point group                 C1      NOp   1
 Largest Abelian subgroup         C1      NOp   1
 Largest concise Abelian subgroup C1      NOp   1
                         Standard orientation:                         
 ---------------------------------------------------------------------
 Center     Atomic      Atomic             Coordinates (Angstroms)
 Number     Number       Type             X           Y           Z
 ---------------------------------------------------------------------
      1          6           0        1.540742    0.108935    0.000002
      2          6           0        2.054932    1.412242   -0.000002
      3          6           0        3.436760    1.639276   -0.000004
      4          6           0        4.325594    0.562541   -0.000003
      5          6           0        3.837858   -0.744153    0.000002
      6          6           0        2.458143   -0.958697    0.000004
      7          6           0       -0.207345    0.229234    0.000004
      8          6           0       -0.991125    1.396207    0.000004
      9          6           0       -2.390041    1.313080    0.000002
     10          6           0       -3.022900    0.068037    0.000000
     11          6           0       -2.247352   -1.091024   -0.000000
     12          6           0       -0.854234   -1.012405    0.000001
     13          1           0        1.387667    2.246882   -0.000005
     14          1           0        3.814294    2.644139   -0.000007
     15          1           0        4.516656   -1.575493    0.000005
     16         17           0        0.130692   -2.547967   -0.000001
     17         17           0        1.865460   -2.608072    0.000010
     18         17           0       -3.031215   -2.672798   -0.000007
     19         17           0       -4.782061   -0.030318   -0.000004
     20         17           0        6.059339    0.848553   -0.000007
     21         17           0       -3.352706    2.783639    0.000003
     22         17           0       -0.263910    3.000187    0.000002
 ---------------------------------------------------------------------
 Rotational constants (GHZ):           0.3393332           0.1291212           0.0935312
 Standard basis: 6-311+G(d,p) (5D, 7F)
 There are   511 symmetry adapted cartesian basis functions of A   symmetry.
 There are   492 symmetry adapted basis functions of A   symmetry.
   492 basis functions,   827 primitive gaussians,   511 cartesian basis functions
    97 alpha electrons       97 beta electrons
       nuclear repulsion energy      2373.3134078872 Hartrees.
 NAtoms=   22 NActive=   22 NUniq=   22 SFac= 1.00D+00 NAtFMM=   60 NAOKFM=F Big=F
 Integral buffers will be    131072 words long.
 Raffenetti 2 integral format.
 Two-electron integral symmetry is turned on.
 One-electron integrals computed using PRISM.
 NBasis=   492 RedAO= T EigKep=  1.24D-06  NBF=   492
 NBsUse=   485 1.00D-06 EigRej=  6.88D-07 NBFU=   485
 Initial guess from the checkpoint file:  "./Gau-331465.chk"
 B after Tr=     0.000000    0.000000   -0.000000
         Rot=    0.999956   -0.000000   -0.000000   -0.009359 Ang=  -1.07 deg.
 ExpMin= 4.38D-02 ExpMax= 1.06D+05 ExpMxC= 3.62D+03 IAcc=3 IRadAn=         5 AccDes= 0.00D+00
 Harris functional with IExCor=  402 and IRadAn=       5 diagonalized for initial guess.
 HarFok:  IExCor=  402 AccDes= 0.00D+00 IRadAn=         5 IDoV= 1 UseB2=F ITyADJ=14
 ICtDFT=  3500011 ScaDFX=  1.000000  1.000000  1.000000  1.000000
 FoFCou: FMM=F IPFlag=           0 FMFlag=      100000 FMFlg1=           0
         NFxFlg=           0 DoJE=T BraDBF=F KetDBF=T FulRan=T
         wScrn=  0.000000 ICntrl=       500 IOpCl=  0 I1Cent=   200000004 NGrid=           0
         NMat0=    1 NMatS0=      1 NMatT0=    0 NMatD0=    1 NMtDS0=    0 NMtDT0=    0
 Petite list used in FoFCou.
 Requested convergence on RMS density matrix=1.00D-08 within  32 cycles.
 Requested convergence on MAX density matrix=1.00D-06.
 Requested convergence on             energy=1.00D-06.
 No special actions if energy rises.
 SCF Done:  E(RB3LYP) =  -3680.30206493     A.U. after   19 cycles
            NFock= 19  Conv=0.84D-08     -V/T= 2.0022
 QCSCF skips out because SCF is already converged.
 Calling FoFJK, ICntrl=      2127 FMM=F ISym2X=0 I1Cent= 0 IOpClX= 0 NMat=1 NMatS=1 NMatT=0.
 ***** Axes restored to original set *****
 -------------------------------------------------------------------
 Center     Atomic                   Forces (Hartrees/Bohr)
 Number     Number              X              Y              Z
 -------------------------------------------------------------------
      1        6           0.010134768   -0.074240759   -0.017282182
      2        6           0.001096152    0.048217671    0.008694778
      3        6          -0.007519723    0.001487615    0.002756916
      4        6          -0.002060926   -0.010064241   -0.001211447
      5        6          -0.006420784   -0.002634674    0.001620616
      6        6           0.013160270   -0.042938248   -0.012399643
      7        6          -0.019661288    0.066295789    0.018928765
      8        6          -0.001222275    0.015046785    0.003228691
      9        6           0.005074031   -0.005446317   -0.002694606
     10        6          -0.009347411   -0.004764854    0.002184712
     11        6           0.019457361    0.001105183   -0.006202892
     12        6          -0.005060439   -0.131610568   -0.023049971
     13        1           0.001569059    0.019705248    0.003183897
     14        1           0.006518482    0.000118315   -0.002125306
     15        1          -0.003598323    0.004641012    0.002057163
     16       17          -0.083397299   -0.267100536   -0.022686171
     17       17           0.084965839    0.424220760    0.051677274
     18       17          -0.001558518   -0.000044300    0.000505111
     19       17           0.002434245    0.000346718   -0.000736891
     20       17          -0.003376819   -0.002670694    0.000610936
     21       17          -0.003553207    0.005020314    0.002113477
     22       17           0.002366805   -0.044690218   -0.009173225
 -------------------------------------------------------------------
 Cartesian Forces:  Max     0.424220760 RMS     0.068076553

 GradGradGradGradGradGradGradGradGradGradGradGradGradGradGradGradGradGrad
 Berny optimization.
 Using GEDIIS/GDIIS optimizer.
 FormGI is forming the generalized inverse of G from B-inverse, IUseBI=4.
 Internal  Forces:  Max     0.373045486 RMS     0.052390851
 Search for a local minimum.
 Step number   2 out of a maximum of  112
 All quantities printed in internal units (Hartrees-Bohrs-Radians)
 Mixed Optimization -- RFO/linear search
 Update second derivatives using D2CorX and points    1    2
 DE= -1.18D-01 DEPred=-1.16D-01 R= 1.02D+00
 TightC=F SS=  1.41D+00  RLast= 3.00D-01 DXNew= 5.0454D-01 9.0000D-01
 Trust test= 1.02D+00 RLast= 3.00D-01 DXMaxT set to 5.05D-01
 ITU=  1  0
 Use linear search instead of GDIIS.
     Eigenvalues ---    0.00238   0.00238   0.01661   0.01670   0.02070
     Eigenvalues ---    0.02070   0.02070   0.02070   0.02070   0.02070
     Eigenvalues ---    0.02070   0.02070   0.02070   0.02070   0.02070
     Eigenvalues ---    0.02070   0.02070   0.02070   0.04301   0.04697
     Eigenvalues ---    0.16000   0.16000   0.16015   0.22372   0.23511
     Eigenvalues ---    0.24571   0.25000   0.25000   0.25000   0.25000
     Eigenvalues ---    0.25000   0.25000   0.25000   0.25000   0.25000
     Eigenvalues ---    0.25000   0.28435   0.29506   0.29539   0.29539
     Eigenvalues ---    0.29539   0.29539   0.29539   0.37189   0.37217
     Eigenvalues ---    0.37230   0.41115   0.41372   0.41766   0.42210
     Eigenvalues ---    0.45212   0.45256   0.45389   0.45389   0.45389
     Eigenvalues ---    0.45389   0.45389   0.45389   0.80505   3.12500
 RFO step:  Lambda=-2.84884956D-01 EMin= 2.37799032D-03
 Quartic linear search produced a step of  0.54080.
 Maximum step size (   0.505) exceeded in Quadratic search.
    -- Step size scaled by   0.692
 Iteration  1 RMS(Cart)=  0.24952231 RMS(Int)=  0.02310470
 Iteration  2 RMS(Cart)=  0.17031730 RMS(Int)=  0.00213145
 Iteration  3 RMS(Cart)=  0.00551054 RMS(Int)=  0.00018215
 Iteration  4 RMS(Cart)=  0.00000452 RMS(Int)=  0.00018214
 Iteration  5 RMS(Cart)=  0.00000000 RMS(Int)=  0.00018214
 Variable       Old X    -DE/DX   Delta X   Delta X   Delta X     New X
                                 (Linear)    (Quad)   (Total)
    R1        2.64764   0.01364  -0.00034   0.00733   0.00733   2.65497
    R2        2.66006   0.04269   0.00638   0.03774   0.04435   2.70441
    R3        2.64629  -0.01229  -0.00107  -0.00928  -0.01025   2.63604
    R4        2.01933  -0.01765  -0.00145  -0.01383  -0.01528   2.00405
    R5        2.63844  -0.03312  -0.00531  -0.03010  -0.03566   2.60279
    R6        2.02851   0.00683   0.00352   0.01055   0.01407   2.04258
    R7        2.63570  -0.02426  -0.00679  -0.02801  -0.03515   2.60055
    R8        3.32058  -0.00415  -0.00288  -0.00705  -0.00993   3.31065
    R9        2.63862  -0.00445  -0.00522  -0.01314  -0.01844   2.62017
   R10        2.02817   0.00602   0.00333   0.00971   0.01304   2.04122
   R11        3.31199   0.01836  -0.00753   0.00272  -0.00481   3.30718
   R12        2.65649   0.05343   0.00445   0.03973   0.04425   2.70074
   R13        2.64571   0.00467  -0.00138   0.00014  -0.00101   2.64469
   R14        2.64823   0.00170  -0.00002   0.00082   0.00066   2.64889
   R15        3.32806   0.00527   0.00116   0.00544   0.00660   3.33466
   R16        2.63929  -0.02294  -0.00485  -0.02333  -0.02841   2.61089
   R17        3.32144  -0.00647  -0.00242  -0.00808  -0.01050   3.31095
   R18        2.63540  -0.02489  -0.00695  -0.02865  -0.03568   2.59973
   R19        3.32952  -0.00150   0.00195   0.00165   0.00360   3.33313
   R20        2.63680  -0.00463  -0.00620  -0.01525  -0.02131   2.61549
   R21        3.33602   0.00164   0.00546   0.00885   0.01432   3.35034
   R22        3.44741   0.08120   0.06570   0.15096   0.21666   3.66406
   R23        3.28020   0.37305   0.06429   0.31213   0.37642   3.65662
    A1        2.05595  -0.06115  -0.02079  -0.07098  -0.09090   1.96506
    A2        2.10942   0.04233   0.00813   0.04282   0.05134   2.16076
    A3        2.09140  -0.01161  -0.00162  -0.01122  -0.01303   2.07836
    A4        2.08236  -0.03071  -0.00651  -0.03160  -0.03830   2.04406
    A5        2.09804  -0.00186   0.00197  -0.00077   0.00099   2.09903
    A6        2.09303   0.00154  -0.00074   0.00108   0.00044   2.09348
    A7        2.09211   0.00032  -0.00123  -0.00030  -0.00144   2.09068
    A8        2.09426  -0.00746  -0.00007  -0.00724  -0.00797   2.08629
    A9        2.09739   0.00590   0.00162   0.00714   0.00908   2.10648
   A10        2.09154   0.00156  -0.00155   0.00011  -0.00112   2.09042
   A11        2.08230   0.01842  -0.00654   0.00843   0.00139   2.08369
   A12        2.09962  -0.00762   0.00283  -0.00293   0.00015   2.09977
   A13        2.10126  -0.01080   0.00371  -0.00550  -0.00154   2.09972
   A14        2.12639   0.00972   0.01731   0.02775   0.04515   2.17154
   A15        2.08676   0.10922  -0.00413   0.08090   0.07672   2.16348
   A16        2.07003  -0.11895  -0.01318  -0.10864  -0.12187   1.94816
   A17        2.06986  -0.05354  -0.01327  -0.05613  -0.06895   2.00091
   A18        2.10288   0.01423   0.00459   0.01653   0.02103   2.12391
   A19        2.12450   0.06839   0.01628   0.07231   0.08863   2.21313
   A20        2.05581  -0.08263  -0.02087  -0.08884  -0.10966   1.94615
   A21        2.10042   0.01338   0.00326   0.01354   0.01640   2.11682
   A22        2.09106  -0.00553  -0.00180  -0.00606  -0.00767   2.08340
   A23        2.09170  -0.00785  -0.00145  -0.00748  -0.00874   2.08297
   A24        2.08163  -0.01603  -0.00690  -0.02136  -0.02861   2.05302
   A25        2.09692   0.00454   0.00136   0.00556   0.00709   2.10401
   A26        2.10464   0.01149   0.00554   0.01580   0.02151   2.12615
   A27        2.10412   0.01785   0.00526   0.01982   0.02511   2.12923
   A28        2.09181  -0.00891  -0.00140  -0.00849  -0.00991   2.08190
   A29        2.08726  -0.00893  -0.00386  -0.01132  -0.01520   2.07206
   A30        2.10747   0.02410   0.00707   0.02760   0.03501   2.14249
   A31        2.09098   0.02020  -0.00185   0.01346   0.01144   2.10242
   A32        2.08474  -0.04431  -0.00522  -0.04106  -0.04646   2.03828
   A33        2.17574   0.26849   0.04399   0.26124   0.30523   2.48097
   A34        1.88113   0.03621  -0.11533  -0.10373  -0.21906   1.66207
    D1        0.00000  -0.00000  -0.00000  -0.00000  -0.00000   0.00000
    D2        3.14159  -0.00000   0.00000  -0.00000  -0.00000   3.14159
    D3       -0.00000   0.00000  -0.00000   0.00000   0.00000  -0.00000
    D4        3.14159   0.00000   0.00000   0.00000   0.00000   3.14159
    D5        0.00000   0.00000   0.00000  -0.00000  -0.00000   0.00000
    D6        3.14159   0.00000   0.00000   0.00000   0.00000   3.14159
    D7       -3.14159  -0.00000  -0.00000  -0.00000  -0.00000  -3.14159
    D8        0.00000  -0.00000  -0.00000   0.00000  -0.00000   0.00000
    D9       -0.00000   0.00000   0.00000   0.00000   0.00000  -0.00000
   D10        3.14159  -0.00000  -0.00000   0.00000  -0.00000   3.14159
   D11        3.14159   0.00000   0.00000   0.00000   0.00000   3.14159
   D12        0.00000  -0.00000  -0.00000  -0.00000  -0.00000   0.00000
   D13        0.00000  -0.00000  -0.00000  -0.00000  -0.00000   0.00000
   D14       -3.14159  -0.00000  -0.00000  -0.00000  -0.00000  -3.14159
   D15       -3.14159   0.00000  -0.00000   0.00000   0.00000  -3.14159
   D16        0.00000  -0.00000   0.00000  -0.00000  -0.00000   0.00000
   D17       -0.00000   0.00000   0.00000  -0.00000   0.00000  -0.00000
   D18        3.14159  -0.00000   0.00000  -0.00000  -0.00000   3.14159
   D19        3.14159   0.00000   0.00000   0.00000   0.00000   3.14159
   D20       -0.00000  -0.00000   0.00000  -0.00000  -0.00000  -0.00000
   D21        0.00001  -0.00000  -0.00000   0.00000  -0.00000   0.00001
   D22       -3.14159   0.00000  -0.00000   0.00000   0.00000  -3.14159
   D23        0.00000  -0.00000   0.00000  -0.00000  -0.00000   0.00000
   D24       -3.14159  -0.00000  -0.00000  -0.00000  -0.00000  -3.14159
   D25       -0.00000   0.00000   0.00000   0.00000   0.00000  -0.00000
   D26        3.14159   0.00000   0.00000   0.00000   0.00000   3.14159
   D27       -0.00000  -0.00000  -0.00000  -0.00000  -0.00000  -0.00000
   D28        3.14159  -0.00000  -0.00000  -0.00000  -0.00000   3.14159
   D29        3.14159   0.00000   0.00000   0.00000   0.00000   3.14159
   D30       -0.00000   0.00000   0.00000   0.00000   0.00000  -0.00000
   D31       -0.00000   0.00000   0.00000   0.00000   0.00000   0.00000
   D32       -3.14159  -0.00000  -0.00000  -0.00000  -0.00000  -3.14159
   D33        3.14159   0.00000   0.00000   0.00000   0.00000  -3.14159
   D34        0.00000   0.00000   0.00000  -0.00000   0.00000   0.00000
   D35        0.00000  -0.00000  -0.00000  -0.00000  -0.00000  -0.00000
   D36       -3.14159  -0.00000  -0.00000  -0.00000  -0.00000  -3.14159
   D37        3.14159   0.00000   0.00000   0.00000   0.00000   3.14159
   D38        0.00000  -0.00000  -0.00000  -0.00000  -0.00000   0.00000
   D39        0.00000  -0.00000   0.00000  -0.00000  -0.00000   0.00000
   D40       -3.14159  -0.00000  -0.00000  -0.00000  -0.00000  -3.14159
   D41        3.14159   0.00000   0.00000   0.00000   0.00000   3.14159
   D42       -0.00000  -0.00000  -0.00000  -0.00000  -0.00000  -0.00000
   D43        0.00001  -0.00000  -0.00000  -0.00000  -0.00000   0.00001
   D44       -3.14159   0.00000   0.00000   0.00000   0.00000  -3.14159
   D45       -0.00001  -0.00000  -0.00000  -0.00000  -0.00000  -0.00001
         Item               Value     Threshold  Converged?
 Maximum Force            0.373045     0.000450     NO 
 RMS     Force            0.052391     0.000300     NO 
 Maximum Displacement     1.997504     0.001800     NO 
 RMS     Displacement     0.409485     0.001200     NO 
 Predicted change in Energy=-2.758472D-01
 GradGradGradGradGradGradGradGradGradGradGradGradGradGradGradGradGradGrad

                          Input orientation:                          
 ---------------------------------------------------------------------
 Center     Atomic      Atomic             Coordinates (Angstroms)
 Number     Number       Type             X           Y           Z
 ---------------------------------------------------------------------
      1          6           0        0.805976    1.029479    0.055891
      2          6           0        2.142026    1.149888   -0.361660
      3          6           0        2.847620    2.353189   -0.368127
      4          6           0        2.240230    3.516347    0.050433
      5          6           0        0.931734    3.483471    0.475344
      6          6           0        0.246285    2.278216    0.474807
      7          6           0        0.170021   -1.209728   -0.155137
      8          6           0        0.570244   -2.528191   -0.534613
      9          6           0       -0.307988   -3.617400   -0.449832
     10          6           0       -1.602827   -3.461206    0.006100
     11          6           0       -2.001276   -2.197122    0.374779
     12          6           0       -1.149964   -1.108499    0.298758
     13          1           0        2.658107    0.285130   -0.694093
     14          1           0        3.875208    2.374347   -0.702695
     15          1           0        0.443165    4.388222    0.806224
[...]
                 (A) (A) (A) (A) (A) (A) (A) (A) (A) (A) (A) (A)
                 (A) (A) (A) (A) (A) (A) (A) (A) (A) (A) (A) (A)
                 (A) (A) (A) (A) (A) (A) (A) (A) (A) (A) (A) (A)
                 (A) (A) (A) (A) (A) (A) (A) (A) (A) (A) (A) (A)
                 (A) (A) (A) (A) (A) (A) (A) (A) (A) (A) (A) (A)
                 (A) (A) (A) (A) (A) (A) (A) (A) (A) (A) (A) (A)
                 (A) (A) (A) (A) (A) (A) (A) (A) (A) (A) (A) (A)
                 (A) (A) (A) (A) (A) (A) (A) (A) (A) (A) (A) (A)
                 (A) (A) (A) (A) (A) (A) (A) (A) (A) (A) (A) (A)
                 (A) (A) (A) (A) (A) (A) (A) (A) (A) (A) (A) (A)
                 (A) (A) (A) (A) (A) (A) (A) (A) (A) (A) (A) (A)
                 (A) (A) (A) (A) (A) (A) (A) (A) (A) (A) (A) (A)
                 (A) (A) (A) (A) (A) (A) (A) (A) (A) (A) (A) (A)
                 (A) (A) (A) (A) (A) (A) (A) (A) (A) (A) (A) (A)
                 (A) (A) (A) (A) (A) (A) (A) (A) (A) (A) (A) (A)
                 (A) (A) (A) (A) (A) (A) (A) (A) (A) (A) (A) (A)
                 (A) (A) (A) (A) (A) (A) (A) (A) (A) (A) (A) (A)
                 (A) (A) (A) (A) (A) (A) (A) (A) (A) (A) (A) (A)
                 (A) (A) (A) (A) (A) (A) (A) (A) (A) (A) (A) (A)
                 (A) (A) (A) (A) (A) (A)
 The electronic state is 1-A.
 Alpha  occ. eigenvalues -- -101.58453-101.58335-101.58335-101.58179-101.58179
 Alpha  occ. eigenvalues -- -101.57349-101.57210 -10.28837 -10.28517 -10.28511
 Alpha  occ. eigenvalues --  -10.28374 -10.28373 -10.26883 -10.26589 -10.24544
 Alpha  occ. eigenvalues --  -10.22978 -10.21619 -10.21617 -10.21169  -9.49920
 Alpha  occ. eigenvalues --   -9.49801  -9.49801  -9.49655  -9.49654  -9.48820
 Alpha  occ. eigenvalues --   -9.48665  -7.26428  -7.26309  -7.26309  -7.26150
 Alpha  occ. eigenvalues --   -7.26149  -7.25400  -7.25309  -7.25287  -7.25280
 Alpha  occ. eigenvalues --   -7.25279  -7.25193  -7.25193  -7.25136  -7.25135
 Alpha  occ. eigenvalues --   -7.25133  -7.25056  -7.25056  -7.24300  -7.24258
 Alpha  occ. eigenvalues --   -7.24146  -7.24106  -0.97389  -0.93553  -0.92809
 Alpha  occ. eigenvalues --   -0.91495  -0.89388  -0.88268  -0.87249  -0.85257
 Alpha  occ. eigenvalues --   -0.84164  -0.79633  -0.77365  -0.74854  -0.74248
 Alpha  occ. eigenvalues --   -0.66118  -0.64768  -0.63531  -0.61484  -0.56447
 Alpha  occ. eigenvalues --   -0.55642  -0.52598  -0.52138  -0.49731  -0.48781
 Alpha  occ. eigenvalues --   -0.47594  -0.47105  -0.46995  -0.46301  -0.44500
 Alpha  occ. eigenvalues --   -0.44457  -0.42774  -0.41463  -0.40787  -0.40572
 Alpha  occ. eigenvalues --   -0.39326  -0.38258  -0.36586  -0.36202  -0.36103
 Alpha  occ. eigenvalues --   -0.35804  -0.34975  -0.34031  -0.33992  -0.33587
 Alpha  occ. eigenvalues --   -0.33299  -0.32972  -0.31689  -0.28349  -0.27796
 Alpha  occ. eigenvalues --   -0.27046  -0.26976
 Alpha virt. eigenvalues --   -0.06648  -0.06528  -0.06109  -0.05312  -0.04925
 Alpha virt. eigenvalues --   -0.01902  -0.01076  -0.00674   0.00071   0.01051
 Alpha virt. eigenvalues --    0.01400   0.01771   0.02163   0.02595   0.02928
 Alpha virt. eigenvalues --    0.03605   0.04098   0.04675   0.05063   0.05310
 Alpha virt. eigenvalues --    0.05951   0.06339   0.06574   0.07563   0.07843
 Alpha virt. eigenvalues --    0.08131   0.08141   0.08322   0.08522   0.09059
 Alpha virt. eigenvalues --    0.09341   0.09664   0.10329   0.10456   0.10888
 Alpha virt. eigenvalues --    0.11299   0.11324   0.11643   0.11671   0.12399
 Alpha virt. eigenvalues --    0.12429   0.13173   0.13718   0.13806   0.14406
 Alpha virt. eigenvalues --    0.14472   0.14782   0.15500   0.15771   0.15807
 Alpha virt. eigenvalues --    0.16005   0.17078   0.17413   0.17631   0.17706
 Alpha virt. eigenvalues --    0.18030   0.18203   0.18947   0.19194   0.19703
 Alpha virt. eigenvalues --    0.19958   0.19987   0.20382   0.20872   0.21108
 Alpha virt. eigenvalues --    0.21669   0.21836   0.22072   0.22880   0.23252
 Alpha virt. eigenvalues --    0.23524   0.23950   0.24220   0.24233   0.24725
 Alpha virt. eigenvalues --    0.25565   0.25618   0.26043   0.26849   0.27166
 Alpha virt. eigenvalues --    0.27423   0.27694   0.27765   0.28403   0.28557
 Alpha virt. eigenvalues --    0.28969   0.29151   0.29662   0.30218   0.30470
 Alpha virt. eigenvalues --    0.30522   0.31490   0.31938   0.33275   0.34577
 Alpha virt. eigenvalues --    0.36072   0.38343   0.40378   0.42094   0.42646
 Alpha virt. eigenvalues --    0.42712   0.43190   0.43568   0.44893   0.44939
 Alpha virt. eigenvalues --    0.45532   0.45536   0.45957   0.46301   0.47487
 Alpha virt. eigenvalues --    0.47573   0.48078   0.48513   0.48559   0.49242
 Alpha virt. eigenvalues --    0.49749   0.50227   0.50620   0.50953   0.51867
 Alpha virt. eigenvalues --    0.53559   0.54503   0.55956   0.56980   0.57219
 Alpha virt. eigenvalues --    0.57225   0.57723   0.57800   0.59718   0.59991
 Alpha virt. eigenvalues --    0.60272   0.60872   0.61249   0.61383   0.61948
 Alpha virt. eigenvalues --    0.62682   0.64254   0.64568   0.64711   0.65471
 Alpha virt. eigenvalues --    0.66181   0.66926   0.67922   0.68565   0.69583
 Alpha virt. eigenvalues --    0.69840   0.70588   0.71588   0.75638   0.78223
 Alpha virt. eigenvalues --    0.78433   0.78977   0.80707   0.81386   0.81587
 Alpha virt. eigenvalues --    0.82643   0.82967   0.83493   0.83565   0.83684
 Alpha virt. eigenvalues --    0.83763   0.83866   0.84131   0.84310   0.84763
 Alpha virt. eigenvalues --    0.85265   0.85517   0.85871   0.86132   0.87085
 Alpha virt. eigenvalues --    0.87209   0.88675   0.89037   0.89349   0.89768
 Alpha virt. eigenvalues --    0.89923   0.90428   0.91535   0.92125   0.92146
 Alpha virt. eigenvalues --    0.93097   0.93954   0.94058   0.94283   0.94649
 Alpha virt. eigenvalues --    0.95312   0.95686   0.96319   0.97380   0.98062
 Alpha virt. eigenvalues --    0.99147   0.99410   1.00888   1.02035   1.03191
 Alpha virt. eigenvalues --    1.04043   1.05270   1.06570   1.07091   1.08191
 Alpha virt. eigenvalues --    1.09678   1.10358   1.15175   1.17160   1.18113
 Alpha virt. eigenvalues --    1.18410   1.19903   1.20144   1.23905   1.24165
 Alpha virt. eigenvalues --    1.25042   1.26671   1.26923   1.27384   1.27436
 Alpha virt. eigenvalues --    1.28355   1.29138   1.29566   1.30806   1.31710
 Alpha virt. eigenvalues --    1.32642   1.35181   1.38658   1.39105   1.41400
 Alpha virt. eigenvalues --    1.46049   1.46337   1.48781   1.51895   1.52596
 Alpha virt. eigenvalues --    1.54797   1.56041   1.57217   1.60294   1.60800
 Alpha virt. eigenvalues --    1.64893   1.65100   1.67423   1.68901   1.70005
 Alpha virt. eigenvalues --    1.71859   1.74027   1.74151   1.77214   1.78986
 Alpha virt. eigenvalues --    1.80812   1.81687   1.82293   1.82790   1.86609
 Alpha virt. eigenvalues --    1.88320   1.88575   1.91798   1.92363   1.94503
 Alpha virt. eigenvalues --    1.96753   1.97066   1.98971   1.99673   2.03617
 Alpha virt. eigenvalues --    2.05776   2.11774   2.11866   2.12624   2.13221
 Alpha virt. eigenvalues --    2.22047   2.22176   2.23000   2.23381   2.23693
 Alpha virt. eigenvalues --    2.24772   2.26249   2.26896   2.27704   2.30996
 Alpha virt. eigenvalues --    2.31280   2.33058   2.33449   2.34287   2.34488
 Alpha virt. eigenvalues --    2.38808   2.39274   2.40584   2.41311   2.42699
 Alpha virt. eigenvalues --    2.42906   2.45286   2.46916   2.47519   2.49725
 Alpha virt. eigenvalues --    2.51944   2.52340   2.55207   2.56084   2.56777
 Alpha virt. eigenvalues --    2.59364   2.63121   2.63810   2.65510   2.66351
 Alpha virt. eigenvalues --    2.67973   2.70111   2.71854   2.72877   2.73531
 Alpha virt. eigenvalues --    2.75891   2.77564   2.79267   2.81668   2.82384
 Alpha virt. eigenvalues --    2.83051   2.85755   2.88899   2.95937   2.97275
 Alpha virt. eigenvalues --    3.04604   3.06584   3.09658   3.10969   3.12013
 Alpha virt. eigenvalues --    3.12499   3.13678   3.14650   3.19738   3.23272
 Alpha virt. eigenvalues --    3.23750   3.27402   3.31951   3.42445   3.49902
 Alpha virt. eigenvalues --    3.50579   3.55091   3.62296   3.69485   3.78504
 Alpha virt. eigenvalues --    3.82256   3.88136   3.91823   4.05421   4.11976
 Alpha virt. eigenvalues --    4.30754   4.80050   4.81104   9.73615   9.76802
 Alpha virt. eigenvalues --    9.78241   9.80597   9.81276   9.83215   9.85303
 Alpha virt. eigenvalues --   23.27302  23.52566  23.76747  23.81300  23.86544
 Alpha virt. eigenvalues --   23.90741  23.92011  23.93878  23.97369  24.04817
 Alpha virt. eigenvalues --   24.07901  24.14299  25.76347  25.78436  25.81835
 Alpha virt. eigenvalues --   25.84295  25.85436  25.96697  25.97274  26.08774
 Alpha virt. eigenvalues --   26.08892  26.10593  26.19001  26.24304  26.32985
 Alpha virt. eigenvalues --   26.36871  26.46844  26.54220  26.58045  26.69275
 Alpha virt. eigenvalues --   26.76808  26.81497  27.13999 215.72692 215.75911
 Alpha virt. eigenvalues --  215.77740 215.80492 215.81338 215.83866 215.86276
          Condensed to atoms (all electrons):
               1          2          3          4          5          6
     1  C   34.525283  -4.142138  -4.127605  -5.549755   0.488305  -1.202683
     2  C   -4.142138  16.172789  -2.042547  -0.018429   2.531792  -7.854545
     3  C   -4.127605  -2.042547  21.778993  -3.257328 -11.951972   1.890729
     4  C   -5.549755  -0.018429  -3.257328  19.324559  -0.704837   0.577146
     5  C    0.488305   2.531792 -11.951972  -0.704837  26.667525  -6.542109
     6  C   -1.202683  -7.854545   1.890729   0.577146  -6.542109  45.450849
     7  C    8.631604  -2.216048   1.120327  -2.061288  -1.363489  -4.643158
     8  C   -3.386107   0.502044   0.724230  -0.719722  -1.137203  -6.424796
     9  C   -5.981299   1.081928   0.375678  -0.098134  -0.383277  -3.533628
    10  C   -2.590477   0.946868  -0.027792  -0.059643  -0.049850  -1.543554
    11  C   -5.980381   1.081587   0.374663  -0.097530  -0.382689  -3.524026
    12  C   -3.393414   0.504225   0.725002  -0.719832  -1.137645  -6.433121
    13  H   -0.048655   0.341144  -0.043015  -0.030025  -0.044014  -0.129473
    14  H    0.032590  -0.058255   0.289677   0.039800   0.073528  -0.026793
    15  H    0.092882  -0.035997   0.082573   0.014219   0.212553  -0.018213
    16  Cl  -0.017402   0.073641   0.047168   0.045860   0.049542   0.593993
    17  Cl  -0.654611  -0.503523   0.448042  -0.423963  -0.637116   0.391031
    18  Cl  -0.242951   0.023365   0.005867   0.001657  -0.004139  -0.073715
    19  Cl  -0.164169   0.018924   0.005162  -0.002588  -0.007114  -0.094706
    20  Cl  -0.340333   0.193495   0.190534  -1.195205   0.461655  -0.018909
    21  Cl  -0.242785   0.023295   0.005918   0.001640  -0.004177  -0.073933
    22  Cl  -0.021124   0.074452   0.046963   0.046106   0.049387   0.596802
               7          8          9         10         11         12
     1  C    8.631604  -3.386107  -5.981299  -2.590477  -5.980381  -3.393414
     2  C   -2.216048   0.502044   1.081928   0.946868   1.081587   0.504225
     3  C    1.120327   0.724230   0.375678  -0.027792   0.374663   0.725002
     4  C   -2.061288  -0.719722  -0.098134  -0.059643  -0.097530  -0.719832
     5  C   -1.363489  -1.137203  -0.383277  -0.049850  -0.382689  -1.137645
     6  C   -4.643158  -6.424796  -3.533628  -1.543554  -3.524026  -6.433121
     7  C   28.859400  -1.880157  -9.538369   3.511060  -9.538371  -1.885387
     8  C   -1.880157  19.408555  -5.448021  -6.016806  10.885031   2.691316
     9  C   -9.538369  -5.448021  31.477464  -2.760415 -10.549343  10.893059
    10  C    3.511060  -6.016806  -2.760415  23.926573  -2.757752  -6.016050
    11  C   -9.538371  10.885031 -10.549343  -2.757752  31.474072  -5.446952
    12  C   -1.885387   2.691316  10.893059  -6.016050  -5.446952  19.415002
    13  H    0.091677   0.090313   0.018693   0.015247   0.018663   0.090306
    14  H    0.003747   0.002618  -0.000131   0.000239  -0.000131   0.002616
    15  H    0.011481   0.001459  -0.000711   0.000226  -0.000711   0.001459
    16  Cl  -0.304748  -1.067259   1.538820  -0.440377  -1.723727  -0.768578
    17  Cl   0.065641   0.080047  -0.038729  -0.090557  -0.039196   0.080102
    18  Cl  -1.074256   0.682814  -0.612970  -0.460362   1.214878  -0.058195
    19  Cl   0.143186  -0.726905  -0.046243   0.929264  -0.047477  -0.726004
    20  Cl  -0.045415  -0.037977   0.000454  -0.002980   0.000462  -0.037955
    21  Cl  -1.073451  -0.057814   1.213942  -0.460543  -0.612828   0.682921
    22  Cl  -0.306769  -0.768930  -1.721831  -0.440674   1.539662  -1.067174
              13         14         15         16         17         18
     1  C   -0.048655   0.032590   0.092882  -0.017402  -0.654611  -0.242951
     2  C    0.341144  -0.058255  -0.035997   0.073641  -0.503523   0.023365
     3  C   -0.043015   0.289677   0.082573   0.047168   0.448042   0.005867
     4  C   -0.030025   0.039800   0.014219   0.045860  -0.423963   0.001657
     5  C   -0.044014   0.073528   0.212553   0.049542  -0.637116  -0.004139
     6  C   -0.129473  -0.026793  -0.018213   0.593993   0.391031  -0.073715
     7  C    0.091677   0.003747   0.011481  -0.304748   0.065641  -1.074256
     8  C    0.090313   0.002618   0.001459  -1.067259   0.080047   0.682814
     9  C    0.018693  -0.000131  -0.000711   1.538820  -0.038729  -0.612970
    10  C    0.015247   0.000239   0.000226  -0.440377  -0.090557  -0.460362
    11  C    0.018663  -0.000131  -0.000711  -1.723727  -0.039196   1.214878
    12  C    0.090306   0.002616   0.001459  -0.768578   0.080102  -0.058195
    13  H    0.533484  -0.006957   0.000054  -0.015469  -0.001587   0.000431
    14  H   -0.006957   0.507017  -0.000278  -0.000821   0.000719  -0.000001
    15  H    0.000054  -0.000278   0.491476  -0.001133  -0.005755  -0.000004
    16  Cl  -0.015469  -0.000821  -0.001133  18.860334   0.060561  -0.378868
    17  Cl  -0.001587   0.000719  -0.005755   0.060561  17.867596  -0.008313
    18  Cl   0.000431  -0.000001  -0.000004  -0.378868  -0.008313  17.567918
    19  Cl   0.000253   0.000000  -0.000000  -0.029164   0.012852  -0.235564
    20  Cl  -0.001288  -0.013196  -0.013843   0.008760  -0.022553   0.000044
    21  Cl   0.000432  -0.000001  -0.000004   0.030249  -0.008269  -0.007749
    22  Cl  -0.015473  -0.000821  -0.001131  -0.163855   0.060381   0.030288
              19         20         21         22
     1  C   -0.164169  -0.340333  -0.242785  -0.021124
     2  C    0.018924   0.193495   0.023295   0.074452
     3  C    0.005162   0.190534   0.005918   0.046963
     4  C   -0.002588  -1.195205   0.001640   0.046106
     5  C   -0.007114   0.461655  -0.004177   0.049387
     6  C   -0.094706  -0.018909  -0.073933   0.596802
     7  C    0.143186  -0.045415  -1.073451  -0.306769
     8  C   -0.726905  -0.037977  -0.057814  -0.768930
     9  C   -0.046243   0.000454   1.213942  -1.721831
    10  C    0.929264  -0.002980  -0.460543  -0.440674
    11  C   -0.047477   0.000462  -0.612828   1.539662
    12  C   -0.726004  -0.037955   0.682921  -1.067174
    13  H    0.000253  -0.001288   0.000432  -0.015473
    14  H    0.000000  -0.013196  -0.000001  -0.000821
    15  H   -0.000000  -0.013843  -0.000004  -0.001131
    16  Cl  -0.029164   0.008760   0.030249  -0.163855
    17  Cl   0.012852  -0.022553  -0.008269   0.060381
    18  Cl  -0.235564   0.000044  -0.007749   0.030288
    19  Cl  17.556858   0.000001  -0.235267  -0.029251
    20  Cl   0.000001  17.443921   0.000044   0.008766
    21  Cl  -0.235267   0.000044  17.567884  -0.379237
    22  Cl  -0.029251   0.008766  -0.379237  18.860864
 Mulliken charges:
               1
     1  C    0.315224
     2  C   -0.698068
     3  C   -0.661266
     4  C    0.887291
     5  C   -0.184653
     6  C   -1.363187
     7  C   -0.507218
     8  C   -1.396731
     9  C    0.113062
    10  C    0.388354
    11  C    0.112096
    12  C   -1.395702
    13  H    0.135260
    14  H    0.154831
    15  H    0.169396
    16  Cl   0.602475
    17  Cl   0.367201
    18  Cl   0.629825
    19  Cl   0.677952
    20  Cl   0.421521
    21  Cl   0.629734
    22  Cl   0.602602
 Sum of Mulliken charges =  -0.00000
 Mulliken charges with hydrogens summed into heavy atoms:
               1
     1  C    0.315224
     2  C   -0.562807
     3  C   -0.506435
     4  C    0.887291
     5  C   -0.015257
     6  C   -1.363187
     7  C   -0.507218
     8  C   -1.396731
     9  C    0.113062
    10  C    0.388354
    11  C    0.112096
    12  C   -1.395702
    16  Cl   0.602475
    17  Cl   0.367201
    18  Cl   0.629825
    19  Cl   0.677952
    20  Cl   0.421521
    21  Cl   0.629734
    22  Cl   0.602602
 Electronic spatial extent (au):  <R**2>=           9259.3794
 Charge=              0.0000 electrons
 Dipole moment (field-independent basis, Debye):
    X=              0.4951    Y=              0.0012    Z=              1.2348  Tot=              1.3303
 Quadrupole moment (field-independent basis, Debye-Ang):
   XX=           -159.6363   YY=           -159.4383   ZZ=           -152.4387
   XY=              0.0007   XZ=              1.4057   YZ=              0.0037
 Traceless Quadrupole moment (field-independent basis, Debye-Ang):
   XX=             -2.4652   YY=             -2.2672   ZZ=              4.7324
   XY=              0.0007   XZ=              1.4057   YZ=              0.0037
 Octapole moment (field-independent basis, Debye-Ang**2):
  XXX=            -46.8998  YYY=              0.0109  ZZZ=              3.5350  XYY=            -11.9706
  XXY=             -0.0070  XXZ=             -7.1402  XZZ=              9.0563  YZZ=              0.0064
  YYZ=             -4.2470  XYZ=              0.0079
 Hexadecapole moment (field-independent basis, Debye-Ang**3):
 XXXX=          -8647.0038 YYYY=          -2498.2286 ZZZZ=           -896.8440 XXXY=              0.0267
 XXXZ=            -38.4396 YYYX=             -0.0298 YYYZ=             -0.0194 ZZZX=             26.6246
 ZZZY=              0.0365 XXYY=          -1856.4201 XXZZ=          -1545.3550 YYZZ=           -606.9283
 XXYZ=              0.0336 YYXZ=             -4.6880 ZZXY=              0.0145
 N-N= 2.372685830524D+03 E-N=-1.346665589403D+04  KE= 3.671256527850D+03
 1\1\GINC-CN030\FOpt\RB3LYP\6-311+G(d,p)\C12H3Cl7\20CY91R06\14-Apr-2022
 \0\\# opt b3lyp/6-311+g(d,p) scf=xqc\\Title Card Required\\0,1\C,0.715
 5288129,0.6584816592,-0.0354350523\C,1.3342822331,1.0448922539,-1.2281
 819287\C,2.0038254617,2.257238593,-1.3421162202\C,2.0551124379,3.10139
 12249,-0.2374232223\C,1.4530228457,2.7537119451,0.9657703982\C,0.78905
 40936,1.5335971944,1.0523042577\C,0.0057216261,-0.651426489,0.04750374
 23\C,0.6855522631,-1.8123387177,0.4357455935\C,0.0339636701,-3.0498779
 55,0.5023133586\C,-1.3262948686,-3.1311322273,0.1739554504\C,-2.024603
 0052,-1.9808066849,-0.2181724891\C,-1.3523500723,-0.7540643756,-0.2777
 362589\H,1.2882093887,0.3797070427,-2.0824532392\H,2.4779519573,2.5430
 903651,-2.271605475\H,1.4969733694,3.4146424966,1.8201423436\Cl,-2.212
 4855565,0.6830262162,-0.7587604894\Cl,0.0344304034,1.1095320275,2.5770
 716026\Cl,-3.7086142886,-2.0798090157,-0.6260859017\Cl,-2.1465831083,-
 4.6584166016,0.2510327298\Cl,2.8946300181,4.636504715,-0.3577930735\Cl
 ,0.9007171697,-4.4732218092,0.9867360769\Cl,2.3749389486,-1.6997778977
 ,0.8472824566\\Version=EM64L-G16RevB.01\State=1-A\HF=-3680.743815\RMSD
 =5.502e-09\RMSF=2.687e-05\Dipole=0.2140169,0.0957636,-0.4679404\Quadru
 pole=-1.1377997,-1.9625152,3.100315,-0.1105739,-1.7268078,-0.0948832\P
 G=C01 [X(C12H3Cl7)]\\@


     SCHOPENHAUER'S LAW OF ENTROPY
 IF YOU PUT A SPOONFUL OF WINE IN A BARREL FULL
 OF SEWAGE, YOU GET SEWAGE.
 IF YOU PUT A SPOONFUL OF SEWAGE IN A BARREL FULL
 OF WINE, YOU GET SEWAGE.
 Job cpu time:       1 days 23 hours 21 minutes 25.6 seconds.
 Elapsed time:       0 days 23 hours 40 minutes 59.3 seconds.
 File lengths (MBytes):  RWF=    163 Int=      0 D2E=      0 Chk=     23 Scr=      1
 Normal termination of Gaussian 16 at Thu Apr 14 16:51:00 2022.
