 Entering Gaussian System, Link 0=g16
 Input=2,2prime,3,3prime,4,4prime,5,5prime-Octachlorobiphenyl.gjf
 Output=2,2prime,3,3prime,4,4prime,5,5prime-Octachlorobiphenyl.log
 Initial command:
 /home/apps/g16/l1.exe "./Gau-296731.inp" -scrdir="./"
 Entering Link 1 = /home/apps/g16/l1.exe PID=    296739.
  
 Copyright (c) 1988-2017, Gaussian, Inc.  All Rights Reserved.
  
 This is part of the Gaussian(R) 16 program.  It is based on
 the Gaussian(R) 09 system (copyright 2009, Gaussian, Inc.),
 the Gaussian(R) 03 system (copyright 2003, Gaussian, Inc.),
 the Gaussian(R) 98 system (copyright 1998, Gaussian, Inc.),
 the Gaussian(R) 94 system (copyright 1995, Gaussian, Inc.),
 the Gaussian 92(TM) system (copyright 1992, Gaussian, Inc.),
 the Gaussian 90(TM) system (copyright 1990, Gaussian, Inc.),
 the Gaussian 88(TM) system (copyright 1988, Gaussian, Inc.),
 the Gaussian 86(TM) system (copyright 1986, Carnegie Mellon
 University), and the Gaussian 82(TM) system (copyright 1983,
 Carnegie Mellon University). Gaussian is a federally registered
 trademark of Gaussian, Inc.
  
 This software contains proprietary and confidential information,
 including trade secrets, belonging to Gaussian, Inc.
  
 This software is provided under written license and may be
 used, copied, transmitted, or stored only in accord with that
 written license.
  
 The following legend is applicable only to US Government
 contracts under FAR:
  
                    RESTRICTED RIGHTS LEGEND
  
 Use, reproduction and disclosure by the US Government is
 subject to restrictions as set forth in subparagraphs (a)
 and (c) of the Commercial Computer Software - Restricted
 Rights clause in FAR 52.227-19.
  
 Gaussian, Inc.
 340 Quinnipiac St., Bldg. 40, Wallingford CT 06492
  
  
 ---------------------------------------------------------------
 Warning -- This program may not be used in any manner that
 competes with the business of Gaussian, Inc. or will provide
 assistance to any competitor of Gaussian, Inc.  The licensee
 of this program is prohibited from giving any competitor of
 Gaussian, Inc. access to this program.  By using this program,
 the user acknowledges that Gaussian, Inc. is engaged in the
 business of creating and licensing software in the field of
 computational chemistry and represents and warrants to the
 licensee that it is not a competitor of Gaussian, Inc. and that
 it will not use this program in any manner prohibited above.
 ---------------------------------------------------------------
  

 Cite this work as:
 Gaussian 16, Revision B.01,
 M. J. Frisch, G. W. Trucks, H. B. Schlegel, G. E. Scuseria, 
 M. A. Robb, J. R. Cheeseman, G. Scalmani, V. Barone, 
 G. A. Petersson, H. Nakatsuji, X. Li, M. Caricato, A. V. Marenich, 
 J. Bloino, B. G. Janesko, R. Gomperts, B. Mennucci, H. P. Hratchian, 
 J. V. Ortiz, A. F. Izmaylov, J. L. Sonnenberg, D. Williams-Young, 
 F. Ding, F. Lipparini, F. Egidi, J. Goings, B. Peng, A. Petrone, 
 T. Henderson, D. Ranasinghe, V. G. Zakrzewski, J. Gao, N. Rega, 
 G. Zheng, W. Liang, M. Hada, M. Ehara, K. Toyota, R. Fukuda, 
 J. Hasegawa, M. Ishida, T. Nakajima, Y. Honda, O. Kitao, H. Nakai, 
 T. Vreven, K. Throssell, J. A. Montgomery, Jr., J. E. Peralta, 
 F. Ogliaro, M. J. Bearpark, J. J. Heyd, E. N. Brothers, K. N. Kudin, 
 V. N. Staroverov, T. A. Keith, R. Kobayashi, J. Normand, 
 K. Raghavachari, A. P. Rendell, J. C. Burant, S. S. Iyengar, 
 J. Tomasi, M. Cossi, J. M. Millam, M. Klene, C. Adamo, R. Cammi, 
 J. W. Ochterski, R. L. Martin, K. Morokuma, O. Farkas, 
 J. B. Foresman, and D. J. Fox, Gaussian, Inc., Wallingford CT, 2016.
 
 ******************************************
 Gaussian 16:  EM64L-G16RevB.01 20-Dec-2017
                 2-Apr-2022 
 ******************************************
 %mem=32GB
 %nprocshared=16
 Will use up to   16 processors via shared memory.
 --------------------------------
 # opt b3lyp/6-311+g(d,p) scf=xqc
 --------------------------------
 1/18=20,19=15,26=3,38=1/1,3;
 2/9=110,12=2,17=6,18=5,40=1/2;
 3/5=4,6=6,7=111,11=2,25=1,30=1,71=1,74=-5/1,2,3;
 4//1;
 5/5=2,8=3,13=1,38=5/2,8;
 6/7=2,8=2,9=2,10=2,28=1/1;
 7//1,2,3,16;
 1/18=20,19=15,26=3/3(2);
 2/9=110/2;
 99//99;
 2/9=110/2;
 3/5=4,6=6,7=111,11=2,25=1,30=1,71=1,74=-5/1,2,3;
 4/5=5,16=3,69=1/1;
 5/5=2,8=3,13=1,38=5/2,8;
 7//1,2,3,16;
 1/18=20,19=15,26=3/3(-5);
 2/9=110/2;
 6/7=2,8=2,9=2,10=2,19=2,28=1/1;
 99/9=1/99;
 -------------------
 Title Card Required
 -------------------
 Symbolic Z-matrix:
 Charge =  0 Multiplicity = 1
 C                     0.91262   0.18081  -0.00392 
 C                     2.245     0.2107   -0.43726 
 C                     2.95289   1.42015  -0.44333 
 C                     2.32841   2.59971  -0.01606 
 C                     0.99602   2.56983   0.41728 
 C                     0.28813   1.36038   0.42336 
 C                    -0.11356  -1.57244   0.00489 
 C                     0.51093  -2.752    -0.42239 
 C                    -0.19697  -3.96145  -0.41631 
 C                    -1.52935  -3.99134   0.01704 
 C                    -2.15383  -2.81177   0.44431 
 C                    -1.44594  -1.60232   0.43824 
 H                     2.72181  -0.68993  -0.76349 
 H                     1.52823  -2.72918  -0.75326 
 Cl                   -2.23022  -0.12092   0.97485 
 Cl                   -1.38519   1.32284   0.96759 
 Cl                   -3.82715  -2.84931   0.98855 
 Cl                    0.21174   4.05123   0.95389 
 Cl                   -2.41838  -5.51027   0.02467 
 Cl                    3.21744   4.11865  -0.02369 
 Cl                    0.58732  -5.44285  -0.95292 
 Cl                    4.62621   1.45768  -0.98757 
 

 GradGradGradGradGradGradGradGradGradGradGradGradGradGradGradGradGradGrad
 Berny optimization.
 Initialization pass.
                           ----------------------------
                           !    Initial Parameters    !
                           ! (Angstroms and Degrees)  !
 --------------------------                            --------------------------
 ! Name  Definition              Value          Derivative Info.                !
 --------------------------------------------------------------------------------
 ! R1    R(1,2)                  1.4014         estimate D2E/DX2                !
 ! R2    R(1,6)                  1.4014         estimate D2E/DX2                !
 ! R3    R(2,3)                  1.4014         estimate D2E/DX2                !
 ! R4    R(2,13)                 1.07           estimate D2E/DX2                !
 ! R5    R(3,4)                  1.4014         estimate D2E/DX2                !
 ! R6    R(3,22)                 1.76           estimate D2E/DX2                !
 ! R7    R(4,5)                  1.4014         estimate D2E/DX2                !
 ! R8    R(4,20)                 1.76           estimate D2E/DX2                !
 ! R9    R(5,6)                  1.4014         estimate D2E/DX2                !
 ! R10   R(5,18)                 1.76           estimate D2E/DX2                !
 ! R11   R(6,16)                 1.76           estimate D2E/DX2                !
 ! R12   R(7,8)                  1.4014         estimate D2E/DX2                !
 ! R13   R(7,12)                 1.4014         estimate D2E/DX2                !
 ! R14   R(8,9)                  1.4014         estimate D2E/DX2                !
 ! R15   R(8,14)                 1.07           estimate D2E/DX2                !
 ! R16   R(9,10)                 1.4014         estimate D2E/DX2                !
 ! R17   R(9,21)                 1.76           estimate D2E/DX2                !
 ! R18   R(10,11)                1.4014         estimate D2E/DX2                !
 ! R19   R(10,19)                1.76           estimate D2E/DX2                !
 ! R20   R(11,12)                1.4014         estimate D2E/DX2                !
 ! R21   R(11,17)                1.76           estimate D2E/DX2                !
 ! R22   R(12,15)                1.76           estimate D2E/DX2                !
 ! R23   R(15,16)                1.6729         estimate D2E/DX2                !
 ! A1    A(2,1,6)              120.0            estimate D2E/DX2                !
 ! A2    A(1,2,3)              120.0            estimate D2E/DX2                !
 ! A3    A(1,2,13)             120.0            estimate D2E/DX2                !
 ! A4    A(3,2,13)             120.0            estimate D2E/DX2                !
 ! A5    A(2,3,4)              120.0            estimate D2E/DX2                !
 ! A6    A(2,3,22)             120.0            estimate D2E/DX2                !
 ! A7    A(4,3,22)             120.0            estimate D2E/DX2                !
 ! A8    A(3,4,5)              120.0            estimate D2E/DX2                !
 ! A9    A(3,4,20)             120.0            estimate D2E/DX2                !
 ! A10   A(5,4,20)             120.0            estimate D2E/DX2                !
 ! A11   A(4,5,6)              120.0            estimate D2E/DX2                !
 ! A12   A(4,5,18)             120.0            estimate D2E/DX2                !
 ! A13   A(6,5,18)             120.0            estimate D2E/DX2                !
 ! A14   A(1,6,5)              120.0            estimate D2E/DX2                !
 ! A15   A(1,6,16)             120.0            estimate D2E/DX2                !
 ! A16   A(5,6,16)             120.0            estimate D2E/DX2                !
 ! A17   A(8,7,12)             120.0            estimate D2E/DX2                !
 ! A18   A(7,8,9)              120.0            estimate D2E/DX2                !
 ! A19   A(7,8,14)             120.0            estimate D2E/DX2                !
 ! A20   A(9,8,14)             120.0            estimate D2E/DX2                !
 ! A21   A(8,9,10)             120.0            estimate D2E/DX2                !
 ! A22   A(8,9,21)             120.0            estimate D2E/DX2                !
 ! A23   A(10,9,21)            120.0            estimate D2E/DX2                !
 ! A24   A(9,10,11)            120.0            estimate D2E/DX2                !
 ! A25   A(9,10,19)            120.0            estimate D2E/DX2                !
 ! A26   A(11,10,19)           120.0            estimate D2E/DX2                !
 ! A27   A(10,11,12)           120.0            estimate D2E/DX2                !
 ! A28   A(10,11,17)           120.0            estimate D2E/DX2                !
 ! A29   A(12,11,17)           120.0            estimate D2E/DX2                !
 ! A30   A(7,12,11)            120.0            estimate D2E/DX2                !
 ! A31   A(7,12,15)            120.0            estimate D2E/DX2                !
 ! A32   A(11,12,15)           120.0            estimate D2E/DX2                !
 ! A33   A(12,15,16)           120.0            estimate D2E/DX2                !
 ! A34   A(6,16,15)            120.0            estimate D2E/DX2                !
 ! D1    D(6,1,2,3)              0.0001         estimate D2E/DX2                !
 ! D2    D(6,1,2,13)           180.0            estimate D2E/DX2                !
 ! D3    D(2,1,6,5)             -0.0001         estimate D2E/DX2                !
 ! D4    D(2,1,6,16)           180.0            estimate D2E/DX2                !
 ! D5    D(1,2,3,4)              0.0            estimate D2E/DX2                !
 ! D6    D(1,2,3,22)           180.0            estimate D2E/DX2                !
 ! D7    D(13,2,3,4)          -179.9999         estimate D2E/DX2                !
 ! D8    D(13,2,3,22)            0.0001         estimate D2E/DX2                !
 ! D9    D(2,3,4,5)             -0.0001         estimate D2E/DX2                !
 ! D10   D(2,3,4,20)           180.0            estimate D2E/DX2                !
 ! D11   D(22,3,4,5)           179.9999         estimate D2E/DX2                !
 ! D12   D(22,3,4,20)            0.0            estimate D2E/DX2                !
 ! D13   D(3,4,5,6)              0.0001         estimate D2E/DX2                !
 ! D14   D(3,4,5,18)          -179.9999         estimate D2E/DX2                !
 ! D15   D(20,4,5,6)          -180.0            estimate D2E/DX2                !
 ! D16   D(20,4,5,18)            0.0            estimate D2E/DX2                !
 ! D17   D(4,5,6,1)              0.0            estimate D2E/DX2                !
 ! D18   D(4,5,6,16)           179.9999         estimate D2E/DX2                !
 ! D19   D(18,5,6,1)           180.0            estimate D2E/DX2                !
 ! D20   D(18,5,6,16)           -0.0001         estimate D2E/DX2                !
 ! D21   D(1,6,16,15)            0.0004         estimate D2E/DX2                !
 ! D22   D(5,6,16,15)         -179.9996         estimate D2E/DX2                !
 ! D23   D(12,7,8,9)             0.0001         estimate D2E/DX2                !
 ! D24   D(12,7,8,14)         -179.9998         estimate D2E/DX2                !
 ! D25   D(8,7,12,11)           -0.0001         estimate D2E/DX2                !
 ! D26   D(8,7,12,15)          179.9999         estimate D2E/DX2                !
 ! D27   D(7,8,9,10)             0.0            estimate D2E/DX2                !
 ! D28   D(7,8,9,21)           180.0            estimate D2E/DX2                !
 ! D29   D(14,8,9,10)          179.9998         estimate D2E/DX2                !
 ! D30   D(14,8,9,21)           -0.0002         estimate D2E/DX2                !
 ! D31   D(8,9,10,11)            0.0            estimate D2E/DX2                !
 ! D32   D(8,9,10,19)         -179.9999         estimate D2E/DX2                !
 ! D33   D(21,9,10,11)         180.0            estimate D2E/DX2                !
 ! D34   D(21,9,10,19)           0.0001         estimate D2E/DX2                !
 ! D35   D(9,10,11,12)           0.0            estimate D2E/DX2                !
 ! D36   D(9,10,11,17)        -179.9998         estimate D2E/DX2                !
 ! D37   D(19,10,11,12)        179.9999         estimate D2E/DX2                !
 ! D38   D(19,10,11,17)          0.0001         estimate D2E/DX2                !
 ! D39   D(10,11,12,7)           0.0            estimate D2E/DX2                !
 ! D40   D(10,11,12,15)       -179.9999         estimate D2E/DX2                !
 ! D41   D(17,11,12,7)         179.9999         estimate D2E/DX2                !
 ! D42   D(17,11,12,15)         -0.0001         estimate D2E/DX2                !
 ! D43   D(7,12,15,16)           0.0004         estimate D2E/DX2                !
 ! D44   D(11,12,15,16)       -179.9997         estimate D2E/DX2                !
 ! D45   D(12,15,16,6)          -0.0006         estimate D2E/DX2                !
 --------------------------------------------------------------------------------
 Trust Radius=3.00D-01 FncErr=1.00D-07 GrdErr=1.00D-06 EigMax=2.50D+02 EigMin=1.00D-04
 Number of steps in this run=    112 maximum allowed number of steps=    132.
 GradGradGradGradGradGradGradGradGradGradGradGradGradGradGradGradGradGrad

                          Input orientation:                          
 ---------------------------------------------------------------------
 Center     Atomic      Atomic             Coordinates (Angstroms)
 Number     Number       Type             X           Y           Z
 ---------------------------------------------------------------------
      1          6           0        0.912618    0.180811   -0.003916
      2          6           0        2.244999    0.210697   -0.437263
      3          6           0        2.952893    1.420148   -0.443335
      4          6           0        2.328405    2.599713   -0.016060
      5          6           0        0.996024    2.569827    0.417284
      6          6           0        0.288130    1.360376    0.423357
      7          6           0       -0.113560   -1.572436    0.004888
      8          6           0        0.510928   -2.752001   -0.422387
      9          6           0       -0.196965   -3.961452   -0.416313
     10          6           0       -1.529345   -3.991339    0.017037
     11          6           0       -2.153832   -2.811774    0.444312
     12          6           0       -1.445939   -1.602322    0.438238
     13          1           0        2.721810   -0.689928   -0.763494
     14          1           0        1.528230   -2.729182   -0.753257
     15         17           0       -2.230224   -0.120923    0.974850
     16         17           0       -1.385190    1.322843    0.967591
     17         17           0       -3.827150   -2.849309    0.988555
     18         17           0        0.211737    4.051228    0.953890
     19         17           0       -2.418378   -5.510273    0.024668
     20         17           0        3.217440    4.118646   -0.023686
     21         17           0        0.587320   -5.442853   -0.952922
     22         17           0        4.626213    1.457681   -0.987568
 ---------------------------------------------------------------------
                    Distance matrix (angstroms):
                    1          2          3          4          5
     1  C    0.000000
     2  C    1.401400   0.000000
     3  C    2.427296   1.401400   0.000000
     4  C    2.802800   2.427296   1.401400   0.000000
     5  C    2.427296   2.802800   2.427296   1.401400   0.000000
     6  C    1.401400   2.427296   2.802800   2.427296   1.401400
     7  C    2.031500   2.989625   4.308084   4.834300   4.308084
     8  C    2.989625   3.432900   4.834300   5.666495   5.409457
     9  C    4.308084   4.834300   6.235700   7.041774   6.691466
    10  C    4.834300   5.666495   7.041774   7.637100   7.041774
    11  C    4.308084   5.409457   6.691466   7.041774   6.235700
    12  C    2.989625   4.204351   5.409457   5.666495   4.834300
    13  H    2.146700   1.070000   2.146700   3.396345   3.872800
    14  H    3.067336   3.042450   4.398029   5.438829   5.452790
    15  Cl   3.305523   4.704429   5.590246   5.400450   4.237887
    16  Cl   2.743718   4.048303   4.562800   4.048303   2.743718
    17  Cl   5.712445   6.947487   8.139259   8.282025   7.277114
    18  Cl   4.048303   4.562800   4.048303   2.743718   1.760000
    19  Cl   6.594300   7.395266   8.780678   9.397100   8.780678
    20  Cl   4.562800   4.048303   2.743718   1.760000   2.743718
    21  Cl   5.712445   5.914087   7.277114   8.282025   8.139259
    22  Cl   4.048303   2.743718   1.760000   2.743718   4.048303
                    6          7          8          9         10
     6  C    0.000000
     7  C    2.989625   0.000000
     8  C    4.204351   1.401400   0.000000
     9  C    5.409457   2.427296   1.401400   0.000000
    10  C    5.666495   2.802800   2.427296   1.401400   0.000000
    11  C    4.834300   2.427296   2.802800   2.427296   1.401400
    12  C    3.432900   1.401400   2.427296   2.802800   2.427296
    13  H    3.396345   3.067336   3.042450   4.398029   5.438829
    14  H    4.432466   2.146700   1.070000   2.146700   3.396345
    15  Cl   2.973298   2.743718   4.048303   4.562800   4.048303
    16  Cl   1.760000   3.305523   4.704429   5.590246   5.400450
    17  Cl   5.914087   4.048303   4.562800   4.048303   2.743718
    18  Cl   2.743718   5.712445   6.947487   8.139259   8.282025
    19  Cl   7.395266   4.562800   4.048303   2.743718   1.760000
    20  Cl   4.048303   6.594300   7.395266   8.780678   9.397100
    21  Cl   6.947487   4.048303   2.743718   1.760000   2.743718
    22  Cl   4.562800   5.712445   5.914087   7.277114   8.282025
                   11         12         13         14         15
    11  C    0.000000
    12  C    1.401400   0.000000
    13  H    5.452790   4.432466   0.000000
    14  H    3.872800   3.396345   2.362900   0.000000
    15  Cl   2.743718   1.760000   5.279038   4.890332   0.000000
    16  Cl   4.237887   2.973298   4.890332   5.279038   1.672900
    17  Cl   1.760000   2.743718   7.114877   5.632800   3.161400
    18  Cl   7.277114   5.914087   5.632800   7.114877   4.834300
    19  Cl   2.743718   4.048303   7.090731   4.890332   5.475705
    20  Cl   8.780678   7.395266   4.890332   7.090731   6.974816
    21  Cl   4.048303   4.562800   5.213657   2.879094   6.322800
    22  Cl   8.139259   6.947487   2.879094   5.213657   7.304369
                   16         17         18         19         20
    16  Cl   0.000000
    17  Cl   4.834300   0.000000
    18  Cl   3.161400   7.995700   0.000000
    19  Cl   6.974816   3.161400   9.960084   0.000000
    20  Cl   5.475705   9.960084   3.161400  11.157100   0.000000
    21  Cl   7.304369   5.475705   9.690953   3.161400   9.960084
    22  Cl   6.322800   9.690953   5.475705   9.960084   3.161400
                   21         22
    21  Cl   0.000000
    22  Cl   7.995700   0.000000
 Stoichiometry    C12H2Cl8
 Framework group  C1[X(C12H2Cl8)]
 Deg. of freedom    60
 Full point group                 C1      NOp   1
 Largest Abelian subgroup         C1      NOp   1
 Largest concise Abelian subgroup C1      NOp   1
                         Standard orientation:                         
 ---------------------------------------------------------------------
 Center     Atomic      Atomic             Coordinates (Angstroms)
 Number     Number       Type             X           Y           Z
 ---------------------------------------------------------------------
      1          6           0        1.015750    0.422888    0.000002
      2          6           0        1.716450    1.636536    0.000000
      3          6           0        3.117850    1.636536   -0.000001
      4          6           0        3.818550    0.422888   -0.000002
      5          6           0        3.117850   -0.790760    0.000002
      6          6           0        1.716450   -0.790760    0.000003
      7          6           0       -1.015750    0.422888    0.000003
      8          6           0       -1.716450    1.636536    0.000004
      9          6           0       -3.117850    1.636536    0.000003
     10          6           0       -3.818550    0.422888    0.000001
     11          6           0       -3.117850   -0.790760   -0.000000
     12          6           0       -1.716450   -0.790760    0.000001
     13          1           0        1.181450    2.563183   -0.000001
     14          1           0       -1.181450    2.563183    0.000002
     15         17           0       -0.836450   -2.314965   -0.000003
     16         17           0        0.836450   -2.314965    0.000006
     17         17           0       -3.997850   -2.314965   -0.000007
     18         17           0        3.997850   -2.314965    0.000005
     19         17           0       -5.578550    0.422888   -0.000002
     20         17           0        5.578550    0.422888   -0.000004
     21         17           0       -3.997850    3.160740    0.000004
     22         17           0        3.997850    3.160740   -0.000004
 ---------------------------------------------------------------------
 Rotational constants (GHZ):           0.3079544           0.0927886           0.0713042
 Standard basis: 6-311+G(d,p) (5D, 7F)
 There are   536 symmetry adapted cartesian basis functions of A   symmetry.
 There are   516 symmetry adapted basis functions of A   symmetry.
   516 basis functions,   872 primitive gaussians,   536 cartesian basis functions
   105 alpha electrons      105 beta electrons
       nuclear repulsion energy      2632.3866519564 Hartrees.
 NAtoms=   22 NActive=   22 NUniq=   22 SFac= 1.00D+00 NAtFMM=   60 NAOKFM=F Big=F
 Integral buffers will be    131072 words long.
 Raffenetti 2 integral format.
 Two-electron integral symmetry is turned on.
 One-electron integrals computed using PRISM.
 NBasis=   516 RedAO= T EigKep=  1.80D-06  NBF=   516
 NBsUse=   508 1.00D-06 EigRej=  8.46D-07 NBFU=   508
 ExpMin= 4.38D-02 ExpMax= 1.06D+05 ExpMxC= 3.62D+03 IAcc=3 IRadAn=         5 AccDes= 0.00D+00
 Harris functional with IExCor=  402 and IRadAn=       5 diagonalized for initial guess.
 HarFok:  IExCor=  402 AccDes= 0.00D+00 IRadAn=         5 IDoV= 1 UseB2=F ITyADJ=14
 ICtDFT=  3500011 ScaDFX=  1.000000  1.000000  1.000000  1.000000
 FoFCou: FMM=F IPFlag=           0 FMFlag=      100000 FMFlg1=           0
         NFxFlg=           0 DoJE=T BraDBF=F KetDBF=T FulRan=T
         wScrn=  0.000000 ICntrl=       500 IOpCl=  0 I1Cent=   200000004 NGrid=           0
         NMat0=    1 NMatS0=      1 NMatT0=    0 NMatD0=    1 NMtDS0=    0 NMtDT0=    0
 Petite list used in FoFCou.
 Requested convergence on RMS density matrix=1.00D-08 within  32 cycles.
 Requested convergence on MAX density matrix=1.00D-06.
 Requested convergence on             energy=1.00D-06.
 No special actions if energy rises.
 Restarting incremental Fock formation.
 SCF Done:  E(RB3LYP) =  -4139.80506764     A.U. after   22 cycles
            NFock= 22  Conv=0.86D-08     -V/T= 2.0021
 QCSCF skips out because SCF is already converged.

 **********************************************************************

            Population analysis using the SCF Density.

 **********************************************************************

 Orbital symmetries:
       Occupied  (A) (A) (A) (A) (A) (A) (A) (A) (A) (A) (A) (A)
                 (A) (A) (A) (A) (A) (A) (A) (A) (A) (A) (A) (A)
                 (A) (A) (A) (A) (A) (A) (A) (A) (A) (A) (A) (A)
                 (A) (A) (A) (A) (A) (A) (A) (A) (A) (A) (A) (A)
                 (A) (A) (A) (A) (A) (A) (A) (A) (A) (A) (A) (A)
                 (A) (A) (A) (A) (A) (A) (A) (A) (A) (A) (A) (A)
                 (A) (A) (A) (A) (A) (A) (A) (A) (A) (A) (A) (A)
                 (A) (A) (A) (A) (A) (A) (A) (A) (A) (A) (A) (A)
                 (A) (A) (A) (A) (A) (A) (A) (A) (A)
       Virtual   (A) (A) (A) (A) (A) (A) (A) (A) (A) (A) (A) (A)
                 (A) (A) (A) (A) (A) (A) (A) (A) (A) (A) (A) (A)
                 (A) (A) (A) (A) (A) (A) (A) (A) (A) (A) (A) (A)
                 (A) (A) (A) (A) (A) (A) (A) (A) (A) (A) (A) (A)
                 (A) (A) (A) (A) (A) (A) (A) (A) (A) (A) (A) (A)
                 (A) (A) (A) (A) (A) (A) (A) (A) (A) (A) (A) (A)
                 (A) (A) (A) (A) (A) (A) (A) (A) (A) (A) (A) (A)
                 (A) (A) (A) (A) (A) (A) (A) (A) (A) (A) (A) (A)
                 (A) (A) (A) (A) (A) (A) (A) (A) (A) (A) (A) (A)
                 (A) (A) (A) (A) (A) (A) (A) (A) (A) (A) (A) (A)
                 (A) (A) (A) (A) (A) (A) (A) (A) (A) (A) (A) (A)
                 (A) (A) (A) (A) (A) (A) (A) (A) (A) (A) (A) (A)
                 (A) (A) (A) (A) (A) (A) (A) (A) (A) (A) (A) (A)
                 (A) (A) (A) (A) (A) (A) (A) (A) (A) (A) (A) (A)
                 (A) (A) (A) (A) (A) (A) (A) (A) (A) (A) (A) (A)
                 (A) (A) (A) (A) (A) (A) (A) (A) (A) (A) (A) (A)
                 (A) (A) (A) (A) (A) (A) (A) (A) (A) (A) (A) (A)
                 (A) (A) (A) (A) (A) (A) (A) (A) (A) (A) (A) (A)
                 (A) (A) (A) (A) (A) (A) (A) (A) (A) (A) (A) (A)
                 (A) (A) (A) (A) (A) (A) (A) (A) (A) (A) (A) (A)
                 (A) (A) (A) (A) (A) (A) (A) (A) (A) (A) (A) (A)
                 (A) (A) (A) (A) (A) (A) (A) (A) (A) (A) (A) (A)
                 (A) (A) (A) (A) (A) (A) (A) (A) (A) (A) (A) (A)
                 (A) (A) (A) (A) (A) (A) (A) (A) (A) (A) (A) (A)
                 (A) (A) (A) (A) (A) (A) (A) (A) (A) (A) (A) (A)
                 (A) (A) (A) (A) (A) (A) (A) (A) (A) (A) (A) (A)
                 (A) (A) (A) (A) (A) (A) (A) (A) (A) (A) (A) (A)
                 (A) (A) (A) (A) (A) (A) (A) (A) (A) (A) (A) (A)
                 (A) (A) (A) (A) (A) (A) (A) (A) (A) (A) (A) (A)
                 (A) (A) (A) (A) (A) (A) (A) (A) (A) (A) (A) (A)
                 (A) (A) (A) (A) (A) (A) (A) (A) (A) (A) (A) (A)
                 (A) (A) (A) (A) (A) (A) (A) (A) (A) (A) (A) (A)
                 (A) (A) (A) (A) (A) (A) (A) (A) (A) (A) (A) (A)
                 (A) (A) (A) (A) (A) (A) (A)
 The electronic state is 1-A.
 Alpha  occ. eigenvalues -- -101.63735-101.63735-101.57798-101.57798-101.57550
 Alpha  occ. eigenvalues -- -101.57550-101.57346-101.57346 -10.28958 -10.28957
 Alpha  occ. eigenvalues --  -10.28105 -10.28105 -10.28048 -10.28048 -10.27963
 Alpha  occ. eigenvalues --  -10.27962 -10.25023 -10.25020 -10.22978 -10.22977
 Alpha  occ. eigenvalues --   -9.56455  -9.56421  -9.49222  -9.49222  -9.49043
 Alpha  occ. eigenvalues --   -9.49043  -9.48787  -9.48787  -7.33178  -7.33052
 Alpha  occ. eigenvalues --   -7.31800  -7.31768  -7.31404  -7.31394  -7.25715
 Alpha  occ. eigenvalues --   -7.25715  -7.25520  -7.25520  -7.25287  -7.25287
 Alpha  occ. eigenvalues --   -7.24705  -7.24705  -7.24640  -7.24640  -7.24528
 Alpha  occ. eigenvalues --   -7.24528  -7.24455  -7.24455  -7.24273  -7.24273
 Alpha  occ. eigenvalues --   -7.24188  -7.24188  -1.13030  -0.95570  -0.95183
 Alpha  occ. eigenvalues --   -0.91139  -0.90093  -0.88554  -0.87707  -0.85948
 Alpha  occ. eigenvalues --   -0.85724  -0.84081  -0.78717  -0.76988  -0.75978
 Alpha  occ. eigenvalues --   -0.74037  -0.67906  -0.65385  -0.63864  -0.61271
 Alpha  occ. eigenvalues --   -0.59764  -0.56652  -0.53453  -0.53362  -0.52351
 Alpha  occ. eigenvalues --   -0.52143  -0.50639  -0.48509  -0.48167  -0.46175
 Alpha  occ. eigenvalues --   -0.45833  -0.45594  -0.45330  -0.44112  -0.43406
 Alpha  occ. eigenvalues --   -0.41182  -0.39945  -0.38822  -0.37327  -0.37155
 Alpha  occ. eigenvalues --   -0.37062  -0.35608  -0.35401  -0.34971  -0.34938
 Alpha  occ. eigenvalues --   -0.34745  -0.33629  -0.33034  -0.31888  -0.31804
 Alpha  occ. eigenvalues --   -0.28606  -0.28496  -0.27412  -0.26289  -0.13754
 Alpha virt. eigenvalues --   -0.10526  -0.07630  -0.07118  -0.06386  -0.05683
 Alpha virt. eigenvalues --   -0.03888  -0.03734  -0.02029  -0.02005  -0.00156
 Alpha virt. eigenvalues --    0.00443   0.00818   0.00881   0.01715   0.02586
 Alpha virt. eigenvalues --    0.03039   0.03279   0.03366   0.03746   0.04913
 Alpha virt. eigenvalues --    0.05217   0.05371   0.05977   0.06450   0.06599
 Alpha virt. eigenvalues --    0.07032   0.07443   0.07583   0.07638   0.08020
 Alpha virt. eigenvalues --    0.08797   0.08842   0.08884   0.08983   0.09332
 Alpha virt. eigenvalues --    0.09539   0.10507   0.10720   0.10728   0.11671
 Alpha virt. eigenvalues --    0.11807   0.11830   0.12419   0.12501   0.13006
 Alpha virt. eigenvalues --    0.13591   0.13643   0.13943   0.14182   0.14336
 Alpha virt. eigenvalues --    0.14994   0.15220   0.15489   0.15977   0.17012
 Alpha virt. eigenvalues --    0.17056   0.17144   0.17232   0.17634   0.18220
 Alpha virt. eigenvalues --    0.18677   0.19611   0.19694   0.20286   0.20347
 Alpha virt. eigenvalues --    0.20492   0.20546   0.21205   0.21492   0.21595
 Alpha virt. eigenvalues --    0.22728   0.23266   0.23501   0.23615   0.24336
 Alpha virt. eigenvalues --    0.24641   0.25168   0.25895   0.26035   0.26358
 Alpha virt. eigenvalues --    0.26508   0.27012   0.27077   0.27911   0.28363
 Alpha virt. eigenvalues --    0.29302   0.29589   0.30082   0.30134   0.30884
 Alpha virt. eigenvalues --    0.31371   0.31520   0.32765   0.34435   0.34791
 Alpha virt. eigenvalues --    0.35185   0.36662   0.38287   0.39233   0.40566
 Alpha virt. eigenvalues --    0.40747   0.41667   0.41913   0.42290   0.42974
 Alpha virt. eigenvalues --    0.43346   0.44065   0.44393   0.44422   0.44714
 Alpha virt. eigenvalues --    0.45061   0.45124   0.45719   0.45788   0.47036
 Alpha virt. eigenvalues --    0.47537   0.47585   0.47697   0.48944   0.49044
 Alpha virt. eigenvalues --    0.49408   0.49667   0.49718   0.49968   0.51430
 Alpha virt. eigenvalues --    0.52074   0.52700   0.55282   0.55756   0.56158
 Alpha virt. eigenvalues --    0.57219   0.57438   0.58139   0.58141   0.58251
 Alpha virt. eigenvalues --    0.58798   0.59157   0.60774   0.60920   0.61027
 Alpha virt. eigenvalues --    0.61360   0.62680   0.63334   0.63534   0.63910
 Alpha virt. eigenvalues --    0.64296   0.66233   0.67261   0.67622   0.69273
 Alpha virt. eigenvalues --    0.70429   0.72480   0.74916   0.76395   0.77066
 Alpha virt. eigenvalues --    0.78077   0.80803   0.81015   0.81372   0.82439
 Alpha virt. eigenvalues --    0.82541   0.83149   0.83381   0.83559   0.83805
 Alpha virt. eigenvalues --    0.84055   0.84091   0.84456   0.84603   0.85016
 Alpha virt. eigenvalues --    0.85453   0.85984   0.86034   0.86066   0.86525
 Alpha virt. eigenvalues --    0.86781   0.87035   0.87501   0.88174   0.89155
 Alpha virt. eigenvalues --    0.90285   0.90488   0.91207   0.91727   0.92736
 Alpha virt. eigenvalues --    0.92961   0.93715   0.93833   0.94446   0.94737
 Alpha virt. eigenvalues --    0.94908   0.95200   0.95248   0.95890   0.96210
 Alpha virt. eigenvalues --    0.96564   0.97341   0.98587   0.98974   0.99770
 Alpha virt. eigenvalues --    1.01686   1.01899   1.03096   1.03098   1.03977
 Alpha virt. eigenvalues --    1.04407   1.06705   1.11647   1.11792   1.15741
 Alpha virt. eigenvalues --    1.15787   1.17043   1.19670   1.19783   1.21023
 Alpha virt. eigenvalues --    1.21695   1.22123   1.22515   1.23369   1.23405
 Alpha virt. eigenvalues --    1.23646   1.25620   1.26245   1.27207   1.27363
 Alpha virt. eigenvalues --    1.28050   1.28111   1.28290   1.30347   1.30634
 Alpha virt. eigenvalues --    1.33053   1.36377   1.36636   1.44189   1.45092
 Alpha virt. eigenvalues --    1.46625   1.48258   1.48884   1.50590   1.56811
 Alpha virt. eigenvalues --    1.58368   1.58416   1.59813   1.60820   1.62817
 Alpha virt. eigenvalues --    1.65406   1.67939   1.69988   1.73112   1.74859
 Alpha virt. eigenvalues --    1.76531   1.77176   1.80706   1.81441   1.82747
 Alpha virt. eigenvalues --    1.82964   1.83508   1.84414   1.84705   1.85556
 Alpha virt. eigenvalues --    1.85656   1.87200   1.87311   1.93534   1.97633
 Alpha virt. eigenvalues --    1.97753   2.02123   2.06730   2.08008   2.08009
 Alpha virt. eigenvalues --    2.14359   2.15668   2.16125   2.19708   2.20935
 Alpha virt. eigenvalues --    2.21634   2.21976   2.22566   2.23883   2.25206
 Alpha virt. eigenvalues --    2.25467   2.26527   2.27166   2.27873   2.28165
 Alpha virt. eigenvalues --    2.29864   2.29970   2.32205   2.34091   2.34960
 Alpha virt. eigenvalues --    2.38185   2.39286   2.40517   2.41657   2.41743
 Alpha virt. eigenvalues --    2.42627   2.43032   2.44643   2.49466   2.50449
 Alpha virt. eigenvalues --    2.53612   2.53827   2.56976   2.58050   2.58055
 Alpha virt. eigenvalues --    2.58449   2.59660   2.59767   2.61932   2.64362
 Alpha virt. eigenvalues --    2.68763   2.69052   2.70210   2.72254   2.73086
 Alpha virt. eigenvalues --    2.74619   2.75319   2.76857   2.78852   2.82639
 Alpha virt. eigenvalues --    2.82795   2.84563   2.85941   2.87535   3.03589
 Alpha virt. eigenvalues --    3.06412   3.06545   3.07061   3.07875   3.12155
 Alpha virt. eigenvalues --    3.13642   3.14139   3.18763   3.19044   3.22220
 Alpha virt. eigenvalues --    3.27397   3.31270   3.35673   3.41317   3.44590
 Alpha virt. eigenvalues --    3.55643   3.63844   3.66776   3.70592   3.77272
 Alpha virt. eigenvalues --    3.85280   3.96824   4.00507   4.08329   4.78273
 Alpha virt. eigenvalues --    4.80668   9.65796   9.73879   9.74895   9.78560
 Alpha virt. eigenvalues --    9.78784   9.80430   9.80542   9.97698  23.26561
 Alpha virt. eigenvalues --   23.31289  23.77566  23.78724  23.81710  23.82532
 Alpha virt. eigenvalues --   23.92509  23.94038  23.94274  23.95701  24.04252
 Alpha virt. eigenvalues --   24.05671  25.72950  25.75840  25.76905  25.79998
 Alpha virt. eigenvalues --   25.81769  25.86971  25.88610  25.99069  26.07555
 Alpha virt. eigenvalues --   26.08535  26.11071  26.12604  26.13296  26.23520
 Alpha virt. eigenvalues --   26.25544  26.45051  26.47062  26.56912  26.61683
 Alpha virt. eigenvalues --   26.71992  26.84743  26.96831  27.00970  27.01660
 Alpha virt. eigenvalues --  215.66004 215.72882 215.75208 215.78244 215.78837
 Alpha virt. eigenvalues --  215.80328 215.80584 216.04123
          Condensed to atoms (all electrons):
               1          2          3          4          5          6
     1  C   27.486669  -1.876751  -4.795979   7.409640  -5.596828  -5.233926
     2  C   -1.876751   9.382713   1.338450  -3.389790   2.038223   1.237292
     3  C   -4.795979   1.338450  18.152112  -8.653918  -1.101866   4.486101
     4  C    7.409640  -3.389790  -8.653918  27.279992  -4.456171  -7.298162
     5  C   -5.596828   2.038223  -1.101866  -4.456171  15.202596  -0.752300
     6  C   -5.233926   1.237292   4.486101  -7.298162  -0.752300  23.719404
     7  C    6.641887  -1.199262  -2.015504  -0.639058  -2.143598  -2.402996
     8  C   -1.199262  -0.406488  -0.517221   0.719428  -0.260192  -0.886095
     9  C   -2.015504  -0.517221   0.187288  -0.151470  -0.236609  -0.819541
    10  C   -0.639058   0.719428  -0.151470   0.136305   0.034127  -0.706462
    11  C   -2.143599  -0.260192  -0.236609   0.034127  -0.188338   0.851619
    12  C   -2.402996  -0.886095  -0.819541  -0.706462   0.851619  -4.239314
    13  H    0.054913   0.290499  -0.066928  -0.027404   0.001845   0.037321
    14  H    0.021487   0.020057   0.000767   0.000880  -0.003977  -0.014003
    15  Cl   3.468542  -0.791212  -0.321358   2.507247  -3.052570  12.364373
    16  Cl -10.376848   0.932197   0.628274  -5.140857   6.717087 -14.373406
    17  Cl   0.145285  -0.041248   0.010720  -0.007150  -0.011740  -0.035363
    18  Cl  -0.446963   0.122026   0.221368  -0.592456  -1.106361   0.798150
    19  Cl  -0.108587  -0.006684  -0.003406   0.000681  -0.000631   0.001107
    20  Cl  -0.244715  -0.275557  -0.582322  -0.094905   0.720804  -0.354723
    21  Cl  -0.206438  -0.049122   0.000387  -0.006375  -0.005117  -0.037215
    22  Cl  -1.192125   0.335503   0.225024  -0.624103  -0.028630   0.658810
               7          8          9         10         11         12
     1  C    6.641887  -1.199262  -2.015504  -0.639058  -2.143599  -2.402996
     2  C   -1.199262  -0.406488  -0.517221   0.719428  -0.260192  -0.886095
     3  C   -2.015504  -0.517221   0.187288  -0.151470  -0.236609  -0.819541
     4  C   -0.639058   0.719428  -0.151470   0.136305   0.034127  -0.706462
     5  C   -2.143598  -0.260192  -0.236609   0.034127  -0.188338   0.851619
     6  C   -2.402996  -0.886095  -0.819541  -0.706462   0.851619  -4.239314
     7  C   27.486667  -1.876751  -4.795977   7.409638  -5.596828  -5.233925
     8  C   -1.876751   9.382714   1.338449  -3.389790   2.038223   1.237292
     9  C   -4.795977   1.338449  18.152110  -8.653915  -1.101866   4.486099
    10  C    7.409638  -3.389790  -8.653915  27.279990  -4.456171  -7.298160
    11  C   -5.596828   2.038223  -1.101866  -4.456171  15.202596  -0.752301
    12  C   -5.233925   1.237292   4.486099  -7.298160  -0.752301  23.719407
    13  H    0.021487   0.020057   0.000767   0.000880  -0.003977  -0.014003
    14  H    0.054913   0.290499  -0.066928  -0.027404   0.001845   0.037321
    15  Cl -10.376849   0.932196   0.628273  -5.140856   6.717088 -14.373411
    16  Cl   3.468542  -0.791211  -0.321357   2.507246  -3.052570  12.364375
    17  Cl  -0.446963   0.122026   0.221368  -0.592456  -1.106361   0.798150
    18  Cl   0.145285  -0.041248   0.010720  -0.007150  -0.011740  -0.035363
    19  Cl  -0.244715  -0.275557  -0.582322  -0.094906   0.720804  -0.354723
    20  Cl  -0.108587  -0.006684  -0.003406   0.000681  -0.000631   0.001107
    21  Cl  -1.192125   0.335503   0.225024  -0.624103  -0.028630   0.658810
    22  Cl  -0.206438  -0.049122   0.000387  -0.006375  -0.005117  -0.037215
              13         14         15         16         17         18
     1  C    0.054913   0.021487   3.468542 -10.376848   0.145285  -0.446963
     2  C    0.290499   0.020057  -0.791212   0.932197  -0.041248   0.122026
     3  C   -0.066928   0.000767  -0.321358   0.628274   0.010720   0.221368
     4  C   -0.027404   0.000880   2.507247  -5.140857  -0.007150  -0.592456
     5  C    0.001845  -0.003977  -3.052570   6.717087  -0.011740  -1.106361
     6  C    0.037321  -0.014003  12.364373 -14.373406  -0.035363   0.798150
     7  C    0.021487   0.054913 -10.376849   3.468542  -0.446963   0.145285
     8  C    0.020057   0.290499   0.932196  -0.791211   0.122026  -0.041248
     9  C    0.000767  -0.066928   0.628273  -0.321357   0.221368   0.010720
    10  C    0.000880  -0.027404  -5.140856   2.507246  -0.592456  -0.007150
    11  C   -0.003977   0.001845   6.717088  -3.052570  -1.106361  -0.011740
    12  C   -0.014003   0.037321 -14.373411  12.364375   0.798150  -0.035363
    13  H    0.528148   0.001290  -0.024874   0.035286  -0.000018   0.001872
    14  H    0.001290   0.528148   0.035286  -0.024874   0.001872  -0.000018
    15  Cl  -0.024874   0.035286  78.223395 -54.647768  -0.056028  -0.613635
    16  Cl   0.035286  -0.024874 -54.647768  78.223386  -0.613634  -0.056027
    17  Cl  -0.000018   0.001872  -0.056028  -0.613634  18.191083  -0.003646
    18  Cl   0.001872  -0.000018  -0.613635  -0.056027  -0.003646  18.191083
    19  Cl   0.000037  -0.000628   0.201931  -0.058757  -0.282163  -0.000043
    20  Cl  -0.000628   0.000037  -0.058757   0.201931  -0.000043  -0.282163
    21  Cl  -0.000764  -0.006109   0.068819  -0.020557   0.004635   0.000065
    22  Cl  -0.006109  -0.000764  -0.020557   0.068819   0.000065   0.004635
              19         20         21         22
     1  C   -0.108587  -0.244715  -0.206438  -1.192125
     2  C   -0.006684  -0.275557  -0.049122   0.335503
     3  C   -0.003406  -0.582322   0.000387   0.225024
     4  C    0.000681  -0.094905  -0.006375  -0.624103
     5  C   -0.000631   0.720804  -0.005117  -0.028630
     6  C    0.001107  -0.354723  -0.037215   0.658810
     7  C   -0.244715  -0.108587  -1.192125  -0.206438
     8  C   -0.275557  -0.006684   0.335503  -0.049122
     9  C   -0.582322  -0.003406   0.225024   0.000387
    10  C   -0.094906   0.000681  -0.624103  -0.006375
    11  C    0.720804  -0.000631  -0.028630  -0.005117
    12  C   -0.354723   0.001107   0.658810  -0.037215
    13  H    0.000037  -0.000628  -0.000764  -0.006109
    14  H   -0.000628   0.000037  -0.006109  -0.000764
    15  Cl   0.201931  -0.058757   0.068819  -0.020557
    16  Cl  -0.058757   0.201931  -0.020557   0.068819
    17  Cl  -0.282163  -0.000043   0.004635   0.000065
    18  Cl  -0.000043  -0.282163   0.000065   0.004635
    19  Cl  17.627542  -0.000007  -0.179565  -0.000042
    20  Cl  -0.000007  17.627542  -0.000042  -0.179565
    21  Cl  -0.179565  -0.000042  17.514217  -0.000060
    22  Cl  -0.000042  -0.179565  -0.000060  17.514217
 Mulliken charges:
               1
     1  C   -0.748843
     2  C   -0.716768
     3  C    0.015630
     4  C   -0.300018
     5  C   -0.621369
     6  C   -1.000671
     7  C   -0.748843
     8  C   -0.716768
     9  C    0.015630
    10  C   -0.300018
    11  C   -0.621369
    12  C   -1.000671
    13  H    0.150306
    14  H    0.150306
    15  Cl   1.330724
    16  Cl   1.330724
    17  Cl   0.701609
    18  Cl   0.701609
    19  Cl   0.640636
    20  Cl   0.640636
    21  Cl   0.548763
    22  Cl   0.548763
 Sum of Mulliken charges =  -0.00000
 Mulliken charges with hydrogens summed into heavy atoms:
               1
     1  C   -0.748843
     2  C   -0.566462
     3  C    0.015630
     4  C   -0.300018
     5  C   -0.621369
     6  C   -1.000671
     7  C   -0.748843
     8  C   -0.566462
     9  C    0.015630
    10  C   -0.300018
    11  C   -0.621369
    12  C   -1.000671
    15  Cl   1.330724
    16  Cl   1.330724
    17  Cl   0.701609
    18  Cl   0.701609
    19  Cl   0.640636
    20  Cl   0.640636
    21  Cl   0.548763
    22  Cl   0.548763
 Electronic spatial extent (au):  <R**2>=          12784.8862
 Charge=             -0.0000 electrons
 Dipole moment (field-independent basis, Debye):
    X=              0.0000    Y=             -0.9591    Z=              0.0000  Tot=              0.9591
 Quadrupole moment (field-independent basis, Debye-Ang):
   XX=           -194.6767   YY=           -164.7733   ZZ=           -170.7386
   XY=             -0.0000   XZ=             -0.0000   YZ=             -0.0000
 Traceless Quadrupole moment (field-independent basis, Debye-Ang):
   XX=            -17.9472   YY=             11.9562   ZZ=              5.9909
   XY=             -0.0000   XZ=             -0.0000   YZ=             -0.0000
 Octapole moment (field-independent basis, Debye-Ang**2):
  XXX=              0.0000  YYY=            -26.6419  ZZZ=             -0.0001  XYY=              0.0000
  XXY=             -6.8696  XXZ=             -0.0000  XZZ=              0.0000  YZZ=             -9.5473
  YYZ=             -0.0000  XYZ=              0.0001
 Hexadecapole moment (field-independent basis, Debye-Ang**3):
 XXXX=         -12976.7488 YYYY=          -3737.1576 ZZZZ=           -198.9973 XXXY=             -0.0000
 XXXZ=              0.0002 YYYX=              0.0000 YYYZ=             -0.0000 ZZZX=              0.0000
 ZZZY=             -0.0000 XXYY=          -2795.5731 XXZZ=          -2175.9485 YYZZ=           -688.4929
 XXYZ=              0.0000 YYXZ=             -0.0001 ZZXY=              0.0000
 N-N= 2.632386651956D+03 E-N=-1.507715035979D+04  KE= 4.131040256424D+03
 Calling FoFJK, ICntrl=      2127 FMM=F ISym2X=0 I1Cent= 0 IOpClX= 0 NMat=1 NMatS=1 NMatT=0.
 ***** Axes restored to original set *****
 -------------------------------------------------------------------
 Center     Atomic                   Forces (Hartrees/Bohr)
 Number     Number              X              Y              Z
 -------------------------------------------------------------------
      1        6          -0.021371929   -0.008477265    0.005449202
      2        6          -0.015546757    0.008133003    0.006649463
      3        6          -0.003709049   -0.003130826    0.000634004
      4        6           0.000969338    0.006760701    0.000950258
      5        6          -0.004865770   -0.012899917   -0.000819467
      6        6           0.075382578    0.014853549   -0.022045583
      7        6          -0.003050463    0.022825645    0.005291675
      8        6          -0.014674890    0.009622514    0.006642091
      9        6           0.000916246    0.004771625    0.000594295
     10        6          -0.005415735   -0.004148403    0.001005135
     11        6           0.008860997    0.010552686   -0.000937430
     12        6           0.023866245   -0.073163216   -0.021603686
     13        1           0.005600933   -0.006825011   -0.003127109
     14        1           0.008679622   -0.001564956   -0.003153583
     15       17          -0.290726224   -0.437916463    0.013540766
     16       17           0.239508825    0.468007213    0.008984409
     17       17          -0.003876941   -0.005030100    0.000332533
     18       17           0.002488700    0.005845703    0.000277960
     19       17           0.002399158    0.002168013   -0.000383255
     20       17          -0.000717130   -0.003156219   -0.000356536
     21       17           0.000658480    0.006541101    0.001011512
     22       17          -0.005376234   -0.003769376    0.001063343
 -------------------------------------------------------------------
 Cartesian Forces:  Max     0.468007213 RMS     0.092804906

 GradGradGradGradGradGradGradGradGradGradGradGradGradGradGradGradGradGrad
 Berny optimization.
 FormGI is forming the generalized inverse of G from B-inverse, IUseBI=4.
 Internal  Forces:  Max     0.539193952 RMS     0.059271384
 Search for a local minimum.
 Step number   1 out of a maximum of  112
 All quantities printed in internal units (Hartrees-Bohrs-Radians)
 Mixed Optimization -- RFO/linear search
 Second derivative matrix not updated -- first step.
 ITU=  0
     Eigenvalues ---    0.00238   0.00238   0.01655   0.01655   0.02070
     Eigenvalues ---    0.02070   0.02070   0.02070   0.02070   0.02070
     Eigenvalues ---    0.02070   0.02070   0.02070   0.02070   0.02070
     Eigenvalues ---    0.02070   0.02070   0.02070   0.04301   0.16000
     Eigenvalues ---    0.16000   0.23353   0.23353   0.25000   0.25000
     Eigenvalues ---    0.25000   0.25000   0.25000   0.25000   0.25000
     Eigenvalues ---    0.25000   0.25000   0.25000   0.25000   0.25000
     Eigenvalues ---    0.25000   0.25000   0.29539   0.29539   0.29539
     Eigenvalues ---    0.29539   0.29539   0.29539   0.29539   0.29539
     Eigenvalues ---    0.37230   0.37230   0.41671   0.41671   0.42184
     Eigenvalues ---    0.42184   0.45389   0.45389   0.45389   0.45389
     Eigenvalues ---    0.45389   0.45389   0.45389   0.45389   1.32680
 RFO step:  Lambda=-3.00408602D-01 EMin= 2.37799039D-03
 Linear search not attempted -- first point.
 Maximum step size (   0.300) exceeded in Quadratic search.
    -- Step size scaled by   0.523
 Iteration  1 RMS(Cart)=  0.29668344 RMS(Int)=  0.01582798
 Iteration  2 RMS(Cart)=  0.25839076 RMS(Int)=  0.00560222
 Iteration  3 RMS(Cart)=  0.00905548 RMS(Int)=  0.00001023
 Iteration  4 RMS(Cart)=  0.00000430 RMS(Int)=  0.00001022
 Iteration  5 RMS(Cart)=  0.00000000 RMS(Int)=  0.00001022
 Variable       Old X    -DE/DX   Delta X   Delta X   Delta X     New X
                                 (Linear)    (Quad)   (Total)
    R1        2.64826  -0.01903   0.00000  -0.01343  -0.01344   2.63483
    R2        2.64826  -0.01385   0.00000  -0.00990  -0.00989   2.63837
    R3        2.64826  -0.00532   0.00000  -0.00363  -0.00364   2.64462
    R4        2.02201   0.00919   0.00000   0.00714   0.00714   2.02915
    R5        2.64826   0.00443   0.00000   0.00337   0.00336   2.65163
    R6        3.32592  -0.00552   0.00000  -0.00484  -0.00484   3.32107
    R7        2.64826  -0.00067   0.00000  -0.00022  -0.00021   2.64805
    R8        3.32592  -0.00308   0.00000  -0.00271  -0.00271   3.32321
    R9        2.64826  -0.00928   0.00000  -0.00649  -0.00647   2.64179
   R10        3.32592   0.00390   0.00000   0.00342   0.00342   3.32934
   R11        3.32592   0.03468   0.00000   0.03043   0.03043   3.35635
   R12        2.64826  -0.01903   0.00000  -0.01343  -0.01344   2.63483
   R13        2.64826  -0.01385   0.00000  -0.00990  -0.00989   2.63837
   R14        2.64826  -0.00532   0.00000  -0.00363  -0.00364   2.64462
   R15        2.02201   0.00919   0.00000   0.00714   0.00714   2.02915
   R16        2.64826   0.00443   0.00000   0.00337   0.00336   2.65163
   R17        3.32592  -0.00552   0.00000  -0.00484  -0.00484   3.32107
   R18        2.64826  -0.00067   0.00000  -0.00022  -0.00021   2.64805
   R19        3.32592  -0.00308   0.00000  -0.00271  -0.00271   3.32321
   R20        2.64826  -0.00928   0.00000  -0.00649  -0.00647   2.64179
   R21        3.32592   0.00390   0.00000   0.00342   0.00342   3.32934
   R22        3.32592   0.03468   0.00000   0.03043   0.03043   3.35635
   R23        3.16132   0.53919   0.00000   0.17321   0.17321   3.33453
    A1        2.09440  -0.00606   0.00000  -0.00679  -0.00678   2.08762
    A2        2.09440  -0.00226   0.00000  -0.00246  -0.00248   2.09191
    A3        2.09440   0.00294   0.00000   0.00328   0.00329   2.09769
    A4        2.09440  -0.00068   0.00000  -0.00083  -0.00081   2.09358
    A5        2.09440   0.00676   0.00000   0.00701   0.00698   2.10137
    A6        2.09440  -0.00955   0.00000  -0.00936  -0.00935   2.08505
    A7        2.09440   0.00279   0.00000   0.00236   0.00237   2.09677
    A8        2.09440  -0.00466   0.00000  -0.00358  -0.00358   2.09081
    A9        2.09440   0.00060   0.00000   0.00014   0.00014   2.09454
   A10        2.09440   0.00406   0.00000   0.00344   0.00344   2.09783
   A11        2.09440  -0.01478   0.00000  -0.01369  -0.01367   2.08072
   A12        2.09440  -0.00097   0.00000  -0.00109  -0.00110   2.09329
   A13        2.09440   0.01575   0.00000   0.01479   0.01477   2.10917
   A14        2.09440   0.02099   0.00000   0.01951   0.01954   2.11393
   A15        2.09440  -0.07780   0.00000  -0.07367  -0.07369   2.02071
   A16        2.09440   0.05681   0.00000   0.05416   0.05415   2.14854
   A17        2.09440  -0.00606   0.00000  -0.00679  -0.00678   2.08762
   A18        2.09440  -0.00226   0.00000  -0.00246  -0.00248   2.09191
   A19        2.09440   0.00294   0.00000   0.00328   0.00329   2.09769
   A20        2.09440  -0.00068   0.00000  -0.00083  -0.00081   2.09358
   A21        2.09440   0.00676   0.00000   0.00701   0.00698   2.10137
   A22        2.09440  -0.00955   0.00000  -0.00936  -0.00935   2.08505
   A23        2.09440   0.00279   0.00000   0.00236   0.00237   2.09677
   A24        2.09440  -0.00466   0.00000  -0.00358  -0.00358   2.09081
   A25        2.09440   0.00060   0.00000   0.00014   0.00014   2.09454
   A26        2.09440   0.00406   0.00000   0.00344   0.00344   2.09783
   A27        2.09440  -0.01478   0.00000  -0.01369  -0.01367   2.08072
   A28        2.09440  -0.00097   0.00000  -0.00109  -0.00110   2.09329
   A29        2.09440   0.01575   0.00000   0.01479   0.01477   2.10917
   A30        2.09440   0.02099   0.00000   0.01951   0.01954   2.11393
   A31        2.09440  -0.07780   0.00000  -0.07367  -0.07369   2.02071
   A32        2.09440   0.05681   0.00000   0.05416   0.05415   2.14854
   A33        2.09440  -0.14612   0.00000  -0.13876  -0.13876   1.95563
   A34        2.09440  -0.14612   0.00000  -0.13876  -0.13876   1.95563
    D1        0.00000   0.00000   0.00000   0.00000   0.00000   0.00000
    D2        3.14159   0.00000   0.00000   0.00000   0.00000   3.14159
    D3       -0.00000  -0.00000   0.00000  -0.00000  -0.00000  -0.00000
    D4        3.14159   0.00000   0.00000   0.00000   0.00000   3.14159
    D5        0.00000  -0.00000   0.00000  -0.00000  -0.00000   0.00000
    D6        3.14159  -0.00000   0.00000  -0.00000  -0.00000   3.14159
    D7       -3.14159  -0.00000   0.00000  -0.00000  -0.00000  -3.14159
    D8        0.00000  -0.00000   0.00000  -0.00000  -0.00000   0.00000
    D9       -0.00000   0.00000   0.00000   0.00000   0.00000  -0.00000
   D10        3.14159  -0.00000   0.00000  -0.00000  -0.00000   3.14159
   D11        3.14159   0.00000   0.00000   0.00000   0.00000   3.14159
   D12        0.00000   0.00000   0.00000   0.00000   0.00000   0.00000
   D13        0.00000  -0.00000   0.00000  -0.00000  -0.00000   0.00000
   D14       -3.14159  -0.00000   0.00000  -0.00000  -0.00000  -3.14159
   D15       -3.14159  -0.00000   0.00000  -0.00000  -0.00000  -3.14159
   D16        0.00000  -0.00000   0.00000  -0.00000  -0.00000   0.00000
   D17       -0.00000   0.00000   0.00000   0.00000   0.00000  -0.00000
   D18        3.14159  -0.00000   0.00000  -0.00000  -0.00000   3.14159
   D19        3.14159   0.00000   0.00000   0.00000   0.00000   3.14159
   D20       -0.00000  -0.00000   0.00000  -0.00000  -0.00000  -0.00000
   D21        0.00001  -0.00000   0.00000  -0.00000  -0.00000   0.00001
   D22       -3.14159  -0.00000   0.00000  -0.00000  -0.00000  -3.14159
   D23        0.00000   0.00000   0.00000   0.00000   0.00000   0.00000
   D24       -3.14159  -0.00000   0.00000  -0.00000  -0.00000  -3.14159
   D25       -0.00000  -0.00000   0.00000  -0.00000  -0.00000  -0.00000
   D26        3.14159   0.00000   0.00000   0.00000   0.00000   3.14159
   D27       -0.00000  -0.00000   0.00000  -0.00000  -0.00000  -0.00000
   D28        3.14159  -0.00000   0.00000  -0.00000  -0.00000   3.14159
   D29        3.14159   0.00000   0.00000   0.00000   0.00000   3.14159
   D30       -0.00000   0.00000   0.00000   0.00000   0.00000  -0.00000
   D31       -0.00000  -0.00000   0.00000  -0.00000  -0.00000  -0.00000
   D32       -3.14159  -0.00000   0.00000  -0.00000  -0.00000  -3.14159
   D33        3.14159   0.00000   0.00000   0.00000   0.00000   3.14159
   D34        0.00000   0.00000   0.00000   0.00000   0.00000   0.00000
   D35        0.00000  -0.00000   0.00000  -0.00000  -0.00000   0.00000
   D36       -3.14159  -0.00000   0.00000  -0.00000  -0.00000  -3.14159
   D37        3.14159   0.00000   0.00000   0.00000   0.00000   3.14159
   D38        0.00000  -0.00000   0.00000  -0.00000  -0.00000   0.00000
   D39        0.00000   0.00000   0.00000   0.00000   0.00000   0.00000
   D40       -3.14159  -0.00000   0.00000  -0.00000  -0.00000  -3.14159
   D41        3.14159   0.00000   0.00000   0.00000   0.00000   3.14159
   D42       -0.00000  -0.00000   0.00000  -0.00000  -0.00000  -0.00000
   D43        0.00001  -0.00000   0.00000  -0.00000  -0.00000   0.00001
   D44       -3.14159  -0.00000   0.00000  -0.00000  -0.00000  -3.14159
   D45       -0.00001  -0.00000   0.00000  -0.00000  -0.00000  -0.00001
         Item               Value     Threshold  Converged?
 Maximum Force            0.539194     0.000450     NO 
 RMS     Force            0.059271     0.000300     NO 
 Maximum Displacement     1.869077     0.001800     NO 
 RMS     Displacement     0.554984     0.001200     NO 
 Predicted change in Energy=-1.295059D-01
 GradGradGradGradGradGradGradGradGradGradGradGradGradGradGradGradGradGrad

                          Input orientation:                          
 ---------------------------------------------------------------------
 Center     Atomic      Atomic             Coordinates (Angstroms)
 Number     Number       Type             X           Y           Z
 ---------------------------------------------------------------------
      1          6           0        0.424752   -0.001181    0.122637
      2          6           0        1.712651   -0.252333   -0.348835
      3          6           0        2.632702    0.796846   -0.454906
      4          6           0        2.267242    2.101388   -0.089500
      5          6           0        0.973171    2.355038    0.384472
      6          6           0        0.064033    1.297871    0.485447
      7          6           0       -0.193228   -1.057012    0.127935
      8          6           0        0.654343   -2.060469   -0.339763
      9          6           0        0.189643   -3.377171   -0.433952
     10          6           0       -1.125133   -3.694559   -0.060395
     11          6           0       -1.977893   -2.686925    0.409798
     12          6           0       -1.500905   -1.375865    0.498878
     13          1           0        1.999965   -1.247893   -0.630463
     14          1           0        1.661820   -1.825612   -0.627575
     15         17           0       -2.491254   -0.020717    1.079669
     16         17           0       -1.599923    1.502153    1.072009
     17         17           0       -3.629416   -3.081243    0.879856
     18         17           0        0.510306    3.991580    0.844316
     19         17           0       -1.698345   -5.352562   -0.182929
     20         17           0        3.431610    3.412082   -0.226947
     21         17           0        1.266773   -4.633845   -1.024837
     22         17           0        4.253250    0.468608   -1.050446
 ---------------------------------------------------------------------
                    Distance matrix (angstroms):
                    1          2          3          4          5
     1  C    0.000000
     2  C    1.394290   0.000000
     3  C    2.417735   1.399471   0.000000
     4  C    2.803671   2.432042   1.403180   0.000000
     5  C    2.433329   2.807659   2.426224   1.401288   0.000000
     6  C    1.396168   2.411865   2.780890   2.414608   1.397974
     7  C    1.223399   2.123015   3.429631   4.009574   3.615022
     8  C    2.123015   2.095103   3.477271   4.470474   4.485853
     9  C    3.429631   3.477271   4.836465   5.869384   5.843111
    10  C    4.009574   4.470474   5.869384   6.715807   6.418599
    11  C    3.615022   4.485853   5.843111   6.418599   5.842158
    12  C    2.395719   3.508259   4.766244   5.161048   4.478145
    13  H    2.145401   1.073780   2.147588   3.403199   3.881432
    14  H    2.328455   1.598589   2.801733   4.009662   4.356180
    15  Cl   3.069102   4.446019   5.410939   5.339811   4.257905
    16  Cl   2.694555   4.008760   4.554562   4.082052   2.796593
    17  Cl   5.147469   6.168475   7.485671   7.910113   7.140193
    18  Cl   4.058359   4.569468   4.049552   2.744388   1.761809
    19  Cl   5.765257   6.137976   7.526430   8.443695   8.177166
    20  Cl   4.562211   4.049396   2.744026   1.758568   2.745013
    21  Cl   4.846366   4.455719   5.628764   6.873075   7.135604
    22  Cl   4.031652   2.732519   1.757437   2.744743   4.046792
                    6          7          8          9         10
     6  C    0.000000
     7  C    2.395719   0.000000
     8  C    3.508259   1.394290   0.000000
     9  C    4.766244   2.417735   1.399471   0.000000
    10  C    5.161048   2.803671   2.432042   1.403180   0.000000
    11  C    4.478145   2.433329   2.807659   2.426224   1.401288
    12  C    3.098076   1.396168   2.411865   2.780890   2.414608
    13  H    3.387329   2.328455   1.598589   2.801733   4.009662
    14  H    3.680744   2.145401   1.073780   2.147588   3.403199
    15  Cl   2.936200   2.694555   4.008760   4.554562   4.082052
    16  Cl   1.776101   3.069102   4.446019   5.410939   5.339811
    17  Cl   5.742278   4.058359   4.569468   4.049552   2.744388
    18  Cl   2.753909   5.147469   6.168476   7.485672   7.910113
    19  Cl   6.912377   4.562211   4.049396   2.744026   1.758568
    20  Cl   4.039550   5.765257   6.137976   7.526430   8.443695
    21  Cl   6.238011   4.031652   2.732519   1.757437   2.744743
    22  Cl   4.538301   4.846366   4.455719   5.628764   6.873075
                   11         12         13         14         15
    11  C    0.000000
    12  C    1.397974   0.000000
    13  H    4.356180   3.680744   0.000000
    14  H    3.881432   3.387329   0.669410   0.000000
    15  Cl   2.796593   1.776101   4.959997   4.839458   0.000000
    16  Cl   4.257905   2.936200   4.839458   4.959997   1.764558
    17  Cl   1.761809   2.753909   6.110005   5.643238   3.271415
    18  Cl   7.140193   5.742278   5.643238   6.110005   5.016301
    19  Cl   2.745013   4.039550   5.543112   4.891605   5.536374
    20  Cl   8.177166   6.912377   4.891605   5.543112   6.969338
    21  Cl   4.046792   4.538301   3.486800   2.863574   6.311312
    22  Cl   7.135603   6.238011   2.863574   3.486800   7.089793
                   16         17         18         19         20
    16  Cl   0.000000
    17  Cl   5.016301   0.000000
    18  Cl   3.271415   8.195327   0.000000
    19  Cl   6.969338   3.165034   9.656415   0.000000
    20  Cl   5.536374   9.656415   3.165034  10.155656   0.000000
    21  Cl   7.089793   5.478238   8.857987   3.165009   8.370190
    22  Cl   6.311312   8.857987   5.478238   8.370190   3.165009
                   21         22
    21  Cl   0.000000
    22  Cl   5.912252   0.000000
 Stoichiometry    C12H2Cl8
 Framework group  C1[X(C12H2Cl8)]
 Deg. of freedom    60
 Full point group                 C1      NOp   1
 Largest Abelian subgroup         C1      NOp   1
 Largest concise Abelian subgroup C1      NOp   1
                         Standard orientation:                         
 ---------------------------------------------------------------------
 Center     Atomic      Atomic             Coordinates (Angstroms)
 Number     Number       Type             X           Y           Z
 ---------------------------------------------------------------------
      1          6           0        0.611700   -0.028416   -0.000001
      2          6           0        1.047551    1.296000   -0.000003
      3          6           0        2.418232    1.578408   -0.000004
      4          6           0        3.357903    0.536327   -0.000003
      5          6           0        2.921079   -0.795135    0.000002
      6          6           0        1.549038   -1.063154    0.000003
      7          6           0       -0.611700   -0.028416    0.000005
      8          6           0       -1.047551    1.296000    0.000007
      9          6           0       -2.418232    1.578408    0.000006
     10          6           0       -3.357903    0.536327    0.000002
     11          6           0       -2.921079   -0.795135   -0.000001
     12          6           0       -1.549038   -1.063154    0.000000
     13          1           0        0.334705    2.099028   -0.000007
     14          1           0       -0.334705    2.099028    0.000008
     15         17           0       -0.882279   -2.709352   -0.000005
     16         17           0        0.882279   -2.709352    0.000007
     17         17           0       -4.097663   -2.106478   -0.000010
     18         17           0        4.097663   -2.106478    0.000008
     19         17           0       -5.077828    0.902960   -0.000002
     20         17           0        5.077828    0.902960   -0.000004
     21         17           0       -2.956126    3.251505    0.000010
     22         17           0        2.956126    3.251505   -0.000009
 ---------------------------------------------------------------------
 Rotational constants (GHZ):           0.2841958           0.1161233           0.0824386
 Standard basis: 6-311+G(d,p) (5D, 7F)
 There are   536 symmetry adapted cartesian basis functions of A   symmetry.
 There are   516 symmetry adapted basis functions of A   symmetry.
   516 basis functions,   872 primitive gaussians,   536 cartesian basis functions
   105 alpha electrons      105 beta electrons
       nuclear repulsion energy      2729.1709182121 Hartrees.
 NAtoms=   22 NActive=   22 NUniq=   22 SFac= 1.00D+00 NAtFMM=   60 NAOKFM=F Big=F
 Integral buffers will be    131072 words long.
 Raffenetti 2 integral format.
 Two-electron integral symmetry is turned on.
 One-electron integrals computed using PRISM.
 NBasis=   516 RedAO= T EigKep=  1.07D-06  NBF=   516
 NBsUse=   508 1.00D-06 EigRej=  3.47D-07 NBFU=   508
 Initial guess from the checkpoint file:  "./Gau-296739.chk"
 B after Tr=    -0.000000   -0.000000   -0.000000
         Rot=    1.000000   -0.000000   -0.000000   -0.000000 Ang=  -0.00 deg.
 ExpMin= 4.38D-02 ExpMax= 1.06D+05 ExpMxC= 3.62D+03 IAcc=3 IRadAn=         5 AccDes= 0.00D+00
 Harris functional with IExCor=  402 and IRadAn=       5 diagonalized for initial guess.
 HarFok:  IExCor=  402 AccDes= 0.00D+00 IRadAn=         5 IDoV= 1 UseB2=F ITyADJ=14
 ICtDFT=  3500011 ScaDFX=  1.000000  1.000000  1.000000  1.000000
 FoFCou: FMM=F IPFlag=           0 FMFlag=      100000 FMFlg1=           0
         NFxFlg=           0 DoJE=T BraDBF=F KetDBF=T FulRan=T
         wScrn=  0.000000 ICntrl=       500 IOpCl=  0 I1Cent=   200000004 NGrid=           0
         NMat0=    1 NMatS0=      1 NMatT0=    0 NMatD0=    1 NMtDS0=    0 NMtDT0=    0
 Petite list used in FoFCou.
 Requested convergence on RMS density matrix=1.00D-08 within  32 cycles.
 Requested convergence on MAX density matrix=1.00D-06.
 Requested convergence on             energy=1.00D-06.
 No special actions if energy rises.
 EnCoef did     4 forward-backward iterations
 EnCoef did     1 forward-backward iterations
 EnCoef did     4 forward-backward iterations
 Rare condition: small coef for last iteration:  0.000D+00
 EnCoef did    21 forward-backward iterations
 Rare condition: small coef for last iteration:  0.000D+00
 EnCoef did   100 forward-backward iterations
 EnCoef did   100 forward-backward iterations
 EnCoef did   100 forward-backward iterations
 EnCoef did   100 forward-backward iterations
 Rare condition: small coef for last iteration:  0.206D-15
 EnCoef did   100 forward-backward iterations
 Restarting incremental Fock formation.
 Rare condition: small coef for last iteration:  0.000D+00
 EnCoef did   100 forward-backward iterations
 Rare condition: small coef for last iteration:  0.000D+00
 Rare condition: small coef for last iteration:  0.000D+00
 EnCoef did   100 forward-backward iterations
 Rare condition: small coef for last iteration:  0.000D+00
 EnCoef did   100 forward-backward iterations
 EnCoef did   100 forward-backward iterations
 Rare condition: small coef for last iteration:  0.311D-15
 EnCoef did   100 forward-backward iterations
 EnCoef did   100 forward-backward iterations
 Rare condition: small coef for last iteration:  0.741D-15
 EnCoef did   100 forward-backward iterations
 Rare condition: small coef for last iteration:  0.000D+00
 EnCoef did   100 forward-backward iterations
 Rare condition: small coef for last iteration:  0.000D+00
 EnCoef did   100 forward-backward iterations
 EnCoef did   100 forward-backward iterations
 >>>>>>>>>> Convergence criterion not met.
 SCF Done:  E(RB3LYP) =  -4139.64710477     A.U. after   33 cycles
            NFock= 32  Conv=0.50D-02     -V/T= 2.0018
 Gradient too large for Newton-Raphson -- use scaled steepest descent instead.
     Accept linear search using points  1 and  2.
 Gradient too large for Newton-Raphson -- use scaled steepest descent instead.
     Accept linear search using points  1 and  2.
 Gradient too large for Newton-Raphson -- use scaled steepest descent instead.
     Minimum is close to point  3 DX= -5.14D-03 DF= -1.53D-07 DXR=  1.74D-02 DFR=  3.03D-04 which will be used.
 Gradient too large for Newton-Raphson -- use scaled steepest descent instead.
     Minimum is close to point  3 DX=  4.94D-02 DF= -6.38D-07 DXR=  7.61D-02 DFR=  5.85D-03 which will be used.
 LinEq1:  Iter=  0 NonCon=     1 RMS=1.06D-04 Max=1.55D-02 NDo=     1
 AX will form     1 AO Fock derivatives at one time.
 LinEq1:  Iter=  1 NonCon=     1 RMS=5.42D-04 Max=1.08D-01 NDo=     1
 LinEq1:  Iter=  2 NonCon=     1 RMS=2.04D-04 Max=1.48D-02 NDo=     1
 LinEq1:  Iter=  3 NonCon=     1 RMS=1.38D-04 Max=1.57D-02 NDo=     1
 LinEq1:  Iter=  4 NonCon=     1 RMS=1.39D-04 Max=9.08D-03 NDo=     1
 LinEq1:  Iter=  5 NonCon=     1 RMS=6.16D-05 Max=2.90D-03 NDo=     1
 LinEq1:  Iter=  6 NonCon=     1 RMS=4.89D-05 Max=3.03D-03 NDo=     1
 LinEq1:  Iter=  7 NonCon=     1 RMS=5.35D-05 Max=3.56D-03 NDo=     1
 LinEq1:  Iter=  8 NonCon=     1 RMS=2.50D-05 Max=1.40D-03 NDo=     1
 LinEq1:  Iter=  9 NonCon=     1 RMS=2.75D-05 Max=3.54D-03 NDo=     1
 LinEq1:  Iter= 10 NonCon=     1 RMS=2.27D-05 Max=1.89D-03 NDo=     1
 LinEq1:  Iter= 11 NonCon=     1 RMS=1.83D-05 Max=1.63D-03 NDo=     1
 LinEq1:  Iter= 12 NonCon=     1 RMS=1.33D-05 Max=6.53D-04 NDo=     1
 LinEq1:  Iter= 13 NonCon=     1 RMS=7.77D-06 Max=3.60D-04 NDo=     1
 LinEq1:  Iter= 14 NonCon=     1 RMS=4.15D-06 Max=1.73D-04 NDo=     1
 LinEq1:  Iter= 15 NonCon=     1 RMS=2.30D-06 Max=1.00D-04 NDo=     1
 LinEq1:  Iter= 16 NonCon=     1 RMS=9.00D-07 Max=3.34D-05 NDo=     1
 LinEq1:  Iter= 17 NonCon=     1 RMS=4.68D-07 Max=2.37D-05 NDo=     1
 LinEq1:  Iter= 18 NonCon=     1 RMS=3.79D-07 Max=1.37D-05 NDo=     1
 LinEq1:  Iter= 19 NonCon=     1 RMS=2.06D-07 Max=7.88D-06 NDo=     1
 LinEq1:  Iter= 20 NonCon=     1 RMS=1.46D-07 Max=7.58D-06 NDo=     1
 LinEq1:  Iter= 21 NonCon=     1 RMS=6.33D-08 Max=2.84D-06 NDo=     1
 LinEq1:  Iter= 22 NonCon=     1 RMS=3.33D-08 Max=1.46D-06 NDo=     1
 LinEq1:  Iter= 23 NonCon=     1 RMS=2.56D-08 Max=1.44D-06 NDo=     1
 LinEq1:  Iter= 24 NonCon=     1 RMS=1.14D-08 Max=7.34D-07 NDo=     1
 LinEq1:  Iter= 25 NonCon=     0 RMS=4.40D-09 Max=2.43D-07 NDo=     1
 Linear equations converged to 2.909D-08 2.909D-07 after    25 iterations.
     Accept linear search using points  1 and  2.
     Minimum is close to point  2 DX= -3.73D-02 DF= -3.18D-07 DXR=  3.87D-02 DFR=  1.54D-03 which will be used.
 LinEq1:  Iter=  0 NonCon=     1 RMS=5.16D-05 Max=1.04D-02 NDo=     1
 LinEq1:  Iter=  1 NonCon=     1 RMS=2.89D-05 Max=4.37D-03 NDo=     1
 LinEq1:  Iter=  2 NonCon=     1 RMS=3.00D-05 Max=2.65D-03 NDo=     1
 LinEq1:  Iter=  3 NonCon=     1 RMS=1.52D-05 Max=9.42D-04 NDo=     1
 LinEq1:  Iter=  4 NonCon=     1 RMS=1.25D-05 Max=8.69D-04 NDo=     1
 LinEq1:  Iter=  5 NonCon=     1 RMS=8.56D-06 Max=4.59D-04 NDo=     1
 LinEq1:  Iter=  6 NonCon=     1 RMS=8.82D-06 Max=5.37D-04 NDo=     1
 LinEq1:  Iter=  7 NonCon=     1 RMS=5.44D-06 Max=3.59D-04 NDo=     1
 LinEq1:  Iter=  8 NonCon=     1 RMS=2.79D-06 Max=1.76D-04 NDo=     1
 LinEq1:  Iter=  9 NonCon=     1 RMS=2.40D-06 Max=1.88D-04 NDo=     1
 LinEq1:  Iter= 10 NonCon=     1 RMS=2.06D-06 Max=1.38D-04 NDo=     1
 LinEq1:  Iter= 11 NonCon=     1 RMS=1.52D-06 Max=8.86D-05 NDo=     1
 LinEq1:  Iter= 12 NonCon=     1 RMS=8.47D-07 Max=4.57D-05 NDo=     1
 LinEq1:  Iter= 13 NonCon=     1 RMS=5.92D-07 Max=5.95D-05 NDo=     1
 LinEq1:  Iter= 14 NonCon=     1 RMS=4.28D-07 Max=4.15D-05 NDo=     1
 LinEq1:  Iter= 15 NonCon=     1 RMS=2.90D-07 Max=1.63D-05 NDo=     1
 LinEq1:  Iter= 16 NonCon=     1 RMS=1.40D-07 Max=5.68D-06 NDo=     1
 LinEq1:  Iter= 17 NonCon=     1 RMS=1.11D-07 Max=5.44D-06 NDo=     1
 LinEq1:  Iter= 18 NonCon=     1 RMS=7.66D-08 Max=3.72D-06 NDo=     1
 LinEq1:  Iter= 19 NonCon=     1 RMS=5.12D-08 Max=2.71D-06 NDo=     1
 LinEq1:  Iter= 20 NonCon=     1 RMS=2.71D-08 Max=1.27D-06 NDo=     1
 LinEq1:  Iter= 21 NonCon=     1 RMS=9.80D-09 Max=4.17D-07 NDo=     1
 LinEq1:  Iter= 22 NonCon=     1 RMS=5.75D-09 Max=2.65D-07 NDo=     1
 LinEq1:  Iter= 23 NonCon=     1 RMS=4.26D-09 Max=1.60D-07 NDo=     1
 LinEq1:  Iter= 24 NonCon=     0 RMS=1.44D-09 Max=4.84D-08 NDo=     1
 Linear equations converged to 1.260D-08 1.260D-07 after    24 iterations.
     Minimum is close to point  2 DX=  9.16D-03 DF= -1.32D-10 DXR=  9.08D-03 DFR=  8.28D-05 which will be used.
 LinEq1:  Iter=  0 NonCon=     1 RMS=3.02D-07 Max=6.11D-05 NDo=     1
 LinEq1:  Iter=  1 NonCon=     1 RMS=3.70D-07 Max=5.57D-05 NDo=     1
 LinEq1:  Iter=  2 NonCon=     1 RMS=1.45D-07 Max=1.18D-05 NDo=     1
 LinEq1:  Iter=  3 NonCon=     1 RMS=1.24D-07 Max=1.13D-05 NDo=     1
 LinEq1:  Iter=  4 NonCon=     1 RMS=8.99D-08 Max=4.92D-06 NDo=     1
 LinEq1:  Iter=  5 NonCon=     1 RMS=5.49D-08 Max=3.00D-06 NDo=     1
 LinEq1:  Iter=  6 NonCon=     1 RMS=4.31D-08 Max=3.27D-06 NDo=     1
 LinEq1:  Iter=  7 NonCon=     1 RMS=4.78D-08 Max=3.02D-06 NDo=     1
 LinEq1:  Iter=  8 NonCon=     1 RMS=2.17D-08 Max=1.13D-06 NDo=     1
 LinEq1:  Iter=  9 NonCon=     1 RMS=1.43D-08 Max=1.02D-06 NDo=     1
 LinEq1:  Iter= 10 NonCon=     1 RMS=1.19D-08 Max=8.91D-07 NDo=     1
 LinEq1:  Iter= 11 NonCon=     1 RMS=9.95D-09 Max=4.72D-07 NDo=     1
 LinEq1:  Iter= 12 NonCon=     1 RMS=7.09D-09 Max=3.81D-07 NDo=     1
 LinEq1:  Iter= 13 NonCon=     1 RMS=3.34D-09 Max=1.71D-07 NDo=     1
 LinEq1:  Iter= 14 NonCon=     1 RMS=1.91D-09 Max=1.83D-07 NDo=     1
 LinEq1:  Iter= 15 NonCon=     1 RMS=1.53D-09 Max=1.62D-07 NDo=     1
 LinEq1:  Iter= 16 NonCon=     1 RMS=9.44D-10 Max=5.93D-08 NDo=     1
 LinEq1:  Iter= 17 NonCon=     1 RMS=4.23D-10 Max=1.79D-08 NDo=     1
 LinEq1:  Iter= 18 NonCon=     1 RMS=4.12D-10 Max=2.04D-08 NDo=     1
 LinEq1:  Iter= 19 NonCon=     1 RMS=2.24D-10 Max=1.25D-08 NDo=     1
 LinEq1:  Iter= 20 NonCon=     1 RMS=9.88D-11 Max=4.88D-09 NDo=     1
 LinEq1:  Iter= 21 NonCon=     1 RMS=6.83D-11 Max=3.15D-09 NDo=     1
 LinEq1:  Iter= 22 NonCon=     1 RMS=4.32D-11 Max=1.62D-09 NDo=     1
 LinEq1:  Iter= 23 NonCon=     1 RMS=2.89D-11 Max=9.96D-10 NDo=     1
 LinEq1:  Iter= 24 NonCon=     1 RMS=2.51D-11 Max=5.90D-10 NDo=     1
 LinEq1:  Iter= 25 NonCon=     1 RMS=2.89D-11 Max=1.51D-09 NDo=     1
 LinEq1:  Iter= 26 NonCon=     1 RMS=2.94D-11 Max=1.02D-09 NDo=     1
 LinEq1:  Iter= 27 NonCon=     1 RMS=6.01D-11 Max=3.18D-09 NDo=     1
 LinEq1:  Iter= 28 NonCon=     1 RMS=1.76D-11 Max=5.29D-10 NDo=     1
 LinEq1:  Iter= 29 NonCon=     1 RMS=3.62D-11 Max=2.27D-09 NDo=     1
 LinEq1:  Iter= 30 NonCon=     1 RMS=2.27D-11 Max=1.22D-09 NDo=     1
 LinEq1:  Iter= 31 NonCon=     1 RMS=3.04D-11 Max=1.04D-09 NDo=     1
 LinEq1:  Iter= 32 NonCon=     1 RMS=2.26D-11 Max=9.52D-10 NDo=     1
 LinEq1:  Iter= 33 NonCon=     1 RMS=3.20D-11 Max=1.16D-09 NDo=     1
 LinEq1:  Iter= 34 NonCon=     1 RMS=2.89D-11 Max=1.02D-09 NDo=     1
 LinEq1:  Iter= 35 NonCon=     1 RMS=3.24D-11 Max=1.20D-09 NDo=     1
 LinEq1:  Iter= 36 NonCon=     1 RMS=4.75D-11 Max=1.82D-09 NDo=     1
 LinEq1:  Iter= 37 NonCon=     1 RMS=4.93D-11 Max=2.39D-09 NDo=     1
 LinEq1:  Iter= 38 NonCon=     1 RMS=2.13D-11 Max=6.20D-10 NDo=     1
 LinEq1:  Iter= 39 NonCon=     1 RMS=2.49D-11 Max=6.74D-10 NDo=     1
 LinEq1:  Iter= 40 NonCon=     1 RMS=2.49D-11 Max=5.51D-10 NDo=     1
 LinEq1:  Iter= 41 NonCon=     1 RMS=2.16D-11 Max=1.12D-09 NDo=     1
 LinEq1:  Iter= 42 NonCon=     1 RMS=3.06D-11 Max=1.06D-09 NDo=     1
 LinEq1:  Iter= 43 NonCon=     1 RMS=2.32D-11 Max=6.51D-10 NDo=     1
 LinEq1:  Iter= 44 NonCon=     1 RMS=2.92D-11 Max=6.74D-10 NDo=     1
 LinEq1:  Iter= 45 NonCon=     1 RMS=2.31D-11 Max=5.74D-10 NDo=     1
 LinEq1:  Iter= 46 NonCon=     1 RMS=2.02D-11 Max=4.25D-10 NDo=     1
 LinEq1:  Iter= 47 NonCon=     1 RMS=2.20D-11 Max=4.45D-10 NDo=     1
 LinEq1:  Iter= 48 NonCon=     1 RMS=3.53D-11 Max=8.80D-10 NDo=     1
 LinEq1:  Iter= 49 NonCon=     1 RMS=2.12D-11 Max=5.52D-10 NDo=     1
 LinEq1:  Iter= 50 NonCon=     1 RMS=2.31D-11 Max=5.83D-10 NDo=     1
 LinEq1:  Iter= 51 NonCon=     1 RMS=2.63D-11 Max=7.80D-10 NDo=     1
 LinEq1:  Iter= 52 NonCon=     1 RMS=2.19D-11 Max=5.85D-10 NDo=     1
 LinEq1:  Iter= 53 NonCon=     1 RMS=1.72D-11 Max=4.35D-10 NDo=     1
 LinEq1:  Iter= 54 NonCon=     1 RMS=2.15D-11 Max=5.58D-10 NDo=     1
 LinEq1:  Iter= 55 NonCon=     1 RMS=1.82D-11 Max=4.82D-10 NDo=     1
 LinEq1:  Iter= 56 NonCon=     1 RMS=2.28D-11 Max=5.46D-10 NDo=     1
 LinEq1:  Iter= 57 NonCon=     1 RMS=2.47D-11 Max=4.48D-10 NDo=     1
 LinEq1:  Iter= 58 NonCon=     1 RMS=2.42D-11 Max=5.35D-10 NDo=     1
 LinEq1:  Iter= 59 NonCon=     1 RMS=1.80D-11 Max=4.74D-10 NDo=     1
 LinEq1:  Iter= 60 NonCon=     1 RMS=2.35D-11 Max=6.47D-10 NDo=     1
 LinEq1:  Iter= 61 NonCon=     1 RMS=2.19D-11 Max=6.35D-10 NDo=     1
 LinEq1:  Iter= 62 NonCon=     1 RMS=1.83D-11 Max=6.10D-10 NDo=     1
 LinEq1:  Iter= 63 NonCon=     1 RMS=2.00D-11 Max=4.22D-10 NDo=     1
 LinEq1:  Iter= 64 NonCon=     0 RMS=1.77D-11 Max=2.88D-10 NDo=     1
 Linear equations converged to 4.134D-11 4.134D-10 after    64 iterations.
 SCF Done:  E(RB3LYP) =  -4139.66047638     a.u. after    8 cycles
            Convg  =    0.7172D-09                   128 Fock formations.
              S**2 =  0.0000                  -V/T =  2.0017
 Calling FoFJK, ICntrl=      2127 FMM=F ISym2X=0 I1Cent= 0 IOpClX= 0 NMat=1 NMatS=1 NMatT=0.
 ***** Axes restored to original set *****
 -------------------------------------------------------------------
 Center     Atomic                   Forces (Hartrees/Bohr)
 Number     Number              X              Y              Z
 -------------------------------------------------------------------
      1        6           0.128666426    0.221123444   -0.001758777
      2        6           0.113853480    0.170149757   -0.006312504
      3        6          -0.011799192   -0.008433053    0.002123755
      4        6           0.012310111    0.013319920    0.000435565
      5        6          -0.004405599    0.004557798    0.013602830
      6        6           0.019101191    0.027778700   -0.007752132
      7        6          -0.129280274   -0.220762800    0.002028727
      8        6          -0.092190595   -0.182876884   -0.003214563
      9        6           0.001687682    0.014373643    0.002323250
     10        6          -0.006729700   -0.016598476   -0.002889875
     11        6          -0.012578567    0.005420550   -0.006133044
     12        6          -0.011054443   -0.032506051    0.004213194
     13        1           0.133343111    0.228350805   -0.000814981
     14        1          -0.133936892   -0.228001965    0.001075989
     15       17          -0.241332881   -0.415660939    0.022094789
     16       17           0.232434785    0.420888467   -0.018181499
     17       17           0.010187083    0.003745326   -0.004372433
     18       17           0.002694369   -0.011313311   -0.001292849
     19       17           0.001778881    0.004260657    0.003508343
     20       17          -0.004726061   -0.002529133   -0.002212240
     21       17          -0.001888745    0.006043401    0.001665964
     22       17          -0.006134172   -0.001329857    0.001862490
 -------------------------------------------------------------------
[...]
                 (A) (A) (A) (A) (A) (A) (A) (A) (A) (A) (A) (A)
                 (A) (A) (A) (A) (A) (A) (A) (A) (A) (A) (A) (A)
                 (A) (A) (A) (A) (A) (A) (A) (A) (A) (A) (A) (A)
                 (A) (A) (A) (A) (A) (A) (A) (A) (A) (A) (A) (A)
                 (A) (A) (A) (A) (A) (A) (A) (A) (A) (A) (A) (A)
                 (A) (A) (A) (A) (A) (A) (A) (A) (A) (A) (A) (A)
                 (A) (A) (A) (A) (A) (A) (A) (A) (A) (A) (A) (A)
                 (A) (A) (A) (A) (A) (A) (A) (A) (A) (A) (A) (A)
                 (A) (A) (A) (A) (A) (A) (A) (A) (A) (A) (A) (A)
                 (A) (A) (A) (A) (A) (A) (A) (A)
 The electronic state is 1-A.
 Alpha  occ. eigenvalues -- -101.58395-101.58395-101.58362-101.58361-101.58243
 Alpha  occ. eigenvalues -- -101.58243-101.58235-101.58235 -10.28675 -10.28675
 Alpha  occ. eigenvalues --  -10.28594 -10.28593 -10.28214 -10.28214 -10.27991
 Alpha  occ. eigenvalues --  -10.27991 -10.24299 -10.24271 -10.22733 -10.22733
 Alpha  occ. eigenvalues --   -9.49858  -9.49858  -9.49828  -9.49828  -9.49717
 Alpha  occ. eigenvalues --   -9.49717  -9.49690  -9.49690  -7.26363  -7.26363
 Alpha  occ. eigenvalues --   -7.26333  -7.26333  -7.26207  -7.26207  -7.26183
 Alpha  occ. eigenvalues --   -7.26183  -7.25339  -7.25339  -7.25309  -7.25309
 Alpha  occ. eigenvalues --   -7.25251  -7.25251  -7.25220  -7.25220  -7.25197
 Alpha  occ. eigenvalues --   -7.25197  -7.25167  -7.25167  -7.25126  -7.25126
 Alpha  occ. eigenvalues --   -7.25107  -7.25107  -0.97060  -0.96355  -0.92410
 Alpha  occ. eigenvalues --   -0.91941  -0.90777  -0.89573  -0.87376  -0.87198
 Alpha  occ. eigenvalues --   -0.86218  -0.84747  -0.79580  -0.76328  -0.75741
 Alpha  occ. eigenvalues --   -0.74483  -0.67155  -0.64613  -0.64344  -0.61844
 Alpha  occ. eigenvalues --   -0.55764  -0.55175  -0.55160  -0.53191  -0.50377
 Alpha  occ. eigenvalues --   -0.49039  -0.47686  -0.47460  -0.47445  -0.46655
 Alpha  occ. eigenvalues --   -0.46633  -0.44997  -0.43088  -0.42982  -0.42184
 Alpha  occ. eigenvalues --   -0.40921  -0.40454  -0.38503  -0.38455  -0.36147
 Alpha  occ. eigenvalues --   -0.36071  -0.36005  -0.35908  -0.35671  -0.35431
 Alpha  occ. eigenvalues --   -0.34336  -0.34097  -0.33915  -0.33821  -0.32175
 Alpha  occ. eigenvalues --   -0.32144  -0.28282  -0.28189  -0.27326  -0.27210
 Alpha virt. eigenvalues --   -0.07094  -0.06786  -0.06185  -0.05742  -0.05551
 Alpha virt. eigenvalues --   -0.04826  -0.01196  -0.00737  -0.00376   0.00872
 Alpha virt. eigenvalues --    0.01459   0.01751   0.01927   0.01994   0.02273
 Alpha virt. eigenvalues --    0.02380   0.03760   0.04135   0.05006   0.05083
 Alpha virt. eigenvalues --    0.05199   0.05765   0.06180   0.07218   0.07364
 Alpha virt. eigenvalues --    0.07492   0.07737   0.07788   0.08327   0.08364
 Alpha virt. eigenvalues --    0.08566   0.08659   0.09237   0.09352   0.09963
 Alpha virt. eigenvalues --    0.10402   0.10759   0.10962   0.11005   0.11773
 Alpha virt. eigenvalues --    0.12075   0.12402   0.12624   0.12990   0.13317
 Alpha virt. eigenvalues --    0.13756   0.13992   0.14283   0.14318   0.14972
 Alpha virt. eigenvalues --    0.15247   0.15844   0.16124   0.16942   0.17244
 Alpha virt. eigenvalues --    0.17307   0.17739   0.17960   0.18174   0.18349
 Alpha virt. eigenvalues --    0.18525   0.18970   0.19264   0.19693   0.20040
 Alpha virt. eigenvalues --    0.20213   0.21181   0.21203   0.21818   0.21860
 Alpha virt. eigenvalues --    0.22457   0.22500   0.23147   0.23169   0.24184
 Alpha virt. eigenvalues --    0.24509   0.24903   0.25367   0.25488   0.25613
 Alpha virt. eigenvalues --    0.26053   0.26618   0.26756   0.27230   0.27379
 Alpha virt. eigenvalues --    0.27755   0.28167   0.28551   0.28563   0.28923
 Alpha virt. eigenvalues --    0.28972   0.29794   0.29918   0.30801   0.31066
 Alpha virt. eigenvalues --    0.31577   0.33682   0.34435   0.39533   0.39651
 Alpha virt. eigenvalues --    0.41610   0.42287   0.42523   0.42878   0.43445
 Alpha virt. eigenvalues --    0.43746   0.43903   0.44376   0.44914   0.45181
 Alpha virt. eigenvalues --    0.45284   0.45362   0.45913   0.46152   0.47388
 Alpha virt. eigenvalues --    0.47577   0.47674   0.48167   0.48507   0.48967
 Alpha virt. eigenvalues --    0.49537   0.50431   0.50575   0.50867   0.52605
 Alpha virt. eigenvalues --    0.53119   0.55588   0.55887   0.56730   0.56917
 Alpha virt. eigenvalues --    0.57177   0.58509   0.58848   0.58882   0.60361
 Alpha virt. eigenvalues --    0.60521   0.60734   0.61131   0.62235   0.62949
 Alpha virt. eigenvalues --    0.63228   0.63857   0.63871   0.64816   0.65823
 Alpha virt. eigenvalues --    0.66021   0.67087   0.67286   0.67793   0.68898
 Alpha virt. eigenvalues --    0.69068   0.69165   0.73967   0.74904   0.76436
 Alpha virt. eigenvalues --    0.77591   0.79350   0.79709   0.80826   0.81044
 Alpha virt. eigenvalues --    0.82494   0.82646   0.83086   0.83146   0.83332
 Alpha virt. eigenvalues --    0.83647   0.83711   0.83896   0.84038   0.84195
 Alpha virt. eigenvalues --    0.84511   0.84791   0.85027   0.85340   0.85877
 Alpha virt. eigenvalues --    0.86298   0.87487   0.87934   0.88359   0.88698
 Alpha virt. eigenvalues --    0.88844   0.89154   0.90385   0.90450   0.91291
 Alpha virt. eigenvalues --    0.91441   0.91552   0.92978   0.93243   0.93722
 Alpha virt. eigenvalues --    0.93921   0.94121   0.94393   0.94523   0.95211
 Alpha virt. eigenvalues --    0.95223   0.96052   0.97305   0.97826   0.99030
 Alpha virt. eigenvalues --    0.99892   1.01483   1.03667   1.03918   1.04179
 Alpha virt. eigenvalues --    1.05079   1.05600   1.07891   1.10914   1.12094
 Alpha virt. eigenvalues --    1.17465   1.18305   1.18439   1.18837   1.19465
 Alpha virt. eigenvalues --    1.19988   1.22368   1.22658   1.24751   1.25305
 Alpha virt. eigenvalues --    1.26179   1.26697   1.27461   1.27535   1.27742
 Alpha virt. eigenvalues --    1.28127   1.28879   1.29726   1.30439   1.32609
 Alpha virt. eigenvalues --    1.34604   1.36685   1.37706   1.37799   1.42293
 Alpha virt. eigenvalues --    1.42798   1.45577   1.47084   1.47351   1.54468
 Alpha virt. eigenvalues --    1.56375   1.58913   1.59797   1.62498   1.63106
 Alpha virt. eigenvalues --    1.65280   1.65552   1.69759   1.71827   1.71869
 Alpha virt. eigenvalues --    1.74499   1.76766   1.78541   1.80267   1.81146
 Alpha virt. eigenvalues --    1.83122   1.83263   1.84145   1.84225   1.85249
 Alpha virt. eigenvalues --    1.86012   1.89748   1.90063   1.90677   1.96945
 Alpha virt. eigenvalues --    2.01818   2.03023   2.04437   2.04907   2.07789
 Alpha virt. eigenvalues --    2.10065   2.12242   2.17716   2.20522   2.21798
 Alpha virt. eigenvalues --    2.22216   2.22354   2.23033   2.23844   2.24132
 Alpha virt. eigenvalues --    2.26797   2.27335   2.27988   2.28072   2.28540
 Alpha virt. eigenvalues --    2.30424   2.31840   2.33046   2.33444   2.35577
 Alpha virt. eigenvalues --    2.36991   2.39046   2.41225   2.41241   2.41689
 Alpha virt. eigenvalues --    2.42275   2.44155   2.46412   2.47295   2.49493
 Alpha virt. eigenvalues --    2.51027   2.51615   2.54087   2.54117   2.57684
 Alpha virt. eigenvalues --    2.59796   2.61506   2.62278   2.65320   2.66019
 Alpha virt. eigenvalues --    2.67442   2.68606   2.68790   2.69761   2.73668
 Alpha virt. eigenvalues --    2.74022   2.75676   2.81493   2.81558   2.83110
 Alpha virt. eigenvalues --    2.87819   2.89212   2.96038   2.96694   3.03314
 Alpha virt. eigenvalues --    3.06831   3.07022   3.07644   3.10321   3.11347
 Alpha virt. eigenvalues --    3.13641   3.13877   3.15940   3.18868   3.22484
 Alpha virt. eigenvalues --    3.23946   3.27208   3.35747   3.37144   3.48027
 Alpha virt. eigenvalues --    3.54256   3.65380   3.66039   3.67287   3.76585
 Alpha virt. eigenvalues --    3.88344   3.92542   4.01782   4.03098   4.28338
 Alpha virt. eigenvalues --    4.79666   4.80257   9.73465   9.73802   9.78159
 Alpha virt. eigenvalues --    9.78534   9.80208   9.80295   9.81571   9.83581
 Alpha virt. eigenvalues --   23.28020  23.43355  23.78520  23.79586  23.84192
 Alpha virt. eigenvalues --   23.84651  23.91913  23.93625  23.93845  23.98998
 Alpha virt. eigenvalues --   24.06265  24.13324  25.76262  25.76289  25.79848
 Alpha virt. eigenvalues --   25.80061  25.85109  25.87231  25.91184  25.96634
 Alpha virt. eigenvalues --   26.06426  26.09386  26.09540  26.10460  26.17311
 Alpha virt. eigenvalues --   26.17495  26.24571  26.35381  26.45522  26.49257
 Alpha virt. eigenvalues --   26.58733  26.60167  26.72409  26.78145  26.94734
 Alpha virt. eigenvalues --   27.00273 215.72511 215.72662 215.77621 215.78098
 Alpha virt. eigenvalues --  215.79997 215.80105 215.82055 215.83965
          Condensed to atoms (all electrons):
               1          2          3          4          5          6
     1  C   21.712717  -2.050877  -8.878625   5.953871  -2.836700  -3.159663
     2  C   -2.050877  10.733595   0.720670  -4.074629   3.293099   2.467379
     3  C   -8.878625   0.720670  23.262885  -9.417214  -5.014342   4.510374
     4  C    5.953871  -4.074629  -9.417214  24.004543  -0.141298  -7.747306
     5  C   -2.836700   3.293099  -5.014342  -0.141298  16.435534  -0.885272
     6  C   -3.159663   2.467379   4.510374  -7.747306  -0.885272  16.599008
     7  C    3.615626  -2.959839   0.379074  -0.832280  -3.186306   0.563481
     8  C   -2.959685  -0.544719   0.473070   0.051426  -0.419308  -1.676995
     9  C    0.378686   0.472813   0.337860  -0.019138   0.070597  -0.367443
    10  C   -0.831895   0.051846  -0.019336  -0.050092   0.046644   0.198430
    11  C   -3.185892  -0.419156   0.070540   0.046625  -0.203760  -1.162841
    12  C    0.563693  -1.677400  -0.367384   0.198581  -1.163105  -1.517107
    13  H    0.074699   0.328036  -0.089707  -0.021542  -0.047037  -0.050674
    14  H    0.092463   0.020910  -0.029093   0.011761   0.017916   0.061304
    15  Cl  -0.136125   0.250810   0.219279  -0.133006   0.007616   0.209814
    16  Cl  -0.704472  -0.176551   1.034234  -1.016275  -0.315635  -1.326810
    17  Cl  -0.137586  -0.019254   0.004854   0.002444  -0.009880  -0.050545
    18  Cl  -0.486459   0.214248  -0.091322  -0.297591  -0.209396   0.571927
    19  Cl  -0.024058  -0.005504   0.008837  -0.003785  -0.002306  -0.041061
    20  Cl   0.173175  -0.129645  -0.937599   0.293011   0.727815  -0.735248
    21  Cl  -0.059165   0.022066   0.004767   0.005312  -0.004952  -0.017778
    22  Cl  -0.872345   0.258018   0.299787  -0.637668  -0.134857   0.345143
               7          8          9         10         11         12
     1  C    3.615626  -2.959685   0.378686  -0.831895  -3.185892   0.563693
     2  C   -2.959839  -0.544719   0.472813   0.051846  -0.419156  -1.677400
     3  C    0.379074   0.473070   0.337860  -0.019336   0.070540  -0.367384
     4  C   -0.832280   0.051426  -0.019138  -0.050092   0.046625   0.198581
     5  C   -3.186306  -0.419308   0.070597   0.046644  -0.203760  -1.163105
     6  C    0.563481  -1.676995  -0.367443   0.198430  -1.162841  -1.517107
     7  C   21.713374  -2.051323  -8.878316   5.953577  -2.837061  -3.159024
     8  C   -2.051323  10.733694   0.721294  -4.075467   3.292658   2.467616
     9  C   -8.878316   0.721294  23.261267  -9.416368  -5.013282   4.509654
    10  C    5.953577  -4.075467  -9.416368  24.004429  -0.141870  -7.746664
    11  C   -2.837061   3.292658  -5.013282  -0.141870  16.434479  -0.884813
    12  C   -3.159024   2.467616   4.509654  -7.746664  -0.884813  16.598030
    13  H    0.092481   0.020921  -0.029086   0.011760   0.017918   0.061312
    14  H    0.074720   0.328026  -0.089711  -0.021517  -0.047027  -0.050668
    15  Cl  -0.704549  -0.176316   1.034160  -1.016372  -0.315293  -1.326816
    16  Cl  -0.135968   0.251015   0.219384  -0.133134   0.007519   0.209860
    17  Cl  -0.486352   0.214202  -0.091369  -0.297501  -0.209497   0.571865
    18  Cl  -0.137616  -0.019287   0.004841   0.002446  -0.009882  -0.050573
    19  Cl   0.173201  -0.129627  -0.937343   0.292812   0.727661  -0.735194
    20  Cl  -0.024071  -0.005501   0.008839  -0.003783  -0.002305  -0.041049
    21  Cl  -0.872395   0.258054   0.299553  -0.637514  -0.134752   0.345129
    22  Cl  -0.059142   0.022082   0.004756   0.005311  -0.004951  -0.017783
              13         14         15         16         17         18
     1  C    0.074699   0.092463  -0.136125  -0.704472  -0.137586  -0.486459
     2  C    0.328036   0.020910   0.250810  -0.176551  -0.019254   0.214248
     3  C   -0.089707  -0.029093   0.219279   1.034234   0.004854  -0.091322
     4  C   -0.021542   0.011761  -0.133006  -1.016275   0.002444  -0.297591
     5  C   -0.047037   0.017916   0.007616  -0.315635  -0.009880  -0.209396
     6  C   -0.050674   0.061304   0.209814  -1.326810  -0.050545   0.571927
     7  C    0.092481   0.074720  -0.704549  -0.135968  -0.486352  -0.137616
     8  C    0.020921   0.328026  -0.176316   0.251015   0.214202  -0.019287
     9  C   -0.029086  -0.089711   1.034160   0.219384  -0.091369   0.004841
    10  C    0.011760  -0.021517  -1.016372  -0.133134  -0.297501   0.002446
    11  C    0.017918  -0.047027  -0.315293   0.007519  -0.209497  -0.009882
    12  C    0.061312  -0.050668  -1.326816   0.209860   0.571865  -0.050573
    13  H    0.506925  -0.000640  -0.017580  -0.001350   0.000638   0.000407
    14  H   -0.000640   0.506925  -0.001350  -0.017580   0.000407   0.000639
    15  Cl  -0.017580  -0.001350  18.693041   0.191060  -0.301507  -0.003476
    16  Cl  -0.001350  -0.017580   0.191060  18.693111  -0.003477  -0.301537
    17  Cl   0.000638   0.000407  -0.301507  -0.003477  17.392855  -0.000284
    18  Cl   0.000407   0.000639  -0.003476  -0.301537  -0.000284  17.392935
    19  Cl   0.000106  -0.001279  -0.035427   0.015760  -0.193027   0.000018
    20  Cl  -0.001280   0.000106   0.015760  -0.035418   0.000018  -0.193041
    21  Cl  -0.000287  -0.007531   0.008337  -0.010035   0.007165   0.000079
    22  Cl  -0.007526  -0.000287  -0.010040   0.008332   0.000079   0.007166
              19         20         21         22
     1  C   -0.024058   0.173175  -0.059165  -0.872345
     2  C   -0.005504  -0.129645   0.022066   0.258018
     3  C    0.008837  -0.937599   0.004767   0.299787
     4  C   -0.003785   0.293011   0.005312  -0.637668
     5  C   -0.002306   0.727815  -0.004952  -0.134857
     6  C   -0.041061  -0.735248  -0.017778   0.345143
     7  C    0.173201  -0.024071  -0.872395  -0.059142
     8  C   -0.129627  -0.005501   0.258054   0.022082
     9  C   -0.937343   0.008839   0.299553   0.004756
    10  C    0.292812  -0.003783  -0.637514   0.005311
    11  C    0.727661  -0.002305  -0.134752  -0.004951
    12  C   -0.735194  -0.041049   0.345129  -0.017783
    13  H    0.000106  -0.001280  -0.000287  -0.007526
    14  H   -0.001279   0.000106  -0.007531  -0.000287
    15  Cl  -0.035427   0.015760   0.008337  -0.010040
    16  Cl   0.015760  -0.035418  -0.010035   0.008332
    17  Cl  -0.193027   0.000018   0.007165   0.000079
    18  Cl   0.000018  -0.193041   0.000079   0.007166
    19  Cl  17.456137  -0.000002  -0.191837   0.000170
    20  Cl  -0.000002  17.456108   0.000170  -0.191811
    21  Cl  -0.191837   0.000170  17.428589   0.000234
    22  Cl   0.000170  -0.191811   0.000234  17.428547
 Mulliken charges:
               1
     1  C   -0.241384
     2  C   -0.775916
     3  C   -0.481607
     4  C   -0.175751
     5  C   -0.025068
     6  C   -0.788118
     7  C   -0.241292
     8  C   -0.775830
     9  C   -0.481649
    10  C   -0.175744
    11  C   -0.025017
    12  C   -0.788161
    13  H    0.151505
    14  H    0.151507
    15  Cl   0.547978
    16  Cl   0.547968
    17  Cl   0.605750
    18  Cl   0.605757
    19  Cl   0.625748
    20  Cl   0.625749
    21  Cl   0.556791
    22  Cl   0.556782
 Sum of Mulliken charges =  -0.00000
 Mulliken charges with hydrogens summed into heavy atoms:
               1
     1  C   -0.241384
     2  C   -0.624411
     3  C   -0.481607
     4  C   -0.175751
     5  C   -0.025068
     6  C   -0.788118
     7  C   -0.241292
     8  C   -0.624323
     9  C   -0.481649
    10  C   -0.175744
    11  C   -0.025017
    12  C   -0.788161
    15  Cl   0.547978
    16  Cl   0.547968
    17  Cl   0.605750
    18  Cl   0.605757
    19  Cl   0.625748
    20  Cl   0.625749
    21  Cl   0.556791
    22  Cl   0.556782
 Electronic spatial extent (au):  <R**2>=          11549.7861
 Charge=             -0.0000 electrons
 Dipole moment (field-independent basis, Debye):
    X=             -0.0000    Y=              1.0337    Z=             -0.0001  Tot=              1.0337
 Quadrupole moment (field-independent basis, Debye-Ang):
   XX=           -176.0019   YY=           -168.6372   ZZ=           -169.4246
   XY=             -0.0003   XZ=             -0.3523   YZ=             -0.0000
 Traceless Quadrupole moment (field-independent basis, Debye-Ang):
   XX=             -4.6473   YY=              2.7174   ZZ=              1.9299
   XY=             -0.0003   XZ=             -0.3523   YZ=             -0.0000
 Octapole moment (field-independent basis, Debye-Ang**2):
  XXX=             -0.0006  YYY=            -11.5506  ZZZ=             -0.0006  XYY=             -0.0000
  XXY=            -13.3518  XXZ=              0.0006  XZZ=             -0.0008  YZZ=             -3.1187
  YYZ=              0.0001  XYZ=              0.7924
 Hexadecapole moment (field-independent basis, Debye-Ang**3):
 XXXX=         -10741.4720 YYYY=          -2178.5081 ZZZZ=          -1923.4825 XXXY=             -0.0107
 XXXZ=            -27.6893 YYYX=             -0.0043 YYYZ=              0.0019 ZZZX=             -3.7243
 ZZZY=             -0.0017 XXYY=          -2173.8057 XXZZ=          -2130.0579 YYZZ=           -641.8676
 XXYZ=             -0.0019 YYXZ=              1.7277 ZZXY=             -0.0004
 N-N= 2.649310759469D+03 E-N=-1.511191432775D+04  KE= 4.129827615446D+03
 1\1\GINC-CN233\FOpt\RB3LYP\6-311+G(d,p)\C12H2Cl8\20CY91R06\03-Apr-2022
 \0\\# opt b3lyp/6-311+g(d,p) scf=xqc\\Title Card Required\\0,1\C,0.703
 0734922,-0.0099461809,-0.0196739522\C,1.4882823541,0.2518454695,-1.139
 1782776\C,2.1940811509,1.4424347811,-1.25713114\C,2.1300664823,2.40627
 24383,-0.245179593\C,1.345338406,2.1524086324,0.8925040012\C,0.6379225
 901,0.9469597593,1.0000732832\C,-0.0205933877,-1.3132234468,0.07186081
 48\C,0.6551963249,-2.4311458898,0.5534893373\C,0.0271772692,-3.6673047
 829,0.6374433637\C,-1.3046463592,-3.8132116655,0.2348345929\C,-1.99672
 30611,-2.6939625967,-0.2580059116\C,-1.3519236593,-1.4517999999,-0.338
 1376046\H,1.5458621566,-0.4775843796,-1.9361461863\H,1.6836492782,-2.3
 380853998,0.8762442212\Cl,-2.2010098499,-0.0603397051,-0.954415033\Cl,
 -0.3320252216,0.6213730716,2.4107667242\Cl,-3.6474862745,-2.8542371912
 ,-0.7700138573\Cl,1.2576845665,3.3313065332,2.1634722128\Cl,-2.0899711
 335,-5.3564222924,0.3396970205\Cl,3.0106408627,3.8936667588,-0.3917505
 784\Cl,0.9389560546,-5.0192281689,1.2545917118\Cl,3.1526115682,1.69840
 39553,-2.6908765198\\Version=EM64L-G16RevB.01\State=1-A\HF=-4140.35826
 96\RMSD=7.160e-09\RMSF=1.028e-05\Dipole=0.3283581,-0.1924202,-0.143352
 6\Quadrupole=0.7230088,-2.199664,1.4766552,-2.2549546,0.055202,0.49926
 19\PG=C01 [X(C12H2Cl8)]\\@


 SATCHEL PAIGE'S GUIDE TO LONGEVITY

    1.  AVOID FRIED MEATS, WHICH ANGRY UP THE BLOOD.

    2.  IF YOUR STOMACH DISPUTES YOU, LIE DOWN AND PACIFY IT WITH COOL
        THOUGHTS.

    3.  KEEP THE JUICES FLOWING BY JANGLING AROUND GENTLY AS YOU MOVE.

    4.  GO VERY LIGHT ON THE VICES, SUCH AS CARRYING ON IN SOCIETY.
        THE SOCIAL RUMBLE AIN'T RESTFUL.

    5.  AVOID RUNNING AT ALL TIMES.

    6.  DON'T LOOK BACK.  SOMETHING MAY BE GAINING ON YOU.
 Job cpu time:       1 days  8 hours  8 minutes 10.5 seconds.
 Elapsed time:       0 days  2 hours  1 minutes  9.1 seconds.
 File lengths (MBytes):  RWF=    215 Int=      0 D2E=      0 Chk=     25 Scr=      1
 Normal termination of Gaussian 16 at Sun Apr  3 01:21:16 2022.
