 Entering Gaussian System, Link 0=g16
 Input=2,2prime,3,4,4prime,6prime-Hexachlorobiphenyl.gjf
 Output=2,2prime,3,4,4prime,6prime-Hexachlorobiphenyl.log
 Initial command:
 /home/apps/g16/l1.exe "./Gau-144636.inp" -scrdir="./"
 Entering Link 1 = /home/apps/g16/l1.exe PID=    144637.
  
 Copyright (c) 1988-2017, Gaussian, Inc.  All Rights Reserved.
  
 This is part of the Gaussian(R) 16 program.  It is based on
 the Gaussian(R) 09 system (copyright 2009, Gaussian, Inc.),
 the Gaussian(R) 03 system (copyright 2003, Gaussian, Inc.),
 the Gaussian(R) 98 system (copyright 1998, Gaussian, Inc.),
 the Gaussian(R) 94 system (copyright 1995, Gaussian, Inc.),
 the Gaussian 92(TM) system (copyright 1992, Gaussian, Inc.),
 the Gaussian 90(TM) system (copyright 1990, Gaussian, Inc.),
 the Gaussian 88(TM) system (copyright 1988, Gaussian, Inc.),
 the Gaussian 86(TM) system (copyright 1986, Carnegie Mellon
 University), and the Gaussian 82(TM) system (copyright 1983,
 Carnegie Mellon University). Gaussian is a federally registered
 trademark of Gaussian, Inc.
  
 This software contains proprietary and confidential information,
 including trade secrets, belonging to Gaussian, Inc.
  
 This software is provided under written license and may be
 used, copied, transmitted, or stored only in accord with that
 written license.
  
 The following legend is applicable only to US Government
 contracts under FAR:
  
                    RESTRICTED RIGHTS LEGEND
  
 Use, reproduction and disclosure by the US Government is
 subject to restrictions as set forth in subparagraphs (a)
 and (c) of the Commercial Computer Software - Restricted
 Rights clause in FAR 52.227-19.
  
 Gaussian, Inc.
 340 Quinnipiac St., Bldg. 40, Wallingford CT 06492
  
  
 ---------------------------------------------------------------
 Warning -- This program may not be used in any manner that
 competes with the business of Gaussian, Inc. or will provide
 assistance to any competitor of Gaussian, Inc.  The licensee
 of this program is prohibited from giving any competitor of
 Gaussian, Inc. access to this program.  By using this program,
 the user acknowledges that Gaussian, Inc. is engaged in the
 business of creating and licensing software in the field of
 computational chemistry and represents and warrants to the
 licensee that it is not a competitor of Gaussian, Inc. and that
 it will not use this program in any manner prohibited above.
 ---------------------------------------------------------------
  

 Cite this work as:
 Gaussian 16, Revision B.01,
 M. J. Frisch, G. W. Trucks, H. B. Schlegel, G. E. Scuseria, 
 M. A. Robb, J. R. Cheeseman, G. Scalmani, V. Barone, 
 G. A. Petersson, H. Nakatsuji, X. Li, M. Caricato, A. V. Marenich, 
 J. Bloino, B. G. Janesko, R. Gomperts, B. Mennucci, H. P. Hratchian, 
 J. V. Ortiz, A. F. Izmaylov, J. L. Sonnenberg, D. Williams-Young, 
 F. Ding, F. Lipparini, F. Egidi, J. Goings, B. Peng, A. Petrone, 
 T. Henderson, D. Ranasinghe, V. G. Zakrzewski, J. Gao, N. Rega, 
 G. Zheng, W. Liang, M. Hada, M. Ehara, K. Toyota, R. Fukuda, 
 J. Hasegawa, M. Ishida, T. Nakajima, Y. Honda, O. Kitao, H. Nakai, 
 T. Vreven, K. Throssell, J. A. Montgomery, Jr., J. E. Peralta, 
 F. Ogliaro, M. J. Bearpark, J. J. Heyd, E. N. Brothers, K. N. Kudin, 
 V. N. Staroverov, T. A. Keith, R. Kobayashi, J. Normand, 
 K. Raghavachari, A. P. Rendell, J. C. Burant, S. S. Iyengar, 
 J. Tomasi, M. Cossi, J. M. Millam, M. Klene, C. Adamo, R. Cammi, 
 J. W. Ochterski, R. L. Martin, K. Morokuma, O. Farkas, 
 J. B. Foresman, and D. J. Fox, Gaussian, Inc., Wallingford CT, 2016.
 
 ******************************************
 Gaussian 16:  EM64L-G16RevB.01 20-Dec-2017
                 6-Apr-2022 
 ******************************************
 %mem=16GB
 %nprocshared=8
 Will use up to    8 processors via shared memory.
 --------------------------------
 # opt b3lyp/6-311+g(d,p) scf=xqc
 --------------------------------
 1/18=20,19=15,26=3,38=1/1,3;
 2/9=110,12=2,17=6,18=5,40=1/2;
 3/5=4,6=6,7=111,11=2,25=1,30=1,71=1,74=-5/1,2,3;
 4//1;
 5/5=2,8=3,13=1,38=5/2,8;
 6/7=2,8=2,9=2,10=2,28=1/1;
 7//1,2,3,16;
 1/18=20,19=15,26=3/3(2);
 2/9=110/2;
 99//99;
 2/9=110/2;
 3/5=4,6=6,7=111,11=2,25=1,30=1,71=1,74=-5/1,2,3;
 4/5=5,16=3,69=1/1;
 5/5=2,8=3,13=1,38=5/2,8;
 7//1,2,3,16;
 1/18=20,19=15,26=3/3(-5);
 2/9=110/2;
 6/7=2,8=2,9=2,10=2,19=2,28=1/1;
 99/9=1/99;
 -------------------
 Title Card Required
 -------------------
 Symbolic Z-matrix:
 Charge =  0 Multiplicity = 1
 C                     0.87064   0.74844  -0.00356 
 C                     2.20302   0.77832  -0.4369 
 C                     2.91092   1.98777  -0.44297 
 C                     2.28643   3.16734  -0.0157 
 C                     0.95405   3.13745   0.41764 
 C                     0.24615   1.928     0.42372 
 C                    -0.07158  -0.86137   0.00453 
 C                     0.5529   -2.04094  -0.42275 
 C                    -0.15499  -3.25039  -0.41667 
 C                    -1.48737  -3.28028   0.01668 
 C                    -2.11186  -2.10071   0.44395 
 C                    -1.40396  -0.89126   0.43788 
 H                     3.92822   2.01059  -0.77384 
 H                     0.47724   4.03808   0.74388 
 H                     1.57021  -2.01812  -0.75362 
 H                     0.32182  -4.15101  -0.74291 
 Cl                   -2.26548   0.45818   0.97515 
 Cl                   -1.34993   2.02243   0.96729 
 Cl                   -3.78517  -2.13825   0.98819 
 Cl                   -2.3764   -4.79921   0.02431 
 Cl                    3.17546   4.68627  -0.02333 
 Cl                    2.98731  -0.70308  -0.97351 
 

 GradGradGradGradGradGradGradGradGradGradGradGradGradGradGradGradGradGrad
 Berny optimization.
 Initialization pass.
                           ----------------------------
                           !    Initial Parameters    !
                           ! (Angstroms and Degrees)  !
 --------------------------                            --------------------------
 ! Name  Definition              Value          Derivative Info.                !
 --------------------------------------------------------------------------------
 ! R1    R(1,2)                  1.4014         estimate D2E/DX2                !
 ! R2    R(1,6)                  1.4014         estimate D2E/DX2                !
 ! R3    R(2,3)                  1.4014         estimate D2E/DX2                !
 ! R4    R(2,22)                 1.76           estimate D2E/DX2                !
 ! R5    R(3,4)                  1.4014         estimate D2E/DX2                !
 ! R6    R(3,13)                 1.07           estimate D2E/DX2                !
 ! R7    R(4,5)                  1.4014         estimate D2E/DX2                !
 ! R8    R(4,21)                 1.76           estimate D2E/DX2                !
 ! R9    R(5,6)                  1.4014         estimate D2E/DX2                !
 ! R10   R(5,14)                 1.07           estimate D2E/DX2                !
 ! R11   R(6,18)                 1.6887         estimate D2E/DX2                !
 ! R12   R(7,8)                  1.4014         estimate D2E/DX2                !
 ! R13   R(7,12)                 1.4014         estimate D2E/DX2                !
 ! R14   R(8,9)                  1.4014         estimate D2E/DX2                !
 ! R15   R(8,15)                 1.07           estimate D2E/DX2                !
 ! R16   R(9,10)                 1.4014         estimate D2E/DX2                !
 ! R17   R(9,16)                 1.07           estimate D2E/DX2                !
 ! R18   R(10,11)                1.4014         estimate D2E/DX2                !
 ! R19   R(10,20)                1.76           estimate D2E/DX2                !
 ! R20   R(11,12)                1.4014         estimate D2E/DX2                !
 ! R21   R(11,19)                1.76           estimate D2E/DX2                !
 ! R22   R(12,17)                1.6887         estimate D2E/DX2                !
 ! R23   R(17,18)                1.8125         estimate D2E/DX2                !
 ! A1    A(2,1,6)              120.0            estimate D2E/DX2                !
 ! A2    A(1,2,3)              120.0            estimate D2E/DX2                !
 ! A3    A(1,2,22)             120.0            estimate D2E/DX2                !
 ! A4    A(3,2,22)             120.0            estimate D2E/DX2                !
 ! A5    A(2,3,4)              120.0            estimate D2E/DX2                !
 ! A6    A(2,3,13)             120.0            estimate D2E/DX2                !
 ! A7    A(4,3,13)             120.0            estimate D2E/DX2                !
 ! A8    A(3,4,5)              120.0            estimate D2E/DX2                !
 ! A9    A(3,4,21)             120.0            estimate D2E/DX2                !
 ! A10   A(5,4,21)             120.0            estimate D2E/DX2                !
 ! A11   A(4,5,6)              120.0            estimate D2E/DX2                !
 ! A12   A(4,5,14)             120.0            estimate D2E/DX2                !
 ! A13   A(6,5,14)             120.0            estimate D2E/DX2                !
 ! A14   A(1,6,5)              120.0            estimate D2E/DX2                !
 ! A15   A(1,6,18)             124.4972         estimate D2E/DX2                !
 ! A16   A(5,6,18)             115.5028         estimate D2E/DX2                !
 ! A17   A(8,7,12)             120.0            estimate D2E/DX2                !
 ! A18   A(7,8,9)              120.0            estimate D2E/DX2                !
 ! A19   A(7,8,15)             120.0            estimate D2E/DX2                !
 ! A20   A(9,8,15)             120.0            estimate D2E/DX2                !
 ! A21   A(8,9,10)             120.0            estimate D2E/DX2                !
 ! A22   A(8,9,16)             120.0            estimate D2E/DX2                !
 ! A23   A(10,9,16)            120.0            estimate D2E/DX2                !
 ! A24   A(9,10,11)            120.0            estimate D2E/DX2                !
 ! A25   A(9,10,20)            120.0            estimate D2E/DX2                !
 ! A26   A(11,10,20)           120.0            estimate D2E/DX2                !
 ! A27   A(10,11,12)           120.0            estimate D2E/DX2                !
 ! A28   A(10,11,19)           120.0            estimate D2E/DX2                !
 ! A29   A(12,11,19)           120.0            estimate D2E/DX2                !
 ! A30   A(7,12,11)            120.0            estimate D2E/DX2                !
 ! A31   A(7,12,17)            124.4972         estimate D2E/DX2                !
 ! A32   A(11,12,17)           115.5028         estimate D2E/DX2                !
 ! A33   A(12,17,18)           115.5028         estimate D2E/DX2                !
 ! A34   A(6,18,17)            115.5028         estimate D2E/DX2                !
 ! D1    D(6,1,2,3)              0.0001         estimate D2E/DX2                !
 ! D2    D(6,1,2,22)           180.0            estimate D2E/DX2                !
 ! D3    D(2,1,6,5)             -0.0001         estimate D2E/DX2                !
 ! D4    D(2,1,6,18)           179.9999         estimate D2E/DX2                !
 ! D5    D(1,2,3,4)              0.0            estimate D2E/DX2                !
 ! D6    D(1,2,3,13)           180.0            estimate D2E/DX2                !
 ! D7    D(22,2,3,4)          -179.9999         estimate D2E/DX2                !
 ! D8    D(22,2,3,13)            0.0001         estimate D2E/DX2                !
 ! D9    D(2,3,4,5)             -0.0001         estimate D2E/DX2                !
 ! D10   D(2,3,4,21)           180.0            estimate D2E/DX2                !
 ! D11   D(13,3,4,5)           179.9999         estimate D2E/DX2                !
 ! D12   D(13,3,4,21)            0.0            estimate D2E/DX2                !
 ! D13   D(3,4,5,6)              0.0001         estimate D2E/DX2                !
 ! D14   D(3,4,5,14)          -179.9999         estimate D2E/DX2                !
 ! D15   D(21,4,5,6)          -180.0            estimate D2E/DX2                !
 ! D16   D(21,4,5,14)            0.0            estimate D2E/DX2                !
 ! D17   D(4,5,6,1)              0.0            estimate D2E/DX2                !
 ! D18   D(4,5,6,18)           180.0            estimate D2E/DX2                !
 ! D19   D(14,5,6,1)           180.0            estimate D2E/DX2                !
 ! D20   D(14,5,6,18)            0.0            estimate D2E/DX2                !
 ! D21   D(1,6,18,17)            0.0005         estimate D2E/DX2                !
 ! D22   D(5,6,18,17)         -179.9995         estimate D2E/DX2                !
 ! D23   D(12,7,8,9)             0.0001         estimate D2E/DX2                !
 ! D24   D(12,7,8,15)         -179.9998         estimate D2E/DX2                !
 ! D25   D(8,7,12,11)           -0.0001         estimate D2E/DX2                !
 ! D26   D(8,7,12,17)          179.9999         estimate D2E/DX2                !
 ! D27   D(7,8,9,10)             0.0            estimate D2E/DX2                !
 ! D28   D(7,8,9,16)           180.0            estimate D2E/DX2                !
 ! D29   D(15,8,9,10)          179.9998         estimate D2E/DX2                !
 ! D30   D(15,8,9,16)           -0.0002         estimate D2E/DX2                !
 ! D31   D(8,9,10,11)            0.0            estimate D2E/DX2                !
 ! D32   D(8,9,10,20)         -179.9999         estimate D2E/DX2                !
 ! D33   D(16,9,10,11)         180.0            estimate D2E/DX2                !
 ! D34   D(16,9,10,20)           0.0001         estimate D2E/DX2                !
 ! D35   D(9,10,11,12)           0.0            estimate D2E/DX2                !
 ! D36   D(9,10,11,19)        -179.9998         estimate D2E/DX2                !
 ! D37   D(20,10,11,12)        179.9999         estimate D2E/DX2                !
 ! D38   D(20,10,11,19)          0.0001         estimate D2E/DX2                !
 ! D39   D(10,11,12,7)           0.0            estimate D2E/DX2                !
 ! D40   D(10,11,12,17)       -179.9999         estimate D2E/DX2                !
 ! D41   D(19,11,12,7)         179.9999         estimate D2E/DX2                !
 ! D42   D(19,11,12,17)         -0.0001         estimate D2E/DX2                !
 ! D43   D(7,12,17,18)           0.0005         estimate D2E/DX2                !
 ! D44   D(11,12,17,18)       -179.9996         estimate D2E/DX2                !
 ! D45   D(12,17,18,6)          -0.0007         estimate D2E/DX2                !
 --------------------------------------------------------------------------------
 Trust Radius=3.00D-01 FncErr=1.00D-07 GrdErr=1.00D-06 EigMax=2.50D+02 EigMin=1.00D-04
 Number of steps in this run=    112 maximum allowed number of steps=    132.
 GradGradGradGradGradGradGradGradGradGradGradGradGradGradGradGradGradGrad

                          Input orientation:                          
 ---------------------------------------------------------------------
 Center     Atomic      Atomic             Coordinates (Angstroms)
 Number     Number       Type             X           Y           Z
 ---------------------------------------------------------------------
      1          6           0        0.870642    0.748437   -0.003556
      2          6           0        2.203023    0.778323   -0.436903
      3          6           0        2.910916    1.987774   -0.442975
      4          6           0        2.286429    3.167339   -0.015700
      5          6           0        0.954047    3.137454    0.417645
      6          6           0        0.246154    1.928003    0.423717
      7          6           0       -0.071583   -0.861374    0.004528
      8          6           0        0.552904   -2.040939   -0.422747
      9          6           0       -0.154989   -3.250390   -0.416673
     10          6           0       -1.487369   -3.280277    0.016677
     11          6           0       -2.111856   -2.100712    0.443952
     12          6           0       -1.403963   -0.891260    0.437878
     13          1           0        3.928219    2.010593   -0.773844
     14          1           0        0.477236    4.038078    0.743876
     15          1           0        1.570207   -2.018120   -0.753617
     16          1           0        0.321821   -4.151014   -0.742907
     17         17           0       -2.265482    0.458182    0.975153
     18         17           0       -1.349932    2.022427    0.967287
     19         17           0       -3.785173   -2.138246    0.988195
     20         17           0       -2.376401   -4.799211    0.024308
     21         17           0        3.175463    4.686273   -0.023326
     22         17           0        2.987309   -0.703078   -0.973508
 ---------------------------------------------------------------------
                    Distance matrix (angstroms):
                    1          2          3          4          5
     1  C    0.000000
     2  C    1.401400   0.000000
     3  C    2.427296   1.401400   0.000000
     4  C    2.802800   2.427296   1.401400   0.000000
     5  C    2.427296   2.802800   2.427296   1.401400   0.000000
     6  C    1.401400   2.427296   2.802800   2.427296   1.401400
     7  C    1.865300   2.838538   4.148880   4.668100   4.148880
     8  C    2.838538   3.266700   4.668100   5.504267   5.261456
     9  C    4.148880   4.668100   6.069500   6.878121   6.536864
    10  C    4.668100   5.504267   6.878121   7.470900   6.878121
    11  C    4.148880   5.261456   6.536864   6.878121   6.069500
    12  C    2.838538   4.069778   5.261456   5.504267   4.668100
    13  H    3.396345   2.146700   1.070000   2.146700   3.396345
    14  H    3.396345   3.872800   3.396345   2.146700   1.070000
    15  H    2.950563   2.884590   4.235704   5.286444   5.322730
    16  H    4.985225   5.284972   6.669190   7.612280   7.407318
    17  Cl   3.298089   4.697225   5.580846   5.388990   4.225480
    18  Cl   2.737980   4.017839   4.488304   3.937031   2.617960
    19  Cl   5.567147   6.811444   7.994367   8.125355   7.114686
    20  Cl   6.428100   7.231371   8.616104   9.230900   8.616104
    21  Cl   4.562800   4.048303   2.743718   1.760000   2.743718
    22  Cl   2.743718   1.760000   2.743718   4.048303   4.562800
                    6          7          8          9         10
     6  C    0.000000
     7  C    2.838538   0.000000
     8  C    4.069778   1.401400   0.000000
     9  C    5.261456   2.427296   1.401400   0.000000
    10  C    5.504267   2.802800   2.427296   1.401400   0.000000
    11  C    4.668100   2.427296   2.802800   2.427296   1.401400
    12  C    3.266700   1.401400   2.427296   2.802800   2.427296
    13  H    3.872800   4.985225   5.284972   6.669190   7.612280
    14  H    2.146700   4.985225   6.190411   7.407318   7.612280
    15  H    4.325635   2.146700   1.070000   2.146700   3.396345
    16  H    6.190411   3.396345   2.146700   1.070000   2.146700
    17  Cl   2.961886   2.737980   4.017839   4.488304   3.937031
    18  Cl   1.688749   3.298089   4.697225   5.580846   5.388990
    19  Cl   5.753661   4.048303   4.562800   4.048303   2.743718
    20  Cl   7.231371   4.562800   4.048303   2.743718   1.760000
    21  Cl   4.048303   6.428100   7.231371   8.616104   9.230900
    22  Cl   4.048303   3.215343   2.831879   4.083246   5.257867
                   11         12         13         14         15
    11  C    0.000000
    12  C    1.401400   0.000000
    13  H    7.407318   6.190411   0.000000
    14  H    6.669190   5.284972   4.280590   0.000000
    15  H    3.872800   3.396345   4.668100   6.333610   0.000000
    16  H    3.396345   3.872800   7.139500   8.324417   2.471400
    17  Cl   2.617960   1.688749   6.620491   4.515712   4.881929
    18  Cl   4.225480   2.961886   5.557928   2.729708   5.273969
    19  Cl   1.760000   2.743718   8.933872   7.508316   5.632800
    20  Cl   2.743718   4.048303   9.314436   9.314436   4.890332
    21  Cl   8.616104   7.231371   2.879094   2.879094   6.932464
    22  Cl   5.473944   4.616351   2.879094   5.632800   1.945731
                   16         17         18         19         20
    16  H    0.000000
    17  Cl   5.557928   0.000000
    18  Cl   6.620491   1.812500   0.000000
    19  Cl   4.890332   3.008500   4.821000   0.000000
    20  Cl   2.879094   5.343837   6.962586   3.161400   0.000000
    21  Cl   9.314436   6.962586   5.343837   9.800393  10.990900
    22  Cl   4.364203   5.721680   5.477840   7.195450   6.822268
                   21         22
    21  Cl   0.000000
    22  Cl   5.475705   0.000000
 Stoichiometry    C12H4Cl6
 Framework group  C1[X(C12H4Cl6)]
 Deg. of freedom    60
 Full point group                 C1      NOp   1
 Largest Abelian subgroup         C1      NOp   1
 Largest concise Abelian subgroup C1      NOp   1
                         Standard orientation:                         
 ---------------------------------------------------------------------
 Center     Atomic      Atomic             Coordinates (Angstroms)
 Number     Number       Type             X           Y           Z
 ---------------------------------------------------------------------
      1          6           0        1.278567    0.322926    0.000002
      2          6           0        2.142429    1.426404    0.000001
      3          6           0        3.530000    1.230018   -0.000001
      4          6           0        4.053710   -0.069847   -0.000002
      5          6           0        3.189849   -1.173326    0.000002
      6          6           0        1.802277   -0.976940    0.000004
      7          6           0       -0.568326    0.584321    0.000004
      8          6           0       -1.092036    1.884187    0.000004
      9          6           0       -2.479608    2.080573    0.000004
     10          6           0       -3.343469    0.977094    0.000002
     11          6           0       -2.819759   -0.322771    0.000001
     12          6           0       -1.432188   -0.519158    0.000001
     13          1           0        4.189577    2.072549   -0.000003
     14          1           0        3.589713   -2.165802    0.000004
     15          1           0       -0.432459    2.726717    0.000003
     16          1           0       -2.879472    3.073049    0.000005
     17         17           0       -0.925859   -2.130215   -0.000003
     18         17           0        0.868756   -2.384211    0.000008
     19         17           0       -3.904672   -1.708616   -0.000006
     20         17           0       -5.086102    1.223734   -0.000001
     21         17           0        5.796343   -0.316487   -0.000004
     22         17           0        1.484708    3.058888   -0.000002
 ---------------------------------------------------------------------
 Rotational constants (GHZ):           0.4790796           0.1360788           0.1059769
 Standard basis: 6-311+G(d,p) (5D, 7F)
 There are   486 symmetry adapted cartesian basis functions of A   symmetry.
 There are   468 symmetry adapted basis functions of A   symmetry.
   468 basis functions,   782 primitive gaussians,   486 cartesian basis functions
    89 alpha electrons       89 beta electrons
       nuclear repulsion energy      2048.0974736845 Hartrees.
 NAtoms=   22 NActive=   22 NUniq=   22 SFac= 1.00D+00 NAtFMM=   60 NAOKFM=F Big=F
 Integral buffers will be    131072 words long.
 Raffenetti 2 integral format.
 Two-electron integral symmetry is turned on.
 One-electron integrals computed using PRISM.
 NBasis=   468 RedAO= T EigKep=  1.32D-06  NBF=   468
 NBsUse=   462 1.00D-06 EigRej=  7.64D-07 NBFU=   462
 ExpMin= 4.38D-02 ExpMax= 1.06D+05 ExpMxC= 3.62D+03 IAcc=3 IRadAn=         5 AccDes= 0.00D+00
 Harris functional with IExCor=  402 and IRadAn=       5 diagonalized for initial guess.
 HarFok:  IExCor=  402 AccDes= 0.00D+00 IRadAn=         5 IDoV= 1 UseB2=F ITyADJ=14
 ICtDFT=  3500011 ScaDFX=  1.000000  1.000000  1.000000  1.000000
 FoFCou: FMM=F IPFlag=           0 FMFlag=      100000 FMFlg1=           0
         NFxFlg=           0 DoJE=T BraDBF=F KetDBF=T FulRan=T
         wScrn=  0.000000 ICntrl=       500 IOpCl=  0 I1Cent=   200000004 NGrid=           0
         NMat0=    1 NMatS0=      1 NMatT0=    0 NMatD0=    1 NMtDS0=    0 NMtDT0=    0
 Petite list used in FoFCou.
 Requested convergence on RMS density matrix=1.00D-08 within  32 cycles.
 Requested convergence on MAX density matrix=1.00D-06.
 Requested convergence on             energy=1.00D-06.
 No special actions if energy rises.
 EnCoef did     4 forward-backward iterations
 EnCoef did     4 forward-backward iterations
 EnCoef did     5 forward-backward iterations
 EnCoef did     3 forward-backward iterations
 Restarting incremental Fock formation.
 SCF Done:  E(RB3LYP) =  -3220.69287226     A.U. after   24 cycles
            NFock= 24  Conv=0.29D-08     -V/T= 2.0021
 QCSCF skips out because SCF is already converged.

 **********************************************************************

            Population analysis using the SCF Density.

 **********************************************************************

 Orbital symmetries:
       Occupied  (A) (A) (A) (A) (A) (A) (A) (A) (A) (A) (A) (A)
                 (A) (A) (A) (A) (A) (A) (A) (A) (A) (A) (A) (A)
                 (A) (A) (A) (A) (A) (A) (A) (A) (A) (A) (A) (A)
                 (A) (A) (A) (A) (A) (A) (A) (A) (A) (A) (A) (A)
                 (A) (A) (A) (A) (A) (A) (A) (A) (A) (A) (A) (A)
                 (A) (A) (A) (A) (A) (A) (A) (A) (A) (A) (A) (A)
                 (A) (A) (A) (A) (A) (A) (A) (A) (A) (A) (A) (A)
                 (A) (A) (A) (A) (A)
       Virtual   (A) (A) (A) (A) (A) (A) (A) (A) (A) (A) (A) (A)
                 (A) (A) (A) (A) (A) (A) (A) (A) (A) (A) (A) (A)
                 (A) (A) (A) (A) (A) (A) (A) (A) (A) (A) (A) (A)
                 (A) (A) (A) (A) (A) (A) (A) (A) (A) (A) (A) (A)
                 (A) (A) (A) (A) (A) (A) (A) (A) (A) (A) (A) (A)
                 (A) (A) (A) (A) (A) (A) (A) (A) (A) (A) (A) (A)
                 (A) (A) (A) (A) (A) (A) (A) (A) (A) (A) (A) (A)
                 (A) (A) (A) (A) (A) (A) (A) (A) (A) (A) (A) (A)
                 (A) (A) (A) (A) (A) (A) (A) (A) (A) (A) (A) (A)
                 (A) (A) (A) (A) (A) (A) (A) (A) (A) (A) (A) (A)
                 (A) (A) (A) (A) (A) (A) (A) (A) (A) (A) (A) (A)
                 (A) (A) (A) (A) (A) (A) (A) (A) (A) (A) (A) (A)
                 (A) (A) (A) (A) (A) (A) (A) (A) (A) (A) (A) (A)
                 (A) (A) (A) (A) (A) (A) (A) (A) (A) (A) (A) (A)
                 (A) (A) (A) (A) (A) (A) (A) (A) (A) (A) (A) (A)
                 (A) (A) (A) (A) (A) (A) (A) (A) (A) (A) (A) (A)
                 (A) (A) (A) (A) (A) (A) (A) (A) (A) (A) (A) (A)
                 (A) (A) (A) (A) (A) (A) (A) (A) (A) (A) (A) (A)
                 (A) (A) (A) (A) (A) (A) (A) (A) (A) (A) (A) (A)
                 (A) (A) (A) (A) (A) (A) (A) (A) (A) (A) (A) (A)
                 (A) (A) (A) (A) (A) (A) (A) (A) (A) (A) (A) (A)
                 (A) (A) (A) (A) (A) (A) (A) (A) (A) (A) (A) (A)
                 (A) (A) (A) (A) (A) (A) (A) (A) (A) (A) (A) (A)
                 (A) (A) (A) (A) (A) (A) (A) (A) (A) (A) (A) (A)
                 (A) (A) (A) (A) (A) (A) (A) (A) (A) (A) (A) (A)
                 (A) (A) (A) (A) (A) (A) (A) (A) (A) (A) (A) (A)
                 (A) (A) (A) (A) (A) (A) (A) (A) (A) (A) (A) (A)
                 (A) (A) (A) (A) (A) (A) (A) (A) (A) (A) (A) (A)
                 (A) (A) (A) (A) (A) (A) (A) (A) (A) (A) (A) (A)
                 (A) (A) (A) (A) (A) (A) (A) (A) (A) (A) (A) (A)
                 (A) (A) (A) (A) (A) (A) (A) (A) (A) (A) (A) (A)
                 (A)
 The electronic state is 1-A.
 Alpha  occ. eigenvalues -- -101.58607-101.57738-101.57408-101.57012-101.56657
 Alpha  occ. eigenvalues -- -101.56551 -10.28353 -10.27872 -10.27266 -10.27046
 Alpha  occ. eigenvalues --  -10.26947 -10.26665 -10.25629 -10.25023 -10.22419
 Alpha  occ. eigenvalues --  -10.21966 -10.21213 -10.20558  -9.50193  -9.50023
 Alpha  occ. eigenvalues --   -9.49712  -9.49157  -9.48100  -9.48019  -7.26650
 Alpha  occ. eigenvalues --   -7.26363  -7.26118  -7.25655  -7.25639  -7.25621
 Alpha  occ. eigenvalues --   -7.25523  -7.25200  -7.25145  -7.24860  -7.24636
 Alpha  occ. eigenvalues --   -7.24597  -7.24582  -7.24513  -7.23589  -7.23521
 Alpha  occ. eigenvalues --   -7.23508  -7.23415  -1.03381  -0.94002  -0.93485
 Alpha  occ. eigenvalues --   -0.90328  -0.88995  -0.86567  -0.86060  -0.83551
 Alpha  occ. eigenvalues --   -0.78677  -0.77027  -0.75469  -0.74254  -0.67558
 Alpha  occ. eigenvalues --   -0.64272  -0.63307  -0.61054  -0.57723  -0.54107
 Alpha  occ. eigenvalues --   -0.52900  -0.52305  -0.51054  -0.48955  -0.47962
 Alpha  occ. eigenvalues --   -0.47355  -0.46376  -0.45423  -0.45017  -0.44213
 Alpha  occ. eigenvalues --   -0.43128  -0.42991  -0.41792  -0.40878  -0.39208
 Alpha  occ. eigenvalues --   -0.37500  -0.37402  -0.35735  -0.35401  -0.34380
 Alpha  occ. eigenvalues --   -0.33999  -0.32700  -0.32500  -0.31532  -0.29151
 Alpha  occ. eigenvalues --   -0.28143  -0.26549  -0.25149  -0.13133
 Alpha virt. eigenvalues --   -0.07380  -0.06321  -0.05238  -0.04748  -0.04473
 Alpha virt. eigenvalues --   -0.02973  -0.01102  -0.00542   0.00046   0.00863
 Alpha virt. eigenvalues --    0.01112   0.01780   0.02457   0.03073   0.03409
 Alpha virt. eigenvalues --    0.04223   0.04579   0.05358   0.05496   0.05843
 Alpha virt. eigenvalues --    0.06136   0.06578   0.07292   0.07420   0.07707
 Alpha virt. eigenvalues --    0.08181   0.08588   0.08826   0.09164   0.09412
 Alpha virt. eigenvalues --    0.10115   0.10290   0.10621   0.11195   0.11202
 Alpha virt. eigenvalues --    0.11287   0.12483   0.12589   0.12830   0.13225
 Alpha virt. eigenvalues --    0.13568   0.13759   0.14253   0.15098   0.15291
 Alpha virt. eigenvalues --    0.15456   0.15776   0.16120   0.16375   0.17025
 Alpha virt. eigenvalues --    0.17663   0.17963   0.18005   0.18131   0.18814
 Alpha virt. eigenvalues --    0.19201   0.19864   0.20308   0.20820   0.20870
 Alpha virt. eigenvalues --    0.20961   0.21400   0.21461   0.22113   0.22424
 Alpha virt. eigenvalues --    0.23379   0.23530   0.23704   0.23896   0.24632
 Alpha virt. eigenvalues --    0.24877   0.25299   0.25339   0.25421   0.26612
 Alpha virt. eigenvalues --    0.26850   0.27528   0.28245   0.28542   0.29213
 Alpha virt. eigenvalues --    0.29734   0.30439   0.30755   0.31663   0.32141
 Alpha virt. eigenvalues --    0.32871   0.33696   0.34461   0.34687   0.36160
 Alpha virt. eigenvalues --    0.39178   0.39937   0.40620   0.41480   0.42202
 Alpha virt. eigenvalues --    0.42426   0.42757   0.43251   0.44044   0.44267
 Alpha virt. eigenvalues --    0.44963   0.45044   0.45707   0.46945   0.47082
 Alpha virt. eigenvalues --    0.47152   0.47866   0.48424   0.49767   0.50329
 Alpha virt. eigenvalues --    0.50693   0.50899   0.51273   0.52912   0.52978
 Alpha virt. eigenvalues --    0.54492   0.54791   0.56509   0.56587   0.57162
 Alpha virt. eigenvalues --    0.57758   0.57816   0.58550   0.59732   0.59978
 Alpha virt. eigenvalues --    0.60165   0.60782   0.62104   0.62375   0.63039
 Alpha virt. eigenvalues --    0.64279   0.64888   0.65147   0.65880   0.67478
 Alpha virt. eigenvalues --    0.67728   0.68018   0.68382   0.69229   0.71203
 Alpha virt. eigenvalues --    0.74442   0.75500   0.78158   0.79466   0.80190
 Alpha virt. eigenvalues --    0.80831   0.81826   0.82170   0.82812   0.83175
 Alpha virt. eigenvalues --    0.83198   0.83386   0.83976   0.84484   0.84776
 Alpha virt. eigenvalues --    0.84941   0.85291   0.85719   0.86424   0.86531
 Alpha virt. eigenvalues --    0.87092   0.87650   0.88502   0.89662   0.89994
 Alpha virt. eigenvalues --    0.90836   0.90985   0.92403   0.93010   0.93179
 Alpha virt. eigenvalues --    0.93554   0.94323   0.94493   0.95319   0.95544
 Alpha virt. eigenvalues --    0.95575   0.96099   0.96519   0.96858   0.98812
 Alpha virt. eigenvalues --    1.00241   1.01230   1.01638   1.02722   1.03606
 Alpha virt. eigenvalues --    1.04731   1.06753   1.07503   1.08267   1.08634
 Alpha virt. eigenvalues --    1.10204   1.14001   1.17105   1.17619   1.18852
 Alpha virt. eigenvalues --    1.20296   1.21583   1.21913   1.23206   1.23992
 Alpha virt. eigenvalues --    1.26084   1.26744   1.26875   1.28528   1.28730
 Alpha virt. eigenvalues --    1.29465   1.30045   1.30689   1.31594   1.33648
 Alpha virt. eigenvalues --    1.34661   1.39635   1.42967   1.46618   1.47834
 Alpha virt. eigenvalues --    1.50105   1.51160   1.53219   1.55314   1.55828
 Alpha virt. eigenvalues --    1.55924   1.58610   1.59006   1.59852   1.65120
 Alpha virt. eigenvalues --    1.65672   1.67206   1.68395   1.70667   1.75160
 Alpha virt. eigenvalues --    1.77910   1.78839   1.80112   1.82812   1.84393
 Alpha virt. eigenvalues --    1.85244   1.85741   1.86520   1.86573   1.87382
 Alpha virt. eigenvalues --    1.88673   1.89914   1.91047   1.94836   1.94896
 Alpha virt. eigenvalues --    1.95536   1.98175   2.00302   2.04601   2.06204
 Alpha virt. eigenvalues --    2.07822   2.08752   2.14690   2.16312   2.19590
 Alpha virt. eigenvalues --    2.20042   2.20855   2.22887   2.24119   2.24878
 Alpha virt. eigenvalues --    2.26019   2.26970   2.28470   2.28742   2.29094
 Alpha virt. eigenvalues --    2.30127   2.32507   2.34074   2.36611   2.37615
 Alpha virt. eigenvalues --    2.40989   2.42866   2.44767   2.44923   2.48115
 Alpha virt. eigenvalues --    2.51934   2.52045   2.53680   2.54929   2.56770
 Alpha virt. eigenvalues --    2.58678   2.59332   2.60290   2.61130   2.61506
 Alpha virt. eigenvalues --    2.65027   2.66820   2.69092   2.71637   2.73166
 Alpha virt. eigenvalues --    2.73346   2.74141   2.74415   2.76000   2.77260
 Alpha virt. eigenvalues --    2.78364   2.78466   2.81888   2.83177   2.85280
 Alpha virt. eigenvalues --    2.86189   2.87206   2.88391   2.89137   3.04047
 Alpha virt. eigenvalues --    3.06105   3.09949   3.11484   3.14739   3.15785
 Alpha virt. eigenvalues --    3.19099   3.20356   3.21506   3.28397   3.33258
 Alpha virt. eigenvalues --    3.36450   3.39249   3.41119   3.50366   3.58852
 Alpha virt. eigenvalues --    3.68040   3.69938   3.74164   3.78809   3.87338
 Alpha virt. eigenvalues --    4.01294   4.06651   4.08982   4.15603   4.78994
 Alpha virt. eigenvalues --    4.81014   9.73624   9.76363   9.80138   9.83521
 Alpha virt. eigenvalues --    9.86103   9.95405  23.34553  23.39140  23.80378
 Alpha virt. eigenvalues --   23.81820  23.83703  23.87144  23.95746  23.96301
 Alpha virt. eigenvalues --   23.98042  24.00606  24.06046  24.10202  25.76716
 Alpha virt. eigenvalues --   25.79267  25.80870  25.82142  25.86698  26.02297
 Alpha virt. eigenvalues --   26.09267  26.12976  26.16734  26.34177  26.41769
 Alpha virt. eigenvalues --   26.54174  26.59847  26.63739  26.73379  26.90081
 Alpha virt. eigenvalues --   27.07448  27.20200 215.72880 215.75559 215.79962
 Alpha virt. eigenvalues --  215.84539 215.88928 216.00880
          Condensed to atoms (all electrons):
               1          2          3          4          5          6
     1  C   29.876772   0.727237  -3.442795   4.015718 -10.202201  -4.592914
     2  C    0.727237  17.542259  -2.556207  -4.054425  -0.326026  -3.559782
     3  C   -3.442795  -2.556207  25.159556  -3.235033  -5.213154   1.181048
     4  C    4.015718  -4.054425  -3.235033  26.859954  -5.044045  -8.489264
     5  C  -10.202201  -0.326026  -5.213154  -5.044045  22.734324   3.949011
     6  C   -4.592914  -3.559782   1.181048  -8.489264   3.949011  27.041640
     7  C    8.332048  -2.007955  -7.040023   2.638140  -3.461464  -4.436697
     8  C   -0.034687   2.156887   0.390161  -0.050100  -0.112045  -2.805950
     9  C   -1.016185  -0.212928   0.323015   0.116536  -0.187806  -0.186925
    10  C    1.923529   0.723525   0.163859  -0.154464  -0.065144  -1.488909
    11  C   -5.807481  -0.144067  -0.731552  -0.039630   0.040875   1.055871
    12  C   -5.821050  -0.929603  -0.485735  -0.934585   0.615003  -1.166786
    13  H    0.037231  -0.011360   0.262615  -0.009143   0.030592   0.044271
    14  H    0.006156  -0.012970   0.039659  -0.097393   0.356405  -0.034004
    15  H    0.054392   0.012805   0.067858   0.014539  -0.007957  -0.012775
    16  H   -0.012311   0.000310  -0.001997   0.000138   0.000246   0.001039
    17  Cl  -4.656778  -0.704978  -1.545563   2.755970  -1.705114  11.027435
    18  Cl  -2.033989   0.539086   3.047427  -7.367176   4.331848 -10.293835
    19  Cl   0.049551  -0.065270  -0.003347  -0.015800  -0.042122  -0.178865
    20  Cl  -0.145535  -0.004277  -0.002757   0.000088  -0.001621  -0.003651
    21  Cl  -0.169645  -0.115160   0.437398  -1.454692   0.458624   0.051070
    22  Cl  -0.369976  -0.708303  -0.339121  -0.147052   0.214190   0.095938
               7          8          9         10         11         12
     1  C    8.332048  -0.034687  -1.016185   1.923529  -5.807481  -5.821050
     2  C   -2.007955   2.156887  -0.212928   0.723525  -0.144067  -0.929603
     3  C   -7.040023   0.390161   0.323015   0.163859  -0.731552  -0.485735
     4  C    2.638140  -0.050100   0.116536  -0.154464  -0.039630  -0.934585
     5  C   -3.461464  -0.112045  -0.187806  -0.065144   0.040875   0.615003
     6  C   -4.436697  -2.805950  -0.186925  -1.488909   1.055871  -1.166786
     7  C   29.904820  -4.527801  -0.904212   3.722692  -8.863965   0.599795
     8  C   -4.527801  19.017348  -0.497654  -1.592874   0.684892  -6.208919
     9  C   -0.904212  -0.497654  12.975499  -0.093832  -5.066789   1.005724
    10  C    3.722692  -1.592874  -0.093832  20.710287  -9.210933  -4.759491
    11  C   -8.863965   0.684892  -5.066789  -9.210933  29.130093  -0.198146
    12  C    0.599795  -6.208919   1.005724  -4.759491  -0.198146  28.041233
    13  H    0.002724   0.001804  -0.001750   0.000212   0.000436   0.000832
    14  H    0.000822  -0.001055   0.000115   0.000012  -0.001124   0.011201
    15  H   -0.096639   0.340420   0.039684  -0.008248  -0.053520   0.012938
    16  H    0.006306  -0.026390   0.316254   0.017611  -0.017659   0.057960
    17  Cl  -4.845124  -0.292877   0.309742  -5.360670   9.018119 -13.404722
    18  Cl  -2.575439   0.272891  -0.393095   2.134770  -3.038667   9.993461
    19  Cl  -0.087588   0.466100   0.496041  -0.133853  -1.578831   0.885147
    20  Cl  -0.444393  -0.210313  -0.146493  -0.709760   0.954278  -0.125661
    21  Cl  -0.084802  -0.003139  -0.000825  -0.000281  -0.000822  -0.016923
    22  Cl   0.842438  -0.494512  -0.592283  -0.130822   0.270650   0.201800
              13         14         15         16         17         18
     1  C    0.037231   0.006156   0.054392  -0.012311  -4.656778  -2.033989
     2  C   -0.011360  -0.012970   0.012805   0.000310  -0.704978   0.539086
     3  C    0.262615   0.039659   0.067858  -0.001997  -1.545563   3.047427
     4  C   -0.009143  -0.097393   0.014539   0.000138   2.755970  -7.367176
     5  C    0.030592   0.356405  -0.007957   0.000246  -1.705114   4.331848
     6  C    0.044271  -0.034004  -0.012775   0.001039  11.027435 -10.293835
     7  C    0.002724   0.000822  -0.096639   0.006306  -4.845124  -2.575439
     8  C    0.001804  -0.001055   0.340420  -0.026390  -0.292877   0.272891
     9  C   -0.001750   0.000115   0.039684   0.316254   0.309742  -0.393095
    10  C    0.000212   0.000012  -0.008248   0.017611  -5.360670   2.134770
    11  C    0.000436  -0.001124  -0.053520  -0.017659   9.018119  -3.038667
    12  C    0.000832   0.011201   0.012938   0.057960 -13.404722   9.993461
    13  H    0.494699  -0.000192   0.000024   0.000000  -0.001824   0.009166
    14  H   -0.000192   0.492459   0.000001  -0.000000  -0.024401   0.094682
    15  H    0.000024   0.000001   0.610798  -0.010559   0.007316  -0.004838
    16  H    0.000000  -0.000000  -0.010559   0.516228   0.013110  -0.002023
    17  Cl  -0.001824  -0.024401   0.007316   0.013110  60.691944 -34.388641
    18  Cl   0.009166   0.094682  -0.004838  -0.002023 -34.388641  55.474496
    19  Cl   0.000001   0.000045   0.000788  -0.003818  -1.319037   0.063692
    20  Cl   0.000000  -0.000001   0.000007  -0.004169   0.187582  -0.032600
    21  Cl  -0.011879  -0.005622   0.000121  -0.000001  -0.019550   0.063300
    22  Cl  -0.016113   0.000401  -0.100682   0.000620   0.111781  -0.116915
              19         20         21         22
     1  C    0.049551  -0.145535  -0.169645  -0.369976
     2  C   -0.065270  -0.004277  -0.115160  -0.708303
     3  C   -0.003347  -0.002757   0.437398  -0.339121
     4  C   -0.015800   0.000088  -1.454692  -0.147052
     5  C   -0.042122  -0.001621   0.458624   0.214190
     6  C   -0.178865  -0.003651   0.051070   0.095938
     7  C   -0.087588  -0.444393  -0.084802   0.842438
     8  C    0.466100  -0.210313  -0.003139  -0.494512
     9  C    0.496041  -0.146493  -0.000825  -0.592283
    10  C   -0.133853  -0.709760  -0.000281  -0.130822
    11  C   -1.578831   0.954278  -0.000822   0.270650
    12  C    0.885147  -0.125661  -0.016923   0.201800
    13  H    0.000001   0.000000  -0.011879  -0.016113
    14  H    0.000045  -0.000001  -0.005622   0.000401
    15  H    0.000788   0.000007   0.000121  -0.100682
    16  H   -0.003818  -0.004169  -0.000001   0.000620
    17  Cl  -1.319037   0.187582  -0.019550   0.111781
    18  Cl   0.063692  -0.032600   0.063300  -0.116915
    19  Cl  18.087102  -0.288323  -0.000029   0.000834
    20  Cl  -0.288323  17.458679  -0.000007  -0.000772
    21  Cl  -0.000029  -0.000007  17.441014  -0.014441
    22  Cl   0.000834  -0.000772  -0.014441  17.680408
 Mulliken charges:
               1
     1  C   -0.717086
     2  C   -0.288795
     3  C   -0.475313
     4  C    0.691719
     5  C   -0.362418
     6  C   -1.196966
     7  C   -0.673680
     8  C   -0.472185
     9  C   -0.281829
    10  C    0.312783
    11  C   -0.402026
    12  C   -1.373474
    13  H    0.167656
    14  H    0.174805
    15  H    0.133526
    16  H    0.149104
    17  Cl   1.146281
    18  Cl   1.222397
    19  Cl   0.667581
    20  Cl   0.519700
    21  Cl   0.446288
    22  Cl   0.611932
 Sum of Mulliken charges =  -0.00000
 Mulliken charges with hydrogens summed into heavy atoms:
               1
     1  C   -0.717086
     2  C   -0.288795
     3  C   -0.307657
     4  C    0.691719
     5  C   -0.187613
     6  C   -1.196966
     7  C   -0.673680
     8  C   -0.338660
     9  C   -0.132725
    10  C    0.312783
    11  C   -0.402026
    12  C   -1.373474
    17  Cl   1.146281
    18  Cl   1.222397
    19  Cl   0.667581
    20  Cl   0.519700
    21  Cl   0.446288
    22  Cl   0.611932
 Electronic spatial extent (au):  <R**2>=           8780.8960
 Charge=             -0.0000 electrons
 Dipole moment (field-independent basis, Debye):
    X=              1.7452    Y=              1.3074    Z=              0.0000  Tot=              2.1806
 Quadrupole moment (field-independent basis, Debye-Ang):
   XX=           -156.7203   YY=           -137.7137   ZZ=           -147.2541
   XY=             -0.8058   XZ=             -0.0000   YZ=              0.0000
 Traceless Quadrupole moment (field-independent basis, Debye-Ang):
   XX=             -9.4909   YY=              9.5157   ZZ=             -0.0248
   XY=             -0.8058   XZ=             -0.0000   YZ=              0.0000
 Octapole moment (field-independent basis, Debye-Ang**2):
  XXX=             19.4592  YYY=              0.2581  ZZZ=             -0.0001  XYY=             -9.0995
  XXY=              7.0992  XXZ=             -0.0000  XZZ=             -4.7612  YZZ=             -8.4442
  YYZ=             -0.0001  XYZ=              0.0000
 Hexadecapole moment (field-independent basis, Debye-Ang**3):
 XXXX=          -9058.8451 YYYY=          -2473.1765 ZZZZ=           -171.8823 XXXY=             62.7931
 XXXZ=             -0.0000 YYYX=             10.4483 YYYZ=              0.0002 ZZZX=              0.0000
 ZZZY=             -0.0001 XXYY=          -1864.0463 XXZZ=          -1544.2505 YYZZ=           -474.2649
 XXYZ=              0.0001 YYXZ=             -0.0003 ZZXY=             10.4470
 N-N= 2.048097473685D+03 E-N=-1.172554382308D+04  KE= 3.214042686526D+03
 Calling FoFJK, ICntrl=      2127 FMM=F ISym2X=0 I1Cent= 0 IOpClX= 0 NMat=1 NMatS=1 NMatT=0.
 ***** Axes restored to original set *****
 -------------------------------------------------------------------
 Center     Atomic                   Forces (Hartrees/Bohr)
 Number     Number              X              Y              Z
 -------------------------------------------------------------------
      1        6          -0.040835855   -0.066096850    0.001040114
      2        6          -0.012485355    0.011555762    0.006283690
      3        6          -0.004164818   -0.000362549    0.001304076
      4        6          -0.006228519   -0.013754989   -0.000531354
      5        6           0.018006982   -0.002411700   -0.006384993
      6        6           0.043982048    0.020694340   -0.010603596
      7        6           0.029749577    0.056185605    0.000750925
      8        6          -0.025439896   -0.007368517    0.006997585
      9        6          -0.011166566    0.014210758    0.006347779
     10        6           0.002103913   -0.000677133   -0.000820405
     11        6           0.000967177   -0.011050733   -0.002394280
     12        6          -0.006101607   -0.050550673   -0.007483464
     13        1           0.008145263   -0.000482680   -0.002774125
     14        1          -0.002446299    0.005369682    0.001814404
     15        1          -0.013032330   -0.009907699    0.002432639
     16        1           0.003050689   -0.007717681   -0.002454525
     17       17          -0.234538462   -0.381842083    0.005560954
     18       17           0.208674603    0.426779187    0.011399458
     19       17           0.004659834   -0.007508434   -0.002945476
     20       17           0.005635467   -0.000147933   -0.001884397
     21       17          -0.001857251   -0.004455067   -0.000224883
     22       17           0.033321402    0.029539387   -0.005430124
 -------------------------------------------------------------------
 Cartesian Forces:  Max     0.426779187 RMS     0.082267084

 GradGradGradGradGradGradGradGradGradGradGradGradGradGradGradGradGradGrad
 Berny optimization.
 FormGI is forming the generalized inverse of G from B-inverse, IUseBI=4.
 Internal  Forces:  Max     0.474040644 RMS     0.050753374
 Search for a local minimum.
 Step number   1 out of a maximum of  112
 All quantities printed in internal units (Hartrees-Bohrs-Radians)
 Mixed Optimization -- RFO/linear search
 Second derivative matrix not updated -- first step.
 ITU=  0
     Eigenvalues ---    0.01180   0.01180   0.01863   0.01863   0.02070
     Eigenvalues ---    0.02070   0.02070   0.02070   0.02070   0.02070
     Eigenvalues ---    0.02070   0.02070   0.02070   0.02070   0.02070
     Eigenvalues ---    0.02070   0.02070   0.02070   0.02454   0.16000
     Eigenvalues ---    0.16000   0.16000   0.16000   0.22422   0.23478
     Eigenvalues ---    0.23493   0.24427   0.25000   0.25000   0.25000
     Eigenvalues ---    0.25000   0.25000   0.25000   0.25000   0.25000
     Eigenvalues ---    0.25000   0.25000   0.29539   0.29539   0.29539
     Eigenvalues ---    0.29539   0.37230   0.37230   0.37230   0.37230
     Eigenvalues ---    0.37279   0.37279   0.41541   0.41554   0.42118
     Eigenvalues ---    0.42141   0.45389   0.45389   0.45389   0.45389
     Eigenvalues ---    0.45389   0.45389   0.45389   0.45389   0.69372
 RFO step:  Lambda=-2.92924842D-01 EMin= 1.18030838D-02
 Linear search not attempted -- first point.
 Maximum step size (   0.300) exceeded in Quadratic search.
    -- Step size scaled by   0.511
 Iteration  1 RMS(Cart)=  0.12214632 RMS(Int)=  0.00541962
 Iteration  2 RMS(Cart)=  0.01137275 RMS(Int)=  0.00007130
 Iteration  3 RMS(Cart)=  0.00001241 RMS(Int)=  0.00007119
 Iteration  4 RMS(Cart)=  0.00000000 RMS(Int)=  0.00007119
 Variable       Old X    -DE/DX   Delta X   Delta X   Delta X     New X
                                 (Linear)    (Quad)   (Total)
    R1        2.64826   0.04742   0.00000   0.03368   0.03381   2.68207
    R2        2.64826   0.04937   0.00000   0.03518   0.03531   2.68358
    R3        2.64826  -0.01081   0.00000  -0.00758  -0.00758   2.64069
    R4        3.32592  -0.00836   0.00000  -0.00727  -0.00727   3.31865
    R5        2.64826  -0.03488   0.00000  -0.02526  -0.02540   2.62287
    R6        2.02201   0.00859   0.00000   0.00661   0.00661   2.02861
    R7        2.64826  -0.03062   0.00000  -0.02217  -0.02231   2.62595
    R8        3.32592  -0.00478   0.00000  -0.00416  -0.00416   3.32176
    R9        2.64826   0.00274   0.00000   0.00205   0.00204   2.65031
   R10        2.02201   0.00616   0.00000   0.00474   0.00474   2.02675
   R11        3.19127   0.03962   0.00000   0.03044   0.03044   3.22171
   R12        2.64826   0.00268   0.00000   0.00188   0.00194   2.65020
   R13        2.64826   0.00665   0.00000   0.00517   0.00521   2.65347
   R14        2.64826  -0.00910   0.00000  -0.00681  -0.00679   2.64148
   R15        2.02201  -0.01335   0.00000  -0.01027  -0.01027   2.01174
   R16        2.64826  -0.02604   0.00000  -0.01845  -0.01849   2.62977
   R17        2.02201   0.00860   0.00000   0.00661   0.00661   2.02862
   R18        2.64826  -0.01346   0.00000  -0.00926  -0.00932   2.63894
   R19        3.32592  -0.00273   0.00000  -0.00237  -0.00237   3.32355
   R20        2.64826   0.01755   0.00000   0.01260   0.01258   2.66084
   R21        3.32592  -0.00518   0.00000  -0.00450  -0.00450   3.32141
   R22        3.19127   0.01518   0.00000   0.01166   0.01166   3.20294
   R23        3.42513   0.47404   0.00000   0.24572   0.24572   3.67085
    A1        2.09440  -0.06665   0.00000  -0.05800  -0.05762   2.03678
    A2        2.09440   0.02780   0.00000   0.02720   0.02731   2.12171
    A3        2.09440   0.05939   0.00000   0.05544   0.05538   2.14978
    A4        2.09440  -0.08719   0.00000  -0.08264  -0.08270   2.01170
    A5        2.09440   0.01014   0.00000   0.00735   0.00720   2.10159
    A6        2.09440  -0.00575   0.00000  -0.00445  -0.00437   2.09002
    A7        2.09440  -0.00439   0.00000  -0.00290  -0.00283   2.09157
    A8        2.09440  -0.00196   0.00000  -0.00590  -0.00619   2.08820
    A9        2.09440  -0.00017   0.00000   0.00187   0.00201   2.09641
   A10        2.09440   0.00213   0.00000   0.00403   0.00418   2.09858
   A11        2.09440   0.01255   0.00000   0.01053   0.01037   2.10476
   A12        2.09440  -0.00664   0.00000  -0.00567  -0.00559   2.08880
   A13        2.09440  -0.00592   0.00000  -0.00486  -0.00478   2.08962
   A14        2.09440   0.01812   0.00000   0.01882   0.01893   2.11332
   A15        2.17289   0.03029   0.00000   0.02766   0.02760   2.20049
   A16        2.01590  -0.04841   0.00000  -0.04648  -0.04653   1.96937
   A17        2.09440  -0.04372   0.00000  -0.04027  -0.04015   2.05425
   A18        2.09440   0.02625   0.00000   0.02504   0.02511   2.11951
   A19        2.09440  -0.00324   0.00000  -0.00136  -0.00139   2.09300
   A20        2.09440  -0.02301   0.00000  -0.02368  -0.02372   2.07068
   A21        2.09440   0.00757   0.00000   0.00541   0.00539   2.09978
   A22        2.09440  -0.00284   0.00000  -0.00164  -0.00163   2.09276
   A23        2.09440  -0.00472   0.00000  -0.00377  -0.00376   2.09064
   A24        2.09440  -0.00869   0.00000  -0.00945  -0.00955   2.08484
   A25        2.09440  -0.00444   0.00000  -0.00355  -0.00350   2.09090
   A26        2.09440   0.01313   0.00000   0.01300   0.01305   2.10745
   A27        2.09440  -0.00043   0.00000   0.00000  -0.00008   2.09431
   A28        2.09440  -0.01266   0.00000  -0.01213  -0.01209   2.08231
   A29        2.09440   0.01309   0.00000   0.01213   0.01217   2.10656
   A30        2.09440   0.01902   0.00000   0.01927   0.01928   2.11367
   A31        2.17289  -0.04399   0.00000  -0.04212  -0.04212   2.13077
   A32        2.01590   0.02497   0.00000   0.02285   0.02284   2.03875
   A33        2.01590  -0.00014   0.00000  -0.00013  -0.00013   2.01577
   A34        2.01590   0.01965   0.00000   0.01851   0.01851   2.03441
    D1        0.00000   0.00000   0.00000   0.00000   0.00000   0.00000
    D2        3.14159  -0.00000   0.00000  -0.00000  -0.00000   3.14159
    D3       -0.00000  -0.00000   0.00000  -0.00000  -0.00000  -0.00000
    D4        3.14159   0.00000   0.00000   0.00000   0.00000   3.14159
    D5        0.00000   0.00000   0.00000   0.00000   0.00000   0.00000
    D6        3.14159   0.00000   0.00000   0.00000   0.00000   3.14159
    D7       -3.14159  -0.00000   0.00000  -0.00000  -0.00000  -3.14159
    D8        0.00000  -0.00000   0.00000  -0.00000  -0.00000   0.00000
    D9       -0.00000  -0.00000   0.00000  -0.00000  -0.00000  -0.00000
   D10        3.14159   0.00000   0.00000   0.00000   0.00000   3.14159
   D11        3.14159  -0.00000   0.00000  -0.00000  -0.00000   3.14159
   D12        0.00000   0.00000   0.00000   0.00000   0.00000   0.00000
   D13        0.00000  -0.00000   0.00000  -0.00000  -0.00000   0.00000
   D14       -3.14159  -0.00000   0.00000  -0.00000  -0.00000  -3.14159
   D15       -3.14159  -0.00000   0.00000  -0.00000  -0.00000  -3.14159
   D16        0.00000  -0.00000   0.00000  -0.00000  -0.00000   0.00000
   D17       -0.00000   0.00000   0.00000   0.00000   0.00000  -0.00000
   D18        3.14159  -0.00000   0.00000  -0.00000  -0.00000   3.14159
   D19        3.14159   0.00000   0.00000   0.00000   0.00000   3.14159
   D20       -0.00000  -0.00000   0.00000  -0.00000  -0.00000  -0.00000
   D21        0.00001  -0.00000   0.00000  -0.00000  -0.00000   0.00001
   D22       -3.14158   0.00000   0.00000   0.00000   0.00000  -3.14158
   D23        0.00000   0.00000   0.00000   0.00000   0.00000   0.00000
   D24       -3.14159  -0.00000   0.00000  -0.00000  -0.00000  -3.14159
   D25       -0.00000  -0.00000   0.00000  -0.00000  -0.00000  -0.00000
   D26        3.14159   0.00000   0.00000   0.00000   0.00000   3.14159
   D27       -0.00000  -0.00000   0.00000   0.00000   0.00000  -0.00000
   D28        3.14159  -0.00000   0.00000  -0.00000  -0.00000   3.14159
   D29        3.14159   0.00000   0.00000   0.00000   0.00000   3.14159
   D30       -0.00000   0.00000   0.00000   0.00000   0.00000  -0.00000
   D31       -0.00000  -0.00000   0.00000   0.00000   0.00000  -0.00000
   D32       -3.14159  -0.00000   0.00000  -0.00000  -0.00000  -3.14159
   D33        3.14159   0.00000   0.00000   0.00000   0.00000   3.14159
   D34        0.00000  -0.00000   0.00000   0.00000   0.00000   0.00000
   D35        0.00000  -0.00000   0.00000  -0.00000  -0.00000  -0.00000
   D36       -3.14159  -0.00000   0.00000  -0.00000  -0.00000  -3.14159
   D37        3.14159  -0.00000   0.00000  -0.00000  -0.00000   3.14159
   D38        0.00000  -0.00000   0.00000  -0.00000  -0.00000   0.00000
   D39        0.00000   0.00000   0.00000   0.00000   0.00000   0.00000
   D40       -3.14159  -0.00000   0.00000  -0.00000  -0.00000  -3.14159
   D41        3.14159   0.00000   0.00000   0.00000   0.00000   3.14159
   D42       -0.00000  -0.00000   0.00000  -0.00000  -0.00000  -0.00000
   D43        0.00001  -0.00000   0.00000  -0.00000  -0.00000   0.00001
   D44       -3.14159   0.00000   0.00000   0.00000   0.00000  -3.14159
   D45       -0.00001  -0.00000   0.00000  -0.00000  -0.00000  -0.00001
         Item               Value     Threshold  Converged?
 Maximum Force            0.474041     0.000450     NO 
 RMS     Force            0.050753     0.000300     NO 
 Maximum Displacement     0.592914     0.001800     NO 
 RMS     Displacement     0.131354     0.001200     NO 
 Predicted change in Energy=-1.246788D-01
 GradGradGradGradGradGradGradGradGradGradGradGradGradGradGradGradGradGrad

                          Input orientation:                          
 ---------------------------------------------------------------------
 Center     Atomic      Atomic             Coordinates (Angstroms)
 Number     Number       Type             X           Y           Z
 ---------------------------------------------------------------------
      1          6           0        0.987447    0.752899   -0.041197
      2          6           0        2.336834    0.884057   -0.461126
      3          6           0        2.991275    2.118619   -0.444874
      4          6           0        2.329094    3.259235   -0.012498
      5          6           0        1.007113    3.169438    0.406167
      6          6           0        0.337120    1.937387    0.395510
      7          6           0       -0.144401   -0.931694    0.015309
      8          6           0        0.445765   -2.132578   -0.404664
      9          6           0       -0.265005   -3.336160   -0.396538
     10          6           0       -1.588139   -3.367510    0.033493
     11          6           0       -2.200626   -2.186196    0.457145
     12          6           0       -1.479846   -0.976654    0.446841
     13          1           0        4.012557    2.184439   -0.768977
     14          1           0        0.494900    4.050466    0.740380
     15          1           0        1.456488   -2.139098   -0.738878
     16          1           0        0.211073   -4.241118   -0.723347
     17         17           0       -2.301559    0.407515    0.977525
     18         17           0       -1.271668    2.054281    0.947484
     19         17           0       -3.871892   -2.230173    0.999504
     20         17           0       -2.469838   -4.889276    0.038177
     21         17           0        3.159864    4.808230    0.004715
     22         17           0        3.301066   -0.467848   -1.032691
 ---------------------------------------------------------------------
                    Distance matrix (angstroms):
                    1          2          3          4          5
     1  C    0.000000
     2  C    1.419292   0.000000
     3  C    2.458348   1.397390   0.000000
     4  C    2.842984   2.417187   1.387962   0.000000
     5  C    2.457678   2.782682   2.401123   1.389595   0.000000
     6  C    1.420087   2.417061   2.789916   2.425224   1.402482
     7  C    2.030302   3.111345   4.398709   4.866500   4.277620
     8  C    2.958295   3.560817   4.955191   5.724715   5.392953
     9  C    4.291306   4.958222   6.352976   7.097609   6.677232
    10  C    4.859732   5.807400   7.162226   7.698089   7.043147
    11  C    4.364680   5.555018   6.804477   7.098707   6.242996
    12  C    3.052388   4.342084   5.510608   5.715047   4.834946
    13  H    3.424947   2.143318   1.073495   2.135766   3.374001
    14  H    3.424531   3.855189   3.371758   2.134746   1.072507
    15  H    3.011712   3.160953   4.535434   5.516436   5.449186
    16  H    5.099832   5.554731   6.946461   7.826021   7.538290
    17  Cl   3.460441   4.879703   5.741533   5.527694   4.347642
    18  Cl   2.788312   4.046590   4.485029   3.916499   2.594117
    19  Cl   5.796115   7.097897   8.252350   8.343259   7.301544
    20  Cl   6.617648   7.528929   8.897623   9.456772   8.784502
    21  Cl   4.600783   4.036523   2.732134   1.757800   2.735167
    22  Cl   2.797520   1.756154   2.670452   3.984554   4.534576
                    6          7          8          9         10
     6  C    0.000000
     7  C    2.933945   0.000000
     8  C    4.149301   1.402425   0.000000
     9  C    5.366580   2.442462   1.397808   0.000000
    10  C    5.655052   2.831592   2.419464   1.391616   0.000000
    11  C    4.842302   2.448889   2.783698   2.407867   1.396469
    12  C    3.434477   1.404157   2.401916   2.784672   2.428740
    13  H    3.863406   5.254111   5.611717   6.993801   7.926910
    14  H    2.146843   5.075071   6.288369   7.512142   7.737255
    15  H    4.376934   2.142305   1.064567   2.124545   3.372731
    16  H    6.280258   3.409437   2.145362   1.073500   2.138495
    17  Cl   3.105138   2.715267   3.988773   4.477801   3.956132
    18  Cl   1.704858   3.325015   4.723100   5.645938   5.507391
    19  Cl   5.953918   4.068031   4.541296   4.022657   2.728046
    20  Cl   7.389859   4.590277   4.036859   2.731746   1.758745
    21  Cl   4.045039   6.623065   7.463829   8.844309   9.454474
    22  Cl   4.075523   3.631074   3.364296   4.620472   5.783521
                   11         12         13         14         15
    11  C    0.000000
    12  C    1.408056   0.000000
    13  H    7.694769   6.452690   0.000000
    14  H    6.800149   5.409041   4.258419   0.000000
    15  H    3.848009   3.373317   5.022685   6.436114   0.000000
    16  H    3.381207   3.858144   7.465999   8.424572   2.443315
    17  Cl   2.647322   1.694922   6.787916   4.598643   4.853267
    18  Cl   4.368642   3.079050   5.557537   2.673651   5.279307
    19  Cl   1.757617   2.756561   9.207652   7.653917   5.605524
    20  Cl   2.748573   4.056563   9.628623   9.444668   4.856268
    21  Cl   8.823918   7.428813   2.865304   2.866608   7.191647
    22  Cl   5.953229   5.030409   2.758694   5.606560   2.506365
                   16         17         18         19         20
    16  H    0.000000
    17  Cl   5.551223   0.000000
    18  Cl   6.679988   1.942529   0.000000
    19  Cl   4.866489   3.069825   5.012027   0.000000
    20  Cl   2.861348   5.382070   7.104606   3.156062   0.000000
    21  Cl   9.545477   7.080946   5.302030   9.998715  11.213219
    22  Cl   4.886850   6.016364   5.584991   7.660739   7.348409
                   21         22
    21  Cl   0.000000
    22  Cl   5.378954   0.000000
 Stoichiometry    C12H4Cl6
 Framework group  C1[X(C12H4Cl6)]
 Deg. of freedom    60
 Full point group                 C1      NOp   1
 Largest Abelian subgroup         C1      NOp   1
 Largest concise Abelian subgroup C1      NOp   1
                         Standard orientation:                         
 ---------------------------------------------------------------------
 Center     Atomic      Atomic             Coordinates (Angstroms)
 Number     Number       Type             X           Y           Z
 ---------------------------------------------------------------------
      1          6           0        1.344368    0.397087    0.000000
      2          6           0        2.310930    1.436387   -0.000002
      3          6           0        3.680953    1.161184   -0.000002
      4          6           0        4.134073   -0.150731   -0.000001
      5          6           0        3.216927   -1.194675    0.000003
      6          6           0        1.838860   -0.934126    0.000004
      7          6           0       -0.678280    0.573203    0.000007
      8          6           0       -1.223985    1.865103    0.000010
      9          6           0       -2.606297    2.072661    0.000009
     10          6           0       -3.479200    0.988855    0.000005
     11          6           0       -2.962877   -0.308657    0.000001
     12          6           0       -1.569555   -0.511824    0.000002
     13          1           0        4.386751    1.970036   -0.000004
     14          1           0        3.566452   -2.208630    0.000007
     15          1           0       -0.580637    2.713282    0.000011
     16          1           0       -2.997420    3.072374    0.000012
     17         17           0       -1.031318   -2.119014   -0.000005
     18         17           0        0.896815   -2.355073    0.000008
     19         17           0       -4.068820   -1.674711   -0.000009
     20         17           0       -5.216058    1.265454    0.000001
     21         17           0        5.859219   -0.487972   -0.000002
     22         17           0        1.888947    3.141089   -0.000007
 ---------------------------------------------------------------------
 Rotational constants (GHZ):           0.4732529           0.1274321           0.1003980
 Standard basis: 6-311+G(d,p) (5D, 7F)
 There are   486 symmetry adapted cartesian basis functions of A   symmetry.
 There are   468 symmetry adapted basis functions of A   symmetry.
   468 basis functions,   782 primitive gaussians,   486 cartesian basis functions
    89 alpha electrons       89 beta electrons
       nuclear repulsion energy      2008.3092053795 Hartrees.
 NAtoms=   22 NActive=   22 NUniq=   22 SFac= 1.00D+00 NAtFMM=   60 NAOKFM=F Big=F
 Integral buffers will be    131072 words long.
 Raffenetti 2 integral format.
 Two-electron integral symmetry is turned on.
 One-electron integrals computed using PRISM.
 NBasis=   468 RedAO= T EigKep=  1.45D-06  NBF=   468
 NBsUse=   462 1.00D-06 EigRej=  8.63D-07 NBFU=   462
 Initial guess from the checkpoint file:  "./Gau-144637.chk"
 B after Tr=     0.000000    0.000000   -0.000000
         Rot=    0.999952    0.000000    0.000000    0.009826 Ang=   1.13 deg.
 ExpMin= 4.38D-02 ExpMax= 1.06D+05 ExpMxC= 3.62D+03 IAcc=3 IRadAn=         5 AccDes= 0.00D+00
 Harris functional with IExCor=  402 and IRadAn=       5 diagonalized for initial guess.
 HarFok:  IExCor=  402 AccDes= 0.00D+00 IRadAn=         5 IDoV= 1 UseB2=F ITyADJ=14
 ICtDFT=  3500011 ScaDFX=  1.000000  1.000000  1.000000  1.000000
 FoFCou: FMM=F IPFlag=           0 FMFlag=      100000 FMFlg1=           0
         NFxFlg=           0 DoJE=T BraDBF=F KetDBF=T FulRan=T
         wScrn=  0.000000 ICntrl=       500 IOpCl=  0 I1Cent=   200000004 NGrid=           0
         NMat0=    1 NMatS0=      1 NMatT0=    0 NMatD0=    1 NMtDS0=    0 NMtDT0=    0
 Petite list used in FoFCou.
 Requested convergence on RMS density matrix=1.00D-08 within  32 cycles.
 Requested convergence on MAX density matrix=1.00D-06.
 Requested convergence on             energy=1.00D-06.
 No special actions if energy rises.
 SCF Done:  E(RB3LYP) =  -3220.79166545     A.U. after   18 cycles
            NFock= 18  Conv=0.68D-08     -V/T= 2.0023
 QCSCF skips out because SCF is already converged.
 Calling FoFJK, ICntrl=      2127 FMM=F ISym2X=0 I1Cent= 0 IOpClX= 0 NMat=1 NMatS=1 NMatT=0.
 ***** Axes restored to original set *****
 -------------------------------------------------------------------
 Center     Atomic                   Forces (Hartrees/Bohr)
 Number     Number              X              Y              Z
 -------------------------------------------------------------------
      1        6          -0.042241433   -0.031393167    0.008020336
      2        6          -0.017870331   -0.002604885    0.005398302
      3        6          -0.001592774    0.000104062    0.000544413
      4        6          -0.003657956   -0.006502691   -0.000016309
      5        6           0.010874541   -0.000472116   -0.003671084
      6        6           0.039014117    0.011371574   -0.010717622
      7        6           0.035497984    0.029686307   -0.006119255
      8        6          -0.011264837    0.007515649    0.005122898
      9        6          -0.002585037    0.008869454    0.002517319
     10        6          -0.000400352   -0.002399179   -0.000318664
     11        6          -0.002058623   -0.005951747   -0.000439597
     12        6          -0.001091267   -0.020129421   -0.003420966
     13        1           0.005441946   -0.001455523   -0.002066210
     14        1          -0.002476046    0.003758642    0.001521662
     15        1           0.009075515   -0.000099120   -0.003008716
     16        1           0.002618424   -0.005117932   -0.001823842
     17       17          -0.186779268   -0.270828292    0.010674907
     18       17           0.161212257    0.289742690    0.001300521
     19       17           0.006457674   -0.001967159   -0.002497089
     20       17           0.005622261    0.002669717   -0.001350937
     21       17          -0.001840488   -0.003963198   -0.000137975
     22       17          -0.001956306   -0.000833664    0.000487909
 -------------------------------------------------------------------
 Cartesian Forces:  Max     0.289742690 RMS     0.058605417

 GradGradGradGradGradGradGradGradGradGradGradGradGradGradGradGradGradGrad
 Berny optimization.
 Using GEDIIS/GDIIS optimizer.
 FormGI is forming the generalized inverse of G from B-inverse, IUseBI=4.
 Internal  Forces:  Max     0.370030411 RMS     0.061054222
 Search for a local minimum.
 Step number   2 out of a maximum of  112
 All quantities printed in internal units (Hartrees-Bohrs-Radians)
 Mixed Optimization -- RFO/linear search
 Update second derivatives using D2CorX and points    1    2
 DE= -9.88D-02 DEPred=-1.25D-01 R= 7.92D-01
 TightC=F SS=  1.41D+00  RLast= 3.00D-01 DXNew= 5.0454D-01 8.9999D-01
 Trust test= 7.92D-01 RLast= 3.00D-01 DXMaxT set to 5.05D-01
 ITU=  1  0
 Use linear search instead of GDIIS.
 Linear search step of   0.600 exceeds DXMaxT=   0.505 but not scaled.
 Quartic linear search produced a step of  2.00000.
 Iteration  1 RMS(Cart)=  0.19497438 RMS(Int)=  0.03137596
 Iteration  2 RMS(Cart)=  0.05212916 RMS(Int)=  0.00989957
 Iteration  3 RMS(Cart)=  0.02309593 RMS(Int)=  0.00042195
 Iteration  4 RMS(Cart)=  0.00000036 RMS(Int)=  0.00042195
 Variable       Old X    -DE/DX   Delta X   Delta X   Delta X     New X
                                 (Linear)    (Quad)   (Total)
    R1        2.68207  -0.02259   0.06762   0.00000   0.06837   2.75044
    R2        2.68358  -0.00968   0.07063   0.00000   0.07135   2.75492
    R3        2.64069   0.00415  -0.01515   0.00000  -0.01513   2.62555
    R4        3.31865  -0.00059  -0.01453   0.00000  -0.01453   3.30412
    R5        2.62287   0.00943  -0.05079   0.00000  -0.05154   2.57132
    R6        2.02861   0.00571   0.01321   0.00000   0.01321   2.04182
    R7        2.62595   0.00003  -0.04461   0.00000  -0.04540   2.58056
    R8        3.32176  -0.00436  -0.00831   0.00000  -0.00831   3.31345
    R9        2.65031  -0.00840   0.00409   0.00000   0.00404   2.65435
   R10        2.02675   0.00474   0.00948   0.00000   0.00948   2.03622
   R11        3.22171  -0.01298   0.06088   0.00000   0.06088   3.28259
   R12        2.65020  -0.01390   0.00388   0.00000   0.00420   2.65440
   R13        2.65347   0.02982   0.01042   0.00000   0.01060   2.66407
   R14        2.64148  -0.00169  -0.01357   0.00000  -0.01345   2.62803
   R15        2.01174   0.00956  -0.02053   0.00000  -0.02053   1.99121
   R16        2.62977   0.00422  -0.03698   0.00000  -0.03717   2.59260
   R17        2.02862   0.00603   0.01323   0.00000   0.01323   2.04185
   R18        2.63894   0.00523  -0.01864   0.00000  -0.01896   2.61998
   R19        3.32355  -0.00513  -0.00474   0.00000  -0.00474   3.31881
   R20        2.66084   0.00004   0.02516   0.00000   0.02503   2.68587
   R21        3.32141  -0.00686  -0.00901   0.00000  -0.00901   3.31241
   R22        3.20294   0.01317   0.02333   0.00000   0.02333   3.22627
   R23        3.67085   0.29532   0.49144   0.00000   0.49144   4.16229
    A1        2.03678  -0.01060  -0.11523   0.00000  -0.11288   1.92390
    A2        2.12171  -0.00157   0.05463   0.00000   0.05529   2.17700
    A3        2.14978  -0.00270   0.11077   0.00000   0.11044   2.26022
    A4        2.01170   0.00427  -0.16540   0.00000  -0.16573   1.84597
    A5        2.10159   0.00284   0.01440   0.00000   0.01350   2.11509
    A6        2.09002  -0.00328  -0.00874   0.00000  -0.00829   2.08173
    A7        2.09157   0.00045  -0.00565   0.00000  -0.00520   2.08636
    A8        2.08820   0.00375  -0.01239   0.00000  -0.01411   2.07409
    A9        2.09641  -0.00232   0.00403   0.00000   0.00489   2.10130
   A10        2.09858  -0.00143   0.00836   0.00000   0.00922   2.10780
   A11        2.10476  -0.02749   0.02074   0.00000   0.01976   2.12452
   A12        2.08880   0.01400  -0.01118   0.00000  -0.01069   2.07811
   A13        2.08962   0.01349  -0.00956   0.00000  -0.00906   2.08055
   A14        2.11332   0.03307   0.03785   0.00000   0.03845   2.15177
   A15        2.20049  -0.14761   0.05521   0.00000   0.05491   2.25540
   A16        1.96937   0.11454  -0.09306   0.00000  -0.09336   1.87601
   A17        2.05425  -0.00492  -0.08029   0.00000  -0.07952   1.97473
   A18        2.11951  -0.00263   0.05022   0.00000   0.05062   2.17013
   A19        2.09300   0.00136  -0.00279   0.00000  -0.00299   2.09001
   A20        2.07068   0.00127  -0.04743   0.00000  -0.04763   2.02304
   A21        2.09978   0.00800   0.01078   0.00000   0.01065   2.11044
   A22        2.09276  -0.00393  -0.00326   0.00000  -0.00320   2.08956
   A23        2.09064  -0.00407  -0.00752   0.00000  -0.00745   2.08318
   A24        2.08484   0.00504  -0.01911   0.00000  -0.01969   2.06515
   A25        2.09090  -0.00879  -0.00699   0.00000  -0.00670   2.08419
   A26        2.10745   0.00374   0.02610   0.00000   0.02639   2.13384
   A27        2.09431  -0.01596  -0.00016   0.00000  -0.00067   2.09365
   A28        2.08231   0.00437  -0.02417   0.00000  -0.02392   2.05839
   A29        2.10656   0.01159   0.02433   0.00000   0.02459   2.13115
   A30        2.11367   0.01047   0.03856   0.00000   0.03860   2.15227
   A31        2.13077  -0.09373  -0.08424   0.00000  -0.08426   2.04651
   A32        2.03875   0.08326   0.04568   0.00000   0.04566   2.08441
   A33        2.01577  -0.31583  -0.00026   0.00000  -0.00026   2.01551
   A34        2.03441  -0.37003   0.03702   0.00000   0.03702   2.07143
    D1        0.00000  -0.00000   0.00000   0.00000   0.00000   0.00000
    D2        3.14159  -0.00000  -0.00000   0.00000  -0.00000   3.14159
    D3       -0.00000   0.00000  -0.00000   0.00000  -0.00000  -0.00000
    D4        3.14159  -0.00000   0.00000   0.00000   0.00000   3.14159
    D5        0.00000  -0.00000   0.00000   0.00000   0.00000   0.00000
    D6        3.14159   0.00000   0.00000   0.00000   0.00000   3.14159
    D7       -3.14159  -0.00000  -0.00000   0.00000  -0.00000  -3.14159
    D8        0.00000  -0.00000  -0.00000   0.00000  -0.00000   0.00000
    D9       -0.00000   0.00000  -0.00000   0.00000  -0.00000  -0.00000
   D10        3.14159   0.00000   0.00000   0.00000   0.00000   3.14159
   D11        3.14159   0.00000  -0.00000   0.00000  -0.00000   3.14159
   D12        0.00000  -0.00000   0.00000   0.00000   0.00000   0.00000
   D13        0.00000  -0.00000  -0.00000   0.00000  -0.00000   0.00000
   D14       -3.14159  -0.00000  -0.00000   0.00000  -0.00000  -3.14159
   D15       -3.14159  -0.00000  -0.00000   0.00000  -0.00000   3.14159
   D16        0.00000  -0.00000  -0.00000   0.00000  -0.00000   0.00000
   D17       -0.00000  -0.00000   0.00000   0.00000   0.00000   0.00000
   D18        3.14159   0.00000  -0.00000   0.00000  -0.00000   3.14159
   D19        3.14159  -0.00000   0.00000   0.00000   0.00000   3.14159
   D20       -0.00000  -0.00000  -0.00000   0.00000  -0.00000  -0.00000
   D21        0.00001   0.00000  -0.00000   0.00000  -0.00000   0.00001
   D22       -3.14158   0.00000   0.00000   0.00000   0.00000  -3.14158
   D23        0.00000  -0.00000   0.00000   0.00000   0.00000   0.00000
   D24       -3.14159  -0.00000  -0.00000   0.00000  -0.00000  -3.14159
   D25       -0.00000   0.00000  -0.00000   0.00000  -0.00000  -0.00000
   D26        3.14159   0.00000   0.00000   0.00000   0.00000   3.14159
   D27       -0.00000  -0.00000   0.00000   0.00000   0.00000  -0.00000
   D28        3.14159  -0.00000  -0.00000   0.00000  -0.00000   3.14159
   D29        3.14159   0.00000   0.00000   0.00000   0.00000   3.14159
   D30       -0.00000   0.00000   0.00000   0.00000   0.00000  -0.00000
   D31       -0.00000   0.00000   0.00000   0.00000   0.00000  -0.00000
   D32       -3.14159  -0.00000  -0.00000   0.00000  -0.00000  -3.14159
   D33        3.14159   0.00000   0.00000   0.00000   0.00000  -3.14159
   D34        0.00000  -0.00000   0.00000   0.00000   0.00000   0.00000
   D35       -0.00000   0.00000  -0.00000   0.00000  -0.00000  -0.00000
   D36       -3.14159  -0.00000  -0.00000   0.00000  -0.00000  -3.14159
   D37        3.14159   0.00000  -0.00000   0.00000  -0.00000   3.14159
   D38        0.00000  -0.00000  -0.00000   0.00000  -0.00000   0.00000
   D39        0.00000  -0.00000   0.00000   0.00000   0.00000   0.00000
   D40       -3.14159  -0.00000  -0.00000   0.00000  -0.00000  -3.14159
   D41        3.14159   0.00000   0.00000   0.00000   0.00000   3.14159
   D42       -0.00000   0.00000  -0.00000   0.00000  -0.00000  -0.00000
   D43        0.00001   0.00000  -0.00000   0.00000  -0.00000   0.00001
   D44       -3.14159   0.00000   0.00000   0.00000   0.00000  -3.14158
   D45       -0.00001   0.00000  -0.00001   0.00000  -0.00001  -0.00002
         Item               Value     Threshold  Converged?
 Maximum Force            0.370030     0.000450     NO 
 RMS     Force            0.061054     0.000300     NO 
 Maximum Displacement     1.075334     0.001800     NO 
 RMS     Displacement     0.256447     0.001200     NO 
 Predicted change in Energy=-5.398331D-02
 GradGradGradGradGradGradGradGradGradGradGradGradGradGradGradGradGradGrad

                          Input orientation:                          
 ---------------------------------------------------------------------
 Center     Atomic      Atomic             Coordinates (Angstroms)
 Number     Number       Type             X           Y           Z
 ---------------------------------------------------------------------
      1          6           0        1.236977    0.752340   -0.123504
      2          6           0        2.599291    1.089886   -0.508929
      3          6           0        3.145729    2.365908   -0.449312
      4          6           0        2.414448    3.425689   -0.009359
      5          6           0        1.121392    3.218396    0.377709
      6          6           0        0.532093    1.944171    0.332550
      7          6           0       -0.290727   -1.063296    0.038799
      8          6           0        0.232359   -2.302385   -0.366254
      9          6           0       -0.480799   -3.496251   -0.355516
     10          6           0       -1.785452   -3.534279    0.067177
     11          6           0       -2.376601   -2.351510    0.484076
     12          6           0       -1.631933   -1.141037    0.466077
     13          1           0        4.169983    2.517015   -0.758376
     14          1           0        0.538896    4.055017    0.726732
     15          1           0        1.227962   -2.363797   -0.705799
     16          1           0       -0.003602   -4.408307   -0.684029
     17         17           0       -2.373264    0.307621    0.982393
     18         17           0       -1.101584    2.104164    0.900814
     19         17           0       -4.043770   -2.411763    1.022034
     20         17           0       -2.648823   -5.063641    0.064397
     21         17           0        3.124940    5.027301    0.057358
     22         17           0        3.870108    0.057019   -1.121576
 ---------------------------------------------------------------------
                    Distance matrix (angstroms):
                    1          2          3          4          5
     1  C    0.000000
     2  C    1.455469   0.000000
     3  C    2.520532   1.389381   0.000000
     4  C    2.923398   2.395769   1.360685   0.000000
     5  C    2.519127   2.738771   2.347049   1.365572   0.000000
     6  C    1.457843   2.389811   2.760482   2.419722   1.404621
     7  C    2.378394   3.645326   4.879233   5.241304   4.521263
     8  C    3.224831   4.138868   5.503416   6.140010   5.641177
     9  C    4.588586   5.526586   6.893868   7.511027   6.941982
    10  C    5.248480   6.398498   7.706848   8.129340   7.358314
    11  C    4.802186   6.130968   7.322661   7.521546   6.578079
    12  C    3.487568   4.881692   5.996887   6.119985   5.156865
    13  H    3.481330   2.136818   1.080486   2.113910   3.328142
    14  H    3.481076   3.816293   3.321407   2.110824   1.077522
    15  H    3.170088   3.721186   5.110159   5.950707   5.687374
[...]
                 (A) (A) (A) (A) (A) (A) (A) (A) (A) (A) (A) (A)
                 (A) (A) (A) (A) (A) (A) (A) (A) (A) (A) (A) (A)
                 (A) (A) (A) (A) (A) (A) (A) (A) (A) (A) (A) (A)
                 (A) (A) (A) (A) (A) (A) (A) (A) (A) (A) (A) (A)
                 (A) (A) (A) (A) (A) (A) (A) (A) (A) (A) (A) (A)
                 (A) (A) (A) (A) (A) (A) (A) (A) (A) (A) (A) (A)
                 (A) (A) (A) (A) (A) (A) (A) (A) (A) (A) (A) (A)
                 (A) (A) (A) (A) (A) (A) (A) (A) (A) (A) (A) (A)
                 (A) (A) (A) (A) (A) (A) (A) (A) (A) (A) (A) (A)
                 (A) (A) (A) (A) (A) (A) (A) (A) (A) (A) (A) (A)
                 (A) (A) (A) (A) (A) (A) (A) (A) (A) (A) (A) (A)
                 (A) (A) (A) (A) (A) (A) (A) (A) (A) (A) (A) (A)
                 (A) (A) (A) (A) (A) (A) (A) (A) (A) (A) (A) (A)
                 (A) (A) (A) (A) (A) (A) (A) (A) (A) (A) (A) (A)
                 (A) (A) (A) (A) (A) (A) (A) (A) (A) (A) (A) (A)
                 (A) (A) (A) (A) (A) (A) (A) (A) (A) (A) (A) (A)
                 (A) (A) (A) (A) (A) (A) (A) (A) (A) (A) (A) (A)
                 (A) (A) (A) (A) (A) (A) (A) (A) (A) (A) (A) (A)
                 (A) (A) (A) (A) (A) (A) (A) (A) (A) (A) (A) (A)
                 (A) (A) (A) (A) (A) (A) (A) (A) (A) (A) (A) (A)
                 (A) (A) (A) (A) (A) (A) (A) (A) (A) (A) (A) (A)
                 (A) (A) (A) (A) (A) (A) (A) (A) (A) (A) (A) (A)
                 (A) (A) (A) (A) (A) (A) (A) (A) (A) (A) (A) (A)
                 (A) (A) (A) (A) (A) (A) (A) (A) (A) (A) (A) (A)
                 (A) (A) (A) (A) (A) (A) (A) (A) (A) (A) (A) (A)
                 (A) (A) (A) (A) (A) (A) (A) (A) (A) (A) (A) (A)
                 (A) (A) (A) (A) (A) (A) (A) (A) (A) (A) (A) (A)
                 (A) (A)
 The electronic state is 1-A.
 Alpha  occ. eigenvalues -- -101.57740-101.57658-101.57658-101.57469-101.57426
 Alpha  occ. eigenvalues -- -101.57407 -10.27539 -10.27538 -10.27440 -10.27359
 Alpha  occ. eigenvalues --  -10.27301 -10.27103 -10.23652 -10.23083 -10.21978
 Alpha  occ. eigenvalues --  -10.21977 -10.21443 -10.21380  -9.49193  -9.49128
 Alpha  occ. eigenvalues --   -9.49127  -9.48934  -9.48903  -9.48866  -7.25668
 Alpha  occ. eigenvalues --   -7.25603  -7.25602  -7.25434  -7.25387  -7.25352
 Alpha  occ. eigenvalues --   -7.24671  -7.24630  -7.24609  -7.24608  -7.24556
 Alpha  occ. eigenvalues --   -7.24555  -7.24416  -7.24385  -7.24347  -7.24333
 Alpha  occ. eigenvalues --   -7.24315  -7.24285  -0.95484  -0.94247  -0.90471
 Alpha  occ. eigenvalues --   -0.89985  -0.89617  -0.87549  -0.85320  -0.83631
 Alpha  occ. eigenvalues --   -0.79681  -0.76840  -0.76101  -0.74166  -0.65295
 Alpha  occ. eigenvalues --   -0.64016  -0.63968  -0.61719  -0.55999  -0.53668
 Alpha  occ. eigenvalues --   -0.53279  -0.52295  -0.49444  -0.48520  -0.46806
 Alpha  occ. eigenvalues --   -0.46623  -0.46514  -0.44962  -0.44733  -0.43300
 Alpha  occ. eigenvalues --   -0.41580  -0.41147  -0.40479  -0.39134  -0.38532
 Alpha  occ. eigenvalues --   -0.38160  -0.36332  -0.35083  -0.34554  -0.34389
 Alpha  occ. eigenvalues --   -0.34137  -0.33974  -0.33108  -0.32923  -0.31774
 Alpha  occ. eigenvalues --   -0.27767  -0.27663  -0.27245  -0.27094
 Alpha virt. eigenvalues --   -0.06015  -0.05710  -0.05447  -0.04879  -0.03962
 Alpha virt. eigenvalues --   -0.03058  -0.00790   0.00520   0.01114   0.01200
 Alpha virt. eigenvalues --    0.01565   0.01955   0.02100   0.02548   0.03492
 Alpha virt. eigenvalues --    0.04067   0.04494   0.05188   0.05759   0.05993
 Alpha virt. eigenvalues --    0.06122   0.06806   0.07132   0.07596   0.08262
 Alpha virt. eigenvalues --    0.08464   0.08627   0.08840   0.09438   0.09630
 Alpha virt. eigenvalues --    0.09997   0.10164   0.10965   0.11251   0.11303
 Alpha virt. eigenvalues --    0.11596   0.11597   0.12297   0.12585   0.12887
 Alpha virt. eigenvalues --    0.13636   0.13973   0.14059   0.14804   0.14924
 Alpha virt. eigenvalues --    0.15477   0.15500   0.16143   0.16640   0.16745
 Alpha virt. eigenvalues --    0.17288   0.17833   0.17928   0.18512   0.18701
 Alpha virt. eigenvalues --    0.19116   0.19266   0.19590   0.19866   0.20532
 Alpha virt. eigenvalues --    0.20761   0.21183   0.21438   0.21870   0.22339
 Alpha virt. eigenvalues --    0.22562   0.23133   0.23268   0.23904   0.24051
 Alpha virt. eigenvalues --    0.24481   0.24619   0.25180   0.25535   0.26201
 Alpha virt. eigenvalues --    0.26705   0.26799   0.27302   0.27702   0.27897
 Alpha virt. eigenvalues --    0.28157   0.28834   0.29071   0.29807   0.29991
 Alpha virt. eigenvalues --    0.30287   0.30730   0.31909   0.32405   0.32886
 Alpha virt. eigenvalues --    0.34757   0.36048   0.39045   0.40140   0.41313
 Alpha virt. eigenvalues --    0.43156   0.43489   0.44636   0.45018   0.45385
 Alpha virt. eigenvalues --    0.45475   0.45885   0.45943   0.47184   0.47313
 Alpha virt. eigenvalues --    0.47687   0.47689   0.48470   0.49948   0.50358
 Alpha virt. eigenvalues --    0.50598   0.50717   0.51261   0.53691   0.53855
 Alpha virt. eigenvalues --    0.54301   0.55876   0.56414   0.57194   0.57599
 Alpha virt. eigenvalues --    0.57714   0.59341   0.59356   0.60546   0.60588
 Alpha virt. eigenvalues --    0.61289   0.61807   0.62953   0.62994   0.63767
 Alpha virt. eigenvalues --    0.64585   0.64750   0.65696   0.66270   0.67086
 Alpha virt. eigenvalues --    0.67385   0.67552   0.68284   0.68936   0.70158
 Alpha virt. eigenvalues --    0.70362   0.72634   0.75053   0.77714   0.78804
 Alpha virt. eigenvalues --    0.79584   0.81017   0.82511   0.82891   0.82897
 Alpha virt. eigenvalues --    0.83306   0.83490   0.83565   0.83979   0.84122
 Alpha virt. eigenvalues --    0.84312   0.84750   0.84753   0.85370   0.85891
 Alpha virt. eigenvalues --    0.86371   0.86970   0.87860   0.88607   0.88611
 Alpha virt. eigenvalues --    0.89176   0.89775   0.89935   0.91426   0.91869
 Alpha virt. eigenvalues --    0.92324   0.93232   0.94287   0.94308   0.95086
 Alpha virt. eigenvalues --    0.95150   0.95347   0.96052   0.96068   0.96241
 Alpha virt. eigenvalues --    0.97876   0.97972   0.98609   1.00780   1.01926
 Alpha virt. eigenvalues --    1.02547   1.03099   1.05322   1.05926   1.07006
 Alpha virt. eigenvalues --    1.08741   1.10331   1.13470   1.17964   1.19511
 Alpha virt. eigenvalues --    1.19639   1.20948   1.22073   1.23205   1.23803
 Alpha virt. eigenvalues --    1.24249   1.24716   1.26879   1.27966   1.28141
 Alpha virt. eigenvalues --    1.30242   1.30434   1.31379   1.32389   1.32551
 Alpha virt. eigenvalues --    1.35405   1.37384   1.42503   1.42574   1.46830
 Alpha virt. eigenvalues --    1.47835   1.48163   1.52658   1.53968   1.54567
 Alpha virt. eigenvalues --    1.56638   1.57309   1.58287   1.59554   1.59869
 Alpha virt. eigenvalues --    1.63674   1.66410   1.68011   1.68302   1.72266
 Alpha virt. eigenvalues --    1.75946   1.76096   1.78924   1.80604   1.81310
 Alpha virt. eigenvalues --    1.82766   1.83964   1.85016   1.86287   1.86356
 Alpha virt. eigenvalues --    1.91703   1.92198   1.92456   1.92592   1.94587
 Alpha virt. eigenvalues --    1.96318   1.98079   1.99755   2.01873   2.04662
 Alpha virt. eigenvalues --    2.04703   2.08570   2.11303   2.12627   2.15794
 Alpha virt. eigenvalues --    2.19585   2.22868   2.23364   2.24808   2.25507
 Alpha virt. eigenvalues --    2.25889   2.26092   2.28621   2.30179   2.31175
 Alpha virt. eigenvalues --    2.32045   2.33224   2.34807   2.36946   2.38541
 Alpha virt. eigenvalues --    2.41060   2.41975   2.43863   2.44941   2.45709
 Alpha virt. eigenvalues --    2.47855   2.49194   2.51406   2.52513   2.53809
 Alpha virt. eigenvalues --    2.54887   2.55542   2.57889   2.62679   2.63258
 Alpha virt. eigenvalues --    2.65578   2.65735   2.68543   2.69515   2.69681
 Alpha virt. eigenvalues --    2.70992   2.72963   2.73069   2.75333   2.75505
 Alpha virt. eigenvalues --    2.77103   2.78414   2.82114   2.82166   2.83154
 Alpha virt. eigenvalues --    2.85704   2.89281   2.95656   2.97652   3.08670
 Alpha virt. eigenvalues --    3.08998   3.09331   3.11822   3.12288   3.12994
 Alpha virt. eigenvalues --    3.16511   3.20129   3.21360   3.22327   3.27129
 Alpha virt. eigenvalues --    3.32291   3.35871   3.41816   3.47661   3.56279
 Alpha virt. eigenvalues --    3.65172   3.69203   3.69705   3.76201   3.82589
 Alpha virt. eigenvalues --    3.96192   4.01692   4.07122   4.07287   4.33184
 Alpha virt. eigenvalues --    4.79929   4.80961   9.75988   9.76240   9.79631
 Alpha virt. eigenvalues --    9.79911   9.83576   9.84509  23.35343  23.50561
 Alpha virt. eigenvalues --   23.84234  23.84278  23.85405  23.87747  23.94059
 Alpha virt. eigenvalues --   23.95978  24.03209  24.06426  24.10098  24.14219
 Alpha virt. eigenvalues --   25.77661  25.81291  25.81438  25.87578  25.92986
 Alpha virt. eigenvalues --   25.97884  26.09528  26.09834  26.16330  26.22218
 Alpha virt. eigenvalues --   26.33036  26.34125  26.51696  26.58503  26.62634
 Alpha virt. eigenvalues --   26.64863  26.79644  27.00441 215.75145 215.75306
 Alpha virt. eigenvalues --  215.79291 215.79555 215.84515 215.84957
          Condensed to atoms (all electrons):
               1          2          3          4          5          6
     1  C   18.886741  -0.370278  -6.646318  -1.168375  -6.654810  -0.366410
     2  C   -0.370278  19.124059  -5.460684  -2.626099   6.918571  -2.566788
     3  C   -6.646318  -5.460684  29.699548  -0.908006 -10.519267   6.918392
     4  C   -1.168375  -2.626099  -0.908006  16.475498  -0.906620  -2.623988
     5  C   -6.654810   6.918571 -10.519267  -0.906620  29.707694  -5.463243
     6  C   -0.366410  -2.566788   6.918392  -2.623988  -5.463243  19.123055
     7  C    7.625716  -3.398452  -4.804876  -0.878530  -4.807247  -3.399235
     8  C   -1.354361  -0.771948  -0.002419  -0.084845  -0.000109  -0.771757
     9  C    0.918414   0.128165   0.129187   0.003770   0.129127   0.128398
    10  C   -0.527483   0.100624   0.029409   0.006419   0.029617   0.100620
    11  C   -3.408280  -1.322682  -0.283797  -0.064230  -0.283062  -1.322758
    12  C   -0.798409  -2.237886  -1.699392  -0.351694  -1.700869  -2.239443
    13  H    0.107791   0.071902   0.083760   0.042754   0.052275  -0.027814
    14  H    0.107849  -0.027810   0.052270   0.042708   0.083696   0.071949
    15  H    0.051386   0.067767   0.020817   0.006606   0.020792   0.067806
    16  H   -0.005958   0.001066  -0.000100   0.000107  -0.000100   0.001065
    17  Cl   0.496673   0.005830  -0.114403   0.050361  -0.113723   0.005427
    18  Cl  -0.316337  -0.813971   0.631390  -0.344970  -1.067604  -0.037546
    19  Cl  -0.161311  -0.060356  -0.007357  -0.000784  -0.007369  -0.060316
    20  Cl  -0.026891  -0.031635  -0.002101  -0.000847  -0.002090  -0.031623
    21  Cl  -0.083297  -0.139203   0.340215  -1.027669   0.340855  -0.139208
    22  Cl  -0.317334  -0.037859  -1.067718  -0.345028   0.631595  -0.814063
               7          8          9         10         11         12
     1  C    7.625716  -1.354361   0.918414  -0.527483  -3.408280  -0.798409
     2  C   -3.398452  -0.771948   0.128165   0.100624  -1.322682  -2.237886
     3  C   -4.804876  -0.002419   0.129187   0.029409  -0.283797  -1.699392
     4  C   -0.878530  -0.084845   0.003770   0.006419  -0.064230  -0.351694
     5  C   -4.807247  -0.000109   0.129127   0.029617  -0.283062  -1.700869
     6  C   -3.399235  -0.771757   0.128398   0.100620  -1.322758  -2.239443
     7  C   21.566094  -4.207260  -1.733570   0.564127  -2.914147   2.509213
     8  C   -4.207260  16.493353   0.799758  -1.275098   0.964772  -4.430553
     9  C   -1.733570   0.799758  16.111002  -3.095360  -7.146025   0.050914
    10  C    0.564127  -1.275098  -3.095360  15.333369  -0.672248  -3.759662
    11  C   -2.914147   0.964772  -7.146025  -0.672248  20.325712   1.435205
    12  C    2.509213  -4.430553   0.050914  -3.759662   1.435205  22.125681
    13  H    0.027367  -0.002671  -0.000511   0.000044  -0.000028   0.005377
    14  H    0.027381  -0.002677  -0.000512   0.000044  -0.000029   0.005381
    15  H   -0.013821   0.344820  -0.069569  -0.023113  -0.053543  -0.056287
    16  H    0.025322  -0.033874   0.328208   0.028906  -0.000983   0.006073
    17  Cl   0.116408  -0.052327   0.477697  -0.198070  -0.238974  -2.014600
    18  Cl   0.203636   0.239806   0.048837   0.002167   0.076519   0.218628
    19  Cl  -0.626970   0.317250   0.105575  -0.403045  -0.420085   0.727575
    20  Cl  -0.215092   0.069948  -0.283178  -0.541404   0.790618  -0.381683
    21  Cl  -0.021739   0.001930   0.002444   0.000500  -0.001108  -0.045813
    22  Cl   0.203319   0.240765   0.048432   0.002492   0.077145   0.218875
              13         14         15         16         17         18
     1  C    0.107791   0.107849   0.051386  -0.005958   0.496673  -0.316337
     2  C    0.071902  -0.027810   0.067767   0.001066   0.005830  -0.813971
     3  C    0.083760   0.052270   0.020817  -0.000100  -0.114403   0.631390
     4  C    0.042754   0.042708   0.006606   0.000107   0.050361  -0.344970
     5  C    0.052275   0.083696   0.020792  -0.000100  -0.113723  -1.067604
     6  C   -0.027814   0.071949   0.067806   0.001065   0.005427  -0.037546
     7  C    0.027367   0.027381  -0.013821   0.025322   0.116408   0.203636
     8  C   -0.002671  -0.002677   0.344820  -0.033874  -0.052327   0.239806
     9  C   -0.000511  -0.000512  -0.069569   0.328208   0.477697   0.048837
    10  C    0.000044   0.000044  -0.023113   0.028906  -0.198070   0.002167
    11  C   -0.000028  -0.000029  -0.053543  -0.000983  -0.238974   0.076519
    12  C    0.005377   0.005381  -0.056287   0.006073  -2.014600   0.218628
    13  H    0.492528  -0.000223  -0.000001   0.000000  -0.000805   0.000289
    14  H   -0.000223   0.492534  -0.000001   0.000000  -0.000806  -0.008231
    15  H   -0.000001  -0.000001   0.528320  -0.006906  -0.001238  -0.009310
    16  H    0.000000   0.000000  -0.006906   0.505294   0.001518  -0.000770
    17  Cl  -0.000805  -0.000806  -0.001238   0.001518  18.285006   0.038737
    18  Cl   0.000289  -0.008231  -0.009310  -0.000770   0.038737  17.849975
    19  Cl  -0.000004  -0.000004  -0.000047  -0.000633  -0.288073   0.000529
    20  Cl  -0.000001  -0.000001  -0.001803  -0.006016  -0.025655   0.007363
    21  Cl  -0.013684  -0.013688   0.000124  -0.000001   0.008829  -0.028211
    22  Cl  -0.008228   0.000289  -0.009325  -0.000767   0.038684  -0.053927
              19         20         21         22
     1  C   -0.161311  -0.026891  -0.083297  -0.317334
     2  C   -0.060356  -0.031635  -0.139203  -0.037859
     3  C   -0.007357  -0.002101   0.340215  -1.067718
     4  C   -0.000784  -0.000847  -1.027669  -0.345028
     5  C   -0.007369  -0.002090   0.340855   0.631595
     6  C   -0.060316  -0.031623  -0.139208  -0.814063
     7  C   -0.626970  -0.215092  -0.021739   0.203319
     8  C    0.317250   0.069948   0.001930   0.240765
     9  C    0.105575  -0.283178   0.002444   0.048432
    10  C   -0.403045  -0.541404   0.000500   0.002492
    11  C   -0.420085   0.790618  -0.001108   0.077145
    12  C    0.727575  -0.381683  -0.045813   0.218875
    13  H   -0.000004  -0.000001  -0.013684  -0.008228
    14  H   -0.000004  -0.000001  -0.013688   0.000289
    15  H   -0.000047  -0.001803   0.000124  -0.009325
    16  H   -0.000633  -0.006016  -0.000001  -0.000767
    17  Cl  -0.288073  -0.025655   0.008829   0.038684
    18  Cl   0.000529   0.007363  -0.028211  -0.053927
    19  Cl  17.440057  -0.143691  -0.000027   0.000539
    20  Cl  -0.143691  17.318422   0.000016   0.007364
    21  Cl  -0.000027   0.000016  17.414124  -0.028219
    22  Cl   0.000539   0.007364  -0.028219  17.850077
 Mulliken charges:
               1
     1  C    0.011282
     2  C   -0.552335
     3  C   -0.388550
     4  C    0.703462
     5  C   -0.388107
     6  C   -0.552519
     7  C    0.152357
     8  C   -0.482504
     9  C   -1.081202
    10  C    0.297146
    11  C    0.462009
    12  C   -1.586634
    13  H    0.169884
    14  H    0.169881
    15  H    0.136524
    16  H    0.158547
    17  Cl   0.523506
    18  Cl   0.363001
    19  Cl   0.588547
    20  Cl   0.499980
    21  Cl   0.432830
    22  Cl   0.362894
 Sum of Mulliken charges =  -0.00000
 Mulliken charges with hydrogens summed into heavy atoms:
               1
     1  C    0.011282
     2  C   -0.552335
     3  C   -0.218666
     4  C    0.703462
     5  C   -0.218227
     6  C   -0.552519
     7  C    0.152357
     8  C   -0.345980
     9  C   -0.922655
    10  C    0.297146
    11  C    0.462009
    12  C   -1.586634
    17  Cl   0.523506
    18  Cl   0.363001
    19  Cl   0.588547
    20  Cl   0.499980
    21  Cl   0.432830
    22  Cl   0.362894
 Electronic spatial extent (au):  <R**2>=           8168.6476
 Charge=              0.0000 electrons
 Dipole moment (field-independent basis, Debye):
    X=              1.3345    Y=             -0.0020    Z=             -1.8757  Tot=              2.3019
 Quadrupole moment (field-independent basis, Debye-Ang):
   XX=           -148.0945   YY=           -144.9866   ZZ=           -140.7397
   XY=              0.0026   XZ=              2.5404   YZ=              0.0047
 Traceless Quadrupole moment (field-independent basis, Debye-Ang):
   XX=             -3.4875   YY=             -0.3797   ZZ=              3.8672
   XY=              0.0026   XZ=              2.5404   YZ=              0.0047
 Octapole moment (field-independent basis, Debye-Ang**2):
  XXX=             -0.0425  YYY=              0.0129  ZZZ=              0.5582  XYY=              7.9229
  XXY=              0.0016  XXZ=              3.4760  XZZ=            -15.8336  YZZ=             -0.0172
  YYZ=              7.2784  XYZ=             -0.0189
 Hexadecapole moment (field-independent basis, Debye-Ang**3):
 XXXX=          -8055.9593 YYYY=          -1481.4595 ZZZZ=          -1163.6701 XXXY=             -0.0125
 XXXZ=             -9.1723 YYYX=             -0.0115 YYYZ=             -0.0630 ZZZX=              9.3619
 ZZZY=              0.0975 XXYY=          -1549.2398 XXZZ=          -1529.5380 YYZZ=           -479.1397
 XXYZ=             -0.0044 YYXZ=             -4.2424 ZZXY=              0.0170
 N-N= 2.039879326454D+03 E-N=-1.170888326856D+04  KE= 3.212692995939D+03
 1\1\GINC-CN064\FOpt\RB3LYP\6-311+G(d,p)\C12H4Cl6\20CY91R06\07-Apr-2022
 \0\\# opt b3lyp/6-311+g(d,p) scf=xqc\\Title Card Required\\0,1\C,0.734
 3299838,0.5962394213,-0.0134572572\C,1.5263371574,0.9257469994,-1.1223
 882543\C,2.2390199039,2.1171243544,-1.2074425659\C,2.1593431276,3.0120
 381928,-0.1482160148\C,1.3922852389,2.7383455283,0.9769988139\C,0.6937
 930252,1.5366546505,1.0256743342\C,-0.0032590157,-0.6973653213,0.06868
 1403\C,0.6192899346,-1.8137715486,0.6280310944\C,-0.0385750553,-3.0311
 123493,0.7193756891\C,-1.3416014568,-3.1508584563,0.2479463688\C,-1.99
 64585144,-2.0503667113,-0.3191749881\C,-1.3147472599,-0.8259716367,-0.
 4031708731\H,2.8381635131,2.3375724773,-2.0793833833\H,1.3357667785,3.
 4400978289,1.7968819959\H,1.6339558468,-1.7232146485,0.9959290547\H,0.
 4496015217,-3.8931119626,1.1541606786\Cl,-2.1034933081,0.5632538033,-1
 .1037326997\Cl,-0.2715226254,1.213251705,2.4521218688\Cl,-3.6237083163
 ,-2.1989408895,-0.9079545023\Cl,-2.1356401957,-4.6995859655,0.38072860
 77\Cl,3.0479146834,4.5192507542,-0.2323216105\Cl,1.6368275231,-0.18701
 44662,-2.4718270481\\Version=EM64L-G16RevB.01\State=1-A\HF=-3221.13419
 47\RMSD=6.329e-09\RMSF=2.189e-05\Dipole=0.8473232,0.04097,0.3171299\Qu
 adrupole=-0.9799533,0.6593397,0.3206135,-2.857028,0.5430359,-1.3768737
 \PG=C01 [X(C12H4Cl6)]\\@


 NECESSARY EVIL: ONE WE LIKE TOO MUCH TO RELINQUISH.
 Job cpu time:       1 days  6 hours 16 minutes 18.6 seconds.
 Elapsed time:       0 days  7 hours 41 minutes  8.1 seconds.
 File lengths (MBytes):  RWF=    148 Int=      0 D2E=      0 Chk=     22 Scr=      1
 Normal termination of Gaussian 16 at Thu Apr  7 03:24:28 2022.
