 Entering Gaussian System, Link 0=g16
 Input=2,2prime,3,3prime,4,6,6prime-Heptachlorobiphenyl.gjf
 Output=2,2prime,3,3prime,4,6,6prime-Heptachlorobiphenyl.log
 Initial command:
 /home/apps/g16/l1.exe "./Gau-423897.inp" -scrdir="./"
 Entering Link 1 = /home/apps/g16/l1.exe PID=    423898.
  
 Copyright (c) 1988-2017, Gaussian, Inc.  All Rights Reserved.
  
 This is part of the Gaussian(R) 16 program.  It is based on
 the Gaussian(R) 09 system (copyright 2009, Gaussian, Inc.),
 the Gaussian(R) 03 system (copyright 2003, Gaussian, Inc.),
 the Gaussian(R) 98 system (copyright 1998, Gaussian, Inc.),
 the Gaussian(R) 94 system (copyright 1995, Gaussian, Inc.),
 the Gaussian 92(TM) system (copyright 1992, Gaussian, Inc.),
 the Gaussian 90(TM) system (copyright 1990, Gaussian, Inc.),
 the Gaussian 88(TM) system (copyright 1988, Gaussian, Inc.),
 the Gaussian 86(TM) system (copyright 1986, Carnegie Mellon
 University), and the Gaussian 82(TM) system (copyright 1983,
 Carnegie Mellon University). Gaussian is a federally registered
 trademark of Gaussian, Inc.
  
 This software contains proprietary and confidential information,
 including trade secrets, belonging to Gaussian, Inc.
  
 This software is provided under written license and may be
 used, copied, transmitted, or stored only in accord with that
 written license.
  
 The following legend is applicable only to US Government
 contracts under FAR:
  
                    RESTRICTED RIGHTS LEGEND
  
 Use, reproduction and disclosure by the US Government is
 subject to restrictions as set forth in subparagraphs (a)
 and (c) of the Commercial Computer Software - Restricted
 Rights clause in FAR 52.227-19.
  
 Gaussian, Inc.
 340 Quinnipiac St., Bldg. 40, Wallingford CT 06492
  
  
 ---------------------------------------------------------------
 Warning -- This program may not be used in any manner that
 competes with the business of Gaussian, Inc. or will provide
 assistance to any competitor of Gaussian, Inc.  The licensee
 of this program is prohibited from giving any competitor of
 Gaussian, Inc. access to this program.  By using this program,
 the user acknowledges that Gaussian, Inc. is engaged in the
 business of creating and licensing software in the field of
 computational chemistry and represents and warrants to the
 licensee that it is not a competitor of Gaussian, Inc. and that
 it will not use this program in any manner prohibited above.
 ---------------------------------------------------------------
  

 Cite this work as:
 Gaussian 16, Revision B.01,
 M. J. Frisch, G. W. Trucks, H. B. Schlegel, G. E. Scuseria, 
 M. A. Robb, J. R. Cheeseman, G. Scalmani, V. Barone, 
 G. A. Petersson, H. Nakatsuji, X. Li, M. Caricato, A. V. Marenich, 
 J. Bloino, B. G. Janesko, R. Gomperts, B. Mennucci, H. P. Hratchian, 
 J. V. Ortiz, A. F. Izmaylov, J. L. Sonnenberg, D. Williams-Young, 
 F. Ding, F. Lipparini, F. Egidi, J. Goings, B. Peng, A. Petrone, 
 T. Henderson, D. Ranasinghe, V. G. Zakrzewski, J. Gao, N. Rega, 
 G. Zheng, W. Liang, M. Hada, M. Ehara, K. Toyota, R. Fukuda, 
 J. Hasegawa, M. Ishida, T. Nakajima, Y. Honda, O. Kitao, H. Nakai, 
 T. Vreven, K. Throssell, J. A. Montgomery, Jr., J. E. Peralta, 
 F. Ogliaro, M. J. Bearpark, J. J. Heyd, E. N. Brothers, K. N. Kudin, 
 V. N. Staroverov, T. A. Keith, R. Kobayashi, J. Normand, 
 K. Raghavachari, A. P. Rendell, J. C. Burant, S. S. Iyengar, 
 J. Tomasi, M. Cossi, J. M. Millam, M. Klene, C. Adamo, R. Cammi, 
 J. W. Ochterski, R. L. Martin, K. Morokuma, O. Farkas, 
 J. B. Foresman, and D. J. Fox, Gaussian, Inc., Wallingford CT, 2016.
 
 ******************************************
 Gaussian 16:  EM64L-G16RevB.01 20-Dec-2017
                24-Mar-2022 
 ******************************************
 %mem=10GB
 %nprocshared=4
 Will use up to    4 processors via shared memory.
 --------------------------------
 # opt b3lyp/6-311+g(d,p) scf=xqc
 --------------------------------
 1/18=20,19=15,26=3,38=1/1,3;
 2/9=110,12=2,17=6,18=5,40=1/2;
 3/5=4,6=6,7=111,11=2,25=1,30=1,71=1,74=-5/1,2,3;
 4//1;
 5/5=2,8=3,13=1,38=5/2,8;
 6/7=2,8=2,9=2,10=2,28=1/1;
 7//1,2,3,16;
 1/18=20,19=15,26=3/3(2);
 2/9=110/2;
 99//99;
 2/9=110/2;
 3/5=4,6=6,7=111,11=2,25=1,30=1,71=1,74=-5/1,2,3;
 4/5=5,16=3,69=1/1;
 5/5=2,8=3,13=1,38=5/2,8;
 7//1,2,3,16;
 1/18=20,19=15,26=3/3(-5);
 2/9=110/2;
 6/7=2,8=2,9=2,10=2,19=2,28=1/1;
 99/9=1/99;
 -------------------
 Title Card Required
 -------------------
 Symbolic Z-matrix:
 Charge =  0 Multiplicity = 1
 C                     0.59176   1.08348  -0.00285 
 C                     1.92414   1.11336  -0.4362 
 C                     2.63204   2.32281  -0.44227 
 C                     2.00755   3.50238  -0.015 
 C                     0.67517   3.47249   0.41835 
 C                    -0.03273   2.26304   0.42442 
 C                    -0.18614  -0.24559   0.00382 
 C                     0.43834  -1.42516  -0.42345 
 C                    -0.26955  -2.63461  -0.41738 
 C                    -1.60193  -2.66449   0.01597 
 C                    -2.22642  -1.48493   0.44325 
 C                    -1.51852  -0.27548   0.43717 
 H                     3.64934   2.34563  -0.77314 
 H                     2.54804   4.42582  -0.01963 
 H                     0.20726  -3.53523  -0.74361 
 Cl                   -2.30281   1.20592   0.97378 
 Cl                   -1.70605   2.22551   0.96866 
 Cl                   -3.89973  -1.52246   0.98749 
 Cl                   -0.10912   4.95389   0.95495 
 Cl                   -2.49096  -4.18343   0.0236 
 Cl                    2.11166  -1.38762  -0.96769 
 Cl                    2.70843  -0.36804  -0.9728 
 

 GradGradGradGradGradGradGradGradGradGradGradGradGradGradGradGradGradGrad
 Berny optimization.
 Initialization pass.
                           ----------------------------
                           !    Initial Parameters    !
                           ! (Angstroms and Degrees)  !
 --------------------------                            --------------------------
 ! Name  Definition              Value          Derivative Info.                !
 --------------------------------------------------------------------------------
 ! R1    R(1,2)                  1.4014         estimate D2E/DX2                !
 ! R2    R(1,6)                  1.4014         estimate D2E/DX2                !
 ! R3    R(1,7)                  1.54           estimate D2E/DX2                !
 ! R4    R(2,3)                  1.4014         estimate D2E/DX2                !
 ! R5    R(2,22)                 1.76           estimate D2E/DX2                !
 ! R6    R(3,4)                  1.4014         estimate D2E/DX2                !
 ! R7    R(3,13)                 1.07           estimate D2E/DX2                !
 ! R8    R(4,5)                  1.4014         estimate D2E/DX2                !
 ! R9    R(4,14)                 1.07           estimate D2E/DX2                !
 ! R10   R(5,6)                  1.4014         estimate D2E/DX2                !
 ! R11   R(5,19)                 1.76           estimate D2E/DX2                !
 ! R12   R(6,17)                 1.76           estimate D2E/DX2                !
 ! R13   R(7,8)                  1.4014         estimate D2E/DX2                !
 ! R14   R(7,12)                 1.4014         estimate D2E/DX2                !
 ! R15   R(8,9)                  1.4014         estimate D2E/DX2                !
 ! R16   R(8,21)                 1.76           estimate D2E/DX2                !
 ! R17   R(9,10)                 1.4014         estimate D2E/DX2                !
 ! R18   R(9,15)                 1.07           estimate D2E/DX2                !
 ! R19   R(10,11)                1.4014         estimate D2E/DX2                !
 ! R20   R(10,20)                1.76           estimate D2E/DX2                !
 ! R21   R(11,12)                1.4014         estimate D2E/DX2                !
 ! R22   R(11,18)                1.76           estimate D2E/DX2                !
 ! R23   R(12,16)                1.76           estimate D2E/DX2                !
 ! R24   R(16,17)                1.1814         estimate D2E/DX2                !
 ! R25   R(21,22)                1.1814         estimate D2E/DX2                !
 ! A1    A(2,1,6)              120.0            estimate D2E/DX2                !
 ! A2    A(2,1,7)              120.0            estimate D2E/DX2                !
 ! A3    A(6,1,7)              120.0            estimate D2E/DX2                !
 ! A4    A(1,2,3)              120.0            estimate D2E/DX2                !
 ! A5    A(1,2,22)             120.0            estimate D2E/DX2                !
 ! A6    A(3,2,22)             120.0            estimate D2E/DX2                !
 ! A7    A(2,3,4)              120.0            estimate D2E/DX2                !
 ! A8    A(2,3,13)             120.0            estimate D2E/DX2                !
 ! A9    A(4,3,13)             120.0            estimate D2E/DX2                !
 ! A10   A(3,4,5)              120.0            estimate D2E/DX2                !
 ! A11   A(3,4,14)             120.0            estimate D2E/DX2                !
 ! A12   A(5,4,14)             120.0            estimate D2E/DX2                !
 ! A13   A(4,5,6)              120.0            estimate D2E/DX2                !
 ! A14   A(4,5,19)             120.0            estimate D2E/DX2                !
 ! A15   A(6,5,19)             120.0            estimate D2E/DX2                !
 ! A16   A(1,6,5)              120.0            estimate D2E/DX2                !
 ! A17   A(1,6,17)             120.0            estimate D2E/DX2                !
 ! A18   A(5,6,17)             120.0            estimate D2E/DX2                !
 ! A19   A(1,7,8)              120.0            estimate D2E/DX2                !
 ! A20   A(1,7,12)             120.0            estimate D2E/DX2                !
 ! A21   A(8,7,12)             120.0            estimate D2E/DX2                !
 ! A22   A(7,8,9)              120.0            estimate D2E/DX2                !
 ! A23   A(7,8,21)             120.0            estimate D2E/DX2                !
 ! A24   A(9,8,21)             120.0            estimate D2E/DX2                !
 ! A25   A(8,9,10)             120.0            estimate D2E/DX2                !
 ! A26   A(8,9,15)             120.0            estimate D2E/DX2                !
 ! A27   A(10,9,15)            120.0            estimate D2E/DX2                !
 ! A28   A(9,10,11)            120.0            estimate D2E/DX2                !
 ! A29   A(9,10,20)            120.0            estimate D2E/DX2                !
 ! A30   A(11,10,20)           120.0            estimate D2E/DX2                !
 ! A31   A(10,11,12)           120.0            estimate D2E/DX2                !
 ! A32   A(10,11,18)           120.0            estimate D2E/DX2                !
 ! A33   A(12,11,18)           120.0            estimate D2E/DX2                !
 ! A34   A(7,12,11)            120.0            estimate D2E/DX2                !
 ! A35   A(7,12,16)            120.0            estimate D2E/DX2                !
 ! A36   A(11,12,16)           120.0            estimate D2E/DX2                !
 ! A37   A(12,16,17)           120.0            estimate D2E/DX2                !
 ! A38   A(6,17,16)            120.0            estimate D2E/DX2                !
 ! A39   A(8,21,22)            120.0            estimate D2E/DX2                !
 ! A40   A(2,22,21)            120.0            estimate D2E/DX2                !
 ! D1    D(6,1,2,3)              0.0001         estimate D2E/DX2                !
 ! D2    D(6,1,2,22)           180.0            estimate D2E/DX2                !
 ! D3    D(7,1,2,3)           -180.0            estimate D2E/DX2                !
 ! D4    D(7,1,2,22)            -0.0001         estimate D2E/DX2                !
 ! D5    D(2,1,6,5)             -0.0001         estimate D2E/DX2                !
 ! D6    D(2,1,6,17)           180.0            estimate D2E/DX2                !
 ! D7    D(7,1,6,5)            180.0            estimate D2E/DX2                !
 ! D8    D(7,1,6,17)             0.0            estimate D2E/DX2                !
 ! D9    D(2,1,7,8)             -0.0001         estimate D2E/DX2                !
 ! D10   D(2,1,7,12)           179.9998         estimate D2E/DX2                !
 ! D11   D(6,1,7,8)            179.9999         estimate D2E/DX2                !
 ! D12   D(6,1,7,12)            -0.0002         estimate D2E/DX2                !
 ! D13   D(1,2,3,4)              0.0            estimate D2E/DX2                !
 ! D14   D(1,2,3,13)           180.0            estimate D2E/DX2                !
 ! D15   D(22,2,3,4)          -179.9999         estimate D2E/DX2                !
 ! D16   D(22,2,3,13)            0.0001         estimate D2E/DX2                !
 ! D17   D(1,2,22,21)            0.0002         estimate D2E/DX2                !
 ! D18   D(3,2,22,21)         -179.9999         estimate D2E/DX2                !
 ! D19   D(2,3,4,5)             -0.0001         estimate D2E/DX2                !
 ! D20   D(2,3,4,14)           180.0            estimate D2E/DX2                !
 ! D21   D(13,3,4,5)           179.9999         estimate D2E/DX2                !
 ! D22   D(13,3,4,14)            0.0            estimate D2E/DX2                !
 ! D23   D(3,4,5,6)              0.0001         estimate D2E/DX2                !
 ! D24   D(3,4,5,19)          -179.9999         estimate D2E/DX2                !
 ! D25   D(14,4,5,6)          -180.0            estimate D2E/DX2                !
 ! D26   D(14,4,5,19)            0.0            estimate D2E/DX2                !
 ! D27   D(4,5,6,1)              0.0            estimate D2E/DX2                !
 ! D28   D(4,5,6,17)           179.9999         estimate D2E/DX2                !
 ! D29   D(19,5,6,1)           180.0            estimate D2E/DX2                !
 ! D30   D(19,5,6,17)           -0.0001         estimate D2E/DX2                !
 ! D31   D(1,6,17,16)            0.0006         estimate D2E/DX2                !
 ! D32   D(5,6,17,16)         -179.9994         estimate D2E/DX2                !
 ! D33   D(1,7,8,9)            179.9999         estimate D2E/DX2                !
 ! D34   D(1,7,8,21)             0.0001         estimate D2E/DX2                !
 ! D35   D(12,7,8,9)             0.0001         estimate D2E/DX2                !
 ! D36   D(12,7,8,21)         -179.9998         estimate D2E/DX2                !
 ! D37   D(1,7,12,11)         -179.9999         estimate D2E/DX2                !
 ! D38   D(1,7,12,16)            0.0            estimate D2E/DX2                !
 ! D39   D(8,7,12,11)           -0.0001         estimate D2E/DX2                !
 ! D40   D(8,7,12,16)          179.9999         estimate D2E/DX2                !
 ! D41   D(7,8,9,10)             0.0            estimate D2E/DX2                !
 ! D42   D(7,8,9,15)           180.0            estimate D2E/DX2                !
 ! D43   D(21,8,9,10)          179.9998         estimate D2E/DX2                !
 ! D44   D(21,8,9,15)           -0.0002         estimate D2E/DX2                !
 ! D45   D(7,8,21,22)            0.0001         estimate D2E/DX2                !
 ! D46   D(9,8,21,22)         -179.9998         estimate D2E/DX2                !
 ! D47   D(8,9,10,11)            0.0            estimate D2E/DX2                !
 ! D48   D(8,9,10,20)         -179.9999         estimate D2E/DX2                !
 ! D49   D(15,9,10,11)         180.0            estimate D2E/DX2                !
 ! D50   D(15,9,10,20)           0.0001         estimate D2E/DX2                !
 ! D51   D(9,10,11,12)           0.0            estimate D2E/DX2                !
 ! D52   D(9,10,11,18)        -179.9998         estimate D2E/DX2                !
 ! D53   D(20,10,11,12)        179.9999         estimate D2E/DX2                !
 ! D54   D(20,10,11,18)          0.0001         estimate D2E/DX2                !
 ! D55   D(10,11,12,7)           0.0            estimate D2E/DX2                !
 ! D56   D(10,11,12,16)       -179.9999         estimate D2E/DX2                !
 ! D57   D(18,11,12,7)         179.9999         estimate D2E/DX2                !
 ! D58   D(18,11,12,16)         -0.0001         estimate D2E/DX2                !
 ! D59   D(7,12,16,17)           0.0005         estimate D2E/DX2                !
 ! D60   D(11,12,16,17)       -179.9995         estimate D2E/DX2                !
 ! D61   D(12,16,17,6)          -0.0008         estimate D2E/DX2                !
 ! D62   D(8,21,22,2)           -0.0002         estimate D2E/DX2                !
 --------------------------------------------------------------------------------
 Trust Radius=3.00D-01 FncErr=1.00D-07 GrdErr=1.00D-06 EigMax=2.50D+02 EigMin=1.00D-04
 Number of steps in this run=    132 maximum allowed number of steps=    132.
 GradGradGradGradGradGradGradGradGradGradGradGradGradGradGradGradGradGrad

                          Input orientation:                          
 ---------------------------------------------------------------------
 Center     Atomic      Atomic             Coordinates (Angstroms)
 Number     Number       Type             X           Y           Z
 ---------------------------------------------------------------------
      1          6           0        0.591760    1.083475   -0.002851
      2          6           0        1.924141    1.113361   -0.436198
      3          6           0        2.632035    2.322812   -0.442270
      4          6           0        2.007548    3.502377   -0.014995
      5          6           0        0.675166    3.472492    0.418349
      6          6           0       -0.032728    2.263041    0.424422
      7          6           0       -0.186144   -0.245592    0.003823
      8          6           0        0.438343   -1.425157   -0.423452
      9          6           0       -0.269550   -2.634608   -0.417378
     10          6           0       -1.601930   -2.664495    0.015972
     11          6           0       -2.226417   -1.484930    0.443247
     12          6           0       -1.518524   -0.275479    0.437173
     13          1           0        3.649338    2.345630   -0.773139
     14          1           0        2.548040    4.425820   -0.019631
     15          1           0        0.207260   -3.535232   -0.743612
     16         17           0       -2.302809    1.205921    0.973785
     17         17           0       -1.706048    2.225508    0.968656
     18         17           0       -3.899735   -1.522465    0.987490
     19         17           0       -0.109121    4.953893    0.954955
     20         17           0       -2.490963   -4.183430    0.023603
     21         17           0        2.111663   -1.387624   -0.967686
     22         17           0        2.708428   -0.368040   -0.972803
 ---------------------------------------------------------------------
                    Distance matrix (angstroms):
                    1          2          3          4          5
     1  C    0.000000
     2  C    1.401400   0.000000
     3  C    2.427296   1.401400   0.000000
     4  C    2.802800   2.427296   1.401400   0.000000
     5  C    2.427296   2.802800   2.427296   1.401400   0.000000
     6  C    1.401400   2.427296   2.802800   2.427296   1.401400
     7  C    1.540000   2.548270   3.838989   4.342800   3.838989
     8  C    2.548270   2.941400   4.342800   5.187469   4.975106
     9  C    3.838989   4.342800   5.744200   6.558176   6.235992
    10  C    4.342800   5.187469   6.558176   7.145600   6.558176
    11  C    3.838989   4.975106   6.235992   6.558176   5.744200
    12  C    2.548270   3.813607   4.975106   5.187469   4.342800
    13  H    3.396345   2.146700   1.070000   2.146700   3.396345
    14  H    3.872800   3.396345   2.146700   1.070000   2.146700
    15  H    4.693509   4.965039   6.347206   7.300676   7.118798
    16  Cl   3.057342   4.456874   5.254079   4.983028   3.783409
    17  Cl   2.743718   4.048303   4.562800   4.048303   2.743718
    18  Cl   5.286324   6.549198   7.713260   7.819846   6.797295
    19  Cl   4.048303   4.562800   4.048303   2.743718   1.760000
    20  Cl   6.102800   6.910901   8.294174   8.905600   8.294174
    21  Cl   3.057342   2.563702   3.783409   4.983028   5.254079
    22  Cl   2.743718   1.760000   2.743718   4.048303   4.562800
                    6          7          8          9         10
     6  C    0.000000
     7  C    2.548270   0.000000
     8  C    3.813607   1.401400   0.000000
     9  C    4.975106   2.427296   1.401400   0.000000
    10  C    5.187469   2.802800   2.427296   1.401400   0.000000
    11  C    4.342800   2.427296   2.802800   2.427296   1.401400
    12  C    2.941400   1.401400   2.427296   2.802800   2.427296
    13  H    3.872800   4.693509   4.965039   6.347206   7.300676
    14  H    3.396345   5.412800   6.232802   7.612271   8.215600
    15  H    5.919617   3.396345   2.146700   1.070000   2.146700
    16  Cl   2.563702   2.743718   4.048303   4.562800   4.048303
    17  Cl   1.760000   3.057342   4.456874   5.254079   4.983028
    18  Cl   5.440665   4.048303   4.562800   4.048303   2.743718
    19  Cl   2.743718   5.286324   6.549198   7.713260   7.819846
    20  Cl   6.910901   4.562800   4.048303   2.743718   1.760000
    21  Cl   4.456874   2.743718   1.760000   2.743718   4.048303
    22  Cl   4.048303   3.057342   2.563702   3.783409   4.983028
                   11         12         13         14         15
    11  C    0.000000
    12  C    1.401400   0.000000
    13  H    7.118798   5.919617   0.000000
    14  H    7.612271   6.232802   2.471400   0.000000
    15  H    3.396345   3.872800   6.814200   8.329571   0.000000
    16  Cl   2.743718   1.760000   6.307038   5.906383   5.632800
    17  Cl   3.783409   2.563702   5.632800   4.890332   6.307038
    18  Cl   1.760000   2.743718   8.663168   8.830073   4.890332
    19  Cl   6.797295   5.440665   4.890332   2.879094   8.663168
    20  Cl   2.743718   4.048303   8.998151   9.975600   2.879094
    21  Cl   4.562800   4.048303   4.042212   5.906383   2.879094
    22  Cl   5.254079   4.456874   2.879094   4.890332   4.042212
                   16         17         18         19         20
    16  Cl   0.000000
    17  Cl   1.181400   0.000000
    18  Cl   3.161400   4.342800   0.000000
    19  Cl   4.342800   3.161400   7.504200   0.000000
    20  Cl   5.475705   6.525618   3.161400   9.488480   0.000000
    21  Cl   5.475705   5.601701   6.322800   6.988795   5.475705
    22  Cl   5.601701   5.475705   6.988795   6.322800   6.525618
                   21         22
    21  Cl   0.000000
    22  Cl   1.181400   0.000000
 Stoichiometry    C12H3Cl7
 Framework group  C1[X(C12H3Cl7)]
 Deg. of freedom    60
 Full point group                 C1      NOp   1
 Largest Abelian subgroup         C1      NOp   1
 Largest concise Abelian subgroup C1      NOp   1
                         Standard orientation:                         
 ---------------------------------------------------------------------
 Center     Atomic      Atomic             Coordinates (Angstroms)
 Number     Number       Type             X           Y           Z
 ---------------------------------------------------------------------
      1          6           0        1.180880    0.536052    0.000001
      2          6           0        1.800800    1.792881   -0.000001
      3          6           0        3.199207    1.884429   -0.000004
      4          6           0        3.977693    0.719147   -0.000005
      5          6           0        3.357772   -0.537682   -0.000001
      6          6           0        1.959365   -0.629230    0.000002
      7          6           0       -0.355831    0.435450    0.000003
      8          6           0       -1.134317    1.600732    0.000004
      9          6           0       -2.532723    1.509184    0.000004
     10          6           0       -3.152644    0.252355    0.000003
     11          6           0       -2.374158   -0.912927    0.000001
     12          6           0       -0.975752   -0.821379    0.000001
     13          1           0        3.672530    2.844046   -0.000006
     14          1           0        5.045407    0.789046   -0.000007
     15          1           0       -3.127115    2.398903    0.000005
     16         17           0        0.001939   -2.284842   -0.000003
     17         17           0        1.180815   -2.207666    0.000005
     18         17           0       -3.152709   -2.491363   -0.000005
     19         17           0        4.335462   -2.001144    0.000002
     20         17           0       -4.908885    0.137381    0.000001
     21         17           0       -0.355767    3.179168    0.000001
     22         17           0        0.823110    3.256344   -0.000003
 ---------------------------------------------------------------------
 Rotational constants (GHZ):           0.3105117           0.1795062           0.1137484
 Standard basis: 6-311+G(d,p) (5D, 7F)
 There are   511 symmetry adapted cartesian basis functions of A   symmetry.
 There are   492 symmetry adapted basis functions of A   symmetry.
   492 basis functions,   827 primitive gaussians,   511 cartesian basis functions
    97 alpha electrons       97 beta electrons
       nuclear repulsion energy      2604.9790915447 Hartrees.
 NAtoms=   22 NActive=   22 NUniq=   22 SFac= 1.00D+00 NAtFMM=   60 NAOKFM=F Big=F
 Integral buffers will be    131072 words long.
 Raffenetti 2 integral format.
 Two-electron integral symmetry is turned on.
 One-electron integrals computed using PRISM.
 NBasis=   492 RedAO= T EigKep=  1.04D-06  NBF=   492
 NBsUse=   485 1.00D-06 EigRej=  4.47D-07 NBFU=   485
 ExpMin= 4.38D-02 ExpMax= 1.06D+05 ExpMxC= 3.62D+03 IAcc=3 IRadAn=         5 AccDes= 0.00D+00
 Harris functional with IExCor=  402 and IRadAn=       5 diagonalized for initial guess.
 HarFok:  IExCor=  402 AccDes= 0.00D+00 IRadAn=         5 IDoV= 1 UseB2=F ITyADJ=14
 ICtDFT=  3500011 ScaDFX=  1.000000  1.000000  1.000000  1.000000
 FoFCou: FMM=F IPFlag=           0 FMFlag=      100000 FMFlg1=           0
         NFxFlg=           0 DoJE=T BraDBF=F KetDBF=T FulRan=T
         wScrn=  0.000000 ICntrl=       500 IOpCl=  0 I1Cent=   200000004 NGrid=           0
         NMat0=    1 NMatS0=      1 NMatT0=    0 NMatD0=    1 NMtDS0=    0 NMtDT0=    0
 Petite list used in FoFCou.
 Requested convergence on RMS density matrix=1.00D-08 within  32 cycles.
 Requested convergence on MAX density matrix=1.00D-06.
 Requested convergence on             energy=1.00D-06.
 No special actions if energy rises.
 Restarting incremental Fock formation.
 SCF Done:  E(RB3LYP) =  -3677.51658380     A.U. after   22 cycles
            NFock= 22  Conv=0.99D-08     -V/T= 1.9983
 QCSCF skips out because SCF is already converged.

 **********************************************************************

            Population analysis using the SCF Density.

 **********************************************************************

 Orbital symmetries:
       Occupied  (A) (A) (A) (A) (A) (A) (A) (A) (A) (A) (A) (A)
                 (A) (A) (A) (A) (A) (A) (A) (A) (A) (A) (A) (A)
                 (A) (A) (A) (A) (A) (A) (A) (A) (A) (A) (A) (A)
                 (A) (A) (A) (A) (A) (A) (A) (A) (A) (A) (A) (A)
                 (A) (A) (A) (A) (A) (A) (A) (A) (A) (A) (A) (A)
                 (A) (A) (A) (A) (A) (A) (A) (A) (A) (A) (A) (A)
                 (A) (A) (A) (A) (A) (A) (A) (A) (A) (A) (A) (A)
                 (A) (A) (A) (A) (A) (A) (A) (A) (A) (A) (A) (A)
                 (A)
       Virtual   (A) (A) (A) (A) (A) (A) (A) (A) (A) (A) (A) (A)
                 (A) (A) (A) (A) (A) (A) (A) (A) (A) (A) (A) (A)
                 (A) (A) (A) (A) (A) (A) (A) (A) (A) (A) (A) (A)
                 (A) (A) (A) (A) (A) (A) (A) (A) (A) (A) (A) (A)
                 (A) (A) (A) (A) (A) (A) (A) (A) (A) (A) (A) (A)
                 (A) (A) (A) (A) (A) (A) (A) (A) (A) (A) (A) (A)
                 (A) (A) (A) (A) (A) (A) (A) (A) (A) (A) (A) (A)
                 (A) (A) (A) (A) (A) (A) (A) (A) (A) (A) (A) (A)
                 (A) (A) (A) (A) (A) (A) (A) (A) (A) (A) (A) (A)
                 (A) (A) (A) (A) (A) (A) (A) (A) (A) (A) (A) (A)
                 (A) (A) (A) (A) (A) (A) (A) (A) (A) (A) (A) (A)
                 (A) (A) (A) (A) (A) (A) (A) (A) (A) (A) (A) (A)
                 (A) (A) (A) (A) (A) (A) (A) (A) (A) (A) (A) (A)
                 (A) (A) (A) (A) (A) (A) (A) (A) (A) (A) (A) (A)
                 (A) (A) (A) (A) (A) (A) (A) (A) (A) (A) (A) (A)
                 (A) (A) (A) (A) (A) (A) (A) (A) (A) (A) (A) (A)
                 (A) (A) (A) (A) (A) (A) (A) (A) (A) (A) (A) (A)
                 (A) (A) (A) (A) (A) (A) (A) (A) (A) (A) (A) (A)
                 (A) (A) (A) (A) (A) (A) (A) (A) (A) (A) (A) (A)
                 (A) (A) (A) (A) (A) (A) (A) (A) (A) (A) (A) (A)
                 (A) (A) (A) (A) (A) (A) (A) (A) (A) (A) (A) (A)
                 (A) (A) (A) (A) (A) (A) (A) (A) (A) (A) (A) (A)
                 (A) (A) (A) (A) (A) (A) (A) (A) (A) (A) (A) (A)
                 (A) (A) (A) (A) (A) (A) (A) (A) (A) (A) (A) (A)
                 (A) (A) (A) (A) (A) (A) (A) (A) (A) (A) (A) (A)
                 (A) (A) (A) (A) (A) (A) (A) (A) (A) (A) (A) (A)
                 (A) (A) (A) (A) (A) (A) (A) (A) (A) (A) (A) (A)
                 (A) (A) (A) (A) (A) (A) (A) (A) (A) (A) (A) (A)
                 (A) (A) (A) (A) (A) (A) (A) (A) (A) (A) (A) (A)
                 (A) (A) (A) (A) (A) (A) (A) (A) (A) (A) (A) (A)
                 (A) (A) (A) (A) (A) (A) (A) (A) (A) (A) (A) (A)
                 (A) (A) (A) (A) (A) (A) (A) (A) (A) (A) (A) (A)
                 (A) (A) (A) (A)
 The electronic state is 1-A.
 Alpha  occ. eigenvalues -- -101.65623-101.65598-101.65551-101.65481-101.55799
 Alpha  occ. eigenvalues -- -101.55700-101.55498 -10.25131 -10.24589 -10.24163
 Alpha  occ. eigenvalues --  -10.20425 -10.20402 -10.19459 -10.19436 -10.19009
 Alpha  occ. eigenvalues --  -10.17498 -10.17279 -10.16965 -10.16704  -9.64387
 Alpha  occ. eigenvalues --   -9.64342  -9.62257  -9.62215  -9.47271  -9.47170
 Alpha  occ. eigenvalues --   -9.46946  -7.42771  -7.42755  -7.37827  -7.37778
 Alpha  occ. eigenvalues --   -7.37771  -7.37753  -7.37343  -7.37323  -7.37193
 Alpha  occ. eigenvalues --   -7.37152  -7.36735  -7.36719  -7.23705  -7.23618
 Alpha  occ. eigenvalues --   -7.23411  -7.22763  -7.22735  -7.22664  -7.22616
 Alpha  occ. eigenvalues --   -7.22440  -7.22379  -1.38839  -1.38653  -0.91842
 Alpha  occ. eigenvalues --   -0.90495  -0.86985  -0.86066  -0.85330  -0.82313
 Alpha  occ. eigenvalues --   -0.81845  -0.79318  -0.77999  -0.73510  -0.72013
 Alpha  occ. eigenvalues --   -0.71909  -0.71369  -0.70973  -0.69551  -0.66205
 Alpha  occ. eigenvalues --   -0.62571  -0.59164  -0.58209  -0.56318  -0.56096
 Alpha  occ. eigenvalues --   -0.50835  -0.49542  -0.48663  -0.47217  -0.44552
 Alpha  occ. eigenvalues --   -0.42440  -0.42275  -0.41847  -0.41412  -0.40878
 Alpha  occ. eigenvalues --   -0.38477  -0.37449  -0.36085  -0.35050  -0.34494
 Alpha  occ. eigenvalues --   -0.34445  -0.33055  -0.32092  -0.30857  -0.30813
 Alpha  occ. eigenvalues --   -0.29045  -0.27195  -0.26486  -0.20980  -0.20473
 Alpha  occ. eigenvalues --   -0.17869  -0.13653
 Alpha virt. eigenvalues --   -0.06585  -0.05505  -0.02694  -0.01617  -0.01203
 Alpha virt. eigenvalues --   -0.00601   0.00679   0.00723   0.01254   0.01472
 Alpha virt. eigenvalues --    0.01945   0.01969   0.02719   0.02943   0.03287
 Alpha virt. eigenvalues --    0.03812   0.04817   0.05005   0.06183   0.06489
 Alpha virt. eigenvalues --    0.06842   0.07243   0.07274   0.07957   0.08286
 Alpha virt. eigenvalues --    0.08444   0.08726   0.09276   0.09562   0.10511
 Alpha virt. eigenvalues --    0.11057   0.11108   0.11159   0.11864   0.12244
 Alpha virt. eigenvalues --    0.12308   0.12585   0.12912   0.13799   0.13875
 Alpha virt. eigenvalues --    0.14432   0.14516   0.14808   0.15228   0.15648
 Alpha virt. eigenvalues --    0.15745   0.16352   0.16406   0.16871   0.17366
 Alpha virt. eigenvalues --    0.17476   0.17870   0.17993   0.18510   0.18977
 Alpha virt. eigenvalues --    0.19315   0.19855   0.20315   0.20355   0.21213
 Alpha virt. eigenvalues --    0.21388   0.21437   0.22073   0.22079   0.22188
 Alpha virt. eigenvalues --    0.22805   0.23439   0.23708   0.23947   0.24639
 Alpha virt. eigenvalues --    0.25243   0.25394   0.25742   0.25990   0.26951
 Alpha virt. eigenvalues --    0.27106   0.27589   0.28100   0.28130   0.28436
 Alpha virt. eigenvalues --    0.28683   0.28792   0.28971   0.29000   0.29686
 Alpha virt. eigenvalues --    0.30206   0.32073   0.32493   0.32967   0.33238
 Alpha virt. eigenvalues --    0.33778   0.34389   0.34752   0.35589   0.36354
 Alpha virt. eigenvalues --    0.37973   0.39485   0.40407   0.41762   0.42490
 Alpha virt. eigenvalues --    0.44010   0.44495   0.44552   0.45132   0.45144
 Alpha virt. eigenvalues --    0.45347   0.46103   0.46493   0.46934   0.47302
 Alpha virt. eigenvalues --    0.48950   0.49047   0.49530   0.49716   0.50599
 Alpha virt. eigenvalues --    0.51148   0.51978   0.52530   0.53388   0.55538
 Alpha virt. eigenvalues --    0.55954   0.56027   0.56186   0.56369   0.56903
 Alpha virt. eigenvalues --    0.59051   0.59210   0.59565   0.60475   0.60683
 Alpha virt. eigenvalues --    0.61580   0.61774   0.62718   0.63055   0.63366
 Alpha virt. eigenvalues --    0.65925   0.66567   0.66677   0.67716   0.67878
 Alpha virt. eigenvalues --    0.68004   0.68598   0.69016   0.69436   0.71608
 Alpha virt. eigenvalues --    0.72280   0.72963   0.73016   0.73316   0.77647
 Alpha virt. eigenvalues --    0.78158   0.78709   0.80430   0.80646   0.82059
 Alpha virt. eigenvalues --    0.82728   0.83754   0.84137   0.84280   0.86182
 Alpha virt. eigenvalues --    0.86284   0.86547   0.86739   0.87127   0.87360
 Alpha virt. eigenvalues --    0.88289   0.89287   0.89408   0.89613   0.89748
 Alpha virt. eigenvalues --    0.90130   0.91986   0.93133   0.93511   0.94196
 Alpha virt. eigenvalues --    0.95388   0.96201   0.96952   0.97231   0.97548
 Alpha virt. eigenvalues --    0.98236   0.98821   0.98929   0.99702   1.00874
 Alpha virt. eigenvalues --    1.00988   1.02047   1.03746   1.04872   1.06283
 Alpha virt. eigenvalues --    1.07136   1.09021   1.09618   1.10612   1.12897
 Alpha virt. eigenvalues --    1.14269   1.15333   1.16998   1.17790   1.21339
 Alpha virt. eigenvalues --    1.22919   1.24610   1.25264   1.26234   1.27368
 Alpha virt. eigenvalues --    1.27963   1.28475   1.29024   1.30814   1.31197
 Alpha virt. eigenvalues --    1.32606   1.33383   1.35031   1.35882   1.37771
 Alpha virt. eigenvalues --    1.40209   1.41560   1.44548   1.44576   1.45758
 Alpha virt. eigenvalues --    1.47880   1.50100   1.50594   1.52225   1.52551
 Alpha virt. eigenvalues --    1.53576   1.55480   1.58224   1.59550   1.61769
 Alpha virt. eigenvalues --    1.64078   1.66630   1.67530   1.70276   1.70682
 Alpha virt. eigenvalues --    1.75018   1.75184   1.77263   1.80447   1.81118
 Alpha virt. eigenvalues --    1.82444   1.84359   1.85628   1.87440   1.88244
 Alpha virt. eigenvalues --    1.89290   1.90301   1.93196   1.94610   1.95197
 Alpha virt. eigenvalues --    1.96524   1.98731   2.00103   2.01296   2.03130
 Alpha virt. eigenvalues --    2.07607   2.07690   2.09182   2.09526   2.11568
 Alpha virt. eigenvalues --    2.12645   2.15800   2.18963   2.21328   2.22466
 Alpha virt. eigenvalues --    2.22764   2.23825   2.25712   2.26607   2.27165
 Alpha virt. eigenvalues --    2.27270   2.29425   2.29711   2.30619   2.33950
 Alpha virt. eigenvalues --    2.35966   2.36651   2.36998   2.38375   2.41584
 Alpha virt. eigenvalues --    2.42252   2.42991   2.44623   2.45580   2.47839
 Alpha virt. eigenvalues --    2.48805   2.52055   2.54547   2.56222   2.58510
 Alpha virt. eigenvalues --    2.60004   2.62714   2.64226   2.65295   2.68400
 Alpha virt. eigenvalues --    2.68832   2.71202   2.72265   2.74598   2.74678
 Alpha virt. eigenvalues --    2.75291   2.77202   2.78854   2.80190   2.81525
 Alpha virt. eigenvalues --    2.83631   2.84522   2.86495   2.87710   2.89079
 Alpha virt. eigenvalues --    2.95106   2.95466   2.97133   3.04437   3.09044
 Alpha virt. eigenvalues --    3.11005   3.13503   3.16082   3.17621   3.18476
 Alpha virt. eigenvalues --    3.21856   3.22315   3.26048   3.32573   3.40136
 Alpha virt. eigenvalues --    3.40583   3.43696   3.49111   3.53968   3.61410
 Alpha virt. eigenvalues --    3.67497   3.71303   3.78898   3.89271   3.95456
 Alpha virt. eigenvalues --    4.03516   4.06637   4.11104   4.48477   4.82930
 Alpha virt. eigenvalues --    4.85113   9.74093   9.78841   9.80348   9.81542
 Alpha virt. eigenvalues --    9.83931  10.54626  10.57081  23.34230  23.52384
 Alpha virt. eigenvalues --   23.84242  23.87161  23.89405  23.93050  23.99136
 Alpha virt. eigenvalues --   24.02045  24.02730  24.05300  24.09666  24.12446
 Alpha virt. eigenvalues --   25.41225  25.42131  25.79497  25.83059  25.88028
 Alpha virt. eigenvalues --   25.97706  26.02365  26.15689  26.20102  26.21813
 Alpha virt. eigenvalues --   26.23184  26.24851  26.54742  26.65846  26.80989
 Alpha virt. eigenvalues --   27.12190  27.13660  27.30676  27.57823  28.39377
 Alpha virt. eigenvalues --   28.55625 215.74770 215.78642 215.81485 215.90332
 Alpha virt. eigenvalues --  215.92892 216.86441 216.89181
          Condensed to atoms (all electrons):
               1          2          3          4          5          6
     1  C   27.878051   4.643882  -7.636614  -3.344861  -0.636681   2.397686
     2  C    4.643882  63.417903 -25.823509  -8.292525   5.947520  -4.042223
     3  C   -7.636614 -25.823509  30.400054   4.639807  -4.816273   6.022551
     4  C   -3.344861  -8.292525   4.639807  20.606081  -6.102267  -6.317423
     5  C   -0.636681   5.947520  -4.816273  -6.102267  24.790451  -6.501339
     6  C    2.397686  -4.042223   6.022551  -6.317423  -6.501339  38.423872
     7  C   10.543262   1.519631  -7.919913  -1.208941  -1.872899  -2.873613
     8  C    1.601217   9.599324  -8.171321   0.624856  -0.553534  -1.874542
     9  C   -7.896127  -9.507268   3.681148   0.555422  -1.733198  -0.570447
    10  C   -2.195061  -0.289838   0.836737   0.282442   0.018157  -0.308947
    11  C   -1.196728   0.091445  -2.008508   0.204756   2.245304  -2.631173
    12  C   -2.764720  -1.815173  -0.423507   0.025417  -2.936539   4.151408
    13  H    0.140526   0.279980   0.191854  -0.071334  -0.063515  -0.044217
    14  H    0.050140  -0.103162  -0.122052   0.499295  -0.081566   0.103771
    15  H    0.036919   0.023154  -0.005829  -0.000383   0.001790   0.004804
    16  Cl  -1.961852   0.960302   0.343771   0.520242   1.366553 -10.840983
    17  Cl  -4.120163  -0.644998   0.832242   2.133443  -0.585757 -12.116342
    18  Cl   0.206649  -0.158179  -0.033482  -0.003674   0.007464   0.134133
    19  Cl   0.182351   0.399318  -0.121646  -1.983235  -0.420200   3.048835
    20  Cl  -0.136997  -0.013590   0.005943   0.000867  -0.013594  -0.068695
    21  Cl  -2.897035  -8.398695   5.267370   0.517358  -0.477839   0.171737
    22  Cl  -6.160796 -22.240870  11.343574   3.302613  -1.921199   0.588207
               7          8          9         10         11         12
     1  C   10.543262   1.601217  -7.896127  -2.195061  -1.196728  -2.764720
     2  C    1.519631   9.599324  -9.507268  -0.289838   0.091445  -1.815173
     3  C   -7.919913  -8.171321   3.681148   0.836737  -2.008508  -0.423507
     4  C   -1.208941   0.624856   0.555422   0.282442   0.204756   0.025417
     5  C   -1.872899  -0.553534  -1.733198   0.018157   2.245304  -2.936539
     6  C   -2.873613  -1.874542  -0.570447  -0.308947  -2.631173   4.151408
     7  C   28.744806   3.330569  -5.488640  -2.721102  -3.209848   2.040045
     8  C    3.330569  69.356552 -25.979184 -13.149907   5.871636  -5.504318
     9  C   -5.488640 -25.979184  32.020511   4.243353  -4.489528   4.669996
    10  C   -2.721102 -13.149907   4.243353  25.818511  -7.503685  -3.717126
    11  C   -3.209848   5.871636  -4.489528  -7.503685  26.875890  -5.037467
    12  C    2.040045  -5.504318   4.669996  -3.717126  -5.037467  35.413288
    13  H    0.035026   0.020168  -0.008390  -0.000997   0.002212   0.004350
    14  H    0.000371   0.004479   0.000990   0.000188  -0.001262  -0.001762
    15  H    0.159707   0.208070   0.047524   0.036758  -0.007222  -0.027936
    16  Cl  -4.324146  -0.970142  -1.384023   0.193105   2.832969 -12.362862
    17  Cl  -0.274288   0.458213   0.906068   0.840475  -1.890022  -7.904890
    18  Cl  -0.565602   1.352671   0.586989  -0.735264  -1.854655   2.160107
    19  Cl   0.060441  -0.178490  -0.007432  -0.019677  -0.012473   0.000507
    20  Cl  -0.198264  -1.163937  -0.341397  -0.035122   0.793260   0.196703
    21  Cl  -5.234484 -19.818723  11.232003   1.854297  -1.557593  -0.218378
    22  Cl  -3.585854  -9.324068   6.354058   2.295226  -1.081701   0.812134
              13         14         15         16         17         18
     1  C    0.140526   0.050140   0.036919  -1.961852  -4.120163   0.206649
     2  C    0.279980  -0.103162   0.023154   0.960302  -0.644998  -0.158179
     3  C    0.191854  -0.122052  -0.005829   0.343771   0.832242  -0.033482
     4  C   -0.071334   0.499295  -0.000383   0.520242   2.133443  -0.003674
     5  C   -0.063515  -0.081566   0.001790   1.366553  -0.585757   0.007464
     6  C   -0.044217   0.103771   0.004804 -10.840983 -12.116342   0.134133
     7  C    0.035026   0.000371   0.159707  -4.324146  -0.274288  -0.565602
     8  C    0.020168   0.004479   0.208070  -0.970142   0.458213   1.352671
     9  C   -0.008390   0.000990   0.047524  -1.384023   0.906068   0.586989
    10  C   -0.000997   0.000188   0.036758   0.193105   0.840475  -0.735264
    11  C    0.002212  -0.001262  -0.007222   2.832969  -1.890022  -1.854655
    12  C    0.004350  -0.001762  -0.027936 -12.362862  -7.904890   2.160107
    13  H    0.536482  -0.009707   0.000002  -0.000507   0.001507   0.000006
    14  H   -0.009707   0.533685  -0.000000   0.003076   0.013321  -0.000009
    15  H    0.000002  -0.000000   0.517740   0.003921  -0.001110  -0.000584
    16  Cl  -0.000507   0.003076   0.003921  42.416674   4.121917  -2.342595
    17  Cl   0.001507   0.013321  -0.001110   4.121917  38.503124  -1.797660
    18  Cl   0.000006  -0.000009  -0.000584  -2.342595  -1.797660  19.954967
    19  Cl   0.001317  -0.036950   0.000002  -1.364623  -2.002426   0.003377
    20  Cl  -0.000003   0.000001  -0.011682   0.266110   0.057819  -0.623929
    21  Cl  -0.014023  -0.000262  -0.142069  -0.906830  -0.491568   0.034073
    22  Cl  -0.133300   0.012405   0.011032  -0.325358   0.365734  -0.041965
              19         20         21         22
     1  C    0.182351  -0.136997  -2.897035  -6.160796
     2  C    0.399318  -0.013590  -8.398695 -22.240870
     3  C   -0.121646   0.005943   5.267370  11.343574
     4  C   -1.983235   0.000867   0.517358   3.302613
     5  C   -0.420200  -0.013594  -0.477839  -1.921199
     6  C    3.048835  -0.068695   0.171737   0.588207
     7  C    0.060441  -0.198264  -5.234484  -3.585854
     8  C   -0.178490  -1.163937 -19.818723  -9.324068
     9  C   -0.007432  -0.341397  11.232003   6.354058
    10  C   -0.019677  -0.035122   1.854297   2.295226
    11  C   -0.012473   0.793260  -1.557593  -1.081701
    12  C    0.000507   0.196703  -0.218378   0.812134
    13  H    0.001317  -0.000003  -0.014023  -0.133300
    14  H   -0.036950   0.000001  -0.000262   0.012405
    15  H    0.000002  -0.011682  -0.142069   0.011032
    16  Cl  -1.364623   0.266110  -0.906830  -0.325358
    17  Cl  -2.002426   0.057819  -0.491568   0.365734
    18  Cl   0.003377  -0.623929   0.034073  -0.041965
    19  Cl  18.931362  -0.000535   0.046366  -0.053595
    20  Cl  -0.000535  17.763568   0.016084   0.016574
    21  Cl   0.046366   0.016084  36.077570   1.457279
    22  Cl  -0.053595   0.016574   1.457279  34.892799
 Mulliken charges:
               1
     1  C   -0.733049
     2  C    0.447568
     3  C   -0.482397
     4  C   -0.587956
     5  C    0.339161
     6  C   -0.857060
     7  C   -0.956265
     8  C    0.260411
     9  C   -0.892429
    10  C    0.257476
    11  C   -0.435606
    12  C   -0.759278
    13  H    0.132564
    14  H    0.135011
    15  H    0.145391
    16  Cl   0.755283
    17  Cl   0.595360
    18  Cl   0.717164
    19  Cl   0.527404
    20  Cl   0.490816
    21  Cl   0.483360
    22  Cl   0.417072
 Sum of Mulliken charges =  -0.00000
 Mulliken charges with hydrogens summed into heavy atoms:
               1
     1  C   -0.733049
     2  C    0.447568
     3  C   -0.349833
     4  C   -0.452945
     5  C    0.339161
     6  C   -0.857060
     7  C   -0.956265
     8  C    0.260411
     9  C   -0.747037
    10  C    0.257476
    11  C   -0.435606
    12  C   -0.759278
    16  Cl   0.755283
    17  Cl   0.595360
    18  Cl   0.717164
    19  Cl   0.527404
    20  Cl   0.490816
    21  Cl   0.483360
    22  Cl   0.417072
 Electronic spatial extent (au):  <R**2>=           8227.0622
 Charge=             -0.0000 electrons
 Dipole moment (field-independent basis, Debye):
    X=              1.9819    Y=              2.3180    Z=             -0.0000  Tot=              3.0498
 Quadrupole moment (field-independent basis, Debye-Ang):
   XX=           -173.8910   YY=           -136.8164   ZZ=           -156.9550
   XY=              0.5697   XZ=             -0.0000   YZ=             -0.0000
 Traceless Quadrupole moment (field-independent basis, Debye-Ang):
   XX=            -18.0036   YY=             19.0711   ZZ=             -1.0675
   XY=              0.5697   XZ=             -0.0000   YZ=             -0.0000
 Octapole moment (field-independent basis, Debye-Ang**2):
  XXX=             29.2717  YYY=             17.0194  ZZZ=             -0.0000  XYY=              5.0098
  XXY=             31.0213  XXZ=             -0.0001  XZZ=             -4.8646  YZZ=             -6.3415
  YYZ=             -0.0000  XYZ=             -0.0001
 Hexadecapole moment (field-independent basis, Debye-Ang**3):
 XXXX=          -7044.0669 YYYY=          -3430.7027 ZZZZ=           -190.1030 XXXY=             88.4613
 XXXZ=             -0.0002 YYYX=            -29.6004 YYYZ=             -0.0001 ZZZX=              0.0002
 ZZZY=             -0.0000 XXYY=          -1794.9263 XXZZ=          -1230.6616 YYZZ=           -659.4535
 XXYZ=             -0.0001 YYXZ=              0.0000 ZZXY=            -10.0158
 N-N= 2.604979091545D+03 E-N=-1.393206357184D+04  KE= 3.683801794762D+03
 Calling FoFJK, ICntrl=      2127 FMM=F ISym2X=0 I1Cent= 0 IOpClX= 0 NMat=1 NMatS=1 NMatT=0.
 ***** Axes restored to original set *****
 -------------------------------------------------------------------
 Center     Atomic                   Forces (Hartrees/Bohr)
 Number     Number              X              Y              Z
 -------------------------------------------------------------------
      1        6          -0.006336255   -0.013119896   -0.000376409
      2        6          -0.053779134    0.084095356    0.033511764
      3        6          -0.022965873   -0.004073364    0.006801315
      4        6          -0.005589429   -0.007860864    0.000364973
      5        6           0.008774229   -0.025620331   -0.007702270
      6        6           0.100174111    0.004384304   -0.032180197
      7        6           0.007380049    0.014077878    0.000212482
      8        6          -0.107151845    0.004621064    0.036169164
      9        6          -0.005560157    0.018763497    0.005355772
     10        6           0.002983107    0.002607327   -0.000493074
     11        6           0.016532953    0.005965585   -0.004326476
     12        6           0.050405107   -0.098278517   -0.035063354
     13        1           0.012494558    0.000699907   -0.003984951
     14        1           0.004635766    0.009463200    0.000250010
     15        1           0.004815437   -0.011238233   -0.003697094
     16       17          -1.716961927   -2.711483202    0.056449329
     17       17           1.529343414    2.824435306    0.026576247
     18       17          -0.004294145    0.002992498    0.001976734
     19       17          -0.001652675    0.005836680    0.001640641
     20       17           0.003701967   -0.000905927   -0.001389843
     21       17          -1.529088383   -2.825988819   -0.026988648
     22       17           1.712139125    2.720626550   -0.053106113
 -------------------------------------------------------------------
 Cartesian Forces:  Max     2.825988819 RMS     0.791365023

 GradGradGradGradGradGradGradGradGradGradGradGradGradGradGradGradGradGrad
 Berny optimization.
 FormGI is forming the generalized inverse of G from B-inverse, IUseBI=4.
 Internal  Forces:  Max     3.027388710 RMS     0.394522766
 Search for a local minimum.
 Step number   1 out of a maximum of  132
 All quantities printed in internal units (Hartrees-Bohrs-Radians)
 Mixed Optimization -- RFO/linear search
 Second derivative matrix not updated -- first step.
 ITU=  0
     Eigenvalues ---    0.01036   0.01292   0.01426   0.01600   0.01677
     Eigenvalues ---    0.01713   0.01839   0.01901   0.01914   0.02070
     Eigenvalues ---    0.02070   0.02070   0.02070   0.02070   0.02070
     Eigenvalues ---    0.02070   0.02070   0.03828   0.04012   0.16000
     Eigenvalues ---    0.16000   0.16000   0.22560   0.23536   0.24530
     Eigenvalues ---    0.25000   0.25000   0.25000   0.25000   0.25000
     Eigenvalues ---    0.25000   0.25000   0.25000   0.25000   0.25000
     Eigenvalues ---    0.27743   0.28928   0.29125   0.29412   0.29456
     Eigenvalues ---    0.29539   0.29539   0.29539   0.37230   0.37230
     Eigenvalues ---    0.37230   0.38691   0.39291   0.40644   0.41516
     Eigenvalues ---    0.44383   0.44771   0.45090   0.45159   0.45389
     Eigenvalues ---    0.45389   0.45389   0.45389  16.13878  16.74783
 RFO step:  Lambda=-1.18344184D+00 EMin= 1.03631772D-02
 Linear search not attempted -- first point.
 Maximum step size (   0.300) exceeded in Quadratic search.
    -- Step size scaled by   0.964
 Iteration  1 RMS(Cart)=  0.02827547 RMS(Int)=  0.00033640
 Iteration  2 RMS(Cart)=  0.00038859 RMS(Int)=  0.00018348
 Iteration  3 RMS(Cart)=  0.00000005 RMS(Int)=  0.00018348
 Variable       Old X    -DE/DX   Delta X   Delta X   Delta X     New X
                                 (Linear)    (Quad)   (Total)
    R1        2.64826   0.21662   0.00000   0.01837   0.01804   2.66630
    R2        2.64826   0.21777   0.00000   0.01902   0.01869   2.66695
    R3        2.91018   0.43586   0.00000   0.01053   0.00977   2.91995
    R4        2.64826  -0.00919   0.00000  -0.00542  -0.00542   2.64284
    R5        3.32592   0.00175   0.00000   0.06950   0.06968   3.39560
    R6        2.64826  -0.09769   0.00000  -0.01013  -0.00999   2.63827
    R7        2.02201   0.01313   0.00000   0.00813   0.00813   2.03014
    R8        2.64826  -0.09777   0.00000  -0.01018  -0.01003   2.63823
    R9        2.02201   0.01051   0.00000   0.00651   0.00651   2.02851
   R10        2.64826  -0.01158   0.00000  -0.00680  -0.00680   2.64146
   R11        3.32592   0.00615   0.00000   0.00401   0.00401   3.32992
   R12        3.32592   0.00797   0.00000   0.07359   0.07377   3.39969
   R13        2.64826   0.21609   0.00000   0.01802   0.01769   2.66596
   R14        2.64826   0.21640   0.00000   0.01821   0.01787   2.66614
   R15        2.64826  -0.01204   0.00000  -0.00711  -0.00711   2.64115
   R16        3.32592   0.00605   0.00000   0.07230   0.07248   3.39840
   R17        2.64826  -0.09892   0.00000  -0.01085  -0.01071   2.63755
   R18        2.02201   0.01273   0.00000   0.00789   0.00789   2.02989
   R19        2.64826  -0.09088   0.00000  -0.00609  -0.00595   2.64232
   R20        3.32592  -0.00109   0.00000  -0.00071  -0.00071   3.32521
   R21        2.64826  -0.01285   0.00000  -0.00753  -0.00753   2.64073
   R22        3.32592   0.00463   0.00000   0.00302   0.00302   3.32893
   R23        3.32592   0.01343   0.00000   0.07715   0.07733   3.40325
   R24        2.23252   3.02739   0.00000   0.16839   0.16878   2.40130
   R25        2.23252   3.02431   0.00000   0.16823   0.16861   2.40113
    A1        2.09440  -0.28037   0.00000  -0.01467  -0.01418   2.08021
    A2        2.09440   0.13902   0.00000   0.00663   0.00639   2.10079
    A3        2.09440   0.14136   0.00000   0.00804   0.00779   2.10218
    A4        2.09440   0.10028   0.00000   0.00236   0.00219   2.09659
    A5        2.09440   0.16332   0.00000   0.02497   0.02472   2.11912
    A6        2.09440  -0.26361   0.00000  -0.02733  -0.02691   2.06748
    A7        2.09440   0.05858   0.00000   0.00652   0.00641   2.10081
    A8        2.09440  -0.02886   0.00000  -0.00295  -0.00290   2.09150
    A9        2.09440  -0.02972   0.00000  -0.00357  -0.00352   2.09088
   A10        2.09440  -0.03816   0.00000  -0.00356  -0.00352   2.09088
   A11        2.09440   0.01992   0.00000   0.00239   0.00236   2.09676
   A12        2.09440   0.01824   0.00000   0.00118   0.00115   2.09555
   A13        2.09440   0.06445   0.00000   0.01036   0.01027   2.10466
   A14        2.09440  -0.03438   0.00000  -0.00663  -0.00658   2.08782
   A15        2.09440  -0.03007   0.00000  -0.00373  -0.00369   2.09071
   A16        2.09440   0.09522   0.00000  -0.00101  -0.00117   2.09323
   A17        2.09440   0.16023   0.00000   0.02287   0.02262   2.11702
   A18        2.09440  -0.25545   0.00000  -0.02186  -0.02145   2.07294
   A19        2.09440   0.13870   0.00000   0.00644   0.00621   2.10060
   A20        2.09440   0.14195   0.00000   0.00846   0.00821   2.10261
   A21        2.09440  -0.28065   0.00000  -0.01491  -0.01442   2.07998
   A22        2.09440   0.10145   0.00000   0.00309   0.00292   2.09731
   A23        2.09440   0.16273   0.00000   0.02459   0.02435   2.11874
   A24        2.09440  -0.26418   0.00000  -0.02767  -0.02727   2.06713
   A25        2.09440   0.05720   0.00000   0.00555   0.00545   2.09984
   A26        2.09440  -0.02757   0.00000  -0.00203  -0.00198   2.09241
   A27        2.09440  -0.02963   0.00000  -0.00351  -0.00346   2.09093
   A28        2.09440  -0.03520   0.00000  -0.00147  -0.00142   2.09297
   A29        2.09440   0.01110   0.00000  -0.00363  -0.00366   2.09074
   A30        2.09440   0.02410   0.00000   0.00510   0.00508   2.09947
   A31        2.09440   0.05877   0.00000   0.00659   0.00649   2.10088
   A32        2.09440  -0.02416   0.00000   0.00022   0.00027   2.09466
   A33        2.09440  -0.03461   0.00000  -0.00680  -0.00675   2.08764
   A34        2.09440   0.09842   0.00000   0.00115   0.00099   2.09538
   A35        2.09440   0.15897   0.00000   0.02201   0.02177   2.11616
   A36        2.09440  -0.25739   0.00000  -0.02316  -0.02275   2.07164
   A37        2.09440  -0.30165   0.00000  -0.03096  -0.03046   2.06393
   A38        2.09440  -0.30085   0.00000  -0.03042  -0.02992   2.06447
   A39        2.09440  -0.30241   0.00000  -0.03167  -0.03119   2.06321
   A40        2.09440  -0.30136   0.00000  -0.03096  -0.03048   2.06391
    D1        0.00000   0.00000   0.00000   0.00000   0.00000   0.00000
    D2        3.14159   0.00000   0.00000   0.00000   0.00000   3.14159
    D3       -3.14159   0.00000   0.00000   0.00000   0.00000  -3.14159
    D4       -0.00000   0.00000   0.00000   0.00000   0.00000  -0.00000
    D5       -0.00000  -0.00000   0.00000  -0.00000  -0.00000  -0.00000
    D6        3.14159  -0.00000   0.00000  -0.00000   0.00000   3.14159
    D7        3.14159  -0.00000   0.00000  -0.00000  -0.00000   3.14159
    D8        0.00000  -0.00000   0.00000   0.00000   0.00000   0.00000
    D9       -0.00000  -0.00000   0.00000  -0.00000  -0.00000  -0.00000
   D10        3.14159  -0.00000   0.00000  -0.00000  -0.00000   3.14159
   D11        3.14159  -0.00000   0.00000  -0.00000  -0.00000   3.14159
   D12       -0.00000  -0.00000   0.00000  -0.00000  -0.00000  -0.00000
   D13        0.00000  -0.00000   0.00000  -0.00000  -0.00000   0.00000
   D14        3.14159  -0.00000   0.00000   0.00000   0.00000   3.14159
   D15       -3.14159  -0.00000   0.00000  -0.00000  -0.00000  -3.14159
   D16        0.00000  -0.00000   0.00000  -0.00000  -0.00000   0.00000
   D17        0.00000  -0.00000   0.00000  -0.00000  -0.00000   0.00000
   D18       -3.14159  -0.00000   0.00000  -0.00000  -0.00000  -3.14159
   D19       -0.00000  -0.00000   0.00000  -0.00000  -0.00000  -0.00000
   D20        3.14159   0.00000   0.00000   0.00000   0.00000   3.14159
   D21        3.14159  -0.00000   0.00000  -0.00000  -0.00000   3.14159
   D22        0.00000   0.00000   0.00000  -0.00000  -0.00000   0.00000
   D23        0.00000   0.00000   0.00000  -0.00000  -0.00000   0.00000
   D24       -3.14159   0.00000   0.00000   0.00000   0.00000  -3.14159
   D25       -3.14159  -0.00000   0.00000  -0.00000  -0.00000  -3.14159
   D26        0.00000   0.00000   0.00000   0.00000   0.00000   0.00000
   D27       -0.00000   0.00000   0.00000   0.00000   0.00000  -0.00000
   D28        3.14159   0.00000   0.00000   0.00000   0.00000   3.14159
   D29        3.14159  -0.00000   0.00000   0.00000   0.00000   3.14159
   D30       -0.00000   0.00000   0.00000  -0.00000  -0.00000  -0.00000
   D31        0.00001  -0.00000   0.00000  -0.00000  -0.00000   0.00001
   D32       -3.14158  -0.00000   0.00000  -0.00000  -0.00000  -3.14158
   D33        3.14159   0.00000   0.00000   0.00000   0.00000   3.14159
   D34        0.00000   0.00000   0.00000   0.00000   0.00000   0.00000
   D35        0.00000   0.00000   0.00000   0.00000   0.00000   0.00000
   D36       -3.14159   0.00000   0.00000   0.00000   0.00000  -3.14159
   D37       -3.14159  -0.00000   0.00000  -0.00000  -0.00000  -3.14159
   D38        0.00000  -0.00000   0.00000  -0.00000  -0.00000   0.00000
   D39       -0.00000  -0.00000   0.00000  -0.00000  -0.00000  -0.00000
   D40        3.14159  -0.00000   0.00000   0.00000   0.00000   3.14159
   D41       -0.00000  -0.00000   0.00000   0.00000   0.00000  -0.00000
   D42        3.14159  -0.00000   0.00000  -0.00000  -0.00000   3.14159
   D43        3.14159   0.00000   0.00000   0.00000   0.00000   3.14159
   D44       -0.00000   0.00000   0.00000   0.00000   0.00000  -0.00000
   D45        0.00000  -0.00000   0.00000  -0.00000  -0.00000   0.00000
   D46       -3.14159  -0.00000   0.00000  -0.00000  -0.00000  -3.14159
   D47       -0.00000  -0.00000   0.00000  -0.00000  -0.00000  -0.00000
   D48       -3.14159  -0.00000   0.00000  -0.00000  -0.00000  -3.14159
   D49        3.14159  -0.00000   0.00000  -0.00000  -0.00000   3.14159
   D50        0.00000   0.00000   0.00000  -0.00000  -0.00000   0.00000
   D51        0.00000   0.00000   0.00000  -0.00000  -0.00000   0.00000
   D52       -3.14159   0.00000   0.00000  -0.00000  -0.00000  -3.14159
   D53        3.14159  -0.00000   0.00000   0.00000   0.00000   3.14159
   D54        0.00000   0.00000   0.00000   0.00000   0.00000   0.00000
   D55        0.00000   0.00000   0.00000   0.00000   0.00000   0.00000
   D56       -3.14159   0.00000   0.00000  -0.00000  -0.00000  -3.14159
   D57        3.14159   0.00000   0.00000   0.00000   0.00000   3.14159
   D58       -0.00000   0.00000   0.00000  -0.00000  -0.00000  -0.00000
   D59        0.00001  -0.00000   0.00000  -0.00000  -0.00000   0.00001
   D60       -3.14158  -0.00000   0.00000  -0.00000  -0.00000  -3.14158
   D61       -0.00001   0.00000   0.00000   0.00000   0.00000  -0.00001
   D62       -0.00000  -0.00000   0.00000   0.00000   0.00000  -0.00000
         Item               Value     Threshold  Converged?
 Maximum Force            3.027389     0.000450     NO 
 RMS     Force            0.394523     0.000300     NO 
 Maximum Displacement     0.144835     0.001800     NO 
 RMS     Displacement     0.028099     0.001200     NO 
 Predicted change in Energy=-6.419461D-01
 GradGradGradGradGradGradGradGradGradGradGradGradGradGradGradGradGradGrad

                          Input orientation:                          
 ---------------------------------------------------------------------
 Center     Atomic      Atomic             Coordinates (Angstroms)
 Number     Number       Type             X           Y           Z
 ---------------------------------------------------------------------
      1          6           0        0.590276    1.086270   -0.001837
      2          6           0        1.932007    1.125009   -0.436601
      3          6           0        2.633894    2.334650   -0.440659
      4          6           0        2.014551    3.511454   -0.015598
      5          6           0        0.687163    3.480110    0.415828
      6          6           0       -0.029164    2.279855    0.426406
      7          6           0       -0.190446   -0.247138    0.004950
      8          6           0        0.430647   -1.439149   -0.423544
      9          6           0       -0.279233   -2.643058   -0.415775
     10          6           0       -1.606316   -2.675562    0.015339
     11          6           0       -2.230073   -1.499054    0.441799
     12          6           0       -1.532165   -0.288399    0.439241
     13          1           0        3.655328    2.358767   -0.772645
     14          1           0        2.556793    4.437863   -0.020253
     15          1           0        0.198108   -3.548000   -0.742995
     16         17           0       -2.379452    1.199361    0.997804
     17         17           0       -1.736911    2.295635    0.991994
     18         17           0       -3.904926   -1.537153    0.986442
     19         17           0       -0.090006    4.968165    0.951338
     20         17           0       -2.487130   -4.198855    0.019443
     21         17           0        2.137728   -1.455181   -0.988961
     22         17           0        2.779081   -0.358313   -0.994253
 ---------------------------------------------------------------------
                    Distance matrix (angstroms):
                    1          2          3          4          5
     1  C    0.000000
     2  C    1.410944   0.000000
     3  C    2.434623   1.398533   0.000000
     4  C    2.812519   2.424702   1.396112   0.000000
     5  C    2.431934   2.796922   2.415659   1.396091   0.000000
     6  C    1.411291   2.434059   2.801193   2.426721   1.397802
     7  C    1.545170   2.565650   3.852414   4.357688   3.851155
     8  C    2.565357   2.971389   4.369914   5.213793   4.996944
     9  C    3.851659   4.369020   5.767539   6.580243   6.254492
    10  C    4.356225   5.212323   6.579478   7.168738   6.581241
    11  C    3.851633   4.998019   6.255732   6.582646   5.770876
    12  C    2.566909   3.842565   5.001065   5.217754   4.373514
    13  H    3.407042   2.145908   1.074302   2.143352   3.388197
    14  H    3.885962   3.396867   2.146204   1.073444   2.145454
    15  H    4.709519   4.993725   6.374169   7.325603   7.139774
    16  Cl   3.135499   4.544417   5.337761   5.067546   3.865830
    17  Cl   2.804650   4.107579   4.599777   4.070248   2.758819
    18  Cl   5.297725   6.571297   7.731988   7.844280   6.825381
    19  Cl   4.054680   4.559030   4.036419   2.736080   1.762120
    20  Cl   6.115834   6.933994   8.314040   8.928338   8.318640
    21  Cl   3.134963   2.646658   3.861300   5.062615   5.332417
    22  Cl   2.804029   1.796873   2.753106   4.064156   4.593250
                    6          7          8          9         10
     6  C    0.000000
     7  C    2.566969   0.000000
     8  C    3.842503   1.410763   0.000000
     9  C    5.000687   2.434199   1.397636   0.000000
    10  C    5.216564   2.811057   2.422922   1.395731   0.000000
    11  C    4.373143   2.432736   2.798541   2.418668   1.398253
    12  C    2.975752   1.410858   2.433363   2.800948   2.425642
    13  H    3.875492   4.710135   4.994457   6.373882   7.324635
    14  H    3.397599   5.431132   6.262779   7.637992   8.242181
    15  H    5.948364   3.406771   2.145548   1.074173   2.142934
    16  Cl   2.649116   2.805328   4.108360   4.601447   4.071610
    17  Cl   1.799037   3.135523   4.544300   5.338289   5.067910
    18  Cl   5.468521   4.052755   4.560138   4.041644   2.742740
    19  Cl   2.739756   5.301426   6.573815   7.735342   7.848684
    20  Cl   6.941246   4.570671   4.040500   2.735823   1.759623
    21  Cl   4.544137   2.804928   1.798355   2.753415   4.063965
    22  Cl   4.106634   3.135101   2.647463   3.861086   5.061683
                   11         12         13         14         15
    11  C    0.000000
    12  C    1.397415   0.000000
    13  H    7.141120   5.948633   0.000000
    14  H    7.640324   6.266439   2.468909   0.000000
    15  H    3.390867   3.875117   6.844205   8.358215   0.000000
    16  Cl   2.759148   1.800921   6.395098   5.990897   5.675529
    17  Cl   3.865952   2.650413   5.673991   4.904046   6.395510
    18  Cl   1.761596   2.736569   8.685046   8.858220   4.885626
    19  Cl   6.831137   5.474808   4.879406   2.868929   8.687855
    20  Cl   2.744702   4.047204   9.019956  10.001781   2.866257
    21  Cl   4.596377   4.107220   4.110487   5.986817   2.864003
    22  Cl   5.334338   4.543858   2.863466   4.899121   4.110797
                   16         17         18         19         20
    16  Cl   0.000000
    17  Cl   1.270713   0.000000
    18  Cl   3.133004   4.403475   0.000000
    19  Cl   4.409944   3.139484   7.541486   0.000000
    20  Cl   5.487215   6.609621   3.167000   9.520971   0.000000
    21  Cl   5.603458   5.745052   6.357877   7.070143   5.471191
    22  Cl   5.745007   5.602035   7.070274   6.355183   6.596236
                   21         22
    21  Cl   0.000000
    22  Cl   1.270623   0.000000
 Stoichiometry    C12H3Cl7
 Framework group  C1[X(C12H3Cl7)]
 Deg. of freedom    60
 Full point group                 C1      NOp   1
 Largest Abelian subgroup         C1      NOp   1
 Largest concise Abelian subgroup C1      NOp   1
                         Standard orientation:                         
 ---------------------------------------------------------------------
 Center     Atomic      Atomic             Coordinates (Angstroms)
 Number     Number       Type             X           Y           Z
 ---------------------------------------------------------------------
      1          6           0        1.182087    0.535545    0.000001
      2          6           0        1.810973    1.798583   -0.000001
      3          6           0        3.206660    1.887765   -0.000004
      4          6           0        3.987831    0.730656   -0.000005
      5          6           0        3.371929   -0.522234   -0.000000
      6          6           0        1.978265   -0.629720    0.000002
      7          6           0       -0.359510    0.430532    0.000003
      8          6           0       -1.153545    1.596621    0.000004
      9          6           0       -2.547630    1.497049    0.000004
     10          6           0       -3.164438    0.245005    0.000003
     11          6           0       -2.385486   -0.916178    0.000001
     12          6           0       -0.990653   -0.831284    0.000001
     13          1           0        3.680599    2.851874   -0.000006
     14          1           0        5.058804    0.803444   -0.000007
     15          1           0       -3.147860    2.387875    0.000006
     16         17           0       -0.031536   -2.355558   -0.000004
     17         17           0        1.236197   -2.268583    0.000005
     18         17           0       -3.161312   -2.497733   -0.000005
     19         17           0        4.362359   -1.979669    0.000002
     20         17           0       -4.920658    0.135628    0.000001
     21         17           0       -0.411997    3.234969    0.000001
     22         17           0        0.855743    3.320519   -0.000003
 ---------------------------------------------------------------------
 Rotational constants (GHZ):           0.3019084           0.1776127           0.1118257
 Standard basis: 6-311+G(d,p) (5D, 7F)
 There are   511 symmetry adapted cartesian basis functions of A   symmetry.
 There are   492 symmetry adapted basis functions of A   symmetry.
   492 basis functions,   827 primitive gaussians,   511 cartesian basis functions
    97 alpha electrons       97 beta electrons
       nuclear repulsion energy      2566.8192905129 Hartrees.
 NAtoms=   22 NActive=   22 NUniq=   22 SFac= 1.00D+00 NAtFMM=   60 NAOKFM=F Big=F
 Integral buffers will be    131072 words long.
 Raffenetti 2 integral format.
 Two-electron integral symmetry is turned on.
 One-electron integrals computed using PRISM.
 NBasis=   492 RedAO= T EigKep=  1.40D-06  NBF=   492
 NBsUse=   485 1.00D-06 EigRej=  5.03D-07 NBFU=   485
 Initial guess from the checkpoint file:  "./Gau-423898.chk"
 B after Tr=    -0.000000   -0.000000    0.000000
         Rot=    0.999999   -0.000000   -0.000000   -0.001214 Ang=  -0.14 deg.
 ExpMin= 4.38D-02 ExpMax= 1.06D+05 ExpMxC= 3.62D+03 IAcc=3 IRadAn=         5 AccDes= 0.00D+00
 Harris functional with IExCor=  402 and IRadAn=       5 diagonalized for initial guess.
 HarFok:  IExCor=  402 AccDes= 0.00D+00 IRadAn=         5 IDoV= 1 UseB2=F ITyADJ=14
 ICtDFT=  3500011 ScaDFX=  1.000000  1.000000  1.000000  1.000000
 FoFCou: FMM=F IPFlag=           0 FMFlag=      100000 FMFlg1=           0
         NFxFlg=           0 DoJE=T BraDBF=F KetDBF=T FulRan=T
         wScrn=  0.000000 ICntrl=       500 IOpCl=  0 I1Cent=   200000004 NGrid=           0
         NMat0=    1 NMatS0=      1 NMatT0=    0 NMatD0=    1 NMtDS0=    0 NMtDT0=    0
 Petite list used in FoFCou.
 Requested convergence on RMS density matrix=1.00D-08 within  32 cycles.
 Requested convergence on MAX density matrix=1.00D-06.
 Requested convergence on             energy=1.00D-06.
 No special actions if energy rises.
 SCF Done:  E(RB3LYP) =  -3678.45200185     A.U. after   18 cycles
            NFock= 18  Conv=0.97D-08     -V/T= 1.9995
 QCSCF skips out because SCF is already converged.
 Calling FoFJK, ICntrl=      2127 FMM=F ISym2X=0 I1Cent= 0 IOpClX= 0 NMat=1 NMatS=1 NMatT=0.
 ***** Axes restored to original set *****
 -------------------------------------------------------------------
 Center     Atomic                   Forces (Hartrees/Bohr)
 Number     Number              X              Y              Z
 -------------------------------------------------------------------
      1        6          -0.005909975   -0.011820265   -0.000272808
      2        6          -0.059056085    0.073140993    0.033192897
      3        6          -0.017842371   -0.007956593    0.004384048
      4        6          -0.002934744   -0.002638750    0.000471144
      5        6           0.004450704   -0.025464663   -0.006248643
      6        6           0.092786006   -0.005313177   -0.031567288
      7        6           0.006535099    0.012684713    0.000229262
      8        6          -0.099236071    0.015244487    0.035556508
      9        6          -0.000171779    0.016616648    0.003177327
     10        6           0.000051326    0.000751524    0.000124289
     11        6           0.016157903    0.008671012   -0.003694802
     12        6           0.055002963   -0.086617410   -0.034388212
     13        1           0.010099916    0.000589771   -0.003216710
     14        1           0.003458417    0.007327666    0.000236819
     15        1           0.003762690   -0.009155854   -0.002959168
     16       17          -1.139105582   -1.737959626    0.048898017
     17       17           0.965756929    1.842774572    0.027898033
     18       17          -0.005856086    0.002221559    0.002346536
     19       17          -0.002389370    0.007044710    0.002110229
     20       17           0.002724325   -0.001380989   -0.001156971
     21       17          -0.961970065   -1.845781478   -0.029733904
     22       17           1.133685849    1.747021153   -0.045386602
 -------------------------------------------------------------------
 Cartesian Forces:  Max     1.845781478 RMS     0.512975170

 GradGradGradGradGradGradGradGradGradGradGradGradGradGradGradGradGradGrad
 Berny optimization.
 Using GEDIIS/GDIIS optimizer.
 FormGI is forming the generalized inverse of G from B-inverse, IUseBI=4.
 Internal  Forces:  Max     1.972263510 RMS     0.257069771
 Search for a local minimum.
 Step number   2 out of a maximum of  132
 All quantities printed in internal units (Hartrees-Bohrs-Radians)
 Mixed Optimization -- RFO/linear search
 Update second derivatives using D2CorX and points    1    2
 DE= -9.35D-01 DEPred=-6.42D-01 R= 1.46D+00
 TightC=F SS=  1.41D+00  RLast= 3.00D-01 DXNew= 5.0454D-01 8.9994D-01
 Trust test= 1.46D+00 RLast= 3.00D-01 DXMaxT set to 5.05D-01
 ITU=  1  0
 Use linear search instead of GDIIS.
 Linear search step of   0.600 exceeds DXMaxT=   0.505 but not scaled.
 Quartic linear search produced a step of  2.00000.
 Iteration  1 RMS(Cart)=  0.04514907 RMS(Int)=  0.01699714
 Iteration  2 RMS(Cart)=  0.01446113 RMS(Int)=  0.00104576
 Iteration  3 RMS(Cart)=  0.00006495 RMS(Int)=  0.00104441
 Iteration  4 RMS(Cart)=  0.00000009 RMS(Int)=  0.00104441
 Variable       Old X    -DE/DX   Delta X   Delta X   Delta X     New X
                                 (Linear)    (Quad)   (Total)
    R1        2.66630   0.13684   0.03607   0.00000   0.03416   2.70046
    R2        2.66695   0.13832   0.03738   0.00000   0.03548   2.70244
    R3        2.91995   0.25861   0.01954   0.00000   0.01535   2.93530
    R4        2.64284  -0.00953  -0.01084   0.00000  -0.01084   2.63200
    R5        3.39560   0.03903   0.13936   0.00000   0.14022   3.53582
    R6        2.63827  -0.06231  -0.01999   0.00000  -0.01918   2.61909
    R7        2.03014   0.01061   0.01626   0.00000   0.01626   2.04640
    R8        2.63823  -0.06300  -0.02007   0.00000  -0.01924   2.61899
    R9        2.02851   0.00807   0.01302   0.00000   0.01302   2.04153
   R10        2.64146  -0.01213  -0.01360   0.00000  -0.01355   2.62791
   R11        3.32992   0.00764   0.00801   0.00000   0.00801   3.33794
   R12        3.39969   0.04307   0.14754   0.00000   0.14842   3.54811
   R13        2.66596   0.13630   0.03539   0.00000   0.03351   2.69947
   R14        2.66614   0.13721   0.03575   0.00000   0.03385   2.69999
   R15        2.64115  -0.01154  -0.01423   0.00000  -0.01422   2.62693
   R16        3.39840   0.04326   0.14496   0.00000   0.14585   3.54425
   R17        2.63755  -0.06333  -0.02143   0.00000  -0.02061   2.61694
   R18        2.02989   0.01029   0.01577   0.00000   0.01577   2.04566
   R19        2.64232  -0.05829  -0.01189   0.00000  -0.01107   2.63124
   R20        3.32521  -0.00017  -0.00143   0.00000  -0.00143   3.32378
   R21        2.64073  -0.01289  -0.01506   0.00000  -0.01504   2.62569
   R22        3.32893   0.00625   0.00603   0.00000   0.00603   3.33497
   R23        3.40325   0.04869   0.15466   0.00000   0.15556   3.55880
   R24        2.40130   1.97226   0.33755   0.00000   0.33966   2.74096
   R25        2.40113   1.96938   0.33721   0.00000   0.33930   2.74043
    A1        2.08021  -0.17419  -0.02837   0.00000  -0.02565   2.05456
    A2        2.10079   0.08587   0.01279   0.00000   0.01145   2.11224
    A3        2.10218   0.08832   0.01558   0.00000   0.01420   2.11639
    A4        2.09659   0.06148   0.00438   0.00000   0.00343   2.10001
    A5        2.11912   0.11775   0.04945   0.00000   0.04796   2.16708
    A6        2.06748  -0.17923  -0.05383   0.00000  -0.05139   2.01609
    A7        2.10081   0.03836   0.01283   0.00000   0.01223   2.11304
    A8        2.09150  -0.01882  -0.00579   0.00000  -0.00549   2.08600
    A9        2.09088  -0.01954  -0.00703   0.00000  -0.00673   2.08415
   A10        2.09088  -0.02658  -0.00704   0.00000  -0.00677   2.08411
   A11        2.09676   0.01407   0.00473   0.00000   0.00459   2.10135
   A12        2.09555   0.01251   0.00231   0.00000   0.00217   2.09772
   A13        2.10466   0.04346   0.02053   0.00000   0.02000   2.12466
   A14        2.08782  -0.02367  -0.01316   0.00000  -0.01289   2.07493
   A15        2.09071  -0.01979  -0.00738   0.00000  -0.00711   2.08360
   A16        2.09323   0.05748  -0.00234   0.00000  -0.00323   2.08999
   A17        2.11702   0.11401   0.04524   0.00000   0.04373   2.16074
   A18        2.07294  -0.17149  -0.04290   0.00000  -0.04050   2.03245
   A19        2.10060   0.08564   0.01241   0.00000   0.01108   2.11168
   A20        2.10261   0.08882   0.01642   0.00000   0.01504   2.11765
   A21        2.07998  -0.17446  -0.02883   0.00000  -0.02612   2.05386
   A22        2.09731   0.06219   0.00583   0.00000   0.00489   2.10220
   A23        2.11874   0.11740   0.04870   0.00000   0.04724   2.16599
   A24        2.06713  -0.17960  -0.05453   0.00000  -0.05213   2.01500
   A25        2.09984   0.03738   0.01089   0.00000   0.01033   2.11017
   A26        2.09241  -0.01771  -0.00397   0.00000  -0.00368   2.08873
   A27        2.09093  -0.01966  -0.00693   0.00000  -0.00664   2.08429
   A28        2.09297  -0.02399  -0.00284   0.00000  -0.00258   2.09040
   A29        2.09074   0.00657  -0.00731   0.00000  -0.00745   2.08329
   A30        2.09947   0.01742   0.01016   0.00000   0.01002   2.10950
   A31        2.10088   0.03869   0.01298   0.00000   0.01242   2.11331
   A32        2.09466  -0.01536   0.00053   0.00000   0.00081   2.09547
   A33        2.08764  -0.02333  -0.01351   0.00000  -0.01323   2.07441
   A34        2.09538   0.06018   0.00197   0.00000   0.00105   2.09644
   A35        2.11616   0.11284   0.04353   0.00000   0.04205   2.15821
   A36        2.07164  -0.17303  -0.04550   0.00000  -0.04310   2.02854
   A37        2.06393  -0.20241  -0.06093   0.00000  -0.05804   2.00589
   A38        2.06447  -0.20159  -0.05985   0.00000  -0.05698   2.00749
   A39        2.06321  -0.20390  -0.06238   0.00000  -0.05955   2.00366
   A40        2.06391  -0.20276  -0.06096   0.00000  -0.05818   2.00573
    D1        0.00000   0.00000   0.00000   0.00000   0.00000   0.00000
    D2        3.14159   0.00000   0.00000   0.00000   0.00000   3.14159
    D3       -3.14159   0.00000   0.00000   0.00000   0.00000  -3.14159
    D4       -0.00000   0.00000   0.00000   0.00000   0.00000  -0.00000
    D5       -0.00000  -0.00000  -0.00000   0.00000  -0.00000  -0.00000
    D6        3.14159  -0.00000   0.00000   0.00000   0.00000   3.14159
    D7        3.14159  -0.00000  -0.00000   0.00000  -0.00000   3.14159
    D8        0.00000  -0.00000   0.00000   0.00000   0.00000   0.00000
    D9       -0.00000  -0.00000  -0.00000   0.00000  -0.00000  -0.00000
   D10        3.14159  -0.00000  -0.00000   0.00000  -0.00000   3.14159
   D11        3.14159  -0.00000  -0.00000   0.00000  -0.00000   3.14159
   D12       -0.00000  -0.00000  -0.00000   0.00000  -0.00000  -0.00000
   D13        0.00000  -0.00000  -0.00000   0.00000  -0.00000   0.00000
   D14        3.14159  -0.00000   0.00000   0.00000   0.00000   3.14159
   D15       -3.14159  -0.00000  -0.00000   0.00000  -0.00000  -3.14159
   D16        0.00000  -0.00000  -0.00000   0.00000  -0.00000   0.00000
   D17        0.00000  -0.00000  -0.00000   0.00000  -0.00000   0.00000
   D18       -3.14159  -0.00000  -0.00000   0.00000  -0.00000  -3.14159
   D19       -0.00000  -0.00000  -0.00000   0.00000  -0.00000  -0.00000
   D20        3.14159   0.00000   0.00000   0.00000   0.00000   3.14159
   D21        3.14159  -0.00000  -0.00000   0.00000  -0.00000   3.14159
   D22        0.00000   0.00000  -0.00000   0.00000  -0.00000   0.00000
   D23        0.00000   0.00000  -0.00000   0.00000  -0.00000   0.00000
   D24       -3.14159   0.00000   0.00000   0.00000   0.00000  -3.14159
   D25       -3.14159  -0.00000  -0.00000   0.00000  -0.00000  -3.14159
   D26        0.00000   0.00000   0.00000   0.00000   0.00000   0.00000
[...]
                 (A) (A) (A) (A) (A) (A) (A) (A) (A) (A) (A) (A)
                 (A) (A) (A) (A) (A) (A) (A) (A) (A) (A) (A) (A)
                 (A) (A) (A) (A) (A) (A) (A) (A) (A) (A) (A) (A)
                 (A) (A) (A) (A) (A) (A) (A) (A) (A) (A) (A) (A)
                 (A) (A) (A) (A) (A) (A) (A) (A) (A) (A) (A) (A)
                 (A) (A) (A) (A) (A) (A) (A) (A) (A) (A) (A) (A)
                 (A) (A) (A) (A) (A) (A) (A) (A) (A) (A) (A) (A)
                 (A) (A) (A) (A) (A) (A) (A) (A) (A) (A) (A) (A)
                 (A) (A) (A) (A) (A) (A) (A) (A) (A) (A) (A) (A)
                 (A) (A) (A) (A) (A) (A) (A) (A) (A) (A) (A) (A)
                 (A) (A) (A) (A) (A) (A) (A) (A) (A) (A) (A) (A)
                 (A) (A) (A) (A) (A) (A) (A) (A) (A) (A) (A) (A)
                 (A) (A) (A) (A) (A) (A) (A) (A) (A) (A) (A) (A)
                 (A) (A) (A) (A) (A) (A) (A) (A) (A) (A) (A) (A)
                 (A) (A) (A) (A) (A) (A) (A) (A) (A) (A) (A) (A)
                 (A) (A) (A) (A) (A) (A) (A) (A) (A) (A) (A) (A)
                 (A) (A) (A) (A) (A) (A) (A) (A) (A) (A) (A) (A)
                 (A) (A) (A) (A) (A) (A) (A) (A) (A) (A) (A) (A)
                 (A) (A) (A) (A) (A) (A) (A) (A) (A) (A) (A) (A)
                 (A) (A) (A) (A) (A) (A) (A) (A) (A) (A) (A) (A)
                 (A) (A) (A) (A) (A) (A) (A) (A) (A) (A) (A) (A)
                 (A) (A) (A) (A) (A) (A)
 The electronic state is 1-A.
 Alpha  occ. eigenvalues -- -101.58017-101.57953-101.57934-101.57803-101.57726
 Alpha  occ. eigenvalues -- -101.57539-101.57520 -10.28226 -10.27975 -10.27890
 Alpha  occ. eigenvalues --  -10.27709 -10.27545 -10.27065 -10.27048 -10.24171
 Alpha  occ. eigenvalues --  -10.24077 -10.22336 -10.22082 -10.21742  -9.49474
 Alpha  occ. eigenvalues --   -9.49431  -9.49397  -9.49275  -9.49202  -9.48996
 Alpha  occ. eigenvalues --   -9.48992  -7.25967  -7.25922  -7.25902  -7.25753
 Alpha  occ. eigenvalues --   -7.25688  -7.25484  -7.25463  -7.24952  -7.24910
 Alpha  occ. eigenvalues --   -7.24888  -7.24876  -7.24837  -7.24795  -7.24750
 Alpha  occ. eigenvalues --   -7.24704  -7.24682  -7.24614  -7.24474  -7.24470
 Alpha  occ. eigenvalues --   -7.24426  -7.24418  -0.96472  -0.94676  -0.91403
 Alpha  occ. eigenvalues --   -0.90832  -0.90335  -0.88182  -0.87365  -0.84512
 Alpha  occ. eigenvalues --   -0.83954  -0.80622  -0.76169  -0.75141  -0.74345
 Alpha  occ. eigenvalues --   -0.67005  -0.64194  -0.63161  -0.61802  -0.55437
 Alpha  occ. eigenvalues --   -0.55045  -0.53576  -0.52876  -0.49889  -0.48582
 Alpha  occ. eigenvalues --   -0.47146  -0.47077  -0.46564  -0.45989  -0.45034
 Alpha  occ. eigenvalues --   -0.43848  -0.42394  -0.41688  -0.41238  -0.40322
 Alpha  occ. eigenvalues --   -0.39210  -0.38825  -0.36830  -0.35768  -0.35755
 Alpha  occ. eigenvalues --   -0.35032  -0.34613  -0.34105  -0.33821  -0.33546
 Alpha  occ. eigenvalues --   -0.33082  -0.32591  -0.32254  -0.28543  -0.27894
 Alpha  occ. eigenvalues --   -0.26916  -0.26577
 Alpha virt. eigenvalues --   -0.06293  -0.06024  -0.05937  -0.05171  -0.04829
 Alpha virt. eigenvalues --   -0.02966  -0.00553  -0.00180   0.00118   0.00918
 Alpha virt. eigenvalues --    0.01068   0.02156   0.02412   0.02530   0.02732
 Alpha virt. eigenvalues --    0.03512   0.04507   0.04930   0.05311   0.05673
 Alpha virt. eigenvalues --    0.05937   0.06120   0.06500   0.06738   0.07413
 Alpha virt. eigenvalues --    0.08162   0.08237   0.08672   0.09112   0.09353
 Alpha virt. eigenvalues --    0.09704   0.10016   0.10473   0.10640   0.10703
 Alpha virt. eigenvalues --    0.11645   0.11734   0.11981   0.12179   0.12592
 Alpha virt. eigenvalues --    0.12704   0.13469   0.13595   0.14094   0.14247
 Alpha virt. eigenvalues --    0.14683   0.15318   0.15548   0.15675   0.16333
 Alpha virt. eigenvalues --    0.16476   0.16730   0.17058   0.17169   0.17349
 Alpha virt. eigenvalues --    0.18091   0.18734   0.19204   0.19320   0.19525
 Alpha virt. eigenvalues --    0.19756   0.20272   0.20819   0.21175   0.21203
 Alpha virt. eigenvalues --    0.21730   0.22095   0.22510   0.22871   0.23218
 Alpha virt. eigenvalues --    0.23475   0.23893   0.24248   0.24279   0.25042
 Alpha virt. eigenvalues --    0.25379   0.25423   0.26148   0.26555   0.26692
 Alpha virt. eigenvalues --    0.27307   0.27480   0.27900   0.28242   0.28903
 Alpha virt. eigenvalues --    0.29043   0.29394   0.29847   0.30546   0.30946
 Alpha virt. eigenvalues --    0.31189   0.31867   0.31996   0.32590   0.33259
 Alpha virt. eigenvalues --    0.35636   0.39134   0.40225   0.40655   0.42865
 Alpha virt. eigenvalues --    0.43543   0.43919   0.44447   0.44719   0.45440
 Alpha virt. eigenvalues --    0.45952   0.46349   0.46483   0.46660   0.47267
 Alpha virt. eigenvalues --    0.47748   0.48216   0.49159   0.49539   0.49703
 Alpha virt. eigenvalues --    0.50755   0.51191   0.51700   0.51939   0.52325
 Alpha virt. eigenvalues --    0.54328   0.55443   0.56395   0.56795   0.57266
 Alpha virt. eigenvalues --    0.57483   0.58216   0.58541   0.59788   0.60209
 Alpha virt. eigenvalues --    0.60517   0.60733   0.62054   0.62602   0.62808
 Alpha virt. eigenvalues --    0.62893   0.63507   0.63973   0.64684   0.65403
 Alpha virt. eigenvalues --    0.67202   0.67643   0.67893   0.68171   0.68516
 Alpha virt. eigenvalues --    0.68966   0.69520   0.71706   0.76641   0.77630
 Alpha virt. eigenvalues --    0.78388   0.79890   0.80040   0.81362   0.82179
 Alpha virt. eigenvalues --    0.82363   0.83005   0.83330   0.83460   0.83978
 Alpha virt. eigenvalues --    0.84169   0.84398   0.84405   0.85137   0.85290
 Alpha virt. eigenvalues --    0.85620   0.86055   0.86394   0.86642   0.87188
 Alpha virt. eigenvalues --    0.88439   0.88981   0.89504   0.89723   0.90325
 Alpha virt. eigenvalues --    0.90410   0.91359   0.91911   0.92221   0.93199
 Alpha virt. eigenvalues --    0.94301   0.94681   0.95004   0.95322   0.96048
 Alpha virt. eigenvalues --    0.96668   0.97011   0.97414   0.97587   0.98196
 Alpha virt. eigenvalues --    0.98897   0.99724   1.00934   1.01516   1.02505
 Alpha virt. eigenvalues --    1.03306   1.04144   1.05483   1.06164   1.06736
 Alpha virt. eigenvalues --    1.10665   1.14025   1.15083   1.17463   1.18981
 Alpha virt. eigenvalues --    1.20458   1.21324   1.22038   1.22938   1.24162
 Alpha virt. eigenvalues --    1.24963   1.25390   1.26864   1.28557   1.29236
 Alpha virt. eigenvalues --    1.29504   1.29863   1.30145   1.30926   1.33889
 Alpha virt. eigenvalues --    1.35238   1.35378   1.37191   1.38423   1.43424
 Alpha virt. eigenvalues --    1.45346   1.47608   1.48042   1.48871   1.51107
 Alpha virt. eigenvalues --    1.55017   1.56582   1.57858   1.58937   1.62293
 Alpha virt. eigenvalues --    1.62514   1.63480   1.66403   1.67391   1.71893
 Alpha virt. eigenvalues --    1.73906   1.74794   1.76918   1.78651   1.79474
 Alpha virt. eigenvalues --    1.81500   1.82072   1.83723   1.84538   1.85080
 Alpha virt. eigenvalues --    1.86647   1.87510   1.91952   1.92912   1.93387
 Alpha virt. eigenvalues --    1.96300   1.96753   1.98696   2.00233   2.03686
 Alpha virt. eigenvalues --    2.04767   2.08205   2.11534   2.12411   2.18152
 Alpha virt. eigenvalues --    2.20678   2.22610   2.22903   2.24079   2.24304
 Alpha virt. eigenvalues --    2.25871   2.27036   2.27148   2.28732   2.30489
 Alpha virt. eigenvalues --    2.31896   2.31997   2.32686   2.34061   2.36007
 Alpha virt. eigenvalues --    2.39906   2.40733   2.41278   2.42667   2.43100
 Alpha virt. eigenvalues --    2.46055   2.46465   2.47417   2.50209   2.50703
 Alpha virt. eigenvalues --    2.52006   2.53922   2.55166   2.56025   2.57466
 Alpha virt. eigenvalues --    2.60424   2.63629   2.65636   2.66801   2.67456
 Alpha virt. eigenvalues --    2.68911   2.69336   2.70411   2.71281   2.74773
 Alpha virt. eigenvalues --    2.74862   2.76055   2.76338   2.79850   2.81590
 Alpha virt. eigenvalues --    2.81921   2.82991   2.88333   2.96093   2.96172
 Alpha virt. eigenvalues --    3.05666   3.08166   3.08660   3.09790   3.11561
 Alpha virt. eigenvalues --    3.12192   3.14402   3.18542   3.21496   3.22864
 Alpha virt. eigenvalues --    3.25726   3.27609   3.37028   3.39591   3.42049
 Alpha virt. eigenvalues --    3.49795   3.61127   3.63526   3.68639   3.75058
 Alpha virt. eigenvalues --    3.84524   3.89616   3.97806   4.03081   4.04205
 Alpha virt. eigenvalues --    4.32529   4.80244   4.80642   9.75677   9.77822
 Alpha virt. eigenvalues --    9.79368   9.80753   9.81113   9.85964   9.86495
 Alpha virt. eigenvalues --   23.32210  23.47903  23.81527  23.82392  23.84160
 Alpha virt. eigenvalues --   23.89108  23.93393  23.94384  23.98098  24.06167
 Alpha virt. eigenvalues --   24.09338  24.12411  25.77101  25.78549  25.81939
 Alpha virt. eigenvalues --   25.85366  25.95726  25.96287  26.00827  26.09087
 Alpha virt. eigenvalues --   26.13315  26.15654  26.22707  26.30606  26.34997
 Alpha virt. eigenvalues --   26.39564  26.50950  26.58691  26.67088  26.69324
 Alpha virt. eigenvalues --   26.74381  26.86747  27.14791 215.74842 215.77198
 Alpha virt. eigenvalues --  215.78978 215.80674 215.81130 215.87092 215.87979
          Condensed to atoms (all electrons):
               1          2          3          4          5          6
     1  C   25.159257  -4.665225  -6.122125  -1.477130  -7.111040   3.113811
     2  C   -4.665225  27.675195  -4.962568  -0.663796   4.589363  -3.958872
     3  C   -6.122125  -4.962568  18.220183   3.596619  -0.124497   3.486705
     4  C   -1.477130  -0.663796   3.596619  17.473987  -2.814695  -9.050458
     5  C   -7.111040   4.589363  -0.124497  -2.814695  23.563575  -3.469888
     6  C    3.113811  -3.958872   3.486705  -9.050458  -3.469888  27.318435
     7  C   12.285461  -0.913780  -4.737390  -1.487862  -3.724615  -0.144254
     8  C   -3.591318  -4.551866  -1.041621   0.399480  -2.461279  -3.115731
     9  C   -5.592984  -1.293837   0.154460   0.178737  -0.670059  -1.193811
    10  C   -1.305057   0.017791   0.079414   0.066324  -0.154904  -0.046575
    11  C   -3.343674  -1.972634  -0.557413  -0.094969  -0.397162  -2.019719
    12  C   -0.548404  -2.953502  -1.113201   0.305543  -2.460715  -1.752027
    13  H    0.059194   0.050019   0.310761  -0.016538  -0.035108  -0.012636
    14  H    0.044731   0.000183  -0.098882   0.335439  -0.001910   0.063119
    15  H    0.021477  -0.000092  -0.000323   0.000104  -0.000630   0.001515
    16  Cl  -0.583773   0.387929   0.006412  -0.164538   0.248656   0.224641
    17  Cl   0.097875  -0.660252   0.337430   0.780846  -0.300259  -2.134593
    18  Cl  -0.146675  -0.063968  -0.005937  -0.000649  -0.002209  -0.069242
    19  Cl  -0.754964   0.134690   0.175018  -0.474480  -0.340259   0.949410
    20  Cl  -0.014691  -0.039214  -0.004063  -0.000314  -0.003017  -0.036388
    21  Cl   0.325631   0.352258  -0.151332  -0.140895   0.203308   0.158600
    22  Cl   0.304282  -0.198539  -1.111359  -0.203242   0.231575  -0.706283
               7          8          9         10         11         12
     1  C   12.285461  -3.591318  -5.592984  -1.305057  -3.343674  -0.548404
     2  C   -0.913780  -4.551866  -1.293837   0.017791  -1.972634  -2.953502
     3  C   -4.737390  -1.041621   0.154460   0.079414  -0.557413  -1.113201
     4  C   -1.487862   0.399480   0.178737   0.066324  -0.094969   0.305543
     5  C   -3.724615  -2.461279  -0.670059  -0.154904  -0.397162  -2.460715
     6  C   -0.144254  -3.115731  -1.193811  -0.046575  -2.019719  -1.752027
     7  C   32.709822 -11.922048 -10.742808   0.643335  -6.255268   0.964749
     8  C  -11.922048  39.714363  -3.683589  -6.437990   7.553251  -4.339196
     9  C  -10.742808  -3.683589  32.056237   4.141569 -11.590717   5.684927
    10  C    0.643335  -6.437990   4.141569  23.835757  -8.807884  -4.834973
    11  C   -6.255268   7.553251 -11.590717  -8.807884  34.472830  -2.632398
    12  C    0.964749  -4.339196   5.684927  -4.834973  -2.632398  23.830454
    13  H    0.005751  -0.002944  -0.000486   0.000103  -0.000706   0.000915
    14  H    0.006128   0.000815   0.000009   0.000044   0.000037   0.001224
    15  H    0.153962   0.005503   0.100064   0.034668   0.056646  -0.015809
    16  Cl  -0.434118  -0.099263   0.903992   0.736904  -0.765416  -2.305896
    17  Cl   0.216062   0.139569  -0.163072  -0.038306   0.127293   0.105036
    18  Cl  -1.062080   0.631425   0.124277  -0.750740   0.125948   0.602224
    19  Cl  -0.150778  -0.057500  -0.005239  -0.001411  -0.004562  -0.074741
    20  Cl   0.011654  -0.483166   0.011820  -0.455976   0.443550  -0.144071
    21  Cl   0.146555  -0.201692  -1.570094  -0.726835   0.794733  -0.570565
    22  Cl   0.708048   0.078782  -0.269415  -0.047141   0.113573  -0.032702
              13         14         15         16         17         18
     1  C    0.059194   0.044731   0.021477  -0.583773   0.097875  -0.146675
     2  C    0.050019   0.000183  -0.000092   0.387929  -0.660252  -0.063968
     3  C    0.310761  -0.098882  -0.000323   0.006412   0.337430  -0.005937
     4  C   -0.016538   0.335439   0.000104  -0.164538   0.780846  -0.000649
     5  C   -0.035108  -0.001910  -0.000630   0.248656  -0.300259  -0.002209
     6  C   -0.012636   0.063119   0.001515   0.224641  -2.134593  -0.069242
     7  C    0.005751   0.006128   0.153962  -0.434118   0.216062  -1.062080
     8  C   -0.002944   0.000815   0.005503  -0.099263   0.139569   0.631425
     9  C   -0.000486   0.000009   0.100064   0.903992  -0.163072   0.124277
    10  C    0.000103   0.000044   0.034668   0.736904  -0.038306  -0.750740
    11  C   -0.000706   0.000037   0.056646  -0.765416   0.127293   0.125948
    12  C    0.000915   0.001224  -0.015809  -2.305896   0.105036   0.602224
    13  H    0.503799  -0.007419   0.000000  -0.000964   0.000640  -0.000001
    14  H   -0.007419   0.500427  -0.000000  -0.000507  -0.001601   0.000000
    15  H    0.000000  -0.000000   0.490039   0.000500  -0.000587  -0.000703
    16  Cl  -0.000964  -0.000507   0.000500  18.664557   0.048529  -0.393595
    17  Cl   0.000640  -0.001601  -0.000587   0.048529  18.202114   0.001351
    18  Cl  -0.000001   0.000000  -0.000703  -0.393595   0.001351  17.585250
    19  Cl  -0.000204  -0.001563  -0.000006   0.005471  -0.268931   0.000114
    20  Cl  -0.000001   0.000000  -0.007825  -0.015613   0.007334  -0.188993
    21  Cl  -0.000835  -0.000415  -0.010343  -0.083477   0.061758   0.006529
    22  Cl  -0.009546   0.000046  -0.000625   0.059907  -0.093410   0.000519
              19         20         21         22
     1  C   -0.754964  -0.014691   0.325631   0.304282
     2  C    0.134690  -0.039214   0.352258  -0.198539
     3  C    0.175018  -0.004063  -0.151332  -1.111359
     4  C   -0.474480  -0.000314  -0.140895  -0.203242
     5  C   -0.340259  -0.003017   0.203308   0.231575
     6  C    0.949410  -0.036388   0.158600  -0.706283
     7  C   -0.150778   0.011654   0.146555   0.708048
     8  C   -0.057500  -0.483166  -0.201692   0.078782
     9  C   -0.005239   0.011820  -1.570094  -0.269415
    10  C   -0.001411  -0.455976  -0.726835  -0.047141
    11  C   -0.004562   0.443550   0.794733   0.113573
    12  C   -0.074741  -0.144071  -0.570565  -0.032702
    13  H   -0.000204  -0.000001  -0.000835  -0.009546
    14  H   -0.001563   0.000000  -0.000415   0.000046
    15  H   -0.000006  -0.007825  -0.010343  -0.000625
    16  Cl   0.005471  -0.015613  -0.083477   0.059907
    17  Cl  -0.268931   0.007334   0.061758  -0.093410
    18  Cl   0.000114  -0.188993   0.006529   0.000519
    19  Cl  17.385515   0.000007   0.002072  -0.007240
    20  Cl   0.000007  17.424000  -0.047796   0.006487
    21  Cl   0.002072  -0.047796  17.999869   0.065438
    22  Cl  -0.007240   0.006487   0.065438  17.696433
 Mulliken charges:
               1
     1  C   -0.154657
     2  C   -0.309284
     3  C   -0.336290
     4  C   -0.547514
     5  C    1.235767
     6  C   -1.605758
     7  C   -0.276525
     8  C   -0.533987
     9  C   -0.579982
    10  C    0.051883
    11  C    0.754660
    12  C   -1.716871
    13  H    0.156206
    14  H    0.160096
    15  H    0.172467
    16  Cl   0.559660
    17  Cl   0.535173
    18  Cl   0.607154
    19  Cl   0.489582
    20  Cl   0.536277
    21  Cl   0.387529
    22  Cl   0.414412
 Sum of Mulliken charges =  -0.00000
 Mulliken charges with hydrogens summed into heavy atoms:
               1
     1  C   -0.154657
     2  C   -0.309284
     3  C   -0.180085
     4  C   -0.387418
     5  C    1.235767
     6  C   -1.605758
     7  C   -0.276525
     8  C   -0.533987
     9  C   -0.407515
    10  C    0.051883
    11  C    0.754660
    12  C   -1.716871
    16  Cl   0.559660
    17  Cl   0.535173
    18  Cl   0.607154
    19  Cl   0.489582
    20  Cl   0.536277
    21  Cl   0.387529
    22  Cl   0.414412
 Electronic spatial extent (au):  <R**2>=           8235.1440
 Charge=              0.0000 electrons
 Dipole moment (field-independent basis, Debye):
    X=              1.2622    Y=              1.1433    Z=             -0.7571  Tot=              1.8638
 Quadrupole moment (field-independent basis, Debye-Ang):
   XX=           -150.2653   YY=           -157.5809   ZZ=           -155.7204
   XY=              0.2944   XZ=             -8.2878   YZ=              0.5660
 Traceless Quadrupole moment (field-independent basis, Debye-Ang):
   XX=              4.2569   YY=             -3.0587   ZZ=             -1.1982
   XY=              0.2944   XZ=             -8.2878   YZ=              0.5660
 Octapole moment (field-independent basis, Debye-Ang**2):
  XXX=             31.1177  YYY=            -11.1108  ZZZ=              3.0968  XYY=            -10.9186
  XXY=             14.1500  XXZ=            -24.2362  XZZ=              3.1756  YZZ=             -0.6852
  YYZ=              3.4791  XYZ=             -8.5071
 Hexadecapole moment (field-independent basis, Debye-Ang**3):
 XXXX=          -6793.1043 YYYY=          -1961.8377 ZZZZ=          -1819.4166 XXXY=             38.1393
 XXXZ=            -96.6477 YYYX=              5.1488 YYYZ=             27.9124 ZZZX=             12.8364
 ZZZY=            -18.7460 XXYY=          -1477.5729 XXZZ=          -1420.4263 YYZZ=           -611.0316
 XXYZ=             -7.2567 YYXZ=             11.9784 ZZXY=              1.0783
 N-N= 2.423775602211D+03 E-N=-1.356908930431D+04  KE= 3.671260447554D+03
 1\1\GINC-CN075\FOpt\RB3LYP\6-311+G(d,p)\C12H3Cl7\20CY91R06\25-Mar-2022
 \0\\# opt b3lyp/6-311+g(d,p) scf=xqc\\Title Card Required\\0,1\C,0.560
 7450455,1.0716583041,0.0304734813\C,1.8647391439,1.1196625368,0.533815
 1757\C,2.5916841694,2.3040894583,0.5649730789\C,2.0160812256,3.4711826
 551,0.0846294448\C,0.7214560487,3.4581171782,-0.4263947269\C,-0.003961
 9859,2.2631355569,-0.4546848554\C,-0.20481773,-0.2073459019,-0.0025379
 252\C,-0.1383599177,-1.0627912624,-1.1062701723\C,-0.8404753102,-2.258
 2676076,-1.1503863613\C,-1.6336322323,-2.6247844045,-0.0707230824\C,-1
 .7305819335,-1.8031006961,1.0588547648\C,-1.0096940116,-0.6002361809,1
 .0764189349\H,3.5983124245,2.3105625454,0.9610274436\H,2.5693355536,4.
 4011307144,0.102201538\H,-0.7731371691,-2.9023536275,-2.0155111716\Cl,
 -1.1057179968,0.4424003154,2.4692733665\Cl,-1.6242039499,2.2323039079,
 -1.0965099333\Cl,-2.7205768811,-2.2669317086,2.4063925649\Cl,0.0417830
 588,4.9507648835,-1.0221687361\Cl,-2.5007372458,-4.1340167267,-0.16426
 34832\Cl,0.8528517359,-0.6382396979,-2.4840053052\Cl,2.6186609882,-0.3
 396620418,1.1428553792\\Version=EM64L-G16RevB.01\State=1-A\HF=-3680.74
 81245\RMSD=3.386e-09\RMSF=4.661e-05\Dipole=0.6936961,0.2147261,-0.1017
 852\Quadrupole=1.88654,0.6074946,-2.4940346,5.0748773,1.5205262,3.6114
 791\PG=C01 [X(C12H3Cl7)]\\@


 WHEN ALL ELSE FAILS, TRY THE BOSS'S SUGGESTION.
 Job cpu time:       1 days  1 hours  9 minutes 23.1 seconds.
 Elapsed time:       0 days  6 hours 24 minutes 38.4 seconds.
 File lengths (MBytes):  RWF=    175 Int=      0 D2E=      0 Chk=     25 Scr=      1
 Normal termination of Gaussian 16 at Fri Mar 25 05:20:24 2022.
