 Entering Gaussian System, Link 0=g16
 Input=2,2prime,3-Trichlorobiphenyl.gjf
 Output=2,2prime,3-Trichlorobiphenyl.log
 Initial command:
 /usr/local/g16/l1.exe "/scratch/pkc/Gau-2495.inp" -scrdir="/scratch/pkc/"
 Entering Link 1 = /usr/local/g16/l1.exe PID=      2496.
  
 Copyright (c) 1988-2017, Gaussian, Inc.  All Rights Reserved.
  
 This is part of the Gaussian(R) 16 program.  It is based on
 the Gaussian(R) 09 system (copyright 2009, Gaussian, Inc.),
 the Gaussian(R) 03 system (copyright 2003, Gaussian, Inc.),
 the Gaussian(R) 98 system (copyright 1998, Gaussian, Inc.),
 the Gaussian(R) 94 system (copyright 1995, Gaussian, Inc.),
 the Gaussian 92(TM) system (copyright 1992, Gaussian, Inc.),
 the Gaussian 90(TM) system (copyright 1990, Gaussian, Inc.),
 the Gaussian 88(TM) system (copyright 1988, Gaussian, Inc.),
 the Gaussian 86(TM) system (copyright 1986, Carnegie Mellon
 University), and the Gaussian 82(TM) system (copyright 1983,
 Carnegie Mellon University). Gaussian is a federally registered
 trademark of Gaussian, Inc.
  
 This software contains proprietary and confidential information,
 including trade secrets, belonging to Gaussian, Inc.
  
 This software is provided under written license and may be
 used, copied, transmitted, or stored only in accord with that
 written license.
  
 The following legend is applicable only to US Government
 contracts under FAR:
  
                    RESTRICTED RIGHTS LEGEND
  
 Use, reproduction and disclosure by the US Government is
 subject to restrictions as set forth in subparagraphs (a)
 and (c) of the Commercial Computer Software - Restricted
 Rights clause in FAR 52.227-19.
  
 Gaussian, Inc.
 340 Quinnipiac St., Bldg. 40, Wallingford CT 06492
  
  
 ---------------------------------------------------------------
 Warning -- This program may not be used in any manner that
 competes with the business of Gaussian, Inc. or will provide
 assistance to any competitor of Gaussian, Inc.  The licensee
 of this program is prohibited from giving any competitor of
 Gaussian, Inc. access to this program.  By using this program,
 the user acknowledges that Gaussian, Inc. is engaged in the
 business of creating and licensing software in the field of
 computational chemistry and represents and warrants to the
 licensee that it is not a competitor of Gaussian, Inc. and that
 it will not use this program in any manner prohibited above.
 ---------------------------------------------------------------
  

 Cite this work as:
 Gaussian 16, Revision B.01,
 M. J. Frisch, G. W. Trucks, H. B. Schlegel, G. E. Scuseria, 
 M. A. Robb, J. R. Cheeseman, G. Scalmani, V. Barone, 
 G. A. Petersson, H. Nakatsuji, X. Li, M. Caricato, A. V. Marenich, 
 J. Bloino, B. G. Janesko, R. Gomperts, B. Mennucci, H. P. Hratchian, 
 J. V. Ortiz, A. F. Izmaylov, J. L. Sonnenberg, D. Williams-Young, 
 F. Ding, F. Lipparini, F. Egidi, J. Goings, B. Peng, A. Petrone, 
 T. Henderson, D. Ranasinghe, V. G. Zakrzewski, J. Gao, N. Rega, 
 G. Zheng, W. Liang, M. Hada, M. Ehara, K. Toyota, R. Fukuda, 
 J. Hasegawa, M. Ishida, T. Nakajima, Y. Honda, O. Kitao, H. Nakai, 
 T. Vreven, K. Throssell, J. A. Montgomery, Jr., J. E. Peralta, 
 F. Ogliaro, M. J. Bearpark, J. J. Heyd, E. N. Brothers, K. N. Kudin, 
 V. N. Staroverov, T. A. Keith, R. Kobayashi, J. Normand, 
 K. Raghavachari, A. P. Rendell, J. C. Burant, S. S. Iyengar, 
 J. Tomasi, M. Cossi, J. M. Millam, M. Klene, C. Adamo, R. Cammi, 
 J. W. Ochterski, R. L. Martin, K. Morokuma, O. Farkas, 
 J. B. Foresman, and D. J. Fox, Gaussian, Inc., Wallingford CT, 2016.
 
 ******************************************
 Gaussian 16:  EM64L-G16RevB.01 20-Dec-2017
                14-Mar-2022 
 ******************************************
 %mem=10GB
 %nprocshared=4
 Will use up to    4 processors via shared memory.
 --------------------------------
 # opt b3lyp/6-311+g(d,p) scf=xqc
 --------------------------------
 1/18=20,19=15,26=3,38=1/1,3;
 2/9=110,12=2,17=6,18=5,40=1/2;
 3/5=4,6=6,7=111,11=2,25=1,30=1,71=1,74=-5/1,2,3;
 4//1;
 5/5=2,8=3,13=1,38=5/2,8;
 6/7=2,8=2,9=2,10=2,28=1/1;
 7//1,2,3,16;
 1/18=20,19=15,26=3/3(2);
 2/9=110/2;
 99//99;
 2/9=110/2;
 3/5=4,6=6,7=111,11=2,25=1,30=1,71=1,74=-5/1,2,3;
 4/5=5,16=3,69=1/1;
 5/5=2,8=3,13=1,38=5/2,8;
 7//1,2,3,16;
 1/18=20,19=15,26=3/3(-5);
 2/9=110/2;
 6/7=2,8=2,9=2,10=2,19=2,28=1/1;
 99/9=1/99;
 -------------------
 Title Card Required
 -------------------
 Symbolic Z-matrix:
 Charge =  0 Multiplicity = 1
 C                    -5.14862  -2.30836   0.42176 
 C                    -3.81624  -2.27848  -0.01159 
 C                    -3.10835  -1.06903  -0.01766 
 C                    -3.73284   0.11054   0.40962 
 C                    -5.06522   0.08065   0.84296 
 C                    -5.77311  -1.1288    0.84903 
 C                    -5.92653  -3.63743   0.42843 
 C                    -5.30204  -4.817     0.00116 
 C                    -6.00993  -6.02645   0.00723 
 C                    -7.34231  -6.05633   0.44058 
 C                    -7.9668   -4.87677   0.86786 
 C                    -7.25891  -3.66732   0.86178 
 H                    -3.33943  -3.1791   -0.33782 
 H                    -2.09105  -1.04621  -0.34853 
 H                    -3.19234   1.03398   0.40498 
 H                    -4.28474  -4.79418  -0.32971 
 H                    -5.53312  -6.92707  -0.319 
 H                    -7.88281  -6.97978   0.44522 
 H                    -8.9841   -4.89959   1.19873 
 Cl                   -7.44643  -1.16633   1.39327 
 Cl                   -8.04319  -2.18592   1.3984 
 Cl                   -5.84951   1.56205   1.37957 
 

 GradGradGradGradGradGradGradGradGradGradGradGradGradGradGradGradGradGrad
 Berny optimization.
 Initialization pass.
                           ----------------------------
                           !    Initial Parameters    !
                           ! (Angstroms and Degrees)  !
 --------------------------                            --------------------------
 ! Name  Definition              Value          Derivative Info.                !
 --------------------------------------------------------------------------------
 ! R1    R(1,2)                  1.4014         estimate D2E/DX2                !
 ! R2    R(1,6)                  1.4014         estimate D2E/DX2                !
 ! R3    R(1,7)                  1.54           estimate D2E/DX2                !
 ! R4    R(2,3)                  1.4014         estimate D2E/DX2                !
 ! R5    R(2,13)                 1.07           estimate D2E/DX2                !
 ! R6    R(3,4)                  1.4014         estimate D2E/DX2                !
 ! R7    R(3,14)                 1.07           estimate D2E/DX2                !
 ! R8    R(4,5)                  1.4014         estimate D2E/DX2                !
 ! R9    R(4,15)                 1.07           estimate D2E/DX2                !
 ! R10   R(5,6)                  1.4014         estimate D2E/DX2                !
 ! R11   R(5,22)                 1.76           estimate D2E/DX2                !
 ! R12   R(6,20)                 1.76           estimate D2E/DX2                !
 ! R13   R(7,8)                  1.4014         estimate D2E/DX2                !
 ! R14   R(7,12)                 1.4014         estimate D2E/DX2                !
 ! R15   R(8,9)                  1.4014         estimate D2E/DX2                !
 ! R16   R(8,16)                 1.07           estimate D2E/DX2                !
 ! R17   R(9,10)                 1.4014         estimate D2E/DX2                !
 ! R18   R(9,17)                 1.07           estimate D2E/DX2                !
 ! R19   R(10,11)                1.4014         estimate D2E/DX2                !
 ! R20   R(10,18)                1.07           estimate D2E/DX2                !
 ! R21   R(11,12)                1.4014         estimate D2E/DX2                !
 ! R22   R(11,19)                1.07           estimate D2E/DX2                !
 ! R23   R(12,21)                1.76           estimate D2E/DX2                !
 ! R24   R(20,21)                1.1814         estimate D2E/DX2                !
 ! A1    A(2,1,6)              120.0            estimate D2E/DX2                !
 ! A2    A(2,1,7)              120.0            estimate D2E/DX2                !
 ! A3    A(6,1,7)              120.0            estimate D2E/DX2                !
 ! A4    A(1,2,3)              120.0            estimate D2E/DX2                !
 ! A5    A(1,2,13)             120.0            estimate D2E/DX2                !
 ! A6    A(3,2,13)             120.0            estimate D2E/DX2                !
 ! A7    A(2,3,4)              120.0            estimate D2E/DX2                !
 ! A8    A(2,3,14)             120.0            estimate D2E/DX2                !
 ! A9    A(4,3,14)             120.0            estimate D2E/DX2                !
 ! A10   A(3,4,5)              120.0            estimate D2E/DX2                !
 ! A11   A(3,4,15)             120.0            estimate D2E/DX2                !
 ! A12   A(5,4,15)             120.0            estimate D2E/DX2                !
 ! A13   A(4,5,6)              120.0            estimate D2E/DX2                !
 ! A14   A(4,5,22)             120.0            estimate D2E/DX2                !
 ! A15   A(6,5,22)             120.0            estimate D2E/DX2                !
 ! A16   A(1,6,5)              120.0            estimate D2E/DX2                !
 ! A17   A(1,6,20)             120.0            estimate D2E/DX2                !
 ! A18   A(5,6,20)             120.0            estimate D2E/DX2                !
 ! A19   A(1,7,8)              120.0            estimate D2E/DX2                !
 ! A20   A(1,7,12)             120.0            estimate D2E/DX2                !
 ! A21   A(8,7,12)             120.0            estimate D2E/DX2                !
 ! A22   A(7,8,9)              120.0            estimate D2E/DX2                !
 ! A23   A(7,8,16)             120.0            estimate D2E/DX2                !
 ! A24   A(9,8,16)             120.0            estimate D2E/DX2                !
 ! A25   A(8,9,10)             120.0            estimate D2E/DX2                !
 ! A26   A(8,9,17)             120.0            estimate D2E/DX2                !
 ! A27   A(10,9,17)            120.0            estimate D2E/DX2                !
 ! A28   A(9,10,11)            120.0            estimate D2E/DX2                !
 ! A29   A(9,10,18)            120.0            estimate D2E/DX2                !
 ! A30   A(11,10,18)           120.0            estimate D2E/DX2                !
 ! A31   A(10,11,12)           120.0            estimate D2E/DX2                !
 ! A32   A(10,11,19)           120.0            estimate D2E/DX2                !
 ! A33   A(12,11,19)           120.0            estimate D2E/DX2                !
 ! A34   A(7,12,11)            120.0            estimate D2E/DX2                !
 ! A35   A(7,12,21)            120.0            estimate D2E/DX2                !
 ! A36   A(11,12,21)           120.0            estimate D2E/DX2                !
 ! A37   A(6,20,21)            120.0            estimate D2E/DX2                !
 ! A38   A(12,21,20)           120.0            estimate D2E/DX2                !
 ! D1    D(6,1,2,3)              0.0001         estimate D2E/DX2                !
 ! D2    D(6,1,2,13)           180.0            estimate D2E/DX2                !
 ! D3    D(7,1,2,3)           -180.0            estimate D2E/DX2                !
 ! D4    D(7,1,2,13)            -0.0001         estimate D2E/DX2                !
 ! D5    D(2,1,6,5)             -0.0001         estimate D2E/DX2                !
 ! D6    D(2,1,6,20)           180.0            estimate D2E/DX2                !
 ! D7    D(7,1,6,5)            180.0            estimate D2E/DX2                !
 ! D8    D(7,1,6,20)             0.0            estimate D2E/DX2                !
 ! D9    D(2,1,7,8)             -0.0001         estimate D2E/DX2                !
 ! D10   D(2,1,7,12)           179.9998         estimate D2E/DX2                !
 ! D11   D(6,1,7,8)            179.9999         estimate D2E/DX2                !
 ! D12   D(6,1,7,12)            -0.0002         estimate D2E/DX2                !
 ! D13   D(1,2,3,4)              0.0            estimate D2E/DX2                !
 ! D14   D(1,2,3,14)           180.0            estimate D2E/DX2                !
 ! D15   D(13,2,3,4)          -179.9999         estimate D2E/DX2                !
 ! D16   D(13,2,3,14)            0.0001         estimate D2E/DX2                !
 ! D17   D(2,3,4,5)             -0.0001         estimate D2E/DX2                !
 ! D18   D(2,3,4,15)           180.0            estimate D2E/DX2                !
 ! D19   D(14,3,4,5)           179.9999         estimate D2E/DX2                !
 ! D20   D(14,3,4,15)            0.0            estimate D2E/DX2                !
 ! D21   D(3,4,5,6)              0.0001         estimate D2E/DX2                !
 ! D22   D(3,4,5,22)          -179.9999         estimate D2E/DX2                !
 ! D23   D(15,4,5,6)          -180.0            estimate D2E/DX2                !
 ! D24   D(15,4,5,22)            0.0            estimate D2E/DX2                !
 ! D25   D(4,5,6,1)              0.0            estimate D2E/DX2                !
 ! D26   D(4,5,6,20)           179.9999         estimate D2E/DX2                !
 ! D27   D(22,5,6,1)           180.0            estimate D2E/DX2                !
 ! D28   D(22,5,6,20)           -0.0001         estimate D2E/DX2                !
 ! D29   D(1,6,20,21)            0.0006         estimate D2E/DX2                !
 ! D30   D(5,6,20,21)         -179.9994         estimate D2E/DX2                !
 ! D31   D(1,7,8,9)            179.9999         estimate D2E/DX2                !
 ! D32   D(1,7,8,16)             0.0001         estimate D2E/DX2                !
 ! D33   D(12,7,8,9)             0.0001         estimate D2E/DX2                !
 ! D34   D(12,7,8,16)         -179.9998         estimate D2E/DX2                !
 ! D35   D(1,7,12,11)         -179.9999         estimate D2E/DX2                !
 ! D36   D(1,7,12,21)            0.0            estimate D2E/DX2                !
 ! D37   D(8,7,12,11)           -0.0001         estimate D2E/DX2                !
 ! D38   D(8,7,12,21)          179.9999         estimate D2E/DX2                !
 ! D39   D(7,8,9,10)             0.0            estimate D2E/DX2                !
 ! D40   D(7,8,9,17)           180.0            estimate D2E/DX2                !
 ! D41   D(16,8,9,10)          179.9998         estimate D2E/DX2                !
 ! D42   D(16,8,9,17)           -0.0002         estimate D2E/DX2                !
 ! D43   D(8,9,10,11)            0.0            estimate D2E/DX2                !
 ! D44   D(8,9,10,18)         -179.9999         estimate D2E/DX2                !
 ! D45   D(17,9,10,11)         180.0            estimate D2E/DX2                !
 ! D46   D(17,9,10,18)           0.0001         estimate D2E/DX2                !
 ! D47   D(9,10,11,12)           0.0            estimate D2E/DX2                !
 ! D48   D(9,10,11,19)        -179.9998         estimate D2E/DX2                !
 ! D49   D(18,10,11,12)        179.9999         estimate D2E/DX2                !
 ! D50   D(18,10,11,19)          0.0001         estimate D2E/DX2                !
 ! D51   D(10,11,12,7)           0.0            estimate D2E/DX2                !
 ! D52   D(10,11,12,21)       -179.9999         estimate D2E/DX2                !
 ! D53   D(19,11,12,7)         179.9999         estimate D2E/DX2                !
 ! D54   D(19,11,12,21)         -0.0001         estimate D2E/DX2                !
 ! D55   D(7,12,21,20)           0.0005         estimate D2E/DX2                !
 ! D56   D(11,12,21,20)       -179.9995         estimate D2E/DX2                !
 ! D57   D(6,20,21,12)          -0.0008         estimate D2E/DX2                !
 --------------------------------------------------------------------------------
 Trust Radius=3.00D-01 FncErr=1.00D-07 GrdErr=1.00D-06 EigMax=2.50D+02 EigMin=1.00D-04
 Number of steps in this run=    129 maximum allowed number of steps=    132.
 GradGradGradGradGradGradGradGradGradGradGradGradGradGradGradGradGradGrad

                          Input orientation:                          
 ---------------------------------------------------------------------
 Center     Atomic      Atomic             Coordinates (Angstroms)
 Number     Number       Type             X           Y           Z
 ---------------------------------------------------------------------
      1          6           0       -5.148624   -2.308365    0.421760
      2          6           0       -3.816243   -2.278479   -0.011587
      3          6           0       -3.108350   -1.069028   -0.017659
      4          6           0       -3.732837    0.110537    0.409615
      5          6           0       -5.065219    0.080652    0.842960
      6          6           0       -5.773112   -1.128799    0.849033
      7          6           0       -5.926529   -3.637432    0.428433
      8          6           0       -5.302042   -4.816997    0.001158
      9          6           0       -6.009935   -6.026448    0.007233
     10          6           0       -7.342315   -6.056335    0.440583
     11          6           0       -7.966802   -4.876770    0.867858
     12          6           0       -7.258909   -3.667318    0.861784
     13          1           0       -3.339433   -3.179103   -0.337819
     14          1           0       -2.091047   -1.046209   -0.348529
     15          1           0       -3.192344    1.033980    0.404979
     16          1           0       -4.284739   -4.794178   -0.329711
     17          1           0       -5.533125   -6.927072   -0.319001
     18          1           0       -7.882806   -6.979778    0.445222
     19          1           0       -8.984103   -4.899589    1.198733
     20         17           0       -7.446433   -1.166332    1.393266
     21         17           0       -8.043194   -2.185919    1.398395
     22         17           0       -5.849505    1.562053    1.379566
 ---------------------------------------------------------------------
                    Distance matrix (angstroms):
                    1          2          3          4          5
     1  C    0.000000
     2  C    1.401400   0.000000
     3  C    2.427296   1.401400   0.000000
     4  C    2.802800   2.427296   1.401400   0.000000
     5  C    2.427296   2.802800   2.427296   1.401400   0.000000
     6  C    1.401400   2.427296   2.802800   2.427296   1.401400
     7  C    1.540000   2.548270   3.838989   4.342800   3.838989
     8  C    2.548270   2.941400   4.342800   5.187469   4.975106
     9  C    3.838989   4.342800   5.744200   6.558176   6.235992
    10  C    4.342800   5.187469   6.558176   7.145600   6.558176
    11  C    3.838989   4.975106   6.235992   6.558176   5.744200
    12  C    2.548270   3.813607   4.975106   5.187469   4.342800
    13  H    2.146700   1.070000   2.146700   3.396345   3.872800
    14  H    3.396345   2.146700   1.070000   2.146700   3.396345
    15  H    3.872800   3.396345   2.146700   1.070000   2.146700
    16  H    2.736837   2.578650   3.918930   4.990735   5.074276
    17  H    4.693509   4.965039   6.347206   7.300676   7.118798
    18  H    5.412800   6.232802   7.612271   8.215600   7.612271
    19  H    4.693509   5.919617   7.118798   7.300676   6.347206
    20  Cl   2.743718   4.048303   4.562800   4.048303   2.743718
    21  Cl   3.057342   4.456874   5.254079   4.983028   3.783409
    22  Cl   4.048303   4.562800   4.048303   2.743718   1.760000
                    6          7          8          9         10
     6  C    0.000000
     7  C    2.548270   0.000000
     8  C    3.813607   1.401400   0.000000
     9  C    4.975106   2.427296   1.401400   0.000000
    10  C    5.187469   2.802800   2.427296   1.401400   0.000000
    11  C    4.342800   2.427296   2.802800   2.427296   1.401400
    12  C    2.941400   1.401400   2.427296   2.802800   2.427296
    13  H    3.396345   2.736837   2.578650   3.918930   4.990735
    14  H    3.872800   4.693509   4.965039   6.347206   7.300676
    15  H    3.396345   5.412800   6.232802   7.612271   8.215600
    16  H    4.127917   2.146700   1.070000   2.146700   3.396345
    17  H    5.919617   3.396345   2.146700   1.070000   2.146700
    18  H    6.232802   3.872800   3.396345   2.146700   1.070000
    19  H    4.965039   3.396345   3.872800   3.396345   2.146700
    20  Cl   1.760000   3.057342   4.456874   5.254079   4.983028
    21  Cl   2.563702   2.743718   4.048303   4.562800   4.048303
    22  Cl   2.743718   5.286324   6.549198   7.713260   7.819846
                   11         12         13         14         15
    11  C    0.000000
    12  C    1.401400   0.000000
    13  H    5.074276   4.127917   0.000000
    14  H    7.118798   5.919617   2.471400   0.000000
    15  H    7.612271   6.232802   4.280590   2.471400   0.000000
    16  H    3.872800   3.396345   1.871400   4.342800   5.974992
    17  H    3.396345   3.872800   4.342800   6.814200   8.329571
    18  H    2.146700   3.396345   5.974992   8.329571   9.285600
    19  H    1.070000   2.146700   6.097816   8.047159   8.329571
    20  Cl   3.783409   2.563702   4.890332   5.632800   4.890332
    21  Cl   2.743718   1.760000   5.111382   6.307038   5.906383
    22  Cl   6.797295   5.440665   5.632800   4.890332   2.879094
                   16         17         18         19         20
    16  H    0.000000
    17  H    2.471400   0.000000
    18  H    4.280590   2.471400   0.000000
    19  H    4.942800   4.280590   2.471400   0.000000
    20  Cl   5.111382   6.307038   5.906383   4.042212   0.000000
    21  Cl   4.890332   5.632800   4.890332   2.879094   1.181400
    22  Cl   6.765486   8.663168   8.830073   7.184095   3.161400
                   21         22
    21  Cl   0.000000
    22  Cl   4.342800   0.000000
 Stoichiometry    C12H7Cl3
 Framework group  C1[X(C12H7Cl3)]
 Deg. of freedom    60
 Full point group                 C1      NOp   1
 Largest Abelian subgroup         C1      NOp   1
 Largest concise Abelian subgroup C1      NOp   1
                         Standard orientation:                         
 ---------------------------------------------------------------------
 Center     Atomic      Atomic             Coordinates (Angstroms)
 Number     Number       Type             X           Y           Z
 ---------------------------------------------------------------------
      1          6           0       -0.035066    1.068700   -0.000001
      2          6           0       -0.404277    2.420589    0.000001
      3          6           0       -1.759653    2.776787    0.000003
      4          6           0       -2.745818    1.781096    0.000004
      5          6           0       -2.376607    0.429207    0.000000
      6          6           0       -1.021231    0.073009   -0.000001
      7          6           0        1.454358    0.677273   -0.000002
      8          6           0        2.440523    1.672964   -0.000003
      9          6           0        3.795900    1.316765   -0.000003
     10          6           0        4.165111   -0.035124   -0.000001
     11          6           0        3.178946   -1.030815    0.000001
     12          6           0        1.823570   -0.674617    0.000001
     13          1           0        0.348682    3.180821    0.000002
     14          1           0       -2.041554    3.808985    0.000004
     15          1           0       -3.780678    2.053062    0.000006
     16          1           0        2.158622    2.705161   -0.000002
     17          1           0        4.548858    2.076998   -0.000004
     18          1           0        5.199971   -0.307089    0.000001
     19          1           0        3.460847   -2.063013    0.000005
     20         17           0       -0.557543   -1.624812   -0.000004
     21         17           0        0.585058   -1.925092    0.000005
     22         17           0       -3.615119   -0.821268   -0.000002
 ---------------------------------------------------------------------
 Rotational constants (GHZ):           0.8644619           0.3579454           0.2531318
 Standard basis: 6-311+G(d,p) (5D, 7F)
 There are   411 symmetry adapted cartesian basis functions of A   symmetry.
 There are   396 symmetry adapted basis functions of A   symmetry.
   396 basis functions,   647 primitive gaussians,   411 cartesian basis functions
    65 alpha electrons       65 beta electrons
       nuclear repulsion energy      1353.0465648547 Hartrees.
 NAtoms=   22 NActive=   22 NUniq=   22 SFac= 1.00D+00 NAtFMM=   60 NAOKFM=F Big=F
 Integral buffers will be    131072 words long.
 Raffenetti 2 integral format.
 Two-electron integral symmetry is turned on.
 One-electron integrals computed using PRISM.
 NBasis=   396 RedAO= T EigKep=  1.03D-06  NBF=   396
 NBsUse=   392 1.00D-06 EigRej=  5.29D-07 NBFU=   392
 ExpMin= 4.38D-02 ExpMax= 1.06D+05 ExpMxC= 3.62D+03 IAcc=3 IRadAn=         5 AccDes= 0.00D+00
 Harris functional with IExCor=  402 and IRadAn=       5 diagonalized for initial guess.
 HarFok:  IExCor=  402 AccDes= 0.00D+00 IRadAn=         5 IDoV= 1 UseB2=F ITyADJ=14
 ICtDFT=  3500011 ScaDFX=  1.000000  1.000000  1.000000  1.000000
 FoFCou: FMM=F IPFlag=           0 FMFlag=      100000 FMFlg1=           0
         NFxFlg=           0 DoJE=T BraDBF=F KetDBF=T FulRan=T
         wScrn=  0.000000 ICntrl=       500 IOpCl=  0 I1Cent=   200000004 NGrid=           0
         NMat0=    1 NMatS0=      1 NMatT0=    0 NMatD0=    1 NMtDS0=    0 NMtDT0=    0
 Petite list used in FoFCou.
 Requested convergence on RMS density matrix=1.00D-08 within  32 cycles.
 Requested convergence on MAX density matrix=1.00D-06.
 Requested convergence on             energy=1.00D-06.
 No special actions if energy rises.
 Restarting incremental Fock formation.
 SCF Done:  E(RB3LYP) =  -1840.65617414     A.U. after   23 cycles
            NFock= 23  Conv=0.41D-08     -V/T= 1.9986
 QCSCF skips out because SCF is already converged.

 **********************************************************************

            Population analysis using the SCF Density.

 **********************************************************************

 Orbital symmetries:
       Occupied  (A) (A) (A) (A) (A) (A) (A) (A) (A) (A) (A) (A)
                 (A) (A) (A) (A) (A) (A) (A) (A) (A) (A) (A) (A)
                 (A) (A) (A) (A) (A) (A) (A) (A) (A) (A) (A) (A)
                 (A) (A) (A) (A) (A) (A) (A) (A) (A) (A) (A) (A)
                 (A) (A) (A) (A) (A) (A) (A) (A) (A) (A) (A) (A)
                 (A) (A) (A) (A) (A)
       Virtual   (A) (A) (A) (A) (A) (A) (A) (A) (A) (A) (A) (A)
                 (A) (A) (A) (A) (A) (A) (A) (A) (A) (A) (A) (A)
                 (A) (A) (A) (A) (A) (A) (A) (A) (A) (A) (A) (A)
                 (A) (A) (A) (A) (A) (A) (A) (A) (A) (A) (A) (A)
                 (A) (A) (A) (A) (A) (A) (A) (A) (A) (A) (A) (A)
                 (A) (A) (A) (A) (A) (A) (A) (A) (A) (A) (A) (A)
                 (A) (A) (A) (A) (A) (A) (A) (A) (A) (A) (A) (A)
                 (A) (A) (A) (A) (A) (A) (A) (A) (A) (A) (A) (A)
                 (A) (A) (A) (A) (A) (A) (A) (A) (A) (A) (A) (A)
                 (A) (A) (A) (A) (A) (A) (A) (A) (A) (A) (A) (A)
                 (A) (A) (A) (A) (A) (A) (A) (A) (A) (A) (A) (A)
                 (A) (A) (A) (A) (A) (A) (A) (A) (A) (A) (A) (A)
                 (A) (A) (A) (A) (A) (A) (A) (A) (A) (A) (A) (A)
                 (A) (A) (A) (A) (A) (A) (A) (A) (A) (A) (A) (A)
                 (A) (A) (A) (A) (A) (A) (A) (A) (A) (A) (A) (A)
                 (A) (A) (A) (A) (A) (A) (A) (A) (A) (A) (A) (A)
                 (A) (A) (A) (A) (A) (A) (A) (A) (A) (A) (A) (A)
                 (A) (A) (A) (A) (A) (A) (A) (A) (A) (A) (A) (A)
                 (A) (A) (A) (A) (A) (A) (A) (A) (A) (A) (A) (A)
                 (A) (A) (A) (A) (A) (A) (A) (A) (A) (A) (A) (A)
                 (A) (A) (A) (A) (A) (A) (A) (A) (A) (A) (A) (A)
                 (A) (A) (A) (A) (A) (A) (A) (A) (A) (A) (A) (A)
                 (A) (A) (A) (A) (A) (A) (A) (A) (A) (A) (A) (A)
                 (A) (A) (A) (A) (A) (A) (A) (A) (A) (A) (A) (A)
                 (A) (A) (A) (A) (A) (A) (A) (A) (A) (A) (A) (A)
                 (A) (A) (A) (A) (A) (A) (A) (A) (A) (A) (A) (A)
                 (A) (A) (A) (A) (A) (A) (A) (A) (A) (A) (A) (A)
                 (A) (A) (A)
 The electronic state is 1-A.
 Alpha  occ. eigenvalues -- -101.65075-101.64715-101.55339 -10.23717 -10.19765
 Alpha  occ. eigenvalues --  -10.19402 -10.18607 -10.18293 -10.18239 -10.18157
 Alpha  occ. eigenvalues --  -10.17922 -10.17892 -10.17868 -10.16354 -10.16251
 Alpha  occ. eigenvalues --   -9.63711  -9.61565  -9.46815  -7.42107  -7.37166
 Alpha  occ. eigenvalues --   -7.37096  -7.36705  -7.36474  -7.36029  -7.23244
 Alpha  occ. eigenvalues --   -7.22310  -7.22279  -1.38112  -0.89795  -0.87463
 Alpha  occ. eigenvalues --   -0.84052  -0.80979  -0.80336  -0.76891  -0.73062
 Alpha  occ. eigenvalues --   -0.71346  -0.71343  -0.70423  -0.64971  -0.61715
 Alpha  occ. eigenvalues --   -0.58898  -0.58172  -0.57219  -0.51312  -0.49361
 Alpha  occ. eigenvalues --   -0.47881  -0.46519  -0.44814  -0.44000  -0.43173
 Alpha  occ. eigenvalues --   -0.40495  -0.40380  -0.39012  -0.38238  -0.37515
 Alpha  occ. eigenvalues --   -0.35151  -0.33921  -0.33872  -0.31627  -0.29833
 Alpha  occ. eigenvalues --   -0.28800  -0.26295  -0.23804  -0.20145  -0.14882
 Alpha virt. eigenvalues --   -0.05367  -0.03991  -0.01689  -0.00547   0.00488
 Alpha virt. eigenvalues --    0.00939   0.01199   0.01589   0.02370   0.02813
 Alpha virt. eigenvalues --    0.02820   0.03379   0.04592   0.05196   0.05882
 Alpha virt. eigenvalues --    0.06662   0.06737   0.07001   0.07464   0.07947
 Alpha virt. eigenvalues --    0.08967   0.09067   0.09672   0.10046   0.10476
 Alpha virt. eigenvalues --    0.11452   0.11566   0.12249   0.12549   0.12568
 Alpha virt. eigenvalues --    0.13120   0.13691   0.14359   0.15397   0.15469
 Alpha virt. eigenvalues --    0.16140   0.16348   0.16655   0.16745   0.17012
 Alpha virt. eigenvalues --    0.17756   0.17832   0.18110   0.18614   0.18860
 Alpha virt. eigenvalues --    0.19064   0.19948   0.20089   0.20183   0.20627
 Alpha virt. eigenvalues --    0.21255   0.21372   0.21842   0.22258   0.22275
 Alpha virt. eigenvalues --    0.22737   0.23384   0.23794   0.24729   0.24755
 Alpha virt. eigenvalues --    0.25080   0.25562   0.26475   0.26910   0.27545
 Alpha virt. eigenvalues --    0.27995   0.28380   0.28873   0.29307   0.29344
 Alpha virt. eigenvalues --    0.29974   0.30238   0.30885   0.32729   0.33228
 Alpha virt. eigenvalues --    0.33948   0.35257   0.35379   0.35682   0.37769
 Alpha virt. eigenvalues --    0.37960   0.39624   0.40703   0.43260   0.44721
 Alpha virt. eigenvalues --    0.44884   0.46073   0.46414   0.47027   0.49048
 Alpha virt. eigenvalues --    0.49787   0.49955   0.51699   0.52383   0.53212
 Alpha virt. eigenvalues --    0.53790   0.54311   0.55141   0.55222   0.55774
 Alpha virt. eigenvalues --    0.56033   0.57167   0.57752   0.58560   0.59044
 Alpha virt. eigenvalues --    0.60095   0.60193   0.61888   0.62937   0.63323
 Alpha virt. eigenvalues --    0.63802   0.64177   0.64535   0.66213   0.67547
 Alpha virt. eigenvalues --    0.68206   0.68500   0.69044   0.70424   0.70759
 Alpha virt. eigenvalues --    0.71908   0.72488   0.72928   0.73864   0.74974
 Alpha virt. eigenvalues --    0.77322   0.79620   0.80172   0.80994   0.82069
 Alpha virt. eigenvalues --    0.82625   0.83484   0.84281   0.84942   0.85298
 Alpha virt. eigenvalues --    0.86705   0.87052   0.87884   0.88681   0.90360
 Alpha virt. eigenvalues --    0.91274   0.91689   0.92911   0.93975   0.94459
 Alpha virt. eigenvalues --    0.95629   0.96400   0.97304   0.97493   0.98176
 Alpha virt. eigenvalues --    0.98722   1.01143   1.02056   1.02954   1.03276
 Alpha virt. eigenvalues --    1.06159   1.06964   1.07247   1.09495   1.09781
 Alpha virt. eigenvalues --    1.10759   1.11449   1.13005   1.13650   1.17000
 Alpha virt. eigenvalues --    1.21308   1.24082   1.24296   1.27429   1.28865
 Alpha virt. eigenvalues --    1.29313   1.31094   1.32880   1.35888   1.36559
 Alpha virt. eigenvalues --    1.41008   1.44289   1.45376   1.48214   1.50658
 Alpha virt. eigenvalues --    1.51394   1.51799   1.52568   1.52966   1.55419
 Alpha virt. eigenvalues --    1.56206   1.56601   1.57652   1.59695   1.62083
 Alpha virt. eigenvalues --    1.62370   1.65571   1.67791   1.68641   1.70873
 Alpha virt. eigenvalues --    1.72057   1.74928   1.74953   1.75904   1.78221
 Alpha virt. eigenvalues --    1.80241   1.82427   1.85387   1.85982   1.86846
 Alpha virt. eigenvalues --    1.90082   1.90421   1.91770   1.92599   1.93549
 Alpha virt. eigenvalues --    1.94273   1.94402   1.96427   1.96920   1.99000
 Alpha virt. eigenvalues --    2.00209   2.01627   2.02171   2.04739   2.06298
 Alpha virt. eigenvalues --    2.08626   2.10151   2.10417   2.15313   2.19563
 Alpha virt. eigenvalues --    2.21554   2.23592   2.26657   2.28240   2.28423
 Alpha virt. eigenvalues --    2.29035   2.30956   2.34865   2.35395   2.35688
 Alpha virt. eigenvalues --    2.38156   2.39920   2.41896   2.42903   2.45180
 Alpha virt. eigenvalues --    2.46357   2.49112   2.51497   2.54040   2.57884
 Alpha virt. eigenvalues --    2.61701   2.63831   2.65679   2.66369   2.69274
 Alpha virt. eigenvalues --    2.69863   2.70790   2.73778   2.74145   2.74652
 Alpha virt. eigenvalues --    2.75541   2.75694   2.76325   2.77541   2.78367
 Alpha virt. eigenvalues --    2.80821   2.81841   2.82609   2.83977   2.86543
 Alpha virt. eigenvalues --    2.87279   2.88076   2.88920   2.93722   2.94480
 Alpha virt. eigenvalues --    2.96621   3.04669   3.08506   3.09836   3.15423
 Alpha virt. eigenvalues --    3.17554   3.20298   3.21571   3.23816   3.35658
 Alpha virt. eigenvalues --    3.36282   3.38730   3.40896   3.46799   3.53004
 Alpha virt. eigenvalues --    3.54205   3.58092   3.61577   3.69720   3.76394
 Alpha virt. eigenvalues --    3.90072   3.99373   4.05482   4.08505   4.10767
 Alpha virt. eigenvalues --    4.13664   4.22304   4.50319   4.82660   4.85699
 Alpha virt. eigenvalues --    9.77238   9.83271  10.56225  23.46345  23.63071
 Alpha virt. eigenvalues --   23.89494  23.93183  23.93412  23.97091  24.03715
 Alpha virt. eigenvalues --   24.04886  24.06270  24.07762  24.15010  24.16607
 Alpha virt. eigenvalues --   25.42270  25.83444  25.98931  26.21043  26.22037
 Alpha virt. eigenvalues --   26.64391  27.11118  27.41632  28.45928 215.78107
 Alpha virt. eigenvalues --  215.92268 216.88177
          Condensed to atoms (all electrons):
               1          2          3          4          5          6
     1  C   18.287930 -13.008942   4.475792  -4.266843   1.990521   2.337164
     2  C  -13.008942  58.483305 -26.307677  10.699956   0.032702  -8.923333
     3  C    4.475792 -26.307677  24.815563  -4.361924  -1.798256   4.888326
     4  C   -4.266843  10.699956  -4.361924  15.709922  -6.388723  -2.752761
     5  C    1.990521   0.032702  -1.798256  -6.388723  17.368521  -3.913185
     6  C    2.337164  -8.923333   4.888326  -2.752761  -3.913185  36.382834
     7  C    6.864202  -1.741892   0.085736   0.045603  -0.182030   3.087064
     8  C   -2.716479  15.771646  -7.338140   2.450922   0.240475  -2.245928
     9  C   -1.527347   3.060893  -1.756447   0.197994   0.162376  -1.121294
    10  C   -0.825446  -0.047011  -0.065699   0.046613  -0.109380  -1.081078
    11  C   -5.555939  -8.135122   3.453256  -1.325555  -0.733911 -10.795413
    12  C    3.996941 -13.685635   4.435796  -2.021169  -0.193061  13.555769
    13  H    0.149743  -0.020275   0.086293  -0.046687  -0.038976   0.038347
    14  H   -0.035719   0.150236   0.266262   0.035385  -0.031883  -0.041831
    15  H    0.119803  -0.251114   0.117971   0.230153   0.080351   0.058501
    16  H    0.076826  -0.156718   0.106699  -0.013443  -0.008288   0.033365
    17  H    0.000466   0.016742  -0.002699   0.000518  -0.000032  -0.001356
    18  H   -0.006328   0.002019   0.000939  -0.000114  -0.000337  -0.004285
    19  H    0.009434   0.000148  -0.000951   0.000573   0.003374   0.033067
    20  Cl  -1.049267  -6.515679   3.937124  -1.040979   1.444323  -9.416004
    21  Cl  -2.750136  -5.817376   2.936927  -1.174306  -0.365688 -16.207098
    22  Cl  -0.594315   2.299926  -1.531439   0.181334  -1.730397   3.114099
               7          8          9         10         11         12
     1  C    6.864202  -2.716479  -1.527347  -0.825446  -5.555939   3.996941
     2  C   -1.741892  15.771646   3.060893  -0.047011  -8.135122 -13.685635
     3  C    0.085736  -7.338140  -1.756447  -0.065699   3.453256   4.435796
     4  C    0.045603   2.450922   0.197994   0.046613  -1.325555  -2.021169
     5  C   -0.182030   0.240475   0.162376  -0.109380  -0.733911  -0.193061
     6  C    3.087064  -2.245928  -1.121294  -1.081078 -10.795413  13.555769
     7  C   24.376456  -1.775780  -0.721429  -4.953745 -12.006231   6.123787
     8  C   -1.775780  22.046566   0.123410   0.762467 -10.765518  -3.830723
     9  C   -0.721429   0.123410  13.407873   0.741807  -2.168488  -2.737960
    10  C   -4.953745   0.762467   0.741807  10.792146   7.187170  -9.612555
    11  C  -12.006231 -10.765518  -2.168488   7.187170  66.205298 -48.003870
    12  C    6.123787  -3.830723  -2.737960  -9.612555 -48.003870  76.737932
    13  H    0.156509  -0.130865  -0.017806  -0.007622   0.038627   0.065383
    14  H   -0.012010   0.029710   0.002954   0.000305  -0.002002  -0.011760
    15  H    0.001976  -0.008433  -0.000316  -0.000040   0.002619   0.013950
    16  H    0.243948   0.154131  -0.267024  -0.041387   0.117382   0.027122
    17  H   -0.018833  -0.089448   0.445336   0.033871  -0.064277   0.029418
    18  H    0.054139  -0.018848   0.050695   0.403419   0.076929  -0.226408
    19  H    0.080482   0.007975  -0.049629  -0.066759   0.233539   0.205475
    20  Cl  -2.859368  -2.255937  -0.727738  -0.216083   2.189165   3.364938
    21  Cl -11.565173  -4.720678  -0.786564   3.358289  27.779949 -22.105471
    22  Cl   0.506184   0.259943   0.048111  -0.038169  -0.563150  -0.416460
              13         14         15         16         17         18
     1  C    0.149743  -0.035719   0.119803   0.076826   0.000466  -0.006328
     2  C   -0.020275   0.150236  -0.251114  -0.156718   0.016742   0.002019
     3  C    0.086293   0.266262   0.117971   0.106699  -0.002699   0.000939
     4  C   -0.046687   0.035385   0.230153  -0.013443   0.000518  -0.000114
     5  C   -0.038976  -0.031883   0.080351  -0.008288  -0.000032  -0.000337
     6  C    0.038347  -0.041831   0.058501   0.033365  -0.001356  -0.004285
     7  C    0.156509  -0.012010   0.001976   0.243948  -0.018833   0.054139
     8  C   -0.130865   0.029710  -0.008433   0.154131  -0.089448  -0.018848
     9  C   -0.017806   0.002954  -0.000316  -0.267024   0.445336   0.050695
    10  C   -0.007622   0.000305  -0.000040  -0.041387   0.033871   0.403419
    11  C    0.038627  -0.002002   0.002619   0.117382  -0.064277   0.076929
    12  C    0.065383  -0.011760   0.013950   0.027122   0.029418  -0.226408
    13  H    0.583594  -0.008228  -0.000062   0.005251  -0.000040   0.000003
    14  H   -0.008228   0.539817  -0.008812  -0.000075   0.000000  -0.000000
    15  H   -0.000062  -0.008812   0.536122   0.000006  -0.000000   0.000000
    16  H    0.005251  -0.000075   0.000006   0.587139  -0.008380  -0.000176
    17  H   -0.000040   0.000000  -0.000000  -0.008380   0.542790  -0.008097
    18  H    0.000003  -0.000000   0.000000  -0.000176  -0.008097   0.549554
    19  H   -0.000003   0.000000  -0.000000   0.000044  -0.000239  -0.009437
    20  Cl   0.020451  -0.002043   0.024088   0.012703  -0.001379  -0.001186
    21  Cl   0.016772  -0.002695   0.008771   0.019110   0.000659   0.014253
    22  Cl  -0.002955   0.003059  -0.058356  -0.000603   0.000006  -0.000007
              19         20         21         22
     1  C    0.009434  -1.049267  -2.750136  -0.594315
     2  C    0.000148  -6.515679  -5.817376   2.299926
     3  C   -0.000951   3.937124   2.936927  -1.531439
     4  C    0.000573  -1.040979  -1.174306   0.181334
     5  C    0.003374   1.444323  -0.365688  -1.730397
     6  C    0.033067  -9.416004 -16.207098   3.114099
     7  C    0.080482  -2.859368 -11.565173   0.506184
     8  C    0.007975  -2.255937  -4.720678   0.259943
     9  C   -0.049629  -0.727738  -0.786564   0.048111
    10  C   -0.066759  -0.216083   3.358289  -0.038169
    11  C    0.233539   2.189165  27.779949  -0.563150
    12  C    0.205475   3.364938 -22.105471  -0.416460
    13  H   -0.000003   0.020451   0.016772  -0.002955
    14  H    0.000000  -0.002043  -0.002695   0.003059
    15  H   -0.000000   0.024088   0.008771  -0.058356
    16  H    0.000044   0.012703   0.019110  -0.000603
    17  H   -0.000239  -0.001379   0.000659   0.000006
    18  H   -0.009437  -0.001186   0.014253  -0.000007
    19  H    0.539523   0.033967  -0.148713   0.000191
    20  Cl   0.033967  29.016675   2.465771  -2.350939
    21  Cl  -0.148713   2.465771  47.903120  -2.143058
    22  Cl   0.000191  -2.350939  -2.143058  19.472252
 Mulliken charges:
               1
     1  C    0.027939
     2  C    0.093200
     3  C   -0.443452
     4  C   -0.206470
     5  C    0.171501
     6  C   -1.024970
     7  C    0.210403
     8  C    0.049530
     9  C   -0.359404
    10  C   -0.261111
    11  C   -1.164458
    12  C    0.288564
    13  H    0.112546
    14  H    0.129330
    15  H    0.132822
    16  H    0.112368
    17  H    0.124974
    18  H    0.123274
    19  H    0.127941
    20  Cl   0.927396
    21  Cl   0.283333
    22  Cl   0.544743
 Sum of Mulliken charges =  -0.00000
 Mulliken charges with hydrogens summed into heavy atoms:
               1
     1  C    0.027939
     2  C    0.205746
     3  C   -0.314122
     4  C   -0.073648
     5  C    0.171501
     6  C   -1.024970
     7  C    0.210403
     8  C    0.161898
     9  C   -0.234430
    10  C   -0.137837
    11  C   -1.036518
    12  C    0.288564
    20  Cl   0.927396
    21  Cl   0.283333
    22  Cl   0.544743
 Electronic spatial extent (au):  <R**2>=           3991.7226
 Charge=              0.0000 electrons
 Dipole moment (field-independent basis, Debye):
    X=              1.3662    Y=             -0.5858    Z=              0.0000  Tot=              1.4865
 Quadrupole moment (field-independent basis, Debye-Ang):
   XX=           -107.9662   YY=            -94.4156   ZZ=           -111.6691
   XY=             -1.6756   XZ=              0.0000   YZ=              0.0000
 Traceless Quadrupole moment (field-independent basis, Debye-Ang):
   XX=             -3.2826   YY=             10.2681   ZZ=             -6.9854
   XY=             -1.6756   XZ=              0.0000   YZ=              0.0000
 Octapole moment (field-independent basis, Debye-Ang**2):
  XXX=             22.8975  YYY=            -19.5419  ZZZ=              0.0000  XYY=             -7.5859
  XXY=              7.3424  XXZ=              0.0001  XZZ=            -11.8829  YZZ=            -18.1795
  YYZ=              0.0001  XYZ=             -0.0001
 Hexadecapole moment (field-independent basis, Debye-Ang**3):
 XXXX=          -3615.7474 YYYY=          -1463.7769 ZZZZ=           -136.1894 XXXY=            -15.5754
 XXXZ=              0.0003 YYYX=             18.3948 YYYZ=              0.0001 ZZZX=              0.0001
 ZZZY=             -0.0000 XXYY=           -833.2006 XXZZ=           -711.0655 YYZZ=           -309.7729
 XXYZ=             -0.0001 YYXZ=              0.0000 ZZXY=              9.2974
 N-N= 1.353046564855D+03 E-N=-7.058300649307D+03  KE= 1.843271875685D+03
 Calling FoFJK, ICntrl=      2127 FMM=F ISym2X=0 I1Cent= 0 IOpClX= 0 NMat=1 NMatS=1 NMatT=0.
 ***** Axes restored to original set *****
 -------------------------------------------------------------------
 Center     Atomic                   Forces (Hartrees/Bohr)
 Number     Number              X              Y              Z
 -------------------------------------------------------------------
      1        6           0.005148845   -0.026166914   -0.006610652
      2        6          -0.003506340    0.016418120    0.004238862
      3        6          -0.018430290   -0.001101129    0.005865244
      4        6          -0.005740097   -0.006754822    0.000622301
      5        6           0.009872453   -0.029511441   -0.008794863
      6        6           0.108581760    0.004745839   -0.034882224
      7        6           0.026466037    0.012512049   -0.006369531
      8        6          -0.017414964   -0.006102943    0.004591284
      9        6          -0.006535869    0.013045313    0.004603270
     10        6           0.007023707    0.013196375    0.000164414
     11        6           0.020539438    0.004536087   -0.005914886
     12        6           0.055396532   -0.087158633   -0.034619560
     13        1           0.006600838   -0.004855869   -0.003086731
     14        1           0.008932289    0.001303223   -0.002698019
     15        1           0.004819039    0.009358644    0.000169997
     16        1           0.007542012   -0.003292899   -0.003103307
     17        1           0.004332364   -0.008203787   -0.002968034
     18        1          -0.005247403   -0.009128977    0.000014238
     19        1          -0.013047414    0.000470578    0.004386897
     20       17           1.521338098    2.823817392    0.029097595
     21       17          -1.714591014   -2.723422783    0.053425900
     22       17          -0.002080020    0.006296575    0.001867805
 -------------------------------------------------------------------
 Cartesian Forces:  Max     2.823817392 RMS     0.559753841

 GradGradGradGradGradGradGradGradGradGradGradGradGradGradGradGradGradGrad
 Berny optimization.
 FormGI is forming the generalized inverse of G from B-inverse, IUseBI=4.
 Internal  Forces:  Max     3.117369607 RMS     0.292548797
 Search for a local minimum.
 Step number   1 out of a maximum of  129
 All quantities printed in internal units (Hartrees-Bohrs-Radians)
 Mixed Optimization -- RFO/linear search
 Second derivative matrix not updated -- first step.
 ITU=  0
     Eigenvalues ---    0.01035   0.01214   0.01489   0.01712   0.01738
     Eigenvalues ---    0.01829   0.02070   0.02070   0.02070   0.02070
     Eigenvalues ---    0.02070   0.02070   0.02070   0.02070   0.02070
     Eigenvalues ---    0.02070   0.02070   0.02070   0.03966   0.16000
     Eigenvalues ---    0.16000   0.16000   0.16000   0.16000   0.16000
     Eigenvalues ---    0.16000   0.22000   0.22099   0.22592   0.23531
     Eigenvalues ---    0.24501   0.24915   0.25000   0.25000   0.25000
     Eigenvalues ---    0.25000   0.28334   0.29042   0.29447   0.29539
     Eigenvalues ---    0.37230   0.37230   0.37230   0.37230   0.37230
     Eigenvalues ---    0.37230   0.37230   0.39892   0.40721   0.41369
     Eigenvalues ---    0.41546   0.44568   0.45129   0.45389   0.45389
     Eigenvalues ---    0.45389   0.45389   0.45389   0.45389  16.61567
 RFO step:  Lambda=-6.27792517D-01 EMin= 1.03510890D-02
 Linear search not attempted -- first point.
 Iteration  1 RMS(Cart)=  0.03242658 RMS(Int)=  0.00051567
 Iteration  2 RMS(Cart)=  0.00122748 RMS(Int)=  0.00023570
 Iteration  3 RMS(Cart)=  0.00000062 RMS(Int)=  0.00023569
 Variable       Old X    -DE/DX   Delta X   Delta X   Delta X     New X
                                 (Linear)    (Quad)   (Total)
    R1        2.64826   0.01847   0.00000   0.00251   0.00244   2.65070
    R2        2.64826   0.10264   0.00000   0.01749   0.01714   2.66540
    R3        2.91018   0.11977   0.00000  -0.01237  -0.01288   2.89729
    R4        2.64826  -0.00965   0.00000  -0.00663  -0.00663   2.64163
    R5        2.02201   0.00797   0.00000   0.00797   0.00797   2.02998
    R6        2.64826  -0.03065   0.00000  -0.01149  -0.01142   2.63685
    R7        2.02201   0.00935   0.00000   0.00935   0.00935   2.03136
    R8        2.64826  -0.02671   0.00000  -0.01013  -0.01006   2.63820
    R9        2.02201   0.01051   0.00000   0.01051   0.01051   2.03252
   R10        2.64826  -0.00928   0.00000  -0.01086  -0.01087   2.63740
   R11        3.32592   0.00680   0.00000   0.00736   0.00736   3.33328
   R12        3.32592   0.06127   0.00000   0.13740   0.13762   3.46354
   R13        2.64826   0.01907   0.00000   0.00306   0.00300   2.65126
   R14        2.64826   0.10275   0.00000   0.01749   0.01718   2.66544
   R15        2.64826  -0.00933   0.00000  -0.00632  -0.00631   2.64195
   R16        2.02201   0.00806   0.00000   0.00806   0.00806   2.03007
   R17        2.64826  -0.02784   0.00000  -0.00887  -0.00880   2.63946
   R18        2.02201   0.00974   0.00000   0.00974   0.00974   2.03175
   R19        2.64826  -0.02426   0.00000  -0.00786  -0.00780   2.64047
   R20        2.02201   0.01053   0.00000   0.01053   0.01053   2.03254
   R21        2.64826  -0.00625   0.00000  -0.00808  -0.00809   2.64017
   R22        2.02201   0.01375   0.00000   0.01375   0.01375   2.03576
   R23        3.32592   0.04649   0.00000   0.12130   0.12155   3.44747
   R24        2.23252   3.11737   0.00000   0.18079   0.18131   2.41383
    A1        2.09440  -0.07855   0.00000  -0.00857  -0.00829   2.08610
    A2        2.09440  -0.16733   0.00000  -0.00306  -0.00238   2.09201
    A3        2.09440   0.24588   0.00000   0.01163   0.01067   2.10507
    A4        2.09440   0.04666   0.00000   0.00630   0.00611   2.10051
    A5        2.09440  -0.01966   0.00000   0.00151   0.00160   2.09600
    A6        2.09440  -0.02700   0.00000  -0.00781  -0.00771   2.08668
    A7        2.09440   0.00815   0.00000   0.00172   0.00168   2.09608
    A8        2.09440  -0.00294   0.00000   0.00058   0.00060   2.09499
    A9        2.09440  -0.00521   0.00000  -0.00230  -0.00228   2.09212
   A10        2.09440  -0.01171   0.00000  -0.00575  -0.00572   2.08868
   A11        2.09440   0.00647   0.00000   0.00366   0.00364   2.09803
   A12        2.09440   0.00524   0.00000   0.00210   0.00208   2.09647
   A13        2.09440   0.02851   0.00000   0.01624   0.01619   2.11059
   A14        2.09440  -0.01613   0.00000  -0.01026  -0.01023   2.08416
   A15        2.09440  -0.01238   0.00000  -0.00598  -0.00596   2.08844
   A16        2.09440   0.00694   0.00000  -0.00994  -0.00997   2.08442
   A17        2.09440   0.06679   0.00000   0.02825   0.02803   2.12242
   A18        2.09440  -0.07373   0.00000  -0.01831  -0.01805   2.07634
   A19        2.09440  -0.16626   0.00000  -0.00172  -0.00107   2.09332
   A20        2.09440   0.24750   0.00000   0.01344   0.01250   2.10690
   A21        2.09440  -0.08124   0.00000  -0.01172  -0.01143   2.08297
   A22        2.09440   0.04732   0.00000   0.00698   0.00682   2.10122
   A23        2.09440  -0.02010   0.00000   0.00103   0.00111   2.09550
   A24        2.09440  -0.02722   0.00000  -0.00801  -0.00793   2.08647
   A25        2.09440   0.00754   0.00000   0.00095   0.00092   2.09532
   A26        2.09440  -0.00376   0.00000  -0.00046  -0.00045   2.09395
   A27        2.09440  -0.00378   0.00000  -0.00049  -0.00048   2.09392
   A28        2.09440  -0.00811   0.00000  -0.00155  -0.00153   2.09287
   A29        2.09440   0.00397   0.00000   0.00066   0.00065   2.09505
   A30        2.09440   0.00414   0.00000   0.00089   0.00088   2.09527
   A31        2.09440   0.02088   0.00000   0.00771   0.00765   2.10204
   A32        2.09440  -0.00965   0.00000  -0.00286  -0.00283   2.09157
   A33        2.09440  -0.01122   0.00000  -0.00485  -0.00482   2.08957
   A34        2.09440   0.01361   0.00000  -0.00238  -0.00244   2.09196
   A35        2.09440   0.07074   0.00000   0.03262   0.03246   2.12685
   A36        2.09440  -0.08436   0.00000  -0.03025  -0.03002   2.06437
   A37        2.09440  -0.31517   0.00000  -0.04259  -0.04147   2.05293
   A38        2.09440  -0.31574   0.00000  -0.04335  -0.04219   2.05220
    D1        0.00000   0.00000   0.00000   0.00000   0.00000   0.00000
    D2        3.14159   0.00000   0.00000   0.00000   0.00000   3.14159
    D3       -3.14159   0.00000   0.00000   0.00000   0.00000  -3.14159
    D4       -0.00000   0.00000   0.00000   0.00000   0.00000  -0.00000
    D5       -0.00000  -0.00000   0.00000  -0.00000  -0.00000  -0.00000
    D6        3.14159  -0.00000   0.00000   0.00000   0.00000   3.14159
    D7        3.14159  -0.00000   0.00000  -0.00000  -0.00000   3.14159
    D8        0.00000  -0.00000   0.00000   0.00000   0.00000   0.00000
    D9       -0.00000  -0.00000   0.00000  -0.00000  -0.00000  -0.00000
   D10        3.14159  -0.00000   0.00000  -0.00000  -0.00000   3.14159
   D11        3.14159  -0.00000   0.00000  -0.00000  -0.00000   3.14159
   D12       -0.00000  -0.00000   0.00000  -0.00000  -0.00000  -0.00000
   D13        0.00000  -0.00000   0.00000  -0.00000  -0.00000   0.00000
   D14        3.14159  -0.00000   0.00000   0.00000   0.00000   3.14159
   D15       -3.14159   0.00000   0.00000  -0.00000  -0.00000  -3.14159
   D16        0.00000   0.00000   0.00000  -0.00000  -0.00000   0.00000
   D17       -0.00000  -0.00000   0.00000   0.00000   0.00000  -0.00000
   D18        3.14159   0.00000   0.00000  -0.00000  -0.00000   3.14159
   D19        3.14159  -0.00000   0.00000   0.00000   0.00000   3.14159
   D20        0.00000   0.00000   0.00000  -0.00000  -0.00000   0.00000
   D21        0.00000   0.00000   0.00000  -0.00000  -0.00000   0.00000
   D22       -3.14159   0.00000   0.00000  -0.00000  -0.00000  -3.14159
   D23       -3.14159  -0.00000   0.00000  -0.00000  -0.00000  -3.14159
   D24        0.00000   0.00000   0.00000   0.00000   0.00000   0.00000
   D25       -0.00000   0.00000   0.00000   0.00000   0.00000  -0.00000
   D26        3.14159   0.00000   0.00000  -0.00000  -0.00000   3.14159
   D27        3.14159  -0.00000   0.00000   0.00000   0.00000   3.14159
   D28       -0.00000   0.00000   0.00000  -0.00000  -0.00000  -0.00000
   D29        0.00001  -0.00000   0.00000  -0.00000  -0.00000   0.00001
   D30       -3.14158  -0.00000   0.00000  -0.00000  -0.00000  -3.14158
   D31        3.14159   0.00000   0.00000   0.00000   0.00000   3.14159
   D32        0.00000   0.00000   0.00000   0.00000   0.00000   0.00000
   D33        0.00000   0.00000   0.00000   0.00000   0.00000   0.00000
   D34       -3.14159   0.00000   0.00000  -0.00000  -0.00000  -3.14159
   D35       -3.14159  -0.00000   0.00000  -0.00000  -0.00000  -3.14159
   D36        0.00000  -0.00000   0.00000  -0.00000   0.00000   0.00000
   D37       -0.00000  -0.00000   0.00000  -0.00000  -0.00000  -0.00000
   D38        3.14159  -0.00000   0.00000   0.00000   0.00000   3.14159
   D39       -0.00000  -0.00000   0.00000   0.00000   0.00000  -0.00000
   D40        3.14159  -0.00000   0.00000  -0.00000  -0.00000   3.14159
   D41        3.14159   0.00000   0.00000   0.00000   0.00000   3.14159
   D42       -0.00000   0.00000   0.00000   0.00000   0.00000  -0.00000
   D43       -0.00000  -0.00000   0.00000  -0.00000  -0.00000  -0.00000
   D44       -3.14159  -0.00000   0.00000  -0.00000  -0.00000  -3.14159
   D45        3.14159  -0.00000   0.00000   0.00000   0.00000   3.14159
   D46        0.00000   0.00000   0.00000  -0.00000  -0.00000   0.00000
   D47        0.00000   0.00000   0.00000  -0.00000  -0.00000   0.00000
   D48       -3.14159   0.00000   0.00000  -0.00000  -0.00000  -3.14159
   D49        3.14159  -0.00000   0.00000   0.00000   0.00000   3.14159
   D50        0.00000   0.00000   0.00000  -0.00000  -0.00000   0.00000
   D51        0.00000   0.00000   0.00000   0.00000   0.00000   0.00000
   D52       -3.14159   0.00000   0.00000  -0.00000  -0.00000  -3.14159
   D53        3.14159   0.00000   0.00000   0.00000   0.00000   3.14159
   D54       -0.00000   0.00000   0.00000  -0.00000  -0.00000  -0.00000
   D55        0.00001  -0.00000   0.00000  -0.00000  -0.00000   0.00001
   D56       -3.14158  -0.00000   0.00000  -0.00000  -0.00000  -3.14158
   D57       -0.00001   0.00000   0.00000   0.00000   0.00000  -0.00001
         Item               Value     Threshold  Converged?
 Maximum Force            3.117370     0.000450     NO 
 RMS     Force            0.292549     0.000300     NO 
 Maximum Displacement     0.205342     0.001800     NO 
 RMS     Displacement     0.031744     0.001200     NO 
 Predicted change in Energy=-3.363262D-01
 GradGradGradGradGradGradGradGradGradGradGradGradGradGradGradGradGradGrad

                          Input orientation:                          
 ---------------------------------------------------------------------
 Center     Atomic      Atomic             Coordinates (Angstroms)
 Number     Number       Type             X           Y           Z
 ---------------------------------------------------------------------
      1          6           0       -5.154675   -2.307418    0.423931
      2          6           0       -3.821157   -2.280078   -0.010268
      3          6           0       -3.106071   -1.078974   -0.020278
      4          6           0       -3.716512    0.102331    0.402696
      5          6           0       -5.043634    0.077973    0.835346
      6          6           0       -5.771130   -1.112964    0.851353
      7          6           0       -5.928497   -3.630976    0.430294
      8          6           0       -5.301427   -4.810737    0.002132
      9          6           0       -5.998126   -6.022834    0.004021
     10          6           0       -7.326471   -6.065456    0.433650
     11          6           0       -7.958272   -4.894970    0.861630
     12          6           0       -7.270035   -3.679128    0.863232
     13          1           0       -3.342705   -3.184397   -0.337735
     14          1           0       -2.084362   -1.063854   -0.354045
     15          1           0       -3.168002    1.027491    0.395741
     16          1           0       -4.280052   -4.787316   -0.329967
     17          1           0       -5.511029   -6.922895   -0.325496
     18          1           0       -7.862223   -6.998098    0.435000
     19          1           0       -8.982827   -4.929222    1.192747
     20         17           0       -7.510016   -1.083155    1.429836
     21         17           0       -8.151856   -2.187523    1.433894
     22         17           0       -5.808564    1.575269    1.368559
 ---------------------------------------------------------------------
                    Distance matrix (angstroms):
                    1          2          3          4          5
     1  C    0.000000
     2  C    1.402692   0.000000
     3  C    2.429645   1.397891   0.000000
     4  C    2.806359   2.420199   1.395359   0.000000
     5  C    2.423156   2.787458   2.413456   1.396078   0.000000
     6  C    1.410471   2.430421   2.804182   2.428928   1.395650
     7  C    1.533182   2.541634   3.831686   4.339495   3.834495
     8  C    2.542844   2.931824   4.329683   5.177900   4.965903
     9  C    3.833021   4.329852   5.727681   6.548461   6.230731
    10  C    4.340465   5.178163   6.548498   7.146632   6.566157
    11  C    3.840204   4.971277   6.235660   6.570858   5.764198
    12  C    2.559165   3.822971   4.987985   5.209516   4.367316
    13  H    2.152315   1.074217   2.142331   3.389771   3.861649
    14  H    3.402721   2.147985   1.074950   2.143958   3.387582
    15  H    3.881917   3.395801   2.148045   1.075561   2.147751
    16  H    2.735548   2.568859   3.902044   4.976246   5.060835
    17  H    4.689484   4.950837   6.326801   7.287274   7.111834
    18  H    5.416034   6.228017   7.606858   8.222168   7.627287
    19  H    4.703157   5.925204   7.129664   7.326307   6.380986
    20  Cl   2.838714   4.136932   4.636549   4.105005   2.790103
    21  Cl   3.165043   4.566084   5.366884   5.096968   3.892528
    22  Cl   4.049093   4.551335   4.034519   2.734798   1.763896
                    6          7          8          9         10
     6  C    0.000000
     7  C    2.557819   0.000000
     8  C    3.823000   1.402988   0.000000
     9  C    4.987617   2.430543   1.398060   0.000000
    10  C    5.207757   2.807318   2.421018   1.396745   0.000000
    11  C    4.368898   2.429757   2.793681   2.418624   1.397275
    12  C    2.971878   1.410489   2.428466   2.801598   2.425342
    13  H    3.406173   2.734158   2.568479   3.901895   4.976537
    14  H    3.879131   4.688568   4.951313   6.327498   7.288085
    15  H    3.400795   5.415056   6.228269   7.607241   8.222177
    16  H    4.137596   2.152322   1.074265   2.142389   3.390784
    17  H    5.933627   3.403268   2.147670   1.075154   2.146470
    18  H    6.259459   3.882889   3.395526   2.147496   1.075571
    19  H    4.999537   3.405247   3.870957   3.393743   2.147271
    20  Cl   1.832827   3.160962   4.561915   5.359028   5.084230
    21  Cl   2.676170   2.834448   4.129908   4.625224   4.089023
    22  Cl   2.737791   5.291475   6.550220   7.721986   7.845940
                   11         12         13         14         15
    11  C    0.000000
    12  C    1.397120   0.000000
    13  H    5.066359   4.136545   0.000000
    14  H    7.117453   5.934023   2.465845   0.000000
    15  H    7.631467   6.260790   4.278843   2.471877   0.000000
    16  H    3.867918   3.404673   1.856888   4.322708   5.964502
    17  H    3.392749   3.876751   4.321823   6.787579   8.319772
    18  H    2.148111   3.398474   5.963848   8.319947   9.297705
    19  H    1.077276   2.145919   6.098997   8.057447   8.362406
    20  Cl   3.879914   2.667904   4.990591   5.711420   4.937334
    21  Cl   2.774028   1.824322   5.221145   6.424472   6.021036
    22  Cl   6.836828   5.477221   5.625506   4.878731   2.866881
                   16         17         18         19         20
    16  H    0.000000
    17  H    2.464959   0.000000
    18  H    4.278397   2.472271   0.000000
    19  H    4.945188   4.281725   2.471877   0.000000
    20  Cl   5.220190   6.417142   6.008352   4.125241   0.000000
    21  Cl   4.986080   5.700278   4.921717   2.874992   1.277343
    22  Cl   6.760461   8.670476   8.865194   7.239839   3.156884
                   21         22
    21  Cl   0.000000
    22  Cl   4.433271   0.000000
 Stoichiometry    C12H7Cl3
 Framework group  C1[X(C12H7Cl3)]
 Deg. of freedom    60
 Full point group                 C1      NOp   1
 Largest Abelian subgroup         C1      NOp   1
 Largest concise Abelian subgroup C1      NOp   1
                         Standard orientation:                         
 ---------------------------------------------------------------------
 Center     Atomic      Atomic             Coordinates (Angstroms)
 Number     Number       Type             X           Y           Z
 ---------------------------------------------------------------------
      1          6           0       -0.030731    1.079709   -0.000001
      2          6           0       -0.401484    2.432516    0.000001
      3          6           0       -1.751593    2.794879    0.000003
      4          6           0       -2.740328    1.810283    0.000004
      5          6           0       -2.374119    0.463092    0.000000
      6          6           0       -1.030673    0.084950   -0.000002
      7          6           0        1.453365    0.694864   -0.000002
      8          6           0        2.436310    1.695960   -0.000003
      9          6           0        3.792338    1.355729   -0.000003
     10          6           0        4.176585    0.012878   -0.000001
     11          6           0        3.203863   -0.990211    0.000001
     12          6           0        1.846384   -0.659764    0.000001
     13          1           0        0.352541    3.197623    0.000002
     14          1           0       -2.029999    3.833150    0.000005
     15          1           0       -3.779668    2.087058    0.000006
     16          1           0        2.149934    2.731351   -0.000002
     17          1           0        4.540001    2.128359   -0.000004
     18          1           0        5.219892   -0.248587    0.000001
     19          1           0        3.501569   -2.025535    0.000005
     20         17           0       -0.610738   -1.699120   -0.000004
     21         17           0        0.626592   -2.016325    0.000006
     22         17           0       -3.629606   -0.775892   -0.000002
 ---------------------------------------------------------------------
 Rotational constants (GHZ):           0.8299360           0.3552481           0.2487657
 Standard basis: 6-311+G(d,p) (5D, 7F)
 There are   411 symmetry adapted cartesian basis functions of A   symmetry.
 There are   396 symmetry adapted basis functions of A   symmetry.
   396 basis functions,   647 primitive gaussians,   411 cartesian basis functions
    65 alpha electrons       65 beta electrons
       nuclear repulsion energy      1331.9753298618 Hartrees.
 NAtoms=   22 NActive=   22 NUniq=   22 SFac= 1.00D+00 NAtFMM=   60 NAOKFM=F Big=F
 Integral buffers will be    131072 words long.
 Raffenetti 2 integral format.
 Two-electron integral symmetry is turned on.
 One-electron integrals computed using PRISM.
 NBasis=   396 RedAO= T EigKep=  1.08D-06  NBF=   396
 NBsUse=   392 1.00D-06 EigRej=  5.43D-07 NBFU=   392
 Initial guess from the checkpoint file:  "/scratch/pkc/Gau-2496.chk"
 B after Tr=    -0.000000    0.000000    0.000000
         Rot=    1.000000   -0.000000   -0.000000    0.000171 Ang=  -0.02 deg.
 ExpMin= 4.38D-02 ExpMax= 1.06D+05 ExpMxC= 3.62D+03 IAcc=3 IRadAn=         5 AccDes= 0.00D+00
 Harris functional with IExCor=  402 and IRadAn=       5 diagonalized for initial guess.
 HarFok:  IExCor=  402 AccDes= 0.00D+00 IRadAn=         5 IDoV= 1 UseB2=F ITyADJ=14
 ICtDFT=  3500011 ScaDFX=  1.000000  1.000000  1.000000  1.000000
 FoFCou: FMM=F IPFlag=           0 FMFlag=      100000 FMFlg1=           0
         NFxFlg=           0 DoJE=T BraDBF=F KetDBF=T FulRan=T
         wScrn=  0.000000 ICntrl=       500 IOpCl=  0 I1Cent=   200000004 NGrid=           0
         NMat0=    1 NMatS0=      1 NMatT0=    0 NMatD0=    1 NMtDS0=    0 NMtDT0=    0
 Petite list used in FoFCou.
 Requested convergence on RMS density matrix=1.00D-08 within  32 cycles.
 Requested convergence on MAX density matrix=1.00D-06.
 Requested convergence on             energy=1.00D-06.
 No special actions if energy rises.
 SCF Done:  E(RB3LYP) =  -1841.16536159     A.U. after   17 cycles
            NFock= 17  Conv=0.90D-08     -V/T= 1.9999
 QCSCF skips out because SCF is already converged.
 Calling FoFJK, ICntrl=      2127 FMM=F ISym2X=0 I1Cent= 0 IOpClX= 0 NMat=1 NMatS=1 NMatT=0.
 ***** Axes restored to original set *****
 -------------------------------------------------------------------
 Center     Atomic                   Forces (Hartrees/Bohr)
 Number     Number              X              Y              Z
 -------------------------------------------------------------------
      1        6           0.001034182   -0.020838373   -0.004254353
      2        6          -0.002151052    0.011404944    0.002850802
      3        6          -0.011851635   -0.002307394    0.003471329
      4        6          -0.001809126   -0.000506314    0.000500755
      5        6           0.004325169   -0.026597512   -0.006420055
      6        6           0.092205991   -0.007962533   -0.031873678
      7        6           0.019908699    0.012890669   -0.004138008
      8        6          -0.012612893   -0.004778864    0.003257909
      9        6          -0.003344393    0.008515838    0.002701133
     10        6           0.003599414    0.006244886   -0.000012964
     11        6           0.011950370    0.007506685   -0.002527222
     12        6           0.057315778   -0.065774824   -0.031235955
     13        1           0.004935739   -0.002611887   -0.002116709
     14        1           0.005675843    0.000789670   -0.001721618
     15        1           0.002885111    0.005855315    0.000149178
     16        1           0.004723243   -0.002853440   -0.002092119
     17        1           0.002864610   -0.005073275   -0.001896535
     18        1          -0.003300057   -0.005718600    0.000013166
     19        1          -0.008609537    0.000066093    0.002848822
     20       17           0.928596318    1.792618025    0.030721523
     21       17          -1.093489346   -1.708099080    0.039477009
     22       17          -0.002852428    0.007229974    0.002297589
 -------------------------------------------------------------------
 Cartesian Forces:  Max     1.792618025 RMS     0.352755097

 GradGradGradGradGradGradGradGradGradGradGradGradGradGradGradGradGradGrad
 Berny optimization.
 Using GEDIIS/GDIIS optimizer.
 FormGI is forming the generalized inverse of G from B-inverse, IUseBI=4.
 Internal  Forces:  Max     1.970278360 RMS     0.184903794
 Search for a local minimum.
 Step number   2 out of a maximum of  129
 All quantities printed in internal units (Hartrees-Bohrs-Radians)
 Mixed Optimization -- RFO/linear search
 Update second derivatives using D2CorX and points    1    2
 DE= -5.09D-01 DEPred=-3.36D-01 R= 1.51D+00
 TightC=F SS=  1.41D+00  RLast= 2.77D-01 DXNew= 5.0454D-01 8.3075D-01
 Trust test= 1.51D+00 RLast= 2.77D-01 DXMaxT set to 5.05D-01
 ITU=  1  0
 Use linear search instead of GDIIS.
 Linear search step of   0.554 exceeds DXMaxT=   0.505 but not scaled.
 Quartic linear search produced a step of  2.00000.
 Iteration  1 RMS(Cart)=  0.04080909 RMS(Int)=  0.01651578
 Iteration  2 RMS(Cart)=  0.02318721 RMS(Int)=  0.00130483
 Iteration  3 RMS(Cart)=  0.00023478 RMS(Int)=  0.00129861
 Iteration  4 RMS(Cart)=  0.00000015 RMS(Int)=  0.00129861
 Variable       Old X    -DE/DX   Delta X   Delta X   Delta X     New X
                                 (Linear)    (Quad)   (Total)
    R1        2.65070   0.01250   0.00488   0.00000   0.00448   2.65518
    R2        2.66540   0.06103   0.03428   0.00000   0.03238   2.69779
    R3        2.89729   0.06191  -0.02577   0.00000  -0.02843   2.86886
    R4        2.64163  -0.00662  -0.01326   0.00000  -0.01324   2.62840
    R5        2.02998   0.00504   0.01594   0.00000   0.01594   2.04591
    R6        2.63685  -0.01855  -0.02283   0.00000  -0.02240   2.61445
    R7        2.03136   0.00594   0.01871   0.00000   0.01871   2.05007
    R8        2.63820  -0.01546  -0.02012   0.00000  -0.01971   2.61850
    R9        2.03252   0.00651   0.02102   0.00000   0.02102   2.05353
   R10        2.63740  -0.00870  -0.02173   0.00000  -0.02174   2.61565
   R11        3.33328   0.00807   0.01472   0.00000   0.01472   3.34800
   R12        3.46354   0.07106   0.27525   0.00000   0.27624   3.73978
   R13        2.65126   0.01279   0.00600   0.00000   0.00568   2.65694
   R14        2.66544   0.06085   0.03435   0.00000   0.03262   2.69806
   R15        2.64195  -0.00634  -0.01262   0.00000  -0.01255   2.62940
   R16        2.03007   0.00508   0.01612   0.00000   0.01612   2.04618
   R17        2.63946  -0.01728  -0.01759   0.00000  -0.01719   2.62227
   R18        2.03175   0.00613   0.01948   0.00000   0.01948   2.05123
   R19        2.64047  -0.01399  -0.01559   0.00000  -0.01526   2.62521
   R20        2.03254   0.00660   0.02106   0.00000   0.02106   2.05359
   R21        2.64017  -0.00537  -0.01618   0.00000  -0.01624   2.62393
   R22        2.03576   0.00906   0.02750   0.00000   0.02750   2.06326
   R23        3.44747   0.05696   0.24310   0.00000   0.24420   3.69167
   R24        2.41383   1.97028   0.36261   0.00000   0.36527   2.77910
    A1        2.08610  -0.04699  -0.01659   0.00000  -0.01514   2.07097
    A2        2.09201  -0.09915  -0.00476   0.00000  -0.00102   2.09100
    A3        2.10507   0.14614   0.02135   0.00000   0.01615   2.12122
    A4        2.10051   0.02884   0.01222   0.00000   0.01118   2.11168
    A5        2.09600  -0.01117   0.00320   0.00000   0.00372   2.09972
    A6        2.08668  -0.01767  -0.01542   0.00000  -0.01490   2.07178
    A7        2.09608   0.00444   0.00336   0.00000   0.00317   2.09925
    A8        2.09499  -0.00149   0.00120   0.00000   0.00129   2.09629
    A9        2.09212  -0.00295  -0.00456   0.00000  -0.00446   2.08765
   A10        2.08868  -0.00926  -0.01143   0.00000  -0.01123   2.07745
   A11        2.09803   0.00518   0.00728   0.00000   0.00718   2.10521
   A12        2.09647   0.00408   0.00416   0.00000   0.00406   2.10053
   A13        2.11059   0.02093   0.03238   0.00000   0.03211   2.14270
   A14        2.08416  -0.01174  -0.02047   0.00000  -0.02033   2.06383
   A15        2.08844  -0.00919  -0.01192   0.00000  -0.01178   2.07666
   A16        2.08442   0.00205  -0.01995   0.00000  -0.02009   2.06433
   A17        2.12242   0.05262   0.05606   0.00000   0.05466   2.17708
   A18        2.07634  -0.05468  -0.03611   0.00000  -0.03457   2.04178
   A19        2.09332  -0.09792  -0.00215   0.00000   0.00144   2.09476
   A20        2.10690   0.14749   0.02501   0.00000   0.01991   2.12680
   A21        2.08297  -0.04957  -0.02286   0.00000  -0.02134   2.06162
   A22        2.10122   0.02964   0.01365   0.00000   0.01277   2.11398
   A23        2.09550  -0.01177   0.00221   0.00000   0.00265   2.09815
   A24        2.08647  -0.01788  -0.01586   0.00000  -0.01542   2.07105
   A25        2.09532   0.00413   0.00185   0.00000   0.00172   2.09704
   A26        2.09395  -0.00217  -0.00090   0.00000  -0.00083   2.09311
   A27        2.09392  -0.00196  -0.00095   0.00000  -0.00088   2.09304
   A28        2.09287  -0.00622  -0.00306   0.00000  -0.00293   2.08994
   A29        2.09505   0.00312   0.00130   0.00000   0.00124   2.09628
   A30        2.09527   0.00309   0.00175   0.00000   0.00169   2.09696
   A31        2.10204   0.01435   0.01530   0.00000   0.01494   2.11699
   A32        2.09157  -0.00681  -0.00566   0.00000  -0.00548   2.08609
   A33        2.08957  -0.00754  -0.00964   0.00000  -0.00946   2.08011
   A34        2.09196   0.00766  -0.00488   0.00000  -0.00515   2.08680
   A35        2.12685   0.05618   0.06492   0.00000   0.06382   2.19068
   A36        2.06437  -0.06383  -0.06004   0.00000  -0.05867   2.00571
   A37        2.05293  -0.20168  -0.08294   0.00000  -0.07663   1.97629
   A38        2.05220  -0.20075  -0.08439   0.00000  -0.07791   1.97429
    D1        0.00000   0.00000   0.00000   0.00000   0.00000   0.00000
    D2        3.14159   0.00000   0.00000   0.00000   0.00000   3.14159
    D3       -3.14159   0.00000   0.00000   0.00000   0.00000  -3.14159
    D4       -0.00000   0.00000   0.00000   0.00000   0.00000  -0.00000
    D5       -0.00000  -0.00000  -0.00000   0.00000  -0.00000  -0.00000
    D6        3.14159  -0.00000   0.00000   0.00000   0.00000   3.14159
    D7        3.14159  -0.00000  -0.00000   0.00000  -0.00000   3.14159
    D8        0.00000  -0.00000   0.00000   0.00000   0.00000   0.00000
    D9       -0.00000  -0.00000  -0.00000   0.00000  -0.00000  -0.00000
   D10        3.14159  -0.00000  -0.00000   0.00000  -0.00000   3.14159
   D11        3.14159  -0.00000  -0.00000   0.00000  -0.00000   3.14159
   D12       -0.00000  -0.00000  -0.00000   0.00000  -0.00000  -0.00000
   D13        0.00000  -0.00000  -0.00000   0.00000  -0.00000   0.00000
   D14        3.14159  -0.00000   0.00000   0.00000   0.00000   3.14159
   D15       -3.14159   0.00000  -0.00000   0.00000  -0.00000  -3.14159
   D16        0.00000   0.00000  -0.00000   0.00000  -0.00000   0.00000
   D17       -0.00000  -0.00000   0.00000   0.00000   0.00000  -0.00000
   D18        3.14159   0.00000  -0.00000   0.00000  -0.00000   3.14159
   D19        3.14159  -0.00000   0.00000   0.00000   0.00000   3.14159
   D20        0.00000   0.00000  -0.00000   0.00000  -0.00000   0.00000
   D21        0.00000   0.00000  -0.00000   0.00000  -0.00000   0.00000
   D22       -3.14159   0.00000  -0.00000   0.00000  -0.00000  -3.14159
   D23       -3.14159  -0.00000  -0.00000   0.00000  -0.00000  -3.14159
   D24        0.00000   0.00000   0.00000   0.00000   0.00000   0.00000
   D25       -0.00000   0.00000   0.00000   0.00000   0.00000  -0.00000
   D26        3.14159   0.00000  -0.00000   0.00000  -0.00000   3.14159
   D27        3.14159  -0.00000   0.00000   0.00000   0.00000   3.14159
   D28       -0.00000   0.00000  -0.00000   0.00000  -0.00000  -0.00000
   D29        0.00001  -0.00000  -0.00000   0.00000  -0.00000   0.00001
   D30       -3.14158  -0.00000  -0.00000   0.00000  -0.00000  -3.14158
   D31        3.14159   0.00000   0.00000   0.00000   0.00000   3.14159
   D32        0.00000   0.00000   0.00000   0.00000   0.00000   0.00000
   D33        0.00000   0.00000   0.00000   0.00000   0.00000   0.00000
   D34       -3.14159   0.00000  -0.00000   0.00000  -0.00000  -3.14159
   D35       -3.14159  -0.00000  -0.00000   0.00000  -0.00000  -3.14159
   D36        0.00000  -0.00000   0.00000   0.00000   0.00000   0.00000
   D37       -0.00000  -0.00000  -0.00000   0.00000  -0.00000  -0.00000
   D38        3.14159  -0.00000   0.00000   0.00000   0.00000   3.14159
   D39       -0.00000  -0.00000   0.00000   0.00000   0.00000  -0.00000
   D40        3.14159  -0.00000  -0.00000   0.00000  -0.00000   3.14159
   D41        3.14159   0.00000   0.00000   0.00000   0.00000   3.14159
   D42       -0.00000   0.00000   0.00000   0.00000   0.00000  -0.00000
   D43       -0.00000  -0.00000  -0.00000   0.00000  -0.00000  -0.00000
   D44       -3.14159  -0.00000  -0.00000   0.00000  -0.00000  -3.14159
   D45        3.14159  -0.00000   0.00000   0.00000   0.00000   3.14159
   D46        0.00000   0.00000  -0.00000   0.00000  -0.00000   0.00000
   D47        0.00000   0.00000  -0.00000   0.00000  -0.00000   0.00000
   D48       -3.14159   0.00000  -0.00000   0.00000  -0.00000  -3.14159
   D49        3.14159  -0.00000   0.00000   0.00000   0.00000   3.14159
   D50        0.00000   0.00000  -0.00000   0.00000  -0.00000   0.00000
   D51        0.00000   0.00000   0.00000   0.00000   0.00000   0.00000
   D52       -3.14159   0.00000  -0.00000   0.00000  -0.00000  -3.14159
   D53        3.14159   0.00000   0.00000   0.00000   0.00000   3.14159
   D54       -0.00000   0.00000  -0.00000   0.00000  -0.00000  -0.00000
   D55        0.00001  -0.00000  -0.00000   0.00000  -0.00000   0.00001
   D56       -3.14158  -0.00000  -0.00000   0.00000  -0.00000  -3.14158
   D57       -0.00001   0.00000   0.00000   0.00000   0.00000  -0.00001
         Item               Value     Threshold  Converged?
 Maximum Force            1.970278     0.000450     NO 
 RMS     Force            0.184904     0.000300     NO 
 Maximum Displacement     0.394896     0.001800     NO 
 RMS     Displacement     0.058881     0.001200     NO 
 Predicted change in Energy=-3.682599D-01
 GradGradGradGradGradGradGradGradGradGradGradGradGradGradGradGradGradGrad

                          Input orientation:                          
 ---------------------------------------------------------------------
 Center     Atomic      Atomic             Coordinates (Angstroms)
 Number     Number       Type             X           Y           Z
 ---------------------------------------------------------------------
      1          6           0       -5.161211   -2.309236    0.425743
      2          6           0       -3.825454   -2.282211   -0.009253
      3          6           0       -3.101236   -1.094848   -0.024852
      4          6           0       -3.689352    0.086453    0.390765
      5          6           0       -5.006374    0.066887    0.820988
      6          6           0       -5.766507   -1.089378    0.854260
      7          6           0       -5.926513   -3.620349    0.431637
      8          6           0       -5.298907   -4.803127    0.002731
      9          6           0       -5.978620   -6.017218   -0.001351
[...]
     19          1           0        4.048711   -0.607525    1.384571
     20         17           0       -0.749676   -1.910266   -0.352009
     21         17           0        1.438663   -0.024575    2.295121
     22         17           0       -3.784589   -0.963425   -0.075428
 ---------------------------------------------------------------------
 Rotational constants (GHZ):           0.7709846           0.2842135           0.2759069

 **********************************************************************

            Population analysis using the SCF Density.

 **********************************************************************

 Orbital symmetries:
       Occupied  (A) (A) (A) (A) (A) (A) (A) (A) (A) (A) (A) (A)
                 (A) (A) (A) (A) (A) (A) (A) (A) (A) (A) (A) (A)
                 (A) (A) (A) (A) (A) (A) (A) (A) (A) (A) (A) (A)
                 (A) (A) (A) (A) (A) (A) (A) (A) (A) (A) (A) (A)
                 (A) (A) (A) (A) (A) (A) (A) (A) (A) (A) (A) (A)
                 (A) (A) (A) (A) (A)
       Virtual   (A) (A) (A) (A) (A) (A) (A) (A) (A) (A) (A) (A)
                 (A) (A) (A) (A) (A) (A) (A) (A) (A) (A) (A) (A)
                 (A) (A) (A) (A) (A) (A) (A) (A) (A) (A) (A) (A)
                 (A) (A) (A) (A) (A) (A) (A) (A) (A) (A) (A) (A)
                 (A) (A) (A) (A) (A) (A) (A) (A) (A) (A) (A) (A)
                 (A) (A) (A) (A) (A) (A) (A) (A) (A) (A) (A) (A)
                 (A) (A) (A) (A) (A) (A) (A) (A) (A) (A) (A) (A)
                 (A) (A) (A) (A) (A) (A) (A) (A) (A) (A) (A) (A)
                 (A) (A) (A) (A) (A) (A) (A) (A) (A) (A) (A) (A)
                 (A) (A) (A) (A) (A) (A) (A) (A) (A) (A) (A) (A)
                 (A) (A) (A) (A) (A) (A) (A) (A) (A) (A) (A) (A)
                 (A) (A) (A) (A) (A) (A) (A) (A) (A) (A) (A) (A)
                 (A) (A) (A) (A) (A) (A) (A) (A) (A) (A) (A) (A)
                 (A) (A) (A) (A) (A) (A) (A) (A) (A) (A) (A) (A)
                 (A) (A) (A) (A) (A) (A) (A) (A) (A) (A) (A) (A)
                 (A) (A) (A) (A) (A) (A) (A) (A) (A) (A) (A) (A)
                 (A) (A) (A) (A) (A) (A) (A) (A) (A) (A) (A) (A)
                 (A) (A) (A) (A) (A) (A) (A) (A) (A) (A) (A) (A)
                 (A) (A) (A) (A) (A) (A) (A) (A) (A) (A) (A) (A)
                 (A) (A) (A) (A) (A) (A) (A) (A) (A) (A) (A) (A)
                 (A) (A) (A) (A) (A) (A) (A) (A) (A) (A) (A) (A)
                 (A) (A) (A) (A) (A) (A) (A) (A) (A) (A) (A) (A)
                 (A) (A) (A) (A) (A) (A) (A) (A) (A) (A) (A) (A)
                 (A) (A) (A) (A) (A) (A) (A) (A) (A) (A) (A) (A)
                 (A) (A) (A) (A) (A) (A) (A) (A) (A) (A) (A) (A)
                 (A) (A) (A) (A) (A) (A) (A) (A) (A) (A) (A) (A)
                 (A) (A) (A) (A) (A) (A) (A) (A) (A) (A) (A) (A)
                 (A) (A) (A) (A) (A)
 The electronic state is 1-A.
 Alpha  occ. eigenvalues -- -101.56343-101.56212-101.55800 -10.25879 -10.25733
 Alpha  occ. eigenvalues --  -10.25011 -10.21748 -10.21274 -10.20325 -10.19960
 Alpha  occ. eigenvalues --  -10.19899 -10.19762 -10.19731 -10.19628 -10.19312
 Alpha  occ. eigenvalues --   -9.47804  -9.47688  -9.47274  -7.24283  -7.24167
 Alpha  occ. eigenvalues --   -7.23732  -7.23287  -7.23229  -7.23174  -7.23104
 Alpha  occ. eigenvalues --   -7.22760  -7.22716  -0.92984  -0.90556  -0.86727
 Alpha  occ. eigenvalues --   -0.85426  -0.84807  -0.79747  -0.75573  -0.74558
 Alpha  occ. eigenvalues --   -0.74090  -0.65458  -0.62557  -0.61923  -0.60255
 Alpha  occ. eigenvalues --   -0.54430  -0.52172  -0.50681  -0.49151  -0.48447
 Alpha  occ. eigenvalues --   -0.46683  -0.45061  -0.44758  -0.44389  -0.42578
 Alpha  occ. eigenvalues --   -0.41040  -0.40289  -0.38835  -0.37802  -0.37314
 Alpha  occ. eigenvalues --   -0.35533  -0.34816  -0.34149  -0.33535  -0.32120
 Alpha  occ. eigenvalues --   -0.31448  -0.27626  -0.27047  -0.26005  -0.25974
 Alpha virt. eigenvalues --   -0.04372  -0.04234  -0.03369  -0.02859  -0.01600
 Alpha virt. eigenvalues --   -0.00432   0.00304   0.01405   0.01959   0.02394
 Alpha virt. eigenvalues --    0.02979   0.03107   0.04184   0.04620   0.05042
 Alpha virt. eigenvalues --    0.05335   0.06275   0.06617   0.06747   0.07200
 Alpha virt. eigenvalues --    0.08320   0.08699   0.09438   0.09628   0.10056
 Alpha virt. eigenvalues --    0.10424   0.10837   0.10926   0.11181   0.12489
 Alpha virt. eigenvalues --    0.12547   0.13107   0.13410   0.13736   0.14160
 Alpha virt. eigenvalues --    0.14374   0.14831   0.15192   0.15697   0.16145
 Alpha virt. eigenvalues --    0.16418   0.17010   0.17432   0.17791   0.18403
 Alpha virt. eigenvalues --    0.18722   0.18917   0.19287   0.19484   0.20050
 Alpha virt. eigenvalues --    0.20180   0.20385   0.20622   0.21069   0.21187
 Alpha virt. eigenvalues --    0.21778   0.22181   0.22382   0.23396   0.23840
 Alpha virt. eigenvalues --    0.24113   0.24677   0.25181   0.25426   0.25503
 Alpha virt. eigenvalues --    0.26404   0.26702   0.27360   0.27671   0.27950
 Alpha virt. eigenvalues --    0.28402   0.29006   0.29279   0.30207   0.30514
 Alpha virt. eigenvalues --    0.30942   0.31358   0.32053   0.32569   0.33601
 Alpha virt. eigenvalues --    0.34520   0.35208   0.36556   0.42732   0.43291
 Alpha virt. eigenvalues --    0.44397   0.45312   0.46129   0.46494   0.47496
 Alpha virt. eigenvalues --    0.48394   0.48968   0.51005   0.51177   0.51390
 Alpha virt. eigenvalues --    0.51710   0.52463   0.53114   0.54437   0.54669
 Alpha virt. eigenvalues --    0.55489   0.56530   0.57458   0.57849   0.58032
 Alpha virt. eigenvalues --    0.58851   0.59326   0.59722   0.61587   0.62163
 Alpha virt. eigenvalues --    0.63980   0.64155   0.64898   0.65023   0.65609
 Alpha virt. eigenvalues --    0.66684   0.67383   0.67797   0.68701   0.69475
 Alpha virt. eigenvalues --    0.70104   0.70317   0.70988   0.71756   0.72498
 Alpha virt. eigenvalues --    0.73939   0.74200   0.76774   0.79858   0.80707
 Alpha virt. eigenvalues --    0.80856   0.81841   0.82984   0.83299   0.83644
 Alpha virt. eigenvalues --    0.83957   0.84806   0.85162   0.85665   0.86278
 Alpha virt. eigenvalues --    0.87126   0.87852   0.88541   0.89509   0.90453
 Alpha virt. eigenvalues --    0.90604   0.91341   0.93024   0.95151   0.95539
 Alpha virt. eigenvalues --    0.96073   0.97464   0.97732   0.98331   0.98677
 Alpha virt. eigenvalues --    0.99922   1.00535   1.00928   1.01663   1.02941
 Alpha virt. eigenvalues --    1.03801   1.04591   1.05911   1.06345   1.09444
 Alpha virt. eigenvalues --    1.13152   1.14777   1.15573   1.17280   1.21115
 Alpha virt. eigenvalues --    1.24762   1.25609   1.26987   1.27337   1.29082
 Alpha virt. eigenvalues --    1.31517   1.32139   1.34294   1.36069   1.38849
 Alpha virt. eigenvalues --    1.39663   1.43144   1.48134   1.49004   1.49678
 Alpha virt. eigenvalues --    1.50351   1.52902   1.55372   1.55807   1.56481
 Alpha virt. eigenvalues --    1.57269   1.58599   1.60632   1.63156   1.64554
 Alpha virt. eigenvalues --    1.65263   1.65951   1.67472   1.70272   1.71962
 Alpha virt. eigenvalues --    1.72407   1.73708   1.76506   1.80001   1.81596
 Alpha virt. eigenvalues --    1.82026   1.83618   1.84547   1.86727   1.88042
 Alpha virt. eigenvalues --    1.89234   1.90330   1.91405   1.92552   1.94540
 Alpha virt. eigenvalues --    1.94613   1.95258   1.97964   1.99475   2.00641
 Alpha virt. eigenvalues --    2.02279   2.03355   2.05177   2.05453   2.07168
 Alpha virt. eigenvalues --    2.15742   2.18595   2.19702   2.22768   2.25983
 Alpha virt. eigenvalues --    2.27804   2.29108   2.30657   2.31006   2.32862
 Alpha virt. eigenvalues --    2.33480   2.37160   2.38507   2.39176   2.39916
 Alpha virt. eigenvalues --    2.42381   2.45466   2.45953   2.50727   2.51010
 Alpha virt. eigenvalues --    2.53280   2.55945   2.56514   2.58536   2.60495
 Alpha virt. eigenvalues --    2.62048   2.68329   2.68713   2.69545   2.69957
 Alpha virt. eigenvalues --    2.70615   2.72811   2.73072   2.74983   2.75454
 Alpha virt. eigenvalues --    2.76860   2.77562   2.78386   2.79199   2.79862
 Alpha virt. eigenvalues --    2.82240   2.84480   2.84903   2.85835   2.86051
 Alpha virt. eigenvalues --    2.88741   2.91611   2.99431   3.00153   3.10099
 Alpha virt. eigenvalues --    3.10299   3.13717   3.14956   3.18319   3.21337
 Alpha virt. eigenvalues --    3.21908   3.27263   3.33719   3.35942   3.39105
 Alpha virt. eigenvalues --    3.39638   3.51171   3.53273   3.56067   3.61755
 Alpha virt. eigenvalues --    3.71528   3.74979   3.85051   3.95386   4.02487
 Alpha virt. eigenvalues --    4.04812   4.07316   4.10295   4.13619   4.35843
 Alpha virt. eigenvalues --    4.82107   4.82955   9.78315   9.82131   9.84208
 Alpha virt. eigenvalues --   23.43619  23.59899  23.88448  23.89735  23.91322
 Alpha virt. eigenvalues --   23.94514  23.99366  24.02932  24.06546  24.09966
 Alpha virt. eigenvalues --   24.15512  24.17600  25.81096  25.88464  25.97316
 Alpha virt. eigenvalues --   26.16133  26.22435  26.32824  26.56845  26.70412
 Alpha virt. eigenvalues --   26.87956 215.77620 215.82345 215.84397
          Condensed to atoms (all electrons):
               1          2          3          4          5          6
     1  C   24.530502  -5.114996  -2.469517  -3.448595   1.342774   1.586299
     2  C   -5.114996  16.323209   0.443462   2.101348  -2.147050  -3.549214
     3  C   -2.469517   0.443462   7.878191   0.945189  -1.337759  -1.181526
     4  C   -3.448595   2.101348   0.945189  17.340350  -5.639963  -1.932392
     5  C    1.342774  -2.147050  -1.337759  -5.639963  18.237414  -3.463450
     6  C    1.586299  -3.549214  -1.181526  -1.932392  -3.463450  29.824586
     7  C   -1.835119  -1.073632   1.664338  -4.333953  -0.401814 -12.088150
     8  C   -1.866787   3.209134   0.505276  -0.608436  -2.736777  -2.405051
     9  C    0.161600   0.144578   0.050092  -0.063969   0.068704   0.217799
    10  C   -0.735152   0.031828   0.009457   0.001148  -0.111343  -0.279299
    11  C    0.233401  -2.158663  -0.382417   0.389382   1.178197   2.414542
    12  C   -4.832158  -3.104089  -0.242714   0.831906   1.509199  -1.979383
    13  H   -0.007092   0.298805  -0.042661  -0.028798   0.008271  -0.079429
    14  H    0.007686  -0.000208   0.369891   0.001469  -0.017301  -0.013624
    15  H    0.071606  -0.064622  -0.027851   0.228404   0.114507   0.011553
    16  H    0.100760  -0.006372  -0.011740   0.006853   0.006611   0.090734
    17  H    0.006644   0.000357  -0.000366   0.000102  -0.000479   0.001414
    18  H    0.006737  -0.001320  -0.000167   0.000012   0.000306   0.002143
    19  H    0.011596   0.001370  -0.000348   0.000058  -0.000895  -0.000041
    20  Cl  -0.890011   0.223645   0.069408   1.203296  -0.224964   0.576847
    21  Cl  -0.845981   0.659890   0.229766  -0.342017  -0.333539  -1.156398
    22  Cl  -0.316178   0.136550  -0.001700  -0.207162  -0.676128   0.678441
               7          8          9         10         11         12
     1  C   -1.835119  -1.866787   0.161600  -0.735152   0.233401  -4.832158
     2  C   -1.073632   3.209134   0.144578   0.031828  -2.158663  -3.104089
     3  C    1.664338   0.505276   0.050092   0.009457  -0.382417  -0.242714
     4  C   -4.333953  -0.608436  -0.063969   0.001148   0.389382   0.831906
     5  C   -0.401814  -2.736777   0.068704  -0.111343   1.178197   1.509199
     6  C  -12.088150  -2.405051   0.217799  -0.279299   2.414542  -1.979383
     7  C   40.988787  -6.323443  -0.620343  -3.122763  -2.721799  -4.475534
     8  C   -6.323443  27.098090  -2.070127   2.063967 -10.970698  -1.810429
     9  C   -0.620343  -2.070127   8.570406   0.043471   2.622671  -3.041113
    10  C   -3.122763   2.063967   0.043471   7.169931   0.974574  -0.355005
    11  C   -2.721799 -10.970698   2.622671   0.974574  26.250361  -8.688252
    12  C   -4.475534  -1.810429  -3.041113  -0.355005  -8.688252  33.293264
    13  H    0.145092  -0.018441  -0.006103   0.004179   0.015483   0.066854
    14  H   -0.000340  -0.001779  -0.000490   0.000067   0.000233   0.002848
    15  H    0.019788  -0.000515   0.000005  -0.000011   0.000011  -0.000524
    16  H    0.011278   0.276029  -0.063319  -0.017193   0.018506  -0.059053
    17  H   -0.013148   0.006881   0.345522   0.017051  -0.029762   0.014029
    18  H    0.038607  -0.056323   0.049622   0.335045   0.026469  -0.050697
    19  H    0.096077   0.015645  -0.032455  -0.049553   0.293266   0.022543
    20  Cl  -2.575594   1.169534  -0.064258   0.024661  -0.714229  -0.483140
    21  Cl   1.247753   1.284883  -0.128290   0.116393  -2.065621  -0.134901
    22  Cl  -0.025672  -0.027519   0.010682  -0.004116   0.005869  -0.058836
              13         14         15         16         17         18
     1  C   -0.007092   0.007686   0.071606   0.100760   0.006644   0.006737
     2  C    0.298805  -0.000208  -0.064622  -0.006372   0.000357  -0.001320
     3  C   -0.042661   0.369891  -0.027851  -0.011740  -0.000366  -0.000167
     4  C   -0.028798   0.001469   0.228404   0.006853   0.000102   0.000012
     5  C    0.008271  -0.017301   0.114507   0.006611  -0.000479   0.000306
     6  C   -0.079429  -0.013624   0.011553   0.090734   0.001414   0.002143
     7  C    0.145092  -0.000340   0.019788   0.011278  -0.013148   0.038607
     8  C   -0.018441  -0.001779  -0.000515   0.276029   0.006881  -0.056323
     9  C   -0.006103  -0.000490   0.000005  -0.063319   0.345522   0.049622
    10  C    0.004179   0.000067  -0.000011  -0.017193   0.017051   0.335045
    11  C    0.015483   0.000233   0.000011   0.018506  -0.029762   0.026469
    12  C    0.066854   0.002848  -0.000524  -0.059053   0.014029  -0.050697
    13  H    0.531102  -0.006972  -0.000240  -0.000131   0.000003  -0.000003
    14  H   -0.006972   0.528295  -0.007590   0.000005   0.000000  -0.000000
    15  H   -0.000240  -0.007590   0.511167  -0.000001  -0.000000  -0.000000
    16  H   -0.000131   0.000005  -0.000001   0.535141  -0.007298  -0.000263
    17  H    0.000003   0.000000  -0.000000  -0.007298   0.532998  -0.007684
    18  H   -0.000003  -0.000000  -0.000000  -0.000263  -0.007684   0.531031
    19  H    0.000002   0.000000  -0.000000   0.000054  -0.000208  -0.007854
    20  Cl  -0.004181   0.000970  -0.002969  -0.006813  -0.000152  -0.000276
    21  Cl  -0.005462  -0.000614   0.000027  -0.003783   0.001013   0.000004
    22  Cl   0.000213  -0.000205  -0.004557   0.000319  -0.000000   0.000000
              19         20         21         22
     1  C    0.011596  -0.890011  -0.845981  -0.316178
     2  C    0.001370   0.223645   0.659890   0.136550
     3  C   -0.000348   0.069408   0.229766  -0.001700
     4  C    0.000058   1.203296  -0.342017  -0.207162
     5  C   -0.000895  -0.224964  -0.333539  -0.676128
     6  C   -0.000041   0.576847  -1.156398   0.678441
     7  C    0.096077  -2.575594   1.247753  -0.025672
     8  C    0.015645   1.169534   1.284883  -0.027519
     9  C   -0.032455  -0.064258  -0.128290   0.010682
    10  C   -0.049553   0.024661   0.116393  -0.004116
    11  C    0.293266  -0.714229  -2.065621   0.005869
    12  C    0.022543  -0.483140  -0.134901  -0.058836
    13  H    0.000002  -0.004181  -0.005462   0.000213
    14  H    0.000000   0.000970  -0.000614  -0.000205
    15  H   -0.000000  -0.002969   0.000027  -0.004557
    16  H    0.000054  -0.006813  -0.003783   0.000319
    17  H   -0.000208  -0.000152   0.001013  -0.000000
    18  H   -0.007854  -0.000276   0.000004   0.000000
    19  H    0.513830  -0.000508  -0.011329  -0.000007
    20  Cl  -0.000508  18.257700   0.118561  -0.227388
    21  Cl  -0.011329   0.118561  17.959936  -0.000856
    22  Cl  -0.000007  -0.227388  -0.000856  17.268400
 Mulliken charges:
               1
     1  C    0.301982
     2  C   -0.354010
     3  C   -0.466303
     4  C   -0.444233
     5  C    0.625478
     6  C   -1.276401
     7  C    1.399582
     8  C   -0.733112
     9  C   -0.194687
    10  C   -0.117337
    11  C   -0.691525
    12  C   -0.424813
    13  H    0.129508
    14  H    0.137660
    15  H    0.151812
    16  H    0.129674
    17  H    0.133084
    18  H    0.134610
    19  H    0.148757
    20  Cl   0.549860
    21  Cl   0.410564
    22  Cl   0.449851
 Sum of Mulliken charges =  -0.00000
 Mulliken charges with hydrogens summed into heavy atoms:
               1
     1  C    0.301982
     2  C   -0.224502
     3  C   -0.328643
     4  C   -0.292421
     5  C    0.625478
     6  C   -1.276401
     7  C    1.399582
     8  C   -0.603438
     9  C   -0.061603
    10  C    0.017273
    11  C   -0.542768
    12  C   -0.424813
    20  Cl   0.549860
    21  Cl   0.410564
    22  Cl   0.449851
 Electronic spatial extent (au):  <R**2>=           4204.0046
 Charge=              0.0000 electrons
 Dipole moment (field-independent basis, Debye):
    X=              1.6280    Y=              2.2813    Z=             -1.4293  Tot=              3.1461
 Quadrupole moment (field-independent basis, Debye-Ang):
   XX=            -98.0909   YY=           -104.1350   ZZ=           -107.3981
   XY=             -6.6199   XZ=             -3.6297   YZ=             -1.0284
 Traceless Quadrupole moment (field-independent basis, Debye-Ang):
   XX=              5.1171   YY=             -0.9270   ZZ=             -4.1901
   XY=             -6.6199   XZ=             -3.6297   YZ=             -1.0284
 Octapole moment (field-independent basis, Debye-Ang**2):
  XXX=             29.9190  YYY=              2.9771  ZZZ=             -2.0172  XYY=            -20.7919
  XXY=             -2.9126  XXZ=             -2.0927  XZZ=              7.1455  YZZ=             -7.4787
  YYZ=              5.4400  XYZ=             -2.1589
 Hexadecapole moment (field-independent basis, Debye-Ang**3):
 XXXX=          -3578.0494 YYYY=           -930.8543 ZZZZ=           -817.8713 XXXY=            -79.5594
 XXXZ=            -18.5957 YYYX=             -2.3917 YYYZ=              7.6863 ZZZX=            -22.7664
 ZZZY=             -3.5355 XXYY=           -798.8355 XXZZ=           -766.0890 YYZZ=           -334.0619
 XXYZ=              0.6184 YYXZ=              9.1385 ZZXY=             11.3406
 N-N= 1.246490893171D+03 E-N=-6.845448159475D+03  KE= 1.836980520484D+03
 1\1\GINC-DAMODAR\FOpt\RB3LYP\6-311+G(d,p)\C12H7Cl3\PKC\14-Mar-2022\0\\
 # opt b3lyp/6-311+g(d,p) scf=xqc\\Title Card Required\\0,1\C,-5.200111
 4684,-2.3046475523,0.5013306561\C,-3.8743317757,-2.3425837723,0.940863
 3651\C,-3.1089002937,-1.1833229054,1.0109840395\C,-3.6592486029,0.0369
 092515,0.6384230603\C,-4.9776051466,0.0941003451,0.1942615198\C,-5.750
 920274,-1.0705933875,0.1227608441\C,-5.9819251926,-3.5744240398,0.4203
 738576\C,-5.8512781082,-4.4004283645,-0.7027232898\C,-6.5432458829,-5.
 6036125237,-0.8011296774\C,-7.3841404921,-6.0046459905,0.2345027981\C,
 -7.5281976051,-5.2043855758,1.3638793276\C,-6.8300466764,-4.002728786,
 1.4478049325\H,-3.4511641951,-3.2952917548,1.2358479066\H,-2.083240217
 5,-1.2272637886,1.3572062999\H,-3.0791751644,0.9493830319,0.6868736898
 \H,-5.1998195099,-4.0809737797,-1.5081183246\H,-6.4269699626,-6.222795
 0777,-1.6827659061\H,-7.9289141677,-6.9393177088,0.168859787\H,-8.1749
 846103,-5.5038646735,2.1785767243\Cl,-7.4017065197,-1.0020684543,-0.44
 31086512\Cl,-7.030076253,-3.0220794096,2.8935661854\Cl,-5.6316430498,1
 .6477043652,-0.27199777\\Version=EM64L-G16RevB.01\State=1-A\HF=-1842.2
 787976\RMSD=7.118e-09\RMSF=5.636e-06\Dipole=0.7543828,-0.9634934,-0.18
 61066\Quadrupole=2.4273126,1.7875749,-4.2148875,4.6329897,0.5997988,3.
 0276897\PG=C01 [X(C12H7Cl3)]\\@


 BE NOT THE FIRST BY WHOM THE NEW ARE TRIED,
 NOR YET THE THE LAST TO LAY THE OLD ASIDE.

                          -- ALEXANDER POPE
 Job cpu time:       0 days 19 hours 57 minutes 56.9 seconds.
 Elapsed time:       0 days  5 hours 47 minutes 43.4 seconds.
 File lengths (MBytes):  RWF=    104 Int=      0 D2E=      0 Chk=     17 Scr=      1
 Normal termination of Gaussian 16 at Mon Mar 14 22:45:19 2022.
