 Entering Gaussian System, Link 0=g16
 Input=2,2prime,4,5-Tetrachlorobiphenyl.gjf
 Output=2,2prime,4,5-Tetrachlorobiphenyl.log
 Initial command:
 /opt/g16/l1.exe "/scratch/gour/Gau-3525.inp" -scrdir="/scratch/gour/"
 Entering Link 1 = /opt/g16/l1.exe PID=      3526.
  
 Copyright (c) 1988-2017, Gaussian, Inc.  All Rights Reserved.
  
 This is part of the Gaussian(R) 16 program.  It is based on
 the Gaussian(R) 09 system (copyright 2009, Gaussian, Inc.),
 the Gaussian(R) 03 system (copyright 2003, Gaussian, Inc.),
 the Gaussian(R) 98 system (copyright 1998, Gaussian, Inc.),
 the Gaussian(R) 94 system (copyright 1995, Gaussian, Inc.),
 the Gaussian 92(TM) system (copyright 1992, Gaussian, Inc.),
 the Gaussian 90(TM) system (copyright 1990, Gaussian, Inc.),
 the Gaussian 88(TM) system (copyright 1988, Gaussian, Inc.),
 the Gaussian 86(TM) system (copyright 1986, Carnegie Mellon
 University), and the Gaussian 82(TM) system (copyright 1983,
 Carnegie Mellon University). Gaussian is a federally registered
 trademark of Gaussian, Inc.
  
 This software contains proprietary and confidential information,
 including trade secrets, belonging to Gaussian, Inc.
  
 This software is provided under written license and may be
 used, copied, transmitted, or stored only in accord with that
 written license.
  
 The following legend is applicable only to US Government
 contracts under FAR:
  
                    RESTRICTED RIGHTS LEGEND
  
 Use, reproduction and disclosure by the US Government is
 subject to restrictions as set forth in subparagraphs (a)
 and (c) of the Commercial Computer Software - Restricted
 Rights clause in FAR 52.227-19.
  
 Gaussian, Inc.
 340 Quinnipiac St., Bldg. 40, Wallingford CT 06492
  
  
 ---------------------------------------------------------------
 Warning -- This program may not be used in any manner that
 competes with the business of Gaussian, Inc. or will provide
 assistance to any competitor of Gaussian, Inc.  The licensee
 of this program is prohibited from giving any competitor of
 Gaussian, Inc. access to this program.  By using this program,
 the user acknowledges that Gaussian, Inc. is engaged in the
 business of creating and licensing software in the field of
 computational chemistry and represents and warrants to the
 licensee that it is not a competitor of Gaussian, Inc. and that
 it will not use this program in any manner prohibited above.
 ---------------------------------------------------------------
  

 Cite this work as:
 Gaussian 16, Revision B.01,
 M. J. Frisch, G. W. Trucks, H. B. Schlegel, G. E. Scuseria, 
 M. A. Robb, J. R. Cheeseman, G. Scalmani, V. Barone, 
 G. A. Petersson, H. Nakatsuji, X. Li, M. Caricato, A. V. Marenich, 
 J. Bloino, B. G. Janesko, R. Gomperts, B. Mennucci, H. P. Hratchian, 
 J. V. Ortiz, A. F. Izmaylov, J. L. Sonnenberg, D. Williams-Young, 
 F. Ding, F. Lipparini, F. Egidi, J. Goings, B. Peng, A. Petrone, 
 T. Henderson, D. Ranasinghe, V. G. Zakrzewski, J. Gao, N. Rega, 
 G. Zheng, W. Liang, M. Hada, M. Ehara, K. Toyota, R. Fukuda, 
 J. Hasegawa, M. Ishida, T. Nakajima, Y. Honda, O. Kitao, H. Nakai, 
 T. Vreven, K. Throssell, J. A. Montgomery, Jr., J. E. Peralta, 
 F. Ogliaro, M. J. Bearpark, J. J. Heyd, E. N. Brothers, K. N. Kudin, 
 V. N. Staroverov, T. A. Keith, R. Kobayashi, J. Normand, 
 K. Raghavachari, A. P. Rendell, J. C. Burant, S. S. Iyengar, 
 J. Tomasi, M. Cossi, J. M. Millam, M. Klene, C. Adamo, R. Cammi, 
 J. W. Ochterski, R. L. Martin, K. Morokuma, O. Farkas, 
 J. B. Foresman, and D. J. Fox, Gaussian, Inc., Wallingford CT, 2016.
 
 ******************************************
 Gaussian 16:  EM64L-G16RevB.01 20-Dec-2017
                15-Mar-2022 
 ******************************************
 %mem=10GB
 %nprocshared=4
 Will use up to    4 processors via shared memory.
 --------------------------------
 # opt b3lyp/6-311+g(d,p) scf=xqc
 --------------------------------
 1/18=20,19=15,26=3,38=1/1,3;
 2/9=110,12=2,17=6,18=5,40=1/2;
 3/5=4,6=6,7=111,11=2,25=1,30=1,71=1,74=-5/1,2,3;
 4//1;
 5/5=2,8=3,13=1,38=5/2,8;
 6/7=2,8=2,9=2,10=2,28=1/1;
 7//1,2,3,16;
 1/18=20,19=15,26=3/3(2);
 2/9=110/2;
 99//99;
 2/9=110/2;
 3/5=4,6=6,7=111,11=2,25=1,30=1,71=1,74=-5/1,2,3;
 4/5=5,16=3,69=1/1;
 5/5=2,8=3,13=1,38=5/2,8;
 7//1,2,3,16;
 1/18=20,19=15,26=3/3(-5);
 2/9=110/2;
 6/7=2,8=2,9=2,10=2,19=2,28=1/1;
 99/9=1/99;
 -------------------
 Title Card Required
 -------------------
 Symbolic Z-matrix:
 Charge =  0 Multiplicity = 1
 C                    -3.38416  -1.47001  -0.13619 
 C                    -2.05177  -1.44012  -0.56954 
 C                    -1.34388  -0.23067  -0.57561 
 C                    -1.96837   0.94889  -0.14833 
 C                    -3.30075   0.91901   0.28501 
 C                    -4.00864  -0.29044   0.29108 
 C                    -4.16206  -2.79907  -0.12952 
 C                    -3.53757  -3.97864  -0.55679 
 C                    -4.24547  -5.18809  -0.55072 
 C                    -5.57785  -5.21798  -0.11737 
 C                    -6.20233  -4.03841   0.30991 
 C                    -5.49444  -2.82896   0.30383 
 H                    -1.57496  -2.34075  -0.89577 
 H                    -3.77756   1.81963   0.61124 
 H                    -2.52027  -3.95582  -0.88766 
 H                    -3.76866  -6.08872  -0.87695 
 H                    -6.11834  -6.14142  -0.11273 
 H                    -7.21963  -4.06123   0.64078 
 Cl                   -5.68196  -0.32798   0.83532 
 Cl                   -6.27873  -1.34756   0.84045 
 Cl                   -1.07933   2.46783  -0.15596 
 Cl                    0.32944  -0.19314  -1.11984 
 

 GradGradGradGradGradGradGradGradGradGradGradGradGradGradGradGradGradGrad
 Berny optimization.
 Initialization pass.
                           ----------------------------
                           !    Initial Parameters    !
                           ! (Angstroms and Degrees)  !
 --------------------------                            --------------------------
 ! Name  Definition              Value          Derivative Info.                !
 --------------------------------------------------------------------------------
 ! R1    R(1,2)                  1.4014         estimate D2E/DX2                !
 ! R2    R(1,6)                  1.4014         estimate D2E/DX2                !
 ! R3    R(1,7)                  1.54           estimate D2E/DX2                !
 ! R4    R(2,3)                  1.4014         estimate D2E/DX2                !
 ! R5    R(2,13)                 1.07           estimate D2E/DX2                !
 ! R6    R(3,4)                  1.4014         estimate D2E/DX2                !
 ! R7    R(3,22)                 1.76           estimate D2E/DX2                !
 ! R8    R(4,5)                  1.4014         estimate D2E/DX2                !
 ! R9    R(4,21)                 1.76           estimate D2E/DX2                !
 ! R10   R(5,6)                  1.4014         estimate D2E/DX2                !
 ! R11   R(5,14)                 1.07           estimate D2E/DX2                !
 ! R12   R(6,19)                 1.76           estimate D2E/DX2                !
 ! R13   R(7,8)                  1.4014         estimate D2E/DX2                !
 ! R14   R(7,12)                 1.4014         estimate D2E/DX2                !
 ! R15   R(8,9)                  1.4014         estimate D2E/DX2                !
 ! R16   R(8,15)                 1.07           estimate D2E/DX2                !
 ! R17   R(9,10)                 1.4014         estimate D2E/DX2                !
 ! R18   R(9,16)                 1.07           estimate D2E/DX2                !
 ! R19   R(10,11)                1.4014         estimate D2E/DX2                !
 ! R20   R(10,17)                1.07           estimate D2E/DX2                !
 ! R21   R(11,12)                1.4014         estimate D2E/DX2                !
 ! R22   R(11,18)                1.07           estimate D2E/DX2                !
 ! R23   R(12,20)                1.76           estimate D2E/DX2                !
 ! R24   R(19,20)                1.1814         estimate D2E/DX2                !
 ! A1    A(2,1,6)              120.0            estimate D2E/DX2                !
 ! A2    A(2,1,7)              120.0            estimate D2E/DX2                !
 ! A3    A(6,1,7)              120.0            estimate D2E/DX2                !
 ! A4    A(1,2,3)              120.0            estimate D2E/DX2                !
 ! A5    A(1,2,13)             120.0            estimate D2E/DX2                !
 ! A6    A(3,2,13)             120.0            estimate D2E/DX2                !
 ! A7    A(2,3,4)              120.0            estimate D2E/DX2                !
 ! A8    A(2,3,22)             120.0            estimate D2E/DX2                !
 ! A9    A(4,3,22)             120.0            estimate D2E/DX2                !
 ! A10   A(3,4,5)              120.0            estimate D2E/DX2                !
 ! A11   A(3,4,21)             120.0            estimate D2E/DX2                !
 ! A12   A(5,4,21)             120.0            estimate D2E/DX2                !
 ! A13   A(4,5,6)              120.0            estimate D2E/DX2                !
 ! A14   A(4,5,14)             120.0            estimate D2E/DX2                !
 ! A15   A(6,5,14)             120.0            estimate D2E/DX2                !
 ! A16   A(1,6,5)              120.0            estimate D2E/DX2                !
 ! A17   A(1,6,19)             120.0            estimate D2E/DX2                !
 ! A18   A(5,6,19)             120.0            estimate D2E/DX2                !
 ! A19   A(1,7,8)              120.0            estimate D2E/DX2                !
 ! A20   A(1,7,12)             120.0            estimate D2E/DX2                !
 ! A21   A(8,7,12)             120.0            estimate D2E/DX2                !
 ! A22   A(7,8,9)              120.0            estimate D2E/DX2                !
 ! A23   A(7,8,15)             120.0            estimate D2E/DX2                !
 ! A24   A(9,8,15)             120.0            estimate D2E/DX2                !
 ! A25   A(8,9,10)             120.0            estimate D2E/DX2                !
 ! A26   A(8,9,16)             120.0            estimate D2E/DX2                !
 ! A27   A(10,9,16)            120.0            estimate D2E/DX2                !
 ! A28   A(9,10,11)            120.0            estimate D2E/DX2                !
 ! A29   A(9,10,17)            120.0            estimate D2E/DX2                !
 ! A30   A(11,10,17)           120.0            estimate D2E/DX2                !
 ! A31   A(10,11,12)           120.0            estimate D2E/DX2                !
 ! A32   A(10,11,18)           120.0            estimate D2E/DX2                !
 ! A33   A(12,11,18)           120.0            estimate D2E/DX2                !
 ! A34   A(7,12,11)            120.0            estimate D2E/DX2                !
 ! A35   A(7,12,20)            120.0            estimate D2E/DX2                !
 ! A36   A(11,12,20)           120.0            estimate D2E/DX2                !
 ! A37   A(6,19,20)            120.0            estimate D2E/DX2                !
 ! A38   A(12,20,19)           120.0            estimate D2E/DX2                !
 ! D1    D(6,1,2,3)              0.0001         estimate D2E/DX2                !
 ! D2    D(6,1,2,13)           180.0            estimate D2E/DX2                !
 ! D3    D(7,1,2,3)           -180.0            estimate D2E/DX2                !
 ! D4    D(7,1,2,13)            -0.0001         estimate D2E/DX2                !
 ! D5    D(2,1,6,5)             -0.0001         estimate D2E/DX2                !
 ! D6    D(2,1,6,19)           180.0            estimate D2E/DX2                !
 ! D7    D(7,1,6,5)            180.0            estimate D2E/DX2                !
 ! D8    D(7,1,6,19)             0.0            estimate D2E/DX2                !
 ! D9    D(2,1,7,8)             -0.0001         estimate D2E/DX2                !
 ! D10   D(2,1,7,12)           179.9998         estimate D2E/DX2                !
 ! D11   D(6,1,7,8)            179.9999         estimate D2E/DX2                !
 ! D12   D(6,1,7,12)            -0.0002         estimate D2E/DX2                !
 ! D13   D(1,2,3,4)              0.0            estimate D2E/DX2                !
 ! D14   D(1,2,3,22)           180.0            estimate D2E/DX2                !
 ! D15   D(13,2,3,4)          -179.9999         estimate D2E/DX2                !
 ! D16   D(13,2,3,22)            0.0001         estimate D2E/DX2                !
 ! D17   D(2,3,4,5)             -0.0001         estimate D2E/DX2                !
 ! D18   D(2,3,4,21)           180.0            estimate D2E/DX2                !
 ! D19   D(22,3,4,5)           179.9999         estimate D2E/DX2                !
 ! D20   D(22,3,4,21)            0.0            estimate D2E/DX2                !
 ! D21   D(3,4,5,6)              0.0001         estimate D2E/DX2                !
 ! D22   D(3,4,5,14)          -179.9999         estimate D2E/DX2                !
 ! D23   D(21,4,5,6)          -180.0            estimate D2E/DX2                !
 ! D24   D(21,4,5,14)            0.0            estimate D2E/DX2                !
 ! D25   D(4,5,6,1)              0.0            estimate D2E/DX2                !
 ! D26   D(4,5,6,19)           179.9999         estimate D2E/DX2                !
 ! D27   D(14,5,6,1)           180.0            estimate D2E/DX2                !
 ! D28   D(14,5,6,19)           -0.0001         estimate D2E/DX2                !
 ! D29   D(1,6,19,20)            0.0006         estimate D2E/DX2                !
 ! D30   D(5,6,19,20)         -179.9994         estimate D2E/DX2                !
 ! D31   D(1,7,8,9)            179.9999         estimate D2E/DX2                !
 ! D32   D(1,7,8,15)             0.0001         estimate D2E/DX2                !
 ! D33   D(12,7,8,9)             0.0001         estimate D2E/DX2                !
 ! D34   D(12,7,8,15)         -179.9998         estimate D2E/DX2                !
 ! D35   D(1,7,12,11)         -179.9999         estimate D2E/DX2                !
 ! D36   D(1,7,12,20)            0.0            estimate D2E/DX2                !
 ! D37   D(8,7,12,11)           -0.0001         estimate D2E/DX2                !
 ! D38   D(8,7,12,20)          179.9999         estimate D2E/DX2                !
 ! D39   D(7,8,9,10)             0.0            estimate D2E/DX2                !
 ! D40   D(7,8,9,16)           180.0            estimate D2E/DX2                !
 ! D41   D(15,8,9,10)          179.9998         estimate D2E/DX2                !
 ! D42   D(15,8,9,16)           -0.0002         estimate D2E/DX2                !
 ! D43   D(8,9,10,11)            0.0            estimate D2E/DX2                !
 ! D44   D(8,9,10,17)         -179.9999         estimate D2E/DX2                !
 ! D45   D(16,9,10,11)         180.0            estimate D2E/DX2                !
 ! D46   D(16,9,10,17)           0.0001         estimate D2E/DX2                !
 ! D47   D(9,10,11,12)           0.0            estimate D2E/DX2                !
 ! D48   D(9,10,11,18)        -179.9998         estimate D2E/DX2                !
 ! D49   D(17,10,11,12)        179.9999         estimate D2E/DX2                !
 ! D50   D(17,10,11,18)          0.0001         estimate D2E/DX2                !
 ! D51   D(10,11,12,7)           0.0            estimate D2E/DX2                !
 ! D52   D(10,11,12,20)       -179.9999         estimate D2E/DX2                !
 ! D53   D(18,11,12,7)         179.9999         estimate D2E/DX2                !
 ! D54   D(18,11,12,20)         -0.0001         estimate D2E/DX2                !
 ! D55   D(7,12,20,19)           0.0005         estimate D2E/DX2                !
 ! D56   D(11,12,20,19)       -179.9995         estimate D2E/DX2                !
 ! D57   D(6,19,20,12)          -0.0008         estimate D2E/DX2                !
 --------------------------------------------------------------------------------
 Trust Radius=3.00D-01 FncErr=1.00D-07 GrdErr=1.00D-06 EigMax=2.50D+02 EigMin=1.00D-04
 Number of steps in this run=    129 maximum allowed number of steps=    132.
 GradGradGradGradGradGradGradGradGradGradGradGradGradGradGradGradGradGrad

                          Input orientation:                          
 ---------------------------------------------------------------------
 Center     Atomic      Atomic             Coordinates (Angstroms)
 Number     Number       Type             X           Y           Z
 ---------------------------------------------------------------------
      1          6           0       -3.384156   -1.470007   -0.136190
      2          6           0       -2.051775   -1.440121   -0.569536
      3          6           0       -1.343881   -0.230670   -0.575609
      4          6           0       -1.968368    0.948895   -0.148334
      5          6           0       -3.300750    0.919009    0.285011
      6          6           0       -4.008644   -0.290442    0.291083
      7          6           0       -4.162061   -2.799075   -0.129516
      8          6           0       -3.537573   -3.978640   -0.556791
      9          6           0       -4.245466   -5.188091   -0.550716
     10          6           0       -5.577846   -5.217977   -0.117367
     11          6           0       -6.202333   -4.038412    0.309909
     12          6           0       -5.494441   -2.828961    0.303834
     13          1           0       -1.574964   -2.340746   -0.895768
     14          1           0       -3.777561    1.819634    0.611242
     15          1           0       -2.520271   -3.955821   -0.887660
     16          1           0       -3.768656   -6.088715   -0.876951
     17          1           0       -6.118338   -6.141421   -0.112727
     18          1           0       -7.219634   -4.061232    0.640783
     19         17           0       -5.681964   -0.327975    0.835317
     20         17           0       -6.278725   -1.347561    0.840446
     21         17           0       -1.079334    2.467828   -0.155960
     22         17           0        0.329439   -0.193137   -1.119842
 ---------------------------------------------------------------------
                    Distance matrix (angstroms):
                    1          2          3          4          5
     1  C    0.000000
     2  C    1.401400   0.000000
     3  C    2.427296   1.401400   0.000000
     4  C    2.802800   2.427296   1.401400   0.000000
     5  C    2.427296   2.802800   2.427296   1.401400   0.000000
     6  C    1.401400   2.427296   2.802800   2.427296   1.401400
     7  C    1.540000   2.548270   3.838989   4.342800   3.838989
     8  C    2.548270   2.941400   4.342800   5.187469   4.975106
     9  C    3.838989   4.342800   5.744200   6.558176   6.235992
    10  C    4.342800   5.187469   6.558176   7.145600   6.558176
    11  C    3.838989   4.975106   6.235992   6.558176   5.744200
    12  C    2.548270   3.813607   4.975106   5.187469   4.342800
    13  H    2.146700   1.070000   2.146700   3.396345   3.872800
    14  H    3.396345   3.872800   3.396345   2.146700   1.070000
    15  H    2.736837   2.578650   3.918930   4.990735   5.074276
    16  H    4.693509   4.965039   6.347206   7.300676   7.118798
    17  H    5.412800   6.232802   7.612271   8.215600   7.612271
    18  H    4.693509   5.919617   7.118798   7.300676   6.347206
    19  Cl   2.743718   4.048303   4.562800   4.048303   2.743718
    20  Cl   3.057342   4.456874   5.254079   4.983028   3.783409
    21  Cl   4.562800   4.048303   2.743718   1.760000   2.743718
    22  Cl   4.048303   2.743718   1.760000   2.743718   4.048303
                    6          7          8          9         10
     6  C    0.000000
     7  C    2.548270   0.000000
     8  C    3.813607   1.401400   0.000000
     9  C    4.975106   2.427296   1.401400   0.000000
    10  C    5.187469   2.802800   2.427296   1.401400   0.000000
    11  C    4.342800   2.427296   2.802800   2.427296   1.401400
    12  C    2.941400   1.401400   2.427296   2.802800   2.427296
    13  H    3.396345   2.736837   2.578650   3.918930   4.990735
    14  H    2.146700   4.693509   5.919617   7.118798   7.300676
    15  H    4.127917   2.146700   1.070000   2.146700   3.396345
    16  H    5.919617   3.396345   2.146700   1.070000   2.146700
    17  H    6.232802   3.872800   3.396345   2.146700   1.070000
    18  H    4.965039   3.396345   3.872800   3.396345   2.146700
    19  Cl   1.760000   3.057342   4.456874   5.254079   4.983028
    20  Cl   2.563702   2.743718   4.048303   4.562800   4.048303
    21  Cl   4.048303   6.102800   6.910901   8.294174   8.905600
    22  Cl   4.562800   5.286324   5.440665   6.797295   7.819846
                   11         12         13         14         15
    11  C    0.000000
    12  C    1.401400   0.000000
    13  H    5.074276   4.127917   0.000000
    14  H    6.347206   4.965039   4.942800   0.000000
    15  H    3.872800   3.396345   1.871400   6.097816   0.000000
    16  H    3.396345   3.872800   4.342800   8.047159   2.471400
    17  H    2.146700   3.396345   5.974992   8.329571   4.280590
    18  H    1.070000   2.146700   6.097816   6.814200   4.942800
    19  Cl   3.783409   2.563702   4.890332   2.879094   5.111382
    20  Cl   2.743718   1.760000   5.111382   4.042212   4.890332
    21  Cl   8.294174   6.910901   4.890332   2.879094   6.623817
    22  Cl   7.713260   6.549198   2.879094   4.890332   4.725732
                   16         17         18         19         20
    16  H    0.000000
    17  H    2.471400   0.000000
    18  H    4.280590   2.471400   0.000000
    19  Cl   6.307038   5.906383   4.042212   0.000000
    20  Cl   5.632800   4.890332   2.879094   1.181400   0.000000
    21  Cl   8.998151   9.975600   8.998151   5.475705   6.525618
    22  Cl   7.184095   8.830073   8.663168   6.322800   6.988795
                   21         22
    21  Cl   0.000000
    22  Cl   3.161400   0.000000
 Stoichiometry    C12H6Cl4
 Framework group  C1[X(C12H6Cl4)]
 Deg. of freedom    60
 Full point group                 C1      NOp   1
 Largest Abelian subgroup         C1      NOp   1
 Largest concise Abelian subgroup C1      NOp   1
                         Standard orientation:                         
 ---------------------------------------------------------------------
 Center     Atomic      Atomic             Coordinates (Angstroms)
 Number     Number       Type             X           Y           Z
 ---------------------------------------------------------------------
      1          6           0       -0.128860    0.360607    0.000002
      2          6           0        0.908580    1.302753    0.000001
      3          6           0        2.243223    0.875376    0.000000
      4          6           0        2.540425   -0.494147   -0.000000
      5          6           0        1.502984   -1.436293    0.000002
      6          6           0        0.168341   -1.008916    0.000003
      7          6           0       -1.595501    0.830253    0.000002
      8          6           0       -1.892702    2.199776    0.000003
      9          6           0       -3.227345    2.627153    0.000001
     10          6           0       -4.264786    1.685007   -0.000001
     11          6           0       -3.967584    0.315485   -0.000003
     12          6           0       -2.632941   -0.111893   -0.000001
     13          1           0        0.681660    2.348414   -0.000000
     14          1           0        1.729904   -2.481954    0.000004
     15          1           0       -1.100593    2.919125    0.000002
     16          1           0       -3.454265    3.672814    0.000002
     17          1           0       -5.283815    2.011320   -0.000004
     18          1           0       -4.759693   -0.403865   -0.000007
     19         17           0       -1.134567   -2.192144    0.000005
     20         17           0       -2.259690   -1.831859   -0.000005
     21         17           0        4.216585   -1.030885   -0.000002
     22         17           0        3.546131    2.058604   -0.000001
 ---------------------------------------------------------------------
 Rotational constants (GHZ):           0.6621986           0.2279545           0.1695789
 Standard basis: 6-311+G(d,p) (5D, 7F)
 There are   436 symmetry adapted cartesian basis functions of A   symmetry.
 There are   420 symmetry adapted basis functions of A   symmetry.
   420 basis functions,   692 primitive gaussians,   436 cartesian basis functions
    73 alpha electrons       73 beta electrons
       nuclear repulsion energy      1562.2876516367 Hartrees.
 NAtoms=   22 NActive=   22 NUniq=   22 SFac= 1.00D+00 NAtFMM=   60 NAOKFM=F Big=F
 Integral buffers will be    131072 words long.
 Raffenetti 2 integral format.
 Two-electron integral symmetry is turned on.
 One-electron integrals computed using PRISM.
 NBasis=   420 RedAO= T EigKep=  1.12D-06  NBF=   420
 NBsUse=   414 1.00D-06 EigRej=  9.08D-07 NBFU=   414
 ExpMin= 4.38D-02 ExpMax= 1.06D+05 ExpMxC= 3.62D+03 IAcc=3 IRadAn=         5 AccDes= 0.00D+00
 Harris functional with IExCor=  402 and IRadAn=       5 diagonalized for initial guess.
 HarFok:  IExCor=  402 AccDes= 0.00D+00 IRadAn=         5 IDoV= 1 UseB2=F ITyADJ=14
 ICtDFT=  3500011 ScaDFX=  1.000000  1.000000  1.000000  1.000000
 FoFCou: FMM=F IPFlag=           0 FMFlag=      100000 FMFlg1=           0
         NFxFlg=           0 DoJE=T BraDBF=F KetDBF=T FulRan=T
         wScrn=  0.000000 ICntrl=       500 IOpCl=  0 I1Cent=   200000004 NGrid=           0
         NMat0=    1 NMatS0=      1 NMatT0=    0 NMatD0=    1 NMtDS0=    0 NMtDT0=    0
 Petite list used in FoFCou.
 Requested convergence on RMS density matrix=1.00D-08 within  32 cycles.
 Requested convergence on MAX density matrix=1.00D-06.
 Requested convergence on             energy=1.00D-06.
 No special actions if energy rises.
 SCF Done:  E(RB3LYP) =  -2300.27488018     A.U. after   19 cycles
            NFock= 19  Conv=0.63D-08     -V/T= 1.9994
 QCSCF skips out because SCF is already converged.

 **********************************************************************

            Population analysis using the SCF Density.

 **********************************************************************

 Orbital symmetries:
       Occupied  (A) (A) (A) (A) (A) (A) (A) (A) (A) (A) (A) (A)
                 (A) (A) (A) (A) (A) (A) (A) (A) (A) (A) (A) (A)
                 (A) (A) (A) (A) (A) (A) (A) (A) (A) (A) (A) (A)
                 (A) (A) (A) (A) (A) (A) (A) (A) (A) (A) (A) (A)
                 (A) (A) (A) (A) (A) (A) (A) (A) (A) (A) (A) (A)
                 (A) (A) (A) (A) (A) (A) (A) (A) (A) (A) (A) (A)
                 (A)
       Virtual   (A) (A) (A) (A) (A) (A) (A) (A) (A) (A) (A) (A)
                 (A) (A) (A) (A) (A) (A) (A) (A) (A) (A) (A) (A)
                 (A) (A) (A) (A) (A) (A) (A) (A) (A) (A) (A) (A)
                 (A) (A) (A) (A) (A) (A) (A) (A) (A) (A) (A) (A)
                 (A) (A) (A) (A) (A) (A) (A) (A) (A) (A) (A) (A)
                 (A) (A) (A) (A) (A) (A) (A) (A) (A) (A) (A) (A)
                 (A) (A) (A) (A) (A) (A) (A) (A) (A) (A) (A) (A)
                 (A) (A) (A) (A) (A) (A) (A) (A) (A) (A) (A) (A)
                 (A) (A) (A) (A) (A) (A) (A) (A) (A) (A) (A) (A)
                 (A) (A) (A) (A) (A) (A) (A) (A) (A) (A) (A) (A)
                 (A) (A) (A) (A) (A) (A) (A) (A) (A) (A) (A) (A)
                 (A) (A) (A) (A) (A) (A) (A) (A) (A) (A) (A) (A)
                 (A) (A) (A) (A) (A) (A) (A) (A) (A) (A) (A) (A)
                 (A) (A) (A) (A) (A) (A) (A) (A) (A) (A) (A) (A)
                 (A) (A) (A) (A) (A) (A) (A) (A) (A) (A) (A) (A)
                 (A) (A) (A) (A) (A) (A) (A) (A) (A) (A) (A) (A)
                 (A) (A) (A) (A) (A) (A) (A) (A) (A) (A) (A) (A)
                 (A) (A) (A) (A) (A) (A) (A) (A) (A) (A) (A) (A)
                 (A) (A) (A) (A) (A) (A) (A) (A) (A) (A) (A) (A)
                 (A) (A) (A) (A) (A) (A) (A) (A) (A) (A) (A) (A)
                 (A) (A) (A) (A) (A) (A) (A) (A) (A) (A) (A) (A)
                 (A) (A) (A) (A) (A) (A) (A) (A) (A) (A) (A) (A)
                 (A) (A) (A) (A) (A) (A) (A) (A) (A) (A) (A) (A)
                 (A) (A) (A) (A) (A) (A) (A) (A) (A) (A) (A) (A)
                 (A) (A) (A) (A) (A) (A) (A) (A) (A) (A) (A) (A)
                 (A) (A) (A) (A) (A) (A) (A) (A) (A) (A) (A) (A)
                 (A) (A) (A) (A) (A) (A) (A) (A) (A) (A) (A) (A)
                 (A) (A) (A) (A) (A) (A) (A) (A) (A) (A) (A) (A)
                 (A) (A) (A) (A) (A)
 The electronic state is 1-A.
 Alpha  occ. eigenvalues -- -101.65755-101.65689-101.55796-101.55725 -10.25308
 Alpha  occ. eigenvalues --  -10.25115 -10.20640 -10.20048 -10.19955 -10.19710
 Alpha  occ. eigenvalues --  -10.18749 -10.18649 -10.18482 -10.18368 -10.17231
 Alpha  occ. eigenvalues --  -10.16783  -9.64497  -9.62370  -9.47234  -9.47169
 Alpha  occ. eigenvalues --   -7.42908  -7.37928  -7.37908  -7.37472  -7.37302
 Alpha  occ. eigenvalues --   -7.36869  -7.23714  -7.23642  -7.22717  -7.22665
 Alpha  occ. eigenvalues --   -7.22657  -7.22600  -1.38856  -0.91758  -0.88184
 Alpha  occ. eigenvalues --   -0.86010  -0.85609  -0.81206  -0.79666  -0.77848
 Alpha  occ. eigenvalues --   -0.73986  -0.72101  -0.72091  -0.70163  -0.65305
 Alpha  occ. eigenvalues --   -0.63126  -0.60711  -0.58675  -0.56740  -0.51755
 Alpha  occ. eigenvalues --   -0.49760  -0.49327  -0.47650  -0.45881  -0.44826
 Alpha  occ. eigenvalues --   -0.44017  -0.42274  -0.41911  -0.40083  -0.38967
 Alpha  occ. eigenvalues --   -0.38874  -0.35991  -0.35291  -0.34737  -0.34646
 Alpha  occ. eigenvalues --   -0.33177  -0.30793  -0.30096  -0.28306  -0.26950
 Alpha  occ. eigenvalues --   -0.24661  -0.20676  -0.15689
 Alpha virt. eigenvalues --   -0.06074  -0.04964  -0.02224  -0.01527  -0.01065
 Alpha virt. eigenvalues --    0.00405   0.00925   0.00949   0.01792   0.01988
 Alpha virt. eigenvalues --    0.02441   0.02565   0.03489   0.04649   0.04899
 Alpha virt. eigenvalues --    0.05463   0.06133   0.06476   0.06619   0.07660
 Alpha virt. eigenvalues --    0.07664   0.07916   0.08705   0.09833   0.10022
 Alpha virt. eigenvalues --    0.10420   0.10667   0.10674   0.11704   0.11827
 Alpha virt. eigenvalues --    0.12481   0.12814   0.13416   0.13875   0.14103
 Alpha virt. eigenvalues --    0.14204   0.14404   0.15159   0.15197   0.15641
 Alpha virt. eigenvalues --    0.16520   0.16902   0.17156   0.17384   0.17614
 Alpha virt. eigenvalues --    0.18239   0.18291   0.18862   0.19430   0.19586
 Alpha virt. eigenvalues --    0.19986   0.20187   0.20297   0.20523   0.20800
 Alpha virt. eigenvalues --    0.21540   0.21762   0.22337   0.23665   0.23953
 Alpha virt. eigenvalues --    0.23985   0.24519   0.24778   0.25066   0.25138
 Alpha virt. eigenvalues --    0.26279   0.26921   0.27257   0.27546   0.28074
 Alpha virt. eigenvalues --    0.28589   0.28722   0.29763   0.30018   0.30387
 Alpha virt. eigenvalues --    0.31547   0.32830   0.33069   0.33534   0.34345
 Alpha virt. eigenvalues --    0.34711   0.36293   0.37353   0.38158   0.39685
 Alpha virt. eigenvalues --    0.41953   0.43908   0.44579   0.44993   0.45393
 Alpha virt. eigenvalues --    0.45687   0.46063   0.46730   0.48032   0.48713
 Alpha virt. eigenvalues --    0.49224   0.49942   0.50823   0.51438   0.52633
 Alpha virt. eigenvalues --    0.53445   0.54180   0.54742   0.55121   0.55172
 Alpha virt. eigenvalues --    0.55786   0.57292   0.57708   0.58909   0.59046
 Alpha virt. eigenvalues --    0.59881   0.61380   0.61635   0.62694   0.63216
 Alpha virt. eigenvalues --    0.63503   0.65578   0.65594   0.66232   0.66637
 Alpha virt. eigenvalues --    0.67529   0.67931   0.68992   0.69382   0.71297
 Alpha virt. eigenvalues --    0.71771   0.72368   0.72811   0.73869   0.75030
 Alpha virt. eigenvalues --    0.77884   0.79350   0.79776   0.80015   0.81021
 Alpha virt. eigenvalues --    0.81861   0.83530   0.84258   0.85237   0.86205
 Alpha virt. eigenvalues --    0.86304   0.86471   0.86921   0.87646   0.88585
 Alpha virt. eigenvalues --    0.90232   0.90335   0.91259   0.92122   0.92240
 Alpha virt. eigenvalues --    0.92817   0.93506   0.95252   0.95450   0.96075
 Alpha virt. eigenvalues --    0.96356   0.96828   0.98093   0.98325   1.00334
 Alpha virt. eigenvalues --    1.00893   1.03301   1.04413   1.06013   1.07217
 Alpha virt. eigenvalues --    1.08249   1.08832   1.09804   1.10470   1.11899
 Alpha virt. eigenvalues --    1.12275   1.14006   1.18019   1.19391   1.21010
 Alpha virt. eigenvalues --    1.25771   1.26617   1.26916   1.27575   1.28571
 Alpha virt. eigenvalues --    1.30757   1.31548   1.33659   1.34799   1.36315
 Alpha virt. eigenvalues --    1.41496   1.43018   1.44677   1.47938   1.50009
 Alpha virt. eigenvalues --    1.51120   1.51300   1.52033   1.53973   1.55722
 Alpha virt. eigenvalues --    1.56268   1.58613   1.59091   1.59474   1.62415
 Alpha virt. eigenvalues --    1.64768   1.65595   1.68501   1.69285   1.71575
 Alpha virt. eigenvalues --    1.73354   1.74622   1.75834   1.76872   1.80869
 Alpha virt. eigenvalues --    1.83512   1.84508   1.84961   1.87634   1.89235
 Alpha virt. eigenvalues --    1.90433   1.91215   1.93140   1.93316   1.95508
 Alpha virt. eigenvalues --    1.96131   1.97677   1.99120   2.00114   2.00501
 Alpha virt. eigenvalues --    2.00701   2.04205   2.06097   2.07592   2.08112
 Alpha virt. eigenvalues --    2.09278   2.14043   2.15470   2.20812   2.23046
 Alpha virt. eigenvalues --    2.24660   2.25113   2.26798   2.27181   2.29404
 Alpha virt. eigenvalues --    2.29555   2.30436   2.33401   2.33525   2.37150
 Alpha virt. eigenvalues --    2.38759   2.41314   2.42352   2.42846   2.45303
 Alpha virt. eigenvalues --    2.47454   2.49089   2.52919   2.54169   2.58211
 Alpha virt. eigenvalues --    2.59320   2.62597   2.63356   2.64224   2.65438
 Alpha virt. eigenvalues --    2.67436   2.69257   2.71835   2.73005   2.74008
 Alpha virt. eigenvalues --    2.74514   2.76209   2.77162   2.78123   2.78977
 Alpha virt. eigenvalues --    2.80955   2.81406   2.82229   2.83004   2.85362
 Alpha virt. eigenvalues --    2.87157   2.87500   2.92934   2.93281   2.96340
 Alpha virt. eigenvalues --    3.04322   3.07517   3.08952   3.09439   3.12987
 Alpha virt. eigenvalues --    3.15455   3.19189   3.21505   3.25242   3.35005
 Alpha virt. eigenvalues --    3.36148   3.38272   3.42055   3.51686   3.52776
 Alpha virt. eigenvalues --    3.54146   3.58485   3.64979   3.73887   3.85229
 Alpha virt. eigenvalues --    3.89613   3.94169   4.05034   4.10144   4.14332
 Alpha virt. eigenvalues --    4.22745   4.49038   4.81655   4.85003   9.75594
 Alpha virt. eigenvalues --    9.80073   9.81226  10.54859  23.41667  23.61146
 Alpha virt. eigenvalues --   23.84096  23.89880  23.92439  23.95924  23.99565
 Alpha virt. eigenvalues --   24.04162  24.05504  24.07167  24.10818  24.15997
 Alpha virt. eigenvalues --   25.41377  25.79085  25.87593  26.00402  26.12498
 Alpha virt. eigenvalues --   26.15876  26.20060  26.52215  26.77681  27.10209
 Alpha virt. eigenvalues --   27.40129  28.44155 215.74933 215.80764 215.89939
 Alpha virt. eigenvalues --  216.86690
          Condensed to atoms (all electrons):
               1          2          3          4          5          6
     1  C   18.328907  -0.217714  -3.078096   1.251329  -2.993028  -1.988477
     2  C   -0.217714  10.332895   4.019478  -3.500722   0.246145   1.498061
     3  C   -3.078096   4.019478  18.919592  -7.187735  -0.629253   1.195118
     4  C    1.251329  -3.500722  -7.187735  21.237017  -0.008103  -9.906967
     5  C   -2.993028   0.246145  -0.629253  -0.008103  11.715400  -6.044308
     6  C   -1.988477   1.498061   1.195118  -9.906967  -6.044308  44.337997
     7  C    5.837490  -1.570858  -2.064465   0.286571  -1.457017   0.299137
     8  C   -0.726749   0.681345   0.500728  -1.056505   0.208649  -2.904503
     9  C   -0.381343   0.314573   1.266492  -0.464934  -0.424936   0.258706
    10  C   -1.589697  -0.561691  -0.312606   0.154913   0.314017  -0.946305
    11  C   -3.867846  -1.322329  -1.315640   0.869689   1.573443  -5.419068
    12  C    2.926256  -1.980289  -2.238569   0.094741  -3.604074  10.574732
    13  H    0.173605   0.216838  -0.314028   0.092201  -0.045784  -0.010243
    14  H    0.105868  -0.024473  -0.006629   0.037562   0.256428   0.050468
    15  H    0.072803   0.004594  -0.062299   0.004671   0.005438   0.009432
    16  H    0.002814   0.006982   0.001809  -0.000322   0.000124   0.001308
    17  H   -0.000850  -0.000397  -0.000423   0.000118   0.000411   0.000935
    18  H    0.017540   0.004206   0.000893  -0.000788  -0.004066   0.015492
    19  Cl  -1.749993  -0.034141  -1.352045   2.468820   4.356219 -14.676745
    20  Cl  -4.867170  -1.905446  -1.761474   2.501936   2.805694  -9.518545
    21  Cl   0.070505  -0.157967   0.053894   0.045504  -0.164290  -0.646682
    22  Cl  -1.142184   0.343629   0.128137  -0.714680   0.494318   0.434379
               7          8          9         10         11         12
     1  C    5.837490  -0.726749  -0.381343  -1.589697  -3.867846   2.926256
     2  C   -1.570858   0.681345   0.314573  -0.561691  -1.322329  -1.980289
     3  C   -2.064465   0.500728   1.266492  -0.312606  -1.315640  -2.238569
     4  C    0.286571  -1.056505  -0.464934   0.154913   0.869689   0.094741
     5  C   -1.457017   0.208649  -0.424936   0.314017   1.573443  -3.604074
     6  C    0.299137  -2.904503   0.258706  -0.946305  -5.419068  10.574732
     7  C   15.401122  -1.036711  -0.414071  -3.673083  -5.326650   8.428107
     8  C   -1.036711  16.399147  -3.317555   1.393827   0.593801  -4.439119
     9  C   -0.414071  -3.317555  12.411543  -0.026832  -2.104193   1.436030
    10  C   -3.673083   1.393827  -0.026832  11.793494   4.009809  -9.423464
    11  C   -5.326650   0.593801  -2.104193   4.009809  20.167996 -17.029266
    12  C    8.428107  -4.439119   1.436030  -9.423464 -17.029266  45.977640
    13  H    0.119976   0.007036  -0.048568   0.005283   0.013169   0.088652
    14  H    0.013175   0.001795   0.001250  -0.000412  -0.004204   0.018711
    15  H    0.056930   0.437878  -0.280489   0.011309   0.002776   0.016164
    16  H    0.027932  -0.115526   0.441298  -0.022475   0.007213  -0.001001
    17  H   -0.003845   0.059224  -0.035008   0.503213  -0.140041  -0.051583
    18  H    0.143858  -0.018003  -0.029458  -0.103557   0.296679   0.148941
    19  Cl  -0.656233   1.073595  -0.949167   0.507837   2.131635  -5.100576
    20  Cl  -8.286707  -1.461062  -1.528781   4.390378  13.246104 -19.621905
    21  Cl  -0.014540  -0.037488  -0.009195  -0.000139   0.006502  -0.017944
    22  Cl  -0.288220   0.023578   0.061059  -0.004461  -0.029025  -0.151686
              13         14         15         16         17         18
     1  C    0.173605   0.105868   0.072803   0.002814  -0.000850   0.017540
     2  C    0.216838  -0.024473   0.004594   0.006982  -0.000397   0.004206
     3  C   -0.314028  -0.006629  -0.062299   0.001809  -0.000423   0.000893
     4  C    0.092201   0.037562   0.004671  -0.000322   0.000118  -0.000788
     5  C   -0.045784   0.256428   0.005438   0.000124   0.000411  -0.004066
     6  C   -0.010243   0.050468   0.009432   0.001308   0.000935   0.015492
     7  C    0.119976   0.013175   0.056930   0.027932  -0.003845   0.143858
     8  C    0.007036   0.001795   0.437878  -0.115526   0.059224  -0.018003
     9  C   -0.048568   0.001250  -0.280489   0.441298  -0.035008  -0.029458
    10  C    0.005283  -0.000412   0.011309  -0.022475   0.503213  -0.103557
    11  C    0.013169  -0.004204   0.002776   0.007213  -0.140041   0.296679
    12  C    0.088652   0.018711   0.016164  -0.001001  -0.051583   0.148941
    13  H    0.562389   0.000031   0.006530  -0.000009   0.000001  -0.000004
    14  H    0.000031   0.514734  -0.000003   0.000000  -0.000000   0.000001
    15  H    0.006530  -0.000003   0.582163  -0.007599  -0.000192   0.000045
    16  H   -0.000009   0.000000  -0.007599   0.538351  -0.007601  -0.000268
    17  H    0.000001  -0.000000  -0.000192  -0.007601   0.545694  -0.009064
    18  H   -0.000004   0.000001   0.000045  -0.000268  -0.009064   0.538794
    19  Cl   0.015159  -0.116669   0.008615  -0.000370   0.000725   0.006419
    20  Cl   0.023046   0.017570   0.019618   0.000348   0.013211  -0.134924
    21  Cl   0.001223  -0.012337   0.000209  -0.000001   0.000000  -0.000002
    22  Cl  -0.039744   0.000763  -0.001590   0.000025  -0.000001   0.000005
              19         20         21         22
     1  C   -1.749993  -4.867170   0.070505  -1.142184
     2  C   -0.034141  -1.905446  -0.157967   0.343629
     3  C   -1.352045  -1.761474   0.053894   0.128137
     4  C    2.468820   2.501936   0.045504  -0.714680
     5  C    4.356219   2.805694  -0.164290   0.494318
     6  C  -14.676745  -9.518545  -0.646682   0.434379
     7  C   -0.656233  -8.286707  -0.014540  -0.288220
     8  C    1.073595  -1.461062  -0.037488   0.023578
     9  C   -0.949167  -1.528781  -0.009195   0.061059
    10  C    0.507837   4.390378  -0.000139  -0.004461
    11  C    2.131635  13.246104   0.006502  -0.029025
    12  C   -5.100576 -19.621905  -0.017944  -0.151686
    13  H    0.015159   0.023046   0.001223  -0.039744
    14  H   -0.116669   0.017570  -0.012337   0.000763
    15  H    0.008615   0.019618   0.000209  -0.001590
    16  H   -0.000370   0.000348  -0.000001   0.000025
    17  H    0.000725   0.013211   0.000000  -0.000001
    18  H    0.006419  -0.134924  -0.000002   0.000005
    19  Cl  29.101310   1.134801   0.065358  -0.057055
    20  Cl   1.134801  41.743172   0.011873  -0.032369
    21  Cl   0.065358   0.011873  17.493764  -0.206541
    22  Cl  -0.057055  -0.032369  -0.206541  17.650049
 Mulliken charges:
               1
     1  C   -0.183970
     2  C   -0.392721
     3  C    0.237118
     4  C   -0.204318
     5  C   -0.601426
     6  C   -0.613923
     7  C    0.178101
     8  C   -0.267383
     9  C   -0.176422
    10  C   -0.419359
    11  C   -0.360553
    12  C   -0.050496
    13  H    0.133242
    14  H    0.146369
    15  H    0.113001
    16  H    0.126969
    17  H    0.125473
    18  H    0.127260
    19  Cl   0.822500
    20  Cl   0.210631
    21  Cl   0.518291
    22  Cl   0.531614
 Sum of Mulliken charges =  -0.00000
 Mulliken charges with hydrogens summed into heavy atoms:
               1
     1  C   -0.183970
     2  C   -0.259479
     3  C    0.237118
     4  C   -0.204318
     5  C   -0.455057
     6  C   -0.613923
     7  C    0.178101
     8  C   -0.154382
     9  C   -0.049453
    10  C   -0.293886
    11  C   -0.233293
    12  C   -0.050496
    19  Cl   0.822500
    20  Cl   0.210631
    21  Cl   0.518291
    22  Cl   0.531614
 Electronic spatial extent (au):  <R**2>=           5687.1811
 Charge=             -0.0000 electrons
 Dipole moment (field-independent basis, Debye):
    X=             -3.9803    Y=             -1.8512    Z=             -0.0000  Tot=              4.3897
 Quadrupole moment (field-independent basis, Debye-Ang):
   XX=           -124.1181   YY=           -108.1090   ZZ=           -123.2487
   XY=              1.6875   XZ=              0.0000   YZ=             -0.0000
 Traceless Quadrupole moment (field-independent basis, Debye-Ang):
   XX=             -5.6262   YY=             10.3830   ZZ=             -4.7568
   XY=              1.6875   XZ=              0.0000   YZ=             -0.0000
 Octapole moment (field-independent basis, Debye-Ang**2):
  XXX=            -49.2589  YYY=            -24.3065  ZZZ=             -0.0000  XYY=            -20.6181
  XXY=             -8.0652  XXZ=             -0.0001  XZZ=             10.6139  YZZ=            -14.4446
  YYZ=             -0.0000  XYZ=             -0.0000
 Hexadecapole moment (field-independent basis, Debye-Ang**3):
 XXXX=          -5403.6493 YYYY=          -1841.2309 ZZZZ=           -148.6113 XXXY=              8.2890
 XXXZ=              0.0008 YYYX=             53.7617 YYYZ=             -0.0000 ZZZX=             -0.0000
 ZZZY=             -0.0000 XXYY=          -1187.2002 XXZZ=           -998.7936 YYZZ=           -370.6190
 XXYZ=             -0.0001 YYXZ=              0.0000 ZZXY=             40.1764
 N-N= 1.562287651637D+03 E-N=-8.568961002212D+03  KE= 2.301766301040D+03
 Calling FoFJK, ICntrl=      2127 FMM=F ISym2X=0 I1Cent= 0 IOpClX= 0 NMat=1 NMatS=1 NMatT=0.
 ***** Axes restored to original set *****
 -------------------------------------------------------------------
 Center     Atomic                   Forces (Hartrees/Bohr)
 Number     Number              X              Y              Z
 -------------------------------------------------------------------
      1        6           0.003732893   -0.027460021   -0.006387043
      2        6          -0.004708878    0.015879700    0.004533927
      3        6          -0.000964388   -0.001260044    0.000081173
      4        6          -0.003327270   -0.000290817    0.001041380
      5        6           0.005225237   -0.021674875   -0.005792085
      6        6           0.112582076   -0.002767948   -0.037611218
      7        6           0.027167086    0.011675111   -0.006757674
      8        6          -0.017726504   -0.005892077    0.004733535
      9        6          -0.006261740    0.013084361    0.004520281
     10        6           0.006981614    0.013290807    0.000196023
     11        6           0.020744362    0.004346368   -0.006018037
     12        6           0.055372871   -0.087591545   -0.034693044
     13        1           0.007653773   -0.003403298   -0.003160814
     14        1          -0.005004021    0.011473839    0.003803506
     15        1           0.007783196   -0.003515878   -0.003224642
     16        1           0.004336385   -0.008123617   -0.002954303
     17        1          -0.005190257   -0.009090643    0.000002610
     18        1          -0.012992709    0.000522031    0.004378538
     19       17           1.527161062    2.827295755    0.027832410
     20       17          -1.713840973   -2.721946167    0.053456102
     21       17          -0.004182333   -0.000300795    0.001321405
     22       17          -0.004541482   -0.004250247    0.000697972
 -------------------------------------------------------------------
 Cartesian Forces:  Max     2.827295755 RMS     0.560119061

 GradGradGradGradGradGradGradGradGradGradGradGradGradGradGradGradGradGrad
 Berny optimization.
 FormGI is forming the generalized inverse of G from B-inverse, IUseBI=4.
 Internal  Forces:  Max     3.116960354 RMS     0.292490897
 Search for a local minimum.
 Step number   1 out of a maximum of  129
 All quantities printed in internal units (Hartrees-Bohrs-Radians)
 Mixed Optimization -- RFO/linear search
 Second derivative matrix not updated -- first step.
 ITU=  0
     Eigenvalues ---    0.01035   0.01214   0.01489   0.01712   0.01738
     Eigenvalues ---    0.01829   0.02070   0.02070   0.02070   0.02070
     Eigenvalues ---    0.02070   0.02070   0.02070   0.02070   0.02070
     Eigenvalues ---    0.02070   0.02070   0.02070   0.03966   0.16000
     Eigenvalues ---    0.16000   0.16000   0.16000   0.16000   0.16000
     Eigenvalues ---    0.22000   0.22592   0.23084   0.23991   0.24501
     Eigenvalues ---    0.25000   0.25000   0.25000   0.25000   0.25000
     Eigenvalues ---    0.25000   0.28335   0.29041   0.29447   0.29539
     Eigenvalues ---    0.29539   0.37230   0.37230   0.37230   0.37230
     Eigenvalues ---    0.37230   0.37230   0.39993   0.40869   0.41376
     Eigenvalues ---    0.41463   0.44577   0.45130   0.45389   0.45389
     Eigenvalues ---    0.45389   0.45389   0.45389   0.45389  16.61567
 RFO step:  Lambda=-6.26314680D-01 EMin= 1.03510889D-02
 Linear search not attempted -- first point.
 Iteration  1 RMS(Cart)=  0.03062685 RMS(Int)=  0.00050810
 Iteration  2 RMS(Cart)=  0.00122436 RMS(Int)=  0.00023321
 Iteration  3 RMS(Cart)=  0.00000063 RMS(Int)=  0.00023321
 Variable       Old X    -DE/DX   Delta X   Delta X   Delta X     New X
                                 (Linear)    (Quad)   (Total)
    R1        2.64826   0.01591   0.00000   0.00011   0.00005   2.64831
    R2        2.64826   0.10185   0.00000   0.01665   0.01632   2.66458
    R3        2.91018   0.11895   0.00000  -0.01331  -0.01381   2.89636
    R4        2.64826  -0.01141   0.00000  -0.00822  -0.00821   2.64006
    R5        2.02201   0.00724   0.00000   0.00725   0.00725   2.02926
    R6        2.64826  -0.02273   0.00000  -0.00408  -0.00401   2.64425
    R7        3.32592  -0.00462   0.00000  -0.00502  -0.00502   3.32090
    R8        2.64826  -0.02675   0.00000  -0.01014  -0.01008   2.63818
    R9        3.32592  -0.00238   0.00000  -0.00258  -0.00258   3.32334
   R10        2.64826  -0.00913   0.00000  -0.01079  -0.01081   2.63746
   R11        2.02201   0.01305   0.00000   0.01307   0.01307   2.03507
   R12        3.32592   0.05442   0.00000   0.13015   0.13039   3.45631
   R13        2.64826   0.01885   0.00000   0.00285   0.00279   2.65106
   R14        2.64826   0.10241   0.00000   0.01723   0.01690   2.66516
   R15        2.64826  -0.00964   0.00000  -0.00663  -0.00662   2.64165
   R16        2.02201   0.00832   0.00000   0.00833   0.00833   2.03034
   R17        2.64826  -0.02767   0.00000  -0.00872  -0.00865   2.63961
   R18        2.02201   0.00967   0.00000   0.00968   0.00968   2.03169
   R19        2.64826  -0.02413   0.00000  -0.00774  -0.00768   2.64058
   R20        2.02201   0.01047   0.00000   0.01048   0.01048   2.03249
   R21        2.64826  -0.00631   0.00000  -0.00814  -0.00815   2.64011
   R22        2.02201   0.01370   0.00000   0.01371   0.01371   2.03572
   R23        3.32592   0.04784   0.00000   0.12301   0.12325   3.44916
   R24        2.23252   3.11696   0.00000   0.18078   0.18129   2.41382
    A1        2.09440  -0.07995   0.00000  -0.01038  -0.01010   2.08429
    A2        2.09440  -0.16660   0.00000  -0.00205  -0.00139   2.09301
    A3        2.09440   0.24655   0.00000   0.01243   0.01149   2.10589
    A4        2.09440   0.04681   0.00000   0.00642   0.00626   2.10065
    A5        2.09440  -0.01808   0.00000   0.00356   0.00364   2.09804
    A6        2.09440  -0.02873   0.00000  -0.00998  -0.00990   2.08449
    A7        2.09440   0.00701   0.00000   0.00046   0.00043   2.09483
    A8        2.09440  -0.01052   0.00000  -0.00823  -0.00822   2.08618
    A9        2.09440   0.00351   0.00000   0.00777   0.00779   2.10218
   A10        2.09440  -0.00884   0.00000  -0.00222  -0.00219   2.09220
   A11        2.09440   0.01057   0.00000   0.00813   0.00811   2.10251
   A12        2.09440  -0.00173   0.00000  -0.00591  -0.00592   2.08847
   A13        2.09440   0.02096   0.00000   0.00781   0.00775   2.10215
   A14        2.09440  -0.01146   0.00000  -0.00514  -0.00511   2.08928
   A15        2.09440  -0.00951   0.00000  -0.00267  -0.00264   2.09176
   A16        2.09440   0.01401   0.00000  -0.00209  -0.00215   2.09224
   A17        2.09440   0.06844   0.00000   0.03017   0.02999   2.12438
   A18        2.09440  -0.08244   0.00000  -0.02808  -0.02783   2.06656
   A19        2.09440  -0.16534   0.00000  -0.00067  -0.00001   2.09438
   A20        2.09440   0.24585   0.00000   0.01158   0.01064   2.10503
   A21        2.09440  -0.08051   0.00000  -0.01091  -0.01063   2.08377
   A22        2.09440   0.04701   0.00000   0.00663   0.00647   2.10086
   A23        2.09440  -0.01971   0.00000   0.00151   0.00159   2.09599
   A24        2.09440  -0.02730   0.00000  -0.00814  -0.00806   2.08634
   A25        2.09440   0.00744   0.00000   0.00084   0.00081   2.09521
   A26        2.09440  -0.00375   0.00000  -0.00046  -0.00045   2.09395
   A27        2.09440  -0.00369   0.00000  -0.00038  -0.00036   2.09403
   A28        2.09440  -0.00795   0.00000  -0.00134  -0.00132   2.09308
   A29        2.09440   0.00385   0.00000   0.00051   0.00050   2.09490
   A30        2.09440   0.00410   0.00000   0.00083   0.00082   2.09521
   A31        2.09440   0.02082   0.00000   0.00767   0.00761   2.10200
   A32        2.09440  -0.00957   0.00000  -0.00277  -0.00274   2.09165
   A33        2.09440  -0.01124   0.00000  -0.00490  -0.00487   2.08953
   A34        2.09440   0.01319   0.00000  -0.00289  -0.00294   2.09145
   A35        2.09440   0.07024   0.00000   0.03216   0.03197   2.12636
   A36        2.09440  -0.08343   0.00000  -0.02927  -0.02903   2.06537
   A37        2.09440  -0.31608   0.00000  -0.04379  -0.04266   2.05173
   A38        2.09440  -0.31499   0.00000  -0.04254  -0.04142   2.05297
    D1        0.00000   0.00000   0.00000   0.00000   0.00000   0.00000
    D2        3.14159   0.00000   0.00000   0.00000   0.00000   3.14159
    D3       -3.14159   0.00000   0.00000   0.00000   0.00000  -3.14159
    D4       -0.00000   0.00000   0.00000   0.00000   0.00000  -0.00000
    D5       -0.00000  -0.00000   0.00000  -0.00000  -0.00000  -0.00000
    D6        3.14159  -0.00000   0.00000   0.00000   0.00000   3.14159
    D7        3.14159  -0.00000   0.00000  -0.00000  -0.00000   3.14159
    D8        0.00000  -0.00000   0.00000   0.00000   0.00000   0.00000
    D9       -0.00000  -0.00000   0.00000  -0.00000  -0.00000  -0.00000
   D10        3.14159  -0.00000   0.00000  -0.00000  -0.00000   3.14159
   D11        3.14159  -0.00000   0.00000  -0.00000  -0.00000   3.14159
   D12       -0.00000  -0.00000   0.00000  -0.00000  -0.00000  -0.00000
   D13        0.00000  -0.00000   0.00000   0.00000   0.00000   0.00000
   D14        3.14159  -0.00000   0.00000   0.00000   0.00000   3.14159
   D15       -3.14159   0.00000   0.00000  -0.00000  -0.00000  -3.14159
   D16        0.00000   0.00000   0.00000  -0.00000  -0.00000   0.00000
   D17       -0.00000  -0.00000   0.00000   0.00000   0.00000  -0.00000
   D18        3.14159   0.00000   0.00000  -0.00000  -0.00000   3.14159
   D19        3.14159  -0.00000   0.00000   0.00000   0.00000   3.14159
   D20        0.00000   0.00000   0.00000  -0.00000  -0.00000   0.00000
   D21        0.00000   0.00000   0.00000  -0.00000  -0.00000   0.00000
   D22       -3.14159   0.00000   0.00000  -0.00000  -0.00000  -3.14159
   D23       -3.14159  -0.00000   0.00000  -0.00000  -0.00000  -3.14159
   D24        0.00000   0.00000   0.00000   0.00000   0.00000   0.00000
   D25       -0.00000   0.00000   0.00000   0.00000   0.00000  -0.00000
   D26        3.14159   0.00000   0.00000  -0.00000  -0.00000   3.14159
   D27        3.14159  -0.00000   0.00000   0.00000   0.00000   3.14159
   D28       -0.00000   0.00000   0.00000  -0.00000  -0.00000  -0.00000
   D29        0.00001  -0.00000   0.00000  -0.00000  -0.00000   0.00001
   D30       -3.14158  -0.00000   0.00000  -0.00000  -0.00000  -3.14158
   D31        3.14159   0.00000   0.00000   0.00000   0.00000   3.14159
   D32        0.00000   0.00000   0.00000   0.00000   0.00000   0.00000
   D33        0.00000   0.00000   0.00000   0.00000   0.00000   0.00000
   D34       -3.14159   0.00000   0.00000  -0.00000  -0.00000  -3.14159
   D35       -3.14159  -0.00000   0.00000  -0.00000  -0.00000  -3.14159
   D36        0.00000  -0.00000   0.00000   0.00000   0.00000   0.00000
   D37       -0.00000  -0.00000   0.00000  -0.00000  -0.00000  -0.00000
   D38        3.14159  -0.00000   0.00000   0.00000   0.00000   3.14159
   D39       -0.00000  -0.00000   0.00000   0.00000   0.00000  -0.00000
   D40        3.14159  -0.00000   0.00000  -0.00000  -0.00000   3.14159
   D41        3.14159   0.00000   0.00000   0.00000   0.00000   3.14159
   D42       -0.00000   0.00000   0.00000   0.00000   0.00000  -0.00000
   D43       -0.00000  -0.00000   0.00000  -0.00000  -0.00000  -0.00000
   D44       -3.14159  -0.00000   0.00000  -0.00000  -0.00000  -3.14159
   D45        3.14159  -0.00000   0.00000   0.00000   0.00000   3.14159
   D46        0.00000   0.00000   0.00000  -0.00000  -0.00000   0.00000
   D47        0.00000   0.00000   0.00000  -0.00000  -0.00000   0.00000
   D48       -3.14159   0.00000   0.00000  -0.00000  -0.00000  -3.14159
   D49        3.14159  -0.00000   0.00000   0.00000   0.00000   3.14159
   D50        0.00000   0.00000   0.00000  -0.00000  -0.00000   0.00000
   D51        0.00000   0.00000   0.00000   0.00000   0.00000   0.00000
   D52       -3.14159   0.00000   0.00000  -0.00000  -0.00000  -3.14159
   D53        3.14159   0.00000   0.00000   0.00000   0.00000   3.14159
   D54       -0.00000   0.00000   0.00000  -0.00000  -0.00000  -0.00000
   D55        0.00001  -0.00000   0.00000  -0.00000  -0.00000   0.00001
   D56       -3.14158  -0.00000   0.00000  -0.00000  -0.00000  -3.14158
   D57       -0.00001   0.00000   0.00000   0.00000   0.00000  -0.00001
         Item               Value     Threshold  Converged?
 Maximum Force            3.116960     0.000450     NO 
 RMS     Force            0.292491     0.000300     NO 
 Maximum Displacement     0.192634     0.001800     NO 
 RMS     Displacement     0.029990     0.001200     NO 
 Predicted change in Energy=-3.351142D-01
 GradGradGradGradGradGradGradGradGradGradGradGradGradGradGradGradGradGrad

                          Input orientation:                          
 ---------------------------------------------------------------------
 Center     Atomic      Atomic             Coordinates (Angstroms)
 Number     Number       Type             X           Y           Z
 ---------------------------------------------------------------------
      1          6           0       -3.387045   -1.470322   -0.135297
      2          6           0       -2.054686   -1.441775   -0.568888
      3          6           0       -1.340860   -0.240888   -0.578523
      4          6           0       -1.955371    0.942332   -0.153849
      5          6           0       -3.282398    0.920081    0.279166
      6          6           0       -4.002220   -0.275588    0.291756
      7          6           0       -4.160740   -2.793384   -0.128882
      8          6           0       -3.535088   -3.973886   -0.556717
      9          6           0       -4.233423   -5.184854   -0.554076
     10          6           0       -5.561783   -5.225241   -0.124023
     11          6           0       -6.191955   -4.053681    0.303622
     12          6           0       -5.502077   -2.838809    0.304501
     13          1           0       -1.573755   -2.344160   -0.896807
     14          1           0       -3.752680    1.832295    0.605423
     15          1           0       -2.513636   -3.952202   -0.889167
     16          1           0       -3.747705   -6.085735   -0.883294
     17          1           0       -6.098813   -6.157119   -0.122108
     18          1           0       -7.216451   -4.086338    0.635019
     19         17           0       -5.737094   -0.240670    0.869876
     20         17           0       -6.380663   -1.344021    0.874695
     21         17           0       -1.067665    2.460463   -0.161187
     22         17           0        0.328803   -0.230138   -1.126582
 ---------------------------------------------------------------------
                    Distance matrix (angstroms):
                    1          2          3          4          5
     1  C    0.000000
     2  C    1.401426   0.000000
     3  C    2.427926   1.397058   0.000000
     4  C    2.805518   2.422001   1.399278   0.000000
     5  C    2.428324   2.793714   2.419307   1.396065   0.000000
     6  C    1.410037   2.427671   2.800254   2.423114   1.395682
     7  C    1.532690   2.540849   3.830030   4.338185   3.837683
     8  C    2.543097   2.933142   4.330171   5.179479   4.971264
     9  C    3.832686   4.331022   5.728029   6.549207   6.234499
    10  C    4.339244   5.178055   6.547254   7.144653   6.566822
    11  C    3.838478   4.969941   6.232871   6.566435   5.762329
    12  C    2.557253   3.820866   4.984441   5.204444   4.365418
    13  H    2.152094   1.073836   2.139929   3.390965   3.867511
    14  H    3.404355   3.870624   3.393625   2.144492   1.076914
    15  H    2.736949   2.572053   3.904581   4.980845   5.069037
    16  H    4.689522   4.952931   6.328350   7.289600   7.116831
    17  H    5.414788   6.228085   7.605801   8.220178   7.627580
    18  H    4.701200   5.923421   7.126200   7.320437   6.377118
    19  Cl   2.836398   4.131928   4.628686   4.092547   2.778816
    20  Cl   3.161927   4.561531   5.359883   5.086111   3.883305
    21  Cl   4.564127   4.045725   2.747017   1.758635   2.733446
    22  Cl   4.040820   2.731320   1.757345   2.745605   4.042264
                    6          7          8          9         10
     6  C    0.000000
     7  C    2.557609   0.000000
     8  C    3.823026   1.402878   0.000000
     9  C    4.986961   2.430062   1.397899   0.000000
    10  C    5.206167   2.806577   2.420869   1.396824   0.000000
    11  C    4.366814   2.429247   2.793830   2.418893   1.397336
    12  C    2.969821   1.410344   2.428814   2.801885   2.425336
    13  H    3.404278   2.735690   2.572644   3.906513   4.980180
    14  H    2.145654   4.701343   5.925340   7.128530   7.322143
    15  H    4.138592   2.152636   1.074410   2.142285   3.390763
    16  H    5.933239   3.402838   2.147502   1.075125   2.146584
    17  H    6.257747   3.882124   3.395302   2.147457   1.075547
    18  H    4.997092   3.404797   3.871086   3.393985   2.147364
    19  Cl   1.828998   3.162082   4.562993   5.360375   5.085718
    20  Cl   2.671771   2.834762   4.130668   4.626448   4.090461
    21  Cl   4.037665   6.096807   6.902569   8.284157   8.903287
    22  Cl   4.557577   5.265134   5.410181   6.759504   7.788144
                   11         12         13         14         15
    11  C    0.000000
    12  C    1.397085   0.000000
    13  H    5.068655   4.137575   0.000000
    14  H    6.378547   4.997015   4.944409   0.000000
    15  H    3.868212   3.405182   1.862588   6.101593   0.000000
    16  H    3.392988   3.877010   4.327311   8.056768   2.464736
    17  H    2.148109   3.398421   5.967827   8.358492   4.278263
    18  H    1.077257   2.145844   6.100958   6.857755   4.945462
    19  Cl   3.881572   2.669309   4.987909   2.881844   5.221148
    20  Cl   2.775607   1.825219   5.219660   4.131318   4.986753
    21  Cl   8.301112   6.925544   4.886887   2.862095   6.613853
    22  Cl   7.693195   6.546169   2.853351   4.889987   4.689306
                   16         17         18         19         20
    16  H    0.000000
    17  H    2.472288   0.000000
    18  H    4.281946   2.471941   0.000000
    19  Cl   6.418416   6.009929   4.127083   0.000000
    20  Cl   5.701477   4.923308   2.876853   1.277336   0.000000
    21  Cl   8.985630   9.978812   9.016768   5.492065   6.616275
    22  Cl   7.138986   8.800700   8.654731   6.386006   7.089624
                   21         22
    21  Cl   0.000000
    22  Cl   3.181421   0.000000
 Stoichiometry    C12H6Cl4
 Framework group  C1[X(C12H6Cl4)]
 Deg. of freedom    60
 Full point group                 C1      NOp   1
 Largest Abelian subgroup         C1      NOp   1
 Largest concise Abelian subgroup C1      NOp   1
                         Standard orientation:                         
 ---------------------------------------------------------------------
 Center     Atomic      Atomic             Coordinates (Angstroms)
 Number     Number       Type             X           Y           Z
 ---------------------------------------------------------------------
      1          6           0       -0.119615    0.373356    0.000002
      2          6           0        0.927279    1.305026    0.000001
      3          6           0        2.256153    0.873907    0.000000
      4          6           0        2.548285   -0.494537   -0.000000
      5          6           0        1.509585   -1.427328    0.000003
      6          6           0        0.179462   -1.004597    0.000003
      7          6           0       -1.573842    0.857468    0.000002
      8          6           0       -1.855614    2.231757    0.000003
      9          6           0       -3.179062    2.681878    0.000002
     10          6           0       -4.230540    1.762362   -0.000001
     11          6           0       -3.958049    0.391851   -0.000003
     12          6           0       -2.638600   -0.067388   -0.000001
     13          1           0        0.713957    2.357460   -0.000000
     14          1           0        1.737493   -2.479849    0.000004
     15          1           0       -1.053143    2.946179    0.000002
     16          1           0       -3.387713    3.736561    0.000003
     17          1           0       -5.248696    2.109001   -0.000004
     18          1           0       -4.769977   -0.316143   -0.000007
     19         17           0       -1.137010   -2.274295    0.000005
     20         17           0       -2.348476   -1.869402   -0.000006
     21         17           0        4.216872   -1.050069   -0.000002
     22         17           0        3.551874    2.061075   -0.000001
 ---------------------------------------------------------------------
 Rotational constants (GHZ):           0.6374808           0.2272428           0.1675251
 Standard basis: 6-311+G(d,p) (5D, 7F)
 There are   436 symmetry adapted cartesian basis functions of A   symmetry.
 There are   420 symmetry adapted basis functions of A   symmetry.
   420 basis functions,   692 primitive gaussians,   436 cartesian basis functions
    73 alpha electrons       73 beta electrons
       nuclear repulsion energy      1541.5475837477 Hartrees.
 NAtoms=   22 NActive=   22 NUniq=   22 SFac= 1.00D+00 NAtFMM=   60 NAOKFM=F Big=F
 Integral buffers will be    131072 words long.
 Raffenetti 2 integral format.
 Two-electron integral symmetry is turned on.
 One-electron integrals computed using PRISM.
 NBasis=   420 RedAO= T EigKep=  1.50D-06  NBF=   420
 NBsUse=   414 1.00D-06 EigRej=  9.69D-07 NBFU=   414
 Initial guess from the checkpoint file:  "/scratch/gour/Gau-3526.chk"
 B after Tr=     0.000000   -0.000000   -0.000000
         Rot=    0.999994   -0.000000   -0.000000    0.003560 Ang=   0.41 deg.
 ExpMin= 4.38D-02 ExpMax= 1.06D+05 ExpMxC= 3.62D+03 IAcc=3 IRadAn=         5 AccDes= 0.00D+00
 Harris functional with IExCor=  402 and IRadAn=       5 diagonalized for initial guess.
 HarFok:  IExCor=  402 AccDes= 0.00D+00 IRadAn=         5 IDoV= 1 UseB2=F ITyADJ=14
 ICtDFT=  3500011 ScaDFX=  1.000000  1.000000  1.000000  1.000000
 FoFCou: FMM=F IPFlag=           0 FMFlag=      100000 FMFlg1=           0
         NFxFlg=           0 DoJE=T BraDBF=F KetDBF=T FulRan=T
         wScrn=  0.000000 ICntrl=       500 IOpCl=  0 I1Cent=   200000004 NGrid=           0
         NMat0=    1 NMatS0=      1 NMatT0=    0 NMatD0=    1 NMtDS0=    0 NMtDT0=    0
 Petite list used in FoFCou.
 Requested convergence on RMS density matrix=1.00D-08 within  32 cycles.
 Requested convergence on MAX density matrix=1.00D-06.
 Requested convergence on             energy=1.00D-06.
 No special actions if energy rises.
 SCF Done:  E(RB3LYP) =  -2300.78273260     A.U. after   17 cycles
            NFock= 17  Conv=0.43D-08     -V/T= 2.0004
 QCSCF skips out because SCF is already converged.
 Calling FoFJK, ICntrl=      2127 FMM=F ISym2X=0 I1Cent= 0 IOpClX= 0 NMat=1 NMatS=1 NMatT=0.
 ***** Axes restored to original set *****
 -------------------------------------------------------------------
 Center     Atomic                   Forces (Hartrees/Bohr)
 Number     Number              X              Y              Z
 -------------------------------------------------------------------
      1        6          -0.000463131   -0.021919630   -0.003964155
      2        6          -0.003500666    0.010889741    0.003198687
      3        6          -0.000221210   -0.000558739   -0.000031958
      4        6           0.000130132    0.000936301    0.000132785
      5        6          -0.001485202   -0.015879185   -0.002492842
      6        6           0.094135531   -0.016010850   -0.034020852
      7        6           0.020367236    0.011973181   -0.004461388
      8        6          -0.012625578   -0.004290936    0.003353737
      9        6          -0.003244653    0.008418817    0.002650043
     10        6           0.003601423    0.006266713   -0.000009520
     11        6           0.012329606    0.007306988   -0.002689681
     12        6           0.057603726   -0.066836992   -0.031530281
     13        1           0.005925923   -0.001569358   -0.002247128
     14        1          -0.002759877    0.007910991    0.002395039
     15        1           0.004968672   -0.003019194   -0.002204105
     16        1           0.002855377   -0.005022587   -0.001883974
     17        1          -0.003257997   -0.005725678   -0.000002021
     18        1          -0.008613330    0.000095578    0.002855611
     19       17           0.935931395    1.793275453    0.028428376
     20       17          -1.095953599   -1.703430277    0.041165703
     21       17          -0.002586960   -0.000044535    0.000843930
     22       17          -0.003136818   -0.002765801    0.000513993
 -------------------------------------------------------------------
 Cartesian Forces:  Max     1.793275453 RMS     0.352878120

 GradGradGradGradGradGradGradGradGradGradGradGradGradGradGradGradGradGrad
 Berny optimization.
 Using GEDIIS/GDIIS optimizer.
 FormGI is forming the generalized inverse of G from B-inverse, IUseBI=4.
 Internal  Forces:  Max     1.969206589 RMS     0.184792645
 Search for a local minimum.
 Step number   2 out of a maximum of  129
 All quantities printed in internal units (Hartrees-Bohrs-Radians)
 Mixed Optimization -- RFO/linear search
 Update second derivatives using D2CorX and points    1    2
 DE= -5.08D-01 DEPred=-3.35D-01 R= 1.52D+00
 TightC=F SS=  1.41D+00  RLast= 2.74D-01 DXNew= 5.0454D-01 8.2323D-01
 Trust test= 1.52D+00 RLast= 2.74D-01 DXMaxT set to 5.05D-01
 ITU=  1  0
 Use linear search instead of GDIIS.
 Linear search step of   0.549 exceeds DXMaxT=   0.505 but not scaled.
 Quartic linear search produced a step of  2.00000.
 Iteration  1 RMS(Cart)=  0.03967134 RMS(Int)=  0.01611228
 Iteration  2 RMS(Cart)=  0.02257536 RMS(Int)=  0.00129110
 Iteration  3 RMS(Cart)=  0.00021765 RMS(Int)=  0.00128603
 Iteration  4 RMS(Cart)=  0.00000010 RMS(Int)=  0.00128603
 Variable       Old X    -DE/DX   Delta X   Delta X   Delta X     New X
                                 (Linear)    (Quad)   (Total)
    R1        2.64831   0.01105   0.00010   0.00000  -0.00024   2.64807
    R2        2.66458   0.06021   0.03264   0.00000   0.03084   2.69542
    R3        2.89636   0.06104  -0.02763   0.00000  -0.03027   2.86610
    R4        2.64006  -0.00725  -0.01641   0.00000  -0.01633   2.62372
    R5        2.02926   0.00466   0.01450   0.00000   0.01450   2.04375
    R6        2.64425  -0.01499  -0.00802   0.00000  -0.00759   2.63666
    R7        3.32090  -0.00316  -0.01004   0.00000  -0.01004   3.31087
    R8        2.63818  -0.01493  -0.02016   0.00000  -0.01982   2.61836
    R9        3.32334  -0.00135  -0.00516   0.00000  -0.00516   3.31818
   R10        2.63746  -0.00695  -0.02161   0.00000  -0.02168   2.61577
   R11        2.03507   0.00863   0.02613   0.00000   0.02613   2.06120
   R12        3.45631   0.06580   0.26077   0.00000   0.26183   3.71813
   R13        2.65106   0.01251   0.00559   0.00000   0.00525   2.65631
   R14        2.66516   0.06052   0.03380   0.00000   0.03200   2.69716
   R15        2.64165  -0.00644  -0.01323   0.00000  -0.01315   2.62850
   R16        2.03034   0.00535   0.01667   0.00000   0.01667   2.04701
   R17        2.63961  -0.01716  -0.01730   0.00000  -0.01688   2.62274
   R18        2.03169   0.00608   0.01937   0.00000   0.01937   2.05106
   R19        2.64058  -0.01376  -0.01536   0.00000  -0.01502   2.62556
   R20        2.03249   0.00659   0.02096   0.00000   0.02096   2.05345
   R21        2.64011  -0.00534  -0.01631   0.00000  -0.01638   2.62373
   R22        2.03572   0.00907   0.02743   0.00000   0.02743   2.06315
   R23        3.44916   0.05913   0.24649   0.00000   0.24752   3.69668
   R24        2.41382   1.96921   0.36259   0.00000   0.36523   2.77904
    A1        2.08429  -0.04823  -0.02020   0.00000  -0.01872   2.06558
    A2        2.09301  -0.09843  -0.00278   0.00000   0.00084   2.09384
    A3        2.10589   0.14666   0.02298   0.00000   0.01788   2.12377
    A4        2.10065   0.02921   0.01252   0.00000   0.01162   2.11228
    A5        2.09804  -0.00997   0.00729   0.00000   0.00774   2.10578
    A6        2.08449  -0.01925  -0.01981   0.00000  -0.01936   2.06513
    A7        2.09483   0.00370   0.00087   0.00000   0.00075   2.09557
    A8        2.08618  -0.00648  -0.01644   0.00000  -0.01638   2.06980
    A9        2.10218   0.00278   0.01557   0.00000   0.01563   2.11781
   A10        2.09220  -0.00659  -0.00438   0.00000  -0.00423   2.08797
   A11        2.10251   0.00722   0.01623   0.00000   0.01615   2.11866
   A12        2.08847  -0.00064  -0.01185   0.00000  -0.01192   2.07655
   A13        2.10215   0.01487   0.01550   0.00000   0.01514   2.11728
   A14        2.08928  -0.00865  -0.01023   0.00000  -0.01005   2.07924
   A15        2.09176  -0.00622  -0.00527   0.00000  -0.00509   2.08667
   A16        2.09224   0.00704  -0.00430   0.00000  -0.00456   2.08769
   A17        2.12438   0.05456   0.05997   0.00000   0.05877   2.18315
   A18        2.06656  -0.06159  -0.05567   0.00000  -0.05422   2.01235
   A19        2.09438  -0.09741  -0.00002   0.00000   0.00361   2.09799
   A20        2.10503   0.14611   0.02128   0.00000   0.01615   2.12119
   A21        2.08377  -0.04870  -0.02126   0.00000  -0.01976   2.06401
   A22        2.10086   0.02928   0.01294   0.00000   0.01204   2.11290
   A23        2.09599  -0.01141   0.00318   0.00000   0.00363   2.09961
   A24        2.08634  -0.01786  -0.01612   0.00000  -0.01567   2.07067
   A25        2.09521   0.00401   0.00163   0.00000   0.00150   2.09670
   A26        2.09395  -0.00214  -0.00090   0.00000  -0.00083   2.09311
   A27        2.09403  -0.00187  -0.00073   0.00000  -0.00066   2.09337
   A28        2.09308  -0.00606  -0.00264   0.00000  -0.00250   2.09058
   A29        2.09490   0.00299   0.00101   0.00000   0.00094   2.09584
   A30        2.09521   0.00307   0.00163   0.00000   0.00156   2.09677
   A31        2.10200   0.01439   0.01521   0.00000   0.01484   2.11684
   A32        2.09165  -0.00681  -0.00548   0.00000  -0.00530   2.08636
   A33        2.08953  -0.00758  -0.00973   0.00000  -0.00955   2.07998
   A34        2.09145   0.00708  -0.00588   0.00000  -0.00612   2.08534
   A35        2.12636   0.05566   0.06394   0.00000   0.06271   2.18907
   A36        2.06537  -0.06275  -0.05806   0.00000  -0.05659   2.00878
   A37        2.05173  -0.20235  -0.08533   0.00000  -0.07897   1.97276
   A38        2.05297  -0.20064  -0.08284   0.00000  -0.07654   1.97643
    D1        0.00000   0.00000   0.00000   0.00000   0.00000   0.00000
    D2        3.14159   0.00000   0.00000   0.00000   0.00000   3.14159
    D3       -3.14159   0.00000   0.00000   0.00000   0.00000  -3.14159
    D4       -0.00000   0.00000   0.00000   0.00000   0.00000  -0.00000
    D5       -0.00000  -0.00000  -0.00000   0.00000  -0.00000  -0.00000
    D6        3.14159  -0.00000   0.00000   0.00000   0.00000   3.14159
    D7        3.14159  -0.00000  -0.00000   0.00000  -0.00000   3.14159
    D8        0.00000  -0.00000   0.00000   0.00000   0.00000   0.00000
    D9       -0.00000  -0.00000  -0.00000   0.00000  -0.00000  -0.00000
   D10        3.14159  -0.00000  -0.00000   0.00000  -0.00000   3.14159
   D11        3.14159  -0.00000  -0.00000   0.00000  -0.00000   3.14159
   D12       -0.00000  -0.00000  -0.00000   0.00000  -0.00000  -0.00000
   D13        0.00000  -0.00000   0.00000   0.00000   0.00000   0.00000
   D14        3.14159  -0.00000   0.00000   0.00000   0.00000   3.14159
   D15       -3.14159   0.00000  -0.00000   0.00000  -0.00000  -3.14159
   D16        0.00000   0.00000  -0.00000   0.00000  -0.00000   0.00000
   D17       -0.00000  -0.00000   0.00000   0.00000   0.00000  -0.00000
   D18        3.14159   0.00000  -0.00000   0.00000  -0.00000   3.14159
   D19        3.14159  -0.00000   0.00000   0.00000   0.00000   3.14159
   D20        0.00000   0.00000  -0.00000   0.00000  -0.00000   0.00000
   D21        0.00000   0.00000  -0.00000   0.00000  -0.00000   0.00000
   D22       -3.14159   0.00000  -0.00000   0.00000  -0.00000  -3.14159
   D23       -3.14159  -0.00000  -0.00000   0.00000  -0.00000  -3.14159
   D24        0.00000   0.00000   0.00000   0.00000   0.00000   0.00000
   D25       -0.00000   0.00000   0.00000   0.00000   0.00000  -0.00000
   D26        3.14159   0.00000  -0.00000   0.00000  -0.00000   3.14159
   D27        3.14159  -0.00000   0.00000   0.00000   0.00000   3.14159
   D28       -0.00000   0.00000  -0.00000   0.00000  -0.00000  -0.00000
   D29        0.00001  -0.00000  -0.00000   0.00000  -0.00000   0.00001
   D30       -3.14158  -0.00000  -0.00000   0.00000  -0.00000  -3.14158
   D31        3.14159   0.00000   0.00000   0.00000   0.00000   3.14159
   D32        0.00000   0.00000   0.00000   0.00000   0.00000   0.00000
   D33        0.00000   0.00000   0.00000   0.00000   0.00000   0.00000
   D34       -3.14159   0.00000  -0.00000   0.00000  -0.00000  -3.14159
   D35       -3.14159  -0.00000  -0.00000   0.00000  -0.00000  -3.14159
   D36        0.00000  -0.00000   0.00000   0.00000   0.00000   0.00000
   D37       -0.00000  -0.00000  -0.00000   0.00000  -0.00000  -0.00000
   D38        3.14159  -0.00000   0.00000   0.00000   0.00000   3.14159
   D39       -0.00000  -0.00000   0.00000   0.00000   0.00000  -0.00000
   D40        3.14159  -0.00000  -0.00000   0.00000  -0.00000   3.14159
   D41        3.14159   0.00000   0.00000   0.00000   0.00000   3.14159
   D42       -0.00000   0.00000   0.00000   0.00000   0.00000  -0.00000
   D43       -0.00000  -0.00000  -0.00000   0.00000  -0.00000  -0.00000
   D44       -3.14159  -0.00000  -0.00000   0.00000  -0.00000  -3.14159
   D45        3.14159  -0.00000   0.00000   0.00000   0.00000   3.14159
   D46        0.00000   0.00000  -0.00000   0.00000  -0.00000   0.00000
   D47        0.00000   0.00000  -0.00000   0.00000  -0.00000   0.00000
   D48       -3.14159   0.00000  -0.00000   0.00000  -0.00000  -3.14159
   D49        3.14159  -0.00000   0.00000   0.00000   0.00000   3.14159
   D50        0.00000   0.00000  -0.00000   0.00000  -0.00000   0.00000
   D51        0.00000   0.00000   0.00000   0.00000   0.00000   0.00000
   D52       -3.14159   0.00000  -0.00000   0.00000  -0.00000  -3.14159
   D53        3.14159   0.00000   0.00000   0.00000   0.00000   3.14159
   D54       -0.00000   0.00000  -0.00000   0.00000  -0.00000  -0.00000
   D55        0.00001  -0.00000  -0.00000   0.00000  -0.00000   0.00001
   D56       -3.14158  -0.00000  -0.00000   0.00000  -0.00000  -3.14158
   D57       -0.00001   0.00000   0.00000   0.00000   0.00000  -0.00001
         Item               Value     Threshold  Converged?
 Maximum Force            1.969207     0.000450     NO 
 RMS     Force            0.184793     0.000300     NO 
 Maximum Displacement     0.369642     0.001800     NO 
 RMS     Displacement     0.055757     0.001200     NO 
 Predicted change in Energy=-3.665908D-01
 GradGradGradGradGradGradGradGradGradGradGradGradGradGradGradGradGradGrad

                          Input orientation:                          
 ---------------------------------------------------------------------
 Center     Atomic      Atomic             Coordinates (Angstroms)
 Number     Number       Type             X           Y           Z
 ---------------------------------------------------------------------
      1          6           0       -3.387480   -1.475054   -0.136042
      2          6           0       -2.055171   -1.444494   -0.569239
      3          6           0       -1.334477   -0.257866   -0.583814
[...]

            Population analysis using the SCF Density.

 **********************************************************************

 Orbital symmetries:
       Occupied  (A) (A) (A) (A) (A) (A) (A) (A) (A) (A) (A) (A)
                 (A) (A) (A) (A) (A) (A) (A) (A) (A) (A) (A) (A)
                 (A) (A) (A) (A) (A) (A) (A) (A) (A) (A) (A) (A)
                 (A) (A) (A) (A) (A) (A) (A) (A) (A) (A) (A) (A)
                 (A) (A) (A) (A) (A) (A) (A) (A) (A) (A) (A) (A)
                 (A) (A) (A) (A) (A) (A) (A) (A) (A) (A) (A) (A)
                 (A)
       Virtual   (A) (A) (A) (A) (A) (A) (A) (A) (A) (A) (A) (A)
                 (A) (A) (A) (A) (A) (A) (A) (A) (A) (A) (A) (A)
                 (A) (A) (A) (A) (A) (A) (A) (A) (A) (A) (A) (A)
                 (A) (A) (A) (A) (A) (A) (A) (A) (A) (A) (A) (A)
                 (A) (A) (A) (A) (A) (A) (A) (A) (A) (A) (A) (A)
                 (A) (A) (A) (A) (A) (A) (A) (A) (A) (A) (A) (A)
                 (A) (A) (A) (A) (A) (A) (A) (A) (A) (A) (A) (A)
                 (A) (A) (A) (A) (A) (A) (A) (A) (A) (A) (A) (A)
                 (A) (A) (A) (A) (A) (A) (A) (A) (A) (A) (A) (A)
                 (A) (A) (A) (A) (A) (A) (A) (A) (A) (A) (A) (A)
                 (A) (A) (A) (A) (A) (A) (A) (A) (A) (A) (A) (A)
                 (A) (A) (A) (A) (A) (A) (A) (A) (A) (A) (A) (A)
                 (A) (A) (A) (A) (A) (A) (A) (A) (A) (A) (A) (A)
                 (A) (A) (A) (A) (A) (A) (A) (A) (A) (A) (A) (A)
                 (A) (A) (A) (A) (A) (A) (A) (A) (A) (A) (A) (A)
                 (A) (A) (A) (A) (A) (A) (A) (A) (A) (A) (A) (A)
                 (A) (A) (A) (A) (A) (A) (A) (A) (A) (A) (A) (A)
                 (A) (A) (A) (A) (A) (A) (A) (A) (A) (A) (A) (A)
                 (A) (A) (A) (A) (A) (A) (A) (A) (A) (A) (A) (A)
                 (A) (A) (A) (A) (A) (A) (A) (A) (A) (A) (A) (A)
                 (A) (A) (A) (A) (A) (A) (A) (A) (A) (A) (A) (A)
                 (A) (A) (A) (A) (A) (A) (A) (A) (A) (A) (A) (A)
                 (A) (A) (A) (A) (A) (A) (A) (A) (A) (A) (A) (A)
                 (A) (A) (A) (A) (A) (A) (A) (A) (A) (A) (A) (A)
                 (A) (A) (A) (A) (A) (A) (A) (A) (A) (A) (A) (A)
                 (A) (A) (A) (A) (A) (A) (A) (A) (A) (A) (A) (A)
                 (A) (A) (A) (A) (A) (A) (A) (A) (A) (A) (A) (A)
                 (A) (A) (A) (A) (A) (A) (A) (A) (A) (A) (A) (A)
                 (A) (A) (A) (A) (A) (A) (A) (A) (A)
 The electronic state is 1-A.
 Alpha  occ. eigenvalues -- -101.57251-101.57125-101.56817-101.56245 -10.26845
 Alpha  occ. eigenvalues --  -10.26520 -10.26352 -10.25493 -10.22540 -10.21814
 Alpha  occ. eigenvalues --  -10.21604 -10.21511 -10.20223 -10.20186 -10.20058
 Alpha  occ. eigenvalues --  -10.19735  -9.48707  -9.48581  -9.48286  -9.47718
 Alpha  occ. eigenvalues --   -7.25193  -7.25066  -7.24757  -7.24187  -7.24177
 Alpha  occ. eigenvalues --   -7.24129  -7.24059  -7.24005  -7.23766  -7.23720
 Alpha  occ. eigenvalues --   -7.23203  -7.23159  -0.94229  -0.91468  -0.89664
 Alpha  occ. eigenvalues --   -0.87645  -0.85410  -0.84159  -0.80103  -0.76377
 Alpha  occ. eigenvalues --   -0.75375  -0.73440  -0.65867  -0.64033  -0.62817
 Alpha  occ. eigenvalues --   -0.60068  -0.54866  -0.52864  -0.52090  -0.49637
 Alpha  occ. eigenvalues --   -0.49106  -0.47598  -0.46000  -0.45569  -0.44843
 Alpha  occ. eigenvalues --   -0.44096  -0.42028  -0.41805  -0.40165  -0.39059
 Alpha  occ. eigenvalues --   -0.38155  -0.37958  -0.36319  -0.34929  -0.34467
 Alpha  occ. eigenvalues --   -0.33096  -0.32915  -0.32514  -0.32369  -0.28254
 Alpha  occ. eigenvalues --   -0.27878  -0.26496  -0.25961
 Alpha virt. eigenvalues --   -0.05485  -0.04992  -0.03861  -0.03494  -0.02464
 Alpha virt. eigenvalues --   -0.00737   0.00003   0.00598   0.01382   0.01741
 Alpha virt. eigenvalues --    0.02154   0.02738   0.03501   0.03869   0.04560
 Alpha virt. eigenvalues --    0.04974   0.05330   0.05557   0.06400   0.06578
 Alpha virt. eigenvalues --    0.07375   0.08048   0.08213   0.08862   0.09178
 Alpha virt. eigenvalues --    0.09698   0.10104   0.10346   0.10506   0.11354
 Alpha virt. eigenvalues --    0.11506   0.11810   0.12186   0.12622   0.12865
 Alpha virt. eigenvalues --    0.13136   0.13554   0.13928   0.14446   0.14681
 Alpha virt. eigenvalues --    0.15089   0.15213   0.15906   0.16337   0.16637
 Alpha virt. eigenvalues --    0.16900   0.17792   0.17933   0.18648   0.18815
 Alpha virt. eigenvalues --    0.19299   0.19608   0.19912   0.20409   0.20615
 Alpha virt. eigenvalues --    0.20787   0.20894   0.21360   0.21606   0.22361
 Alpha virt. eigenvalues --    0.22452   0.22904   0.23636   0.23884   0.24132
 Alpha virt. eigenvalues --    0.24568   0.25061   0.25473   0.25579   0.26345
 Alpha virt. eigenvalues --    0.26824   0.27134   0.27649   0.27912   0.28560
 Alpha virt. eigenvalues --    0.29040   0.29087   0.29208   0.30149   0.30388
 Alpha virt. eigenvalues --    0.31704   0.31947   0.32774   0.33070   0.33263
 Alpha virt. eigenvalues --    0.35241   0.36840   0.41467   0.42001   0.43251
 Alpha virt. eigenvalues --    0.44084   0.44703   0.45383   0.46105   0.46977
 Alpha virt. eigenvalues --    0.47390   0.47624   0.48186   0.48958   0.49968
 Alpha virt. eigenvalues --    0.50669   0.51110   0.51820   0.53035   0.54137
 Alpha virt. eigenvalues --    0.55010   0.55160   0.56379   0.57266   0.57559
 Alpha virt. eigenvalues --    0.57972   0.58169   0.58562   0.59907   0.61736
 Alpha virt. eigenvalues --    0.61847   0.62380   0.63763   0.64334   0.64564
 Alpha virt. eigenvalues --    0.65666   0.66017   0.66428   0.67253   0.67737
 Alpha virt. eigenvalues --    0.68713   0.69304   0.70020   0.70433   0.71170
 Alpha virt. eigenvalues --    0.71999   0.72532   0.73097   0.76263   0.78902
 Alpha virt. eigenvalues --    0.80005   0.81164   0.81734   0.82343   0.82881
 Alpha virt. eigenvalues --    0.83401   0.84439   0.84653   0.84747   0.85262
 Alpha virt. eigenvalues --    0.85468   0.85807   0.86799   0.87476   0.88089
 Alpha virt. eigenvalues --    0.88382   0.88736   0.90285   0.90608   0.90860
 Alpha virt. eigenvalues --    0.91507   0.92647   0.94000   0.94498   0.95017
 Alpha virt. eigenvalues --    0.95677   0.96444   0.97356   0.97806   0.98389
 Alpha virt. eigenvalues --    0.99154   0.99645   1.00430   1.01460   1.02224
 Alpha virt. eigenvalues --    1.03471   1.04353   1.05035   1.08754   1.11749
 Alpha virt. eigenvalues --    1.14039   1.14592   1.16078   1.18163   1.21964
 Alpha virt. eigenvalues --    1.22386   1.23423   1.25743   1.25905   1.27480
 Alpha virt. eigenvalues --    1.28405   1.29984   1.30970   1.32640   1.33331
 Alpha virt. eigenvalues --    1.34898   1.39114   1.40629   1.43667   1.47882
 Alpha virt. eigenvalues --    1.48955   1.49647   1.52176   1.54928   1.55296
 Alpha virt. eigenvalues --    1.55669   1.56923   1.57696   1.58524   1.61501
 Alpha virt. eigenvalues --    1.64224   1.65027   1.66172   1.67233   1.69604
 Alpha virt. eigenvalues --    1.72537   1.73059   1.74665   1.75900   1.77639
 Alpha virt. eigenvalues --    1.81103   1.82586   1.84396   1.85261   1.85725
 Alpha virt. eigenvalues --    1.87182   1.89138   1.92526   1.93675   1.93805
 Alpha virt. eigenvalues --    1.94319   1.96131   1.98797   2.00303   2.00678
 Alpha virt. eigenvalues --    2.01772   2.02808   2.03979   2.06345   2.08780
 Alpha virt. eigenvalues --    2.11083   2.13205   2.19315   2.21230   2.23632
 Alpha virt. eigenvalues --    2.23861   2.26647   2.27867   2.28832   2.29774
 Alpha virt. eigenvalues --    2.30474   2.31899   2.36447   2.36973   2.38179
 Alpha virt. eigenvalues --    2.38905   2.42562   2.43291   2.45346   2.49184
 Alpha virt. eigenvalues --    2.49294   2.52948   2.54266   2.55279   2.57411
 Alpha virt. eigenvalues --    2.57920   2.60253   2.60658   2.63081   2.67761
 Alpha virt. eigenvalues --    2.68210   2.69690   2.71052   2.72168   2.72727
 Alpha virt. eigenvalues --    2.74538   2.74842   2.75926   2.76783   2.78642
 Alpha virt. eigenvalues --    2.78811   2.81562   2.82790   2.84381   2.84913
 Alpha virt. eigenvalues --    2.85194   2.88116   2.90779   2.99031   2.99842
 Alpha virt. eigenvalues --    3.06607   3.09532   3.09642   3.12625   3.14290
 Alpha virt. eigenvalues --    3.15764   3.20926   3.23511   3.27834   3.33393
 Alpha virt. eigenvalues --    3.35031   3.38765   3.50449   3.51816   3.54236
 Alpha virt. eigenvalues --    3.55976   3.66009   3.75550   3.81032   3.85358
 Alpha virt. eigenvalues --    3.92906   4.02002   4.06680   4.11752   4.13195
 Alpha virt. eigenvalues --    4.34624   4.81076   4.82542   9.75960   9.79820
 Alpha virt. eigenvalues --    9.81535   9.83094  23.39785  23.58798  23.83186
 Alpha virt. eigenvalues --   23.88781  23.90120  23.92887  23.98250  24.02779
 Alpha virt. eigenvalues --   24.05905  24.07224  24.12509  24.16967  25.78265
 Alpha virt. eigenvalues --   25.86433  25.86589  25.96136  26.07542  26.13867
 Alpha virt. eigenvalues --   26.27386  26.32961  26.50889  26.66274  26.76770
 Alpha virt. eigenvalues --   26.81963 215.75031 215.79328 215.81800 215.83180
          Condensed to atoms (all electrons):
               1          2          3          4          5          6
     1  C   34.988702   1.929869 -11.998742  -3.342251  -2.428607  -5.328837
     2  C    1.929869  23.075743   0.589514  -8.068073   0.462689 -10.422799
     3  C  -11.998742   0.589514  31.559357  -6.781938  -9.990124   1.483467
     4  C   -3.342251  -8.068073  -6.781938  29.554610   3.979069  -9.087433
     5  C   -2.428607   0.462689  -9.990124   3.979069  22.710407  -2.682367
     6  C   -5.328837 -10.422799   1.483467  -9.087433  -2.682367  45.221381
     7  C    1.603888  -1.237714   0.625363   1.153824  -3.655986  -6.911119
     8  C   -1.482613   0.160313   0.261721  -0.098215  -0.875482   0.102690
     9  C    0.388299  -0.138250   0.186080  -0.100912   0.038760   0.904818
    10  C   -0.871181   0.050620  -0.044929   0.035286  -0.054396  -0.490377
    11  C   -0.208095  -0.094390  -0.210608  -0.030532   0.502018  -0.225438
    12  C   -5.315989  -0.000727   0.126159   0.433643  -1.160241  -6.824355
    13  H   -0.012911   0.246890  -0.015428   0.070885  -0.052650  -0.080224
    14  H    0.119147  -0.042476   0.035306  -0.013674   0.220460   0.005692
    15  H    0.104681   0.002845  -0.027449  -0.000953   0.026450   0.086092
    16  H    0.002141  -0.002362  -0.000834   0.000009   0.000348   0.003294
    17  H    0.008126  -0.001721  -0.000239   0.000004   0.000183   0.002178
    18  H    0.006045  -0.001768  -0.000939   0.000120   0.000267   0.002752
    19  Cl  -1.513296  -0.456029   0.626550  -0.426849  -0.664882   1.093084
    20  Cl  -0.683675   0.045106   0.282007  -0.002104  -0.423914  -0.209388
    21  Cl   0.136163   0.403546   0.010323  -1.007089   0.315712  -0.461010
    22  Cl  -0.511297   0.337565  -0.918844  -0.323055   0.190222   0.701404
               7          8          9         10         11         12
     1  C    1.603888  -1.482613   0.388299  -0.871181  -0.208095  -5.315989
     2  C   -1.237714   0.160313  -0.138250   0.050620  -0.094390  -0.000727
     3  C    0.625363   0.261721   0.186080  -0.044929  -0.210608   0.126159
     4  C    1.153824  -0.098215  -0.100912   0.035286  -0.030532   0.433643
     5  C   -3.655986  -0.875482   0.038760  -0.054396   0.502018  -1.160241
     6  C   -6.911119   0.102690   0.904818  -0.490377  -0.225438  -6.824355
     7  C   31.295013  -6.058327  -1.534160  -3.385528  -3.658758  -4.039162
     8  C   -6.058327  30.830511  -3.129978   2.360687 -12.516872  -4.868676
     9  C   -1.534160  -3.129978   9.642371  -0.227857   3.296342  -3.388728
    10  C   -3.385528   2.360687  -0.227857   7.641398   0.849306  -0.084913
    11  C   -3.658758 -12.516872   3.296342   0.849306  28.648303  -7.700150
    12  C   -4.039162  -4.868676  -3.388728  -0.084913  -7.700150  39.861468
    13  H    0.119451  -0.025049  -0.012709   0.006535   0.018232   0.100190
    14  H    0.024039   0.000207  -0.000307   0.000081   0.000213   0.002827
    15  H    0.018810   0.287459  -0.049687  -0.020528   0.019808  -0.094001
    16  H   -0.014807   0.015012   0.342218   0.022121  -0.033345   0.015387
    17  H    0.041125  -0.057138   0.049838   0.330648   0.027980  -0.050453
    18  H    0.113194   0.024261  -0.038593  -0.049772   0.263153   0.038537
    19  Cl   0.197118   0.453579   0.050299  -0.037493  -0.364290  -0.132389
    20  Cl   0.574268   1.271863  -0.109661   0.095560  -1.944407  -0.275676
    21  Cl  -0.047681   0.023117   0.002651  -0.000425  -0.006600  -0.059841
    22  Cl  -0.229980  -0.019460   0.023836  -0.005850   0.019139  -0.068248
              13         14         15         16         17         18
     1  C   -0.012911   0.119147   0.104681   0.002141   0.008126   0.006045
     2  C    0.246890  -0.042476   0.002845  -0.002362  -0.001721  -0.001768
     3  C   -0.015428   0.035306  -0.027449  -0.000834  -0.000239  -0.000939
     4  C    0.070885  -0.013674  -0.000953   0.000009   0.000004   0.000120
     5  C   -0.052650   0.220460   0.026450   0.000348   0.000183   0.000267
     6  C   -0.080224   0.005692   0.086092   0.003294   0.002178   0.002752
     7  C    0.119451   0.024039   0.018810  -0.014807   0.041125   0.113194
     8  C   -0.025049   0.000207   0.287459   0.015012  -0.057138   0.024261
     9  C   -0.012709  -0.000307  -0.049687   0.342218   0.049838  -0.038593
    10  C    0.006535   0.000081  -0.020528   0.022121   0.330648  -0.049772
    11  C    0.018232   0.000213   0.019808  -0.033345   0.027980   0.263153
    12  C    0.100190   0.002827  -0.094001   0.015387  -0.050453   0.038537
    13  H    0.510123   0.000045  -0.000571   0.000005  -0.000004   0.000005
    14  H    0.000045   0.491637  -0.000001   0.000000  -0.000000   0.000000
    15  H   -0.000571  -0.000001   0.535625  -0.007265  -0.000252   0.000053
    16  H    0.000005   0.000000  -0.007265   0.530862  -0.007658  -0.000201
    17  H   -0.000004  -0.000000  -0.000252  -0.007658   0.529123  -0.007819
    18  H    0.000005   0.000000   0.000053  -0.000201  -0.007819   0.512311
    19  Cl  -0.000566  -0.006538  -0.007439  -0.000357  -0.000277  -0.001113
    20  Cl  -0.008498  -0.001006  -0.003570   0.001114   0.000053  -0.010508
    21  Cl  -0.000830  -0.007899   0.000114  -0.000000   0.000000  -0.000001
    22  Cl  -0.013084   0.000121   0.000446  -0.000003   0.000001  -0.000010
              19         20         21         22
     1  C   -1.513296  -0.683675   0.136163  -0.511297
     2  C   -0.456029   0.045106   0.403546   0.337565
     3  C    0.626550   0.282007   0.010323  -0.918844
     4  C   -0.426849  -0.002104  -1.007089  -0.323055
     5  C   -0.664882  -0.423914   0.315712   0.190222
     6  C    1.093084  -0.209388  -0.461010   0.701404
     7  C    0.197118   0.574268  -0.047681  -0.229980
     8  C    0.453579   1.271863   0.023117  -0.019460
     9  C    0.050299  -0.109661   0.002651   0.023836
    10  C   -0.037493   0.095560  -0.000425  -0.005850
    11  C   -0.364290  -1.944407  -0.006600   0.019139
    12  C   -0.132389  -0.275676  -0.059841  -0.068248
    13  H   -0.000566  -0.008498  -0.000830  -0.013084
    14  H   -0.006538  -0.001006  -0.007899   0.000121
    15  H   -0.007439  -0.003570   0.000114   0.000446
    16  H   -0.000357   0.001114  -0.000000  -0.000003
    17  H   -0.000277   0.000053   0.000000   0.000001
    18  H   -0.001113  -0.010508  -0.000001  -0.000010
    19  Cl  17.746847   0.118391  -0.043776  -0.001724
    20  Cl   0.118391  17.894701   0.006753  -0.006344
    21  Cl  -0.043776   0.006753  17.416972  -0.174963
    22  Cl  -0.001724  -0.006344  -0.174963  17.485871
 Mulliken charges:
               1
     1  C    0.410433
     2  C   -0.838392
     3  C    0.204224
     4  C    0.055625
     5  C   -0.457936
     6  C   -0.883506
     7  C    1.007129
     8  C   -0.659609
     9  C   -0.194671
    10  C   -0.118994
    11  C   -0.651008
    12  C   -0.514663
    13  H    0.150163
    14  H    0.172124
    15  H    0.129331
    16  H    0.134320
    17  H    0.136301
    18  H    0.150024
    19  Cl   0.371150
    20  Cl   0.388937
    21  Cl   0.494762
    22  Cl   0.514256
 Sum of Mulliken charges =  -0.00000
 Mulliken charges with hydrogens summed into heavy atoms:
               1
     1  C    0.410433
     2  C   -0.688229
     3  C    0.204224
     4  C    0.055625
     5  C   -0.285813
     6  C   -0.883506
     7  C    1.007129
     8  C   -0.530278
     9  C   -0.060351
    10  C    0.017307
    11  C   -0.500983
    12  C   -0.514663
    19  Cl   0.371150
    20  Cl   0.388937
    21  Cl   0.494762
    22  Cl   0.514256
 Electronic spatial extent (au):  <R**2>=           5662.3270
 Charge=              0.0000 electrons
 Dipole moment (field-independent basis, Debye):
    X=             -2.3288    Y=              0.7877    Z=              1.4899  Tot=              2.8746
 Quadrupole moment (field-independent basis, Debye-Ang):
   XX=           -113.4650   YY=           -120.1928   ZZ=           -118.9889
   XY=             -6.5063   XZ=             -2.8177   YZ=              1.9136
 Traceless Quadrupole moment (field-independent basis, Debye-Ang):
   XX=              4.0839   YY=             -2.6439   ZZ=             -1.4400
   XY=             -6.5063   XZ=             -2.8177   YZ=              1.9136
 Octapole moment (field-independent basis, Debye-Ang**2):
  XXX=            -58.7562  YYY=            -11.6239  ZZZ=              0.5360  XYY=             15.8595
  XXY=              7.9541  XXZ=              2.6379  XZZ=             -2.5810  YZZ=              3.1322
  YYZ=             -2.6294  XYZ=             -6.6629
 Hexadecapole moment (field-independent basis, Debye-Ang**3):
 XXXX=          -4927.2270 YYYY=          -1426.5930 ZZZZ=           -823.7843 XXXY=            -75.0600
 XXXZ=             -7.9627 YYYX=             51.5610 YYYZ=            -13.3432 ZZZX=            -18.1476
 ZZZY=             19.2162 XXYY=          -1117.1305 XXZZ=          -1000.8982 YYZZ=           -390.4274
 XXYZ=             18.1351 YYXZ=             -1.7389 ZZXY=             -9.4567
 N-N= 1.468271619858D+03 E-N=-8.381113184305D+03  KE= 2.295550739027D+03
 1\1\GINC-LOCALHOST\FOpt\RB3LYP\6-311+G(d,p)\C12H6Cl4\GOUR\15-Mar-2022\
 0\\# opt b3lyp/6-311+g(d,p) scf=xqc\\Title Card Required\\0,1\C,-3.433
 5971096,-1.4660893306,-0.1045419181\C,-2.0911433792,-1.4976778252,0.27
 8706143\C,-1.3156600527,-0.3428859053,0.3272992035\C,-1.8869283895,0.8
 847574062,-0.0169969025\C,-3.2218962138,0.9390143766,-0.4070573306\C,-
 3.9805172696,-0.2245110399,-0.4491548759\C,-4.2120427672,-2.7374856782
 ,-0.1595351723\C,-4.0904456621,-3.5789431309,-1.2721865139\C,-4.788619
 5745,-4.7799982697,-1.3501814083\C,-5.6254342856,-5.1625623801,-0.3043
 963793\C,-5.7593341766,-4.3469642379,0.815248235\C,-5.0556508251,-3.14
 74622816,0.8794340952\H,-1.6413581881,-2.4429066012,0.5542719102\H,-3.
 6636344389,1.8877617025,-0.6785281143\H,-3.4423405491,-3.2735135426,-2
 .0856882639\H,-4.680088359,-5.4118039394,-2.2237191606\H,-6.1745720264
 ,-6.0956180768,-0.3541721669\H,-6.4017102429,-4.6335051937,1.638011917
 5\Cl,-5.6520289734,-0.1013131525,-0.9610694869\Cl,-5.2366642968,-2.149
 7583693,2.3153173761\Cl,-0.9677265647,2.366985948,0.0232964373\Cl,0.35
 40908473,-0.4691600798,0.8203011533\\Version=EM64L-G16RevB.01\State=1-
 A\HF=-2301.8997856\RMSD=3.472e-09\RMSF=1.087e-05\Dipole=-0.3156927,-0.
 9574427,-0.5125713\Quadrupole=-4.4150514,6.1191051,-1.7040537,1.902869
 5,-0.3985696,1.7963704\PG=C01 [X(C12H6Cl4)]\\@


    WHAT WE HAVE LEARNED
 IS LIKE A HANDFUL OF EARTH;
  WHAT WE HAVE YET TO LEARN
   IS LIKE THE WHOLE WORLD.

         -- AVVAYIAR
 Job cpu time:       0 days 14 hours 38 minutes 49.5 seconds.
 Elapsed time:       0 days  3 hours 40 minutes 22.7 seconds.
 File lengths (MBytes):  RWF=    117 Int=      0 D2E=      0 Chk=     18 Scr=      1
 Normal termination of Gaussian 16 at Tue Mar 15 15:44:55 2022.
