 Entering Gaussian System, Link 0=g16
 Input=2,2prime,4,6prime-Tetrachlorobiphenyl.gjf
 Output=2,2prime,4,6prime-Tetrachlorobiphenyl.log
 Initial command:
 /home/apps/g16/l1.exe "./Gau-285914.inp" -scrdir="./"
 Entering Link 1 = /home/apps/g16/l1.exe PID=    285915.
  
 Copyright (c) 1988-2017, Gaussian, Inc.  All Rights Reserved.
  
 This is part of the Gaussian(R) 16 program.  It is based on
 the Gaussian(R) 09 system (copyright 2009, Gaussian, Inc.),
 the Gaussian(R) 03 system (copyright 2003, Gaussian, Inc.),
 the Gaussian(R) 98 system (copyright 1998, Gaussian, Inc.),
 the Gaussian(R) 94 system (copyright 1995, Gaussian, Inc.),
 the Gaussian 92(TM) system (copyright 1992, Gaussian, Inc.),
 the Gaussian 90(TM) system (copyright 1990, Gaussian, Inc.),
 the Gaussian 88(TM) system (copyright 1988, Gaussian, Inc.),
 the Gaussian 86(TM) system (copyright 1986, Carnegie Mellon
 University), and the Gaussian 82(TM) system (copyright 1983,
 Carnegie Mellon University). Gaussian is a federally registered
 trademark of Gaussian, Inc.
  
 This software contains proprietary and confidential information,
 including trade secrets, belonging to Gaussian, Inc.
  
 This software is provided under written license and may be
 used, copied, transmitted, or stored only in accord with that
 written license.
  
 The following legend is applicable only to US Government
 contracts under FAR:
  
                    RESTRICTED RIGHTS LEGEND
  
 Use, reproduction and disclosure by the US Government is
 subject to restrictions as set forth in subparagraphs (a)
 and (c) of the Commercial Computer Software - Restricted
 Rights clause in FAR 52.227-19.
  
 Gaussian, Inc.
 340 Quinnipiac St., Bldg. 40, Wallingford CT 06492
  
  
 ---------------------------------------------------------------
 Warning -- This program may not be used in any manner that
 competes with the business of Gaussian, Inc. or will provide
 assistance to any competitor of Gaussian, Inc.  The licensee
 of this program is prohibited from giving any competitor of
 Gaussian, Inc. access to this program.  By using this program,
 the user acknowledges that Gaussian, Inc. is engaged in the
 business of creating and licensing software in the field of
 computational chemistry and represents and warrants to the
 licensee that it is not a competitor of Gaussian, Inc. and that
 it will not use this program in any manner prohibited above.
 ---------------------------------------------------------------
  

 Cite this work as:
 Gaussian 16, Revision B.01,
 M. J. Frisch, G. W. Trucks, H. B. Schlegel, G. E. Scuseria, 
 M. A. Robb, J. R. Cheeseman, G. Scalmani, V. Barone, 
 G. A. Petersson, H. Nakatsuji, X. Li, M. Caricato, A. V. Marenich, 
 J. Bloino, B. G. Janesko, R. Gomperts, B. Mennucci, H. P. Hratchian, 
 J. V. Ortiz, A. F. Izmaylov, J. L. Sonnenberg, D. Williams-Young, 
 F. Ding, F. Lipparini, F. Egidi, J. Goings, B. Peng, A. Petrone, 
 T. Henderson, D. Ranasinghe, V. G. Zakrzewski, J. Gao, N. Rega, 
 G. Zheng, W. Liang, M. Hada, M. Ehara, K. Toyota, R. Fukuda, 
 J. Hasegawa, M. Ishida, T. Nakajima, Y. Honda, O. Kitao, H. Nakai, 
 T. Vreven, K. Throssell, J. A. Montgomery, Jr., J. E. Peralta, 
 F. Ogliaro, M. J. Bearpark, J. J. Heyd, E. N. Brothers, K. N. Kudin, 
 V. N. Staroverov, T. A. Keith, R. Kobayashi, J. Normand, 
 K. Raghavachari, A. P. Rendell, J. C. Burant, S. S. Iyengar, 
 J. Tomasi, M. Cossi, J. M. Millam, M. Klene, C. Adamo, R. Cammi, 
 J. W. Ochterski, R. L. Martin, K. Morokuma, O. Farkas, 
 J. B. Foresman, and D. J. Fox, Gaussian, Inc., Wallingford CT, 2016.
 
 ******************************************
 Gaussian 16:  EM64L-G16RevB.01 20-Dec-2017
                 3-Apr-2022 
 ******************************************
 %mem=32GB
 %nprocshared=16
 Will use up to   16 processors via shared memory.
 --------------------------------
 # opt b3lyp/6-311+g(d,p) scf=xqc
 --------------------------------
 1/18=20,19=15,26=3,38=1/1,3;
 2/9=110,12=2,17=6,18=5,40=1/2;
 3/5=4,6=6,7=111,11=2,25=1,30=1,71=1,74=-5/1,2,3;
 4//1;
 5/5=2,8=3,13=1,38=5/2,8;
 6/7=2,8=2,9=2,10=2,28=1/1;
 7//1,2,3,16;
 1/18=20,19=15,26=3/3(2);
 2/9=110/2;
 99//99;
 2/9=110/2;
 3/5=4,6=6,7=111,11=2,25=1,30=1,71=1,74=-5/1,2,3;
 4/5=5,16=3,69=1/1;
 5/5=2,8=3,13=1,38=5/2,8;
 7//1,2,3,16;
 1/18=20,19=15,26=3/3(-5);
 2/9=110/2;
 6/7=2,8=2,9=2,10=2,19=2,28=1/1;
 99/9=1/99;
 -------------------
 Title Card Required
 -------------------
 Symbolic Z-matrix:
 Charge =  0 Multiplicity = 1
 C                    -0.49247   2.39456   0.5347 
 C                     0.83991   2.42445   0.10135 
 C                     1.5478    3.6339    0.09528 
 C                     0.92332   4.81346   0.52255 
 C                    -0.40907   4.78358   0.9559 
 C                    -1.11696   3.57413   0.96197 
 C                    -1.51865   0.64131   0.5435 
 C                    -0.89416  -0.53825   0.11623 
 C                    -1.60205  -1.7477    0.1223 
 C                    -2.93443  -1.77759   0.55565 
 C                    -3.55892  -0.59802   0.98293 
 C                    -2.85103   0.61143   0.97685 
 H                     2.56511   3.65672  -0.23559 
 H                     1.46381   5.73691   0.51792 
 H                    -0.88588   5.6842    1.28213 
 H                     0.12314  -0.51543  -0.21464 
 H                    -1.12524  -2.64833  -0.20393 
 H                    -4.57622  -0.62084   1.3138 
 Cl                   -3.63531   2.09283   1.51346 
 Cl                   -2.79028   3.53659   1.5062 
 Cl                   -3.82347  -3.29652   0.56328 
 Cl                    1.6242    0.94305  -0.43525 
 

 GradGradGradGradGradGradGradGradGradGradGradGradGradGradGradGradGradGrad
 Berny optimization.
 Initialization pass.
                           ----------------------------
                           !    Initial Parameters    !
                           ! (Angstroms and Degrees)  !
 --------------------------                            --------------------------
 ! Name  Definition              Value          Derivative Info.                !
 --------------------------------------------------------------------------------
 ! R1    R(1,2)                  1.4014         estimate D2E/DX2                !
 ! R2    R(1,6)                  1.4014         estimate D2E/DX2                !
 ! R3    R(2,3)                  1.4014         estimate D2E/DX2                !
 ! R4    R(2,22)                 1.76           estimate D2E/DX2                !
 ! R5    R(3,4)                  1.4014         estimate D2E/DX2                !
 ! R6    R(3,13)                 1.07           estimate D2E/DX2                !
 ! R7    R(4,5)                  1.4014         estimate D2E/DX2                !
 ! R8    R(4,14)                 1.07           estimate D2E/DX2                !
 ! R9    R(5,6)                  1.4014         estimate D2E/DX2                !
 ! R10   R(5,15)                 1.07           estimate D2E/DX2                !
 ! R11   R(6,20)                 1.76           estimate D2E/DX2                !
 ! R12   R(7,8)                  1.4014         estimate D2E/DX2                !
 ! R13   R(7,12)                 1.4014         estimate D2E/DX2                !
 ! R14   R(8,9)                  1.4014         estimate D2E/DX2                !
 ! R15   R(8,16)                 1.07           estimate D2E/DX2                !
 ! R16   R(9,10)                 1.4014         estimate D2E/DX2                !
 ! R17   R(9,17)                 1.07           estimate D2E/DX2                !
 ! R18   R(10,11)                1.4014         estimate D2E/DX2                !
 ! R19   R(10,21)                1.76           estimate D2E/DX2                !
 ! R20   R(11,12)                1.4014         estimate D2E/DX2                !
 ! R21   R(11,18)                1.07           estimate D2E/DX2                !
 ! R22   R(12,19)                1.76           estimate D2E/DX2                !
 ! R23   R(19,20)                1.6729         estimate D2E/DX2                !
 ! A1    A(2,1,6)              120.0            estimate D2E/DX2                !
 ! A2    A(1,2,3)              120.0            estimate D2E/DX2                !
 ! A3    A(1,2,22)             120.0            estimate D2E/DX2                !
 ! A4    A(3,2,22)             120.0            estimate D2E/DX2                !
 ! A5    A(2,3,4)              120.0            estimate D2E/DX2                !
 ! A6    A(2,3,13)             120.0            estimate D2E/DX2                !
 ! A7    A(4,3,13)             120.0            estimate D2E/DX2                !
 ! A8    A(3,4,5)              120.0            estimate D2E/DX2                !
 ! A9    A(3,4,14)             120.0            estimate D2E/DX2                !
 ! A10   A(5,4,14)             120.0            estimate D2E/DX2                !
 ! A11   A(4,5,6)              120.0            estimate D2E/DX2                !
 ! A12   A(4,5,15)             120.0            estimate D2E/DX2                !
 ! A13   A(6,5,15)             120.0            estimate D2E/DX2                !
 ! A14   A(1,6,5)              120.0            estimate D2E/DX2                !
 ! A15   A(1,6,20)             120.0            estimate D2E/DX2                !
 ! A16   A(5,6,20)             120.0            estimate D2E/DX2                !
 ! A17   A(8,7,12)             120.0            estimate D2E/DX2                !
 ! A18   A(7,8,9)              120.0            estimate D2E/DX2                !
 ! A19   A(7,8,16)             120.0            estimate D2E/DX2                !
 ! A20   A(9,8,16)             120.0            estimate D2E/DX2                !
 ! A21   A(8,9,10)             120.0            estimate D2E/DX2                !
 ! A22   A(8,9,17)             120.0            estimate D2E/DX2                !
 ! A23   A(10,9,17)            120.0            estimate D2E/DX2                !
 ! A24   A(9,10,11)            120.0            estimate D2E/DX2                !
 ! A25   A(9,10,21)            120.0            estimate D2E/DX2                !
 ! A26   A(11,10,21)           120.0            estimate D2E/DX2                !
 ! A27   A(10,11,12)           120.0            estimate D2E/DX2                !
 ! A28   A(10,11,18)           120.0            estimate D2E/DX2                !
 ! A29   A(12,11,18)           120.0            estimate D2E/DX2                !
 ! A30   A(7,12,11)            120.0            estimate D2E/DX2                !
 ! A31   A(7,12,19)            120.0            estimate D2E/DX2                !
 ! A32   A(11,12,19)           120.0            estimate D2E/DX2                !
 ! A33   A(12,19,20)           120.0            estimate D2E/DX2                !
 ! A34   A(6,20,19)            120.0            estimate D2E/DX2                !
 ! D1    D(6,1,2,3)              0.0001         estimate D2E/DX2                !
 ! D2    D(6,1,2,22)           180.0            estimate D2E/DX2                !
 ! D3    D(2,1,6,5)             -0.0001         estimate D2E/DX2                !
 ! D4    D(2,1,6,20)           180.0            estimate D2E/DX2                !
 ! D5    D(1,2,3,4)              0.0            estimate D2E/DX2                !
 ! D6    D(1,2,3,13)           180.0            estimate D2E/DX2                !
 ! D7    D(22,2,3,4)          -179.9999         estimate D2E/DX2                !
 ! D8    D(22,2,3,13)            0.0001         estimate D2E/DX2                !
 ! D9    D(2,3,4,5)             -0.0001         estimate D2E/DX2                !
 ! D10   D(2,3,4,14)           180.0            estimate D2E/DX2                !
 ! D11   D(13,3,4,5)           179.9999         estimate D2E/DX2                !
 ! D12   D(13,3,4,14)            0.0            estimate D2E/DX2                !
 ! D13   D(3,4,5,6)              0.0001         estimate D2E/DX2                !
 ! D14   D(3,4,5,15)          -179.9999         estimate D2E/DX2                !
 ! D15   D(14,4,5,6)          -180.0            estimate D2E/DX2                !
 ! D16   D(14,4,5,15)            0.0            estimate D2E/DX2                !
 ! D17   D(4,5,6,1)              0.0            estimate D2E/DX2                !
 ! D18   D(4,5,6,20)           179.9999         estimate D2E/DX2                !
 ! D19   D(15,5,6,1)           180.0            estimate D2E/DX2                !
 ! D20   D(15,5,6,20)           -0.0001         estimate D2E/DX2                !
 ! D21   D(1,6,20,19)            0.0004         estimate D2E/DX2                !
 ! D22   D(5,6,20,19)         -179.9996         estimate D2E/DX2                !
 ! D23   D(12,7,8,9)             0.0001         estimate D2E/DX2                !
 ! D24   D(12,7,8,16)         -179.9998         estimate D2E/DX2                !
 ! D25   D(8,7,12,11)           -0.0001         estimate D2E/DX2                !
 ! D26   D(8,7,12,19)          179.9999         estimate D2E/DX2                !
 ! D27   D(7,8,9,10)             0.0            estimate D2E/DX2                !
 ! D28   D(7,8,9,17)           180.0            estimate D2E/DX2                !
 ! D29   D(16,8,9,10)          179.9998         estimate D2E/DX2                !
 ! D30   D(16,8,9,17)           -0.0002         estimate D2E/DX2                !
 ! D31   D(8,9,10,11)            0.0            estimate D2E/DX2                !
 ! D32   D(8,9,10,21)         -179.9999         estimate D2E/DX2                !
 ! D33   D(17,9,10,11)         180.0            estimate D2E/DX2                !
 ! D34   D(17,9,10,21)           0.0001         estimate D2E/DX2                !
 ! D35   D(9,10,11,12)           0.0            estimate D2E/DX2                !
 ! D36   D(9,10,11,18)        -179.9998         estimate D2E/DX2                !
 ! D37   D(21,10,11,12)        179.9999         estimate D2E/DX2                !
 ! D38   D(21,10,11,18)          0.0001         estimate D2E/DX2                !
 ! D39   D(10,11,12,7)           0.0            estimate D2E/DX2                !
 ! D40   D(10,11,12,19)       -179.9999         estimate D2E/DX2                !
 ! D41   D(18,11,12,7)         179.9999         estimate D2E/DX2                !
 ! D42   D(18,11,12,19)         -0.0001         estimate D2E/DX2                !
 ! D43   D(7,12,19,20)           0.0004         estimate D2E/DX2                !
 ! D44   D(11,12,19,20)       -179.9997         estimate D2E/DX2                !
 ! D45   D(12,19,20,6)          -0.0006         estimate D2E/DX2                !
 --------------------------------------------------------------------------------
 Trust Radius=3.00D-01 FncErr=1.00D-07 GrdErr=1.00D-06 EigMax=2.50D+02 EigMin=1.00D-04
 Number of steps in this run=    112 maximum allowed number of steps=    132.
 GradGradGradGradGradGradGradGradGradGradGradGradGradGradGradGradGradGrad

                          Input orientation:                          
 ---------------------------------------------------------------------
 Center     Atomic      Atomic             Coordinates (Angstroms)
 Number     Number       Type             X           Y           Z
 ---------------------------------------------------------------------
      1          6           0       -0.492471    2.394561    0.534698
      2          6           0        0.839910    2.424447    0.101351
      3          6           0        1.547803    3.633898    0.095279
      4          6           0        0.923316    4.813463    0.522553
      5          6           0       -0.409066    4.783578    0.955898
      6          6           0       -1.116959    3.574127    0.961970
      7          6           0       -1.518649    0.641315    0.543501
      8          6           0       -0.894162   -0.538250    0.116227
      9          6           0       -1.602054   -1.747702    0.122301
     10          6           0       -2.934435   -1.777588    0.555651
     11          6           0       -3.558922   -0.598023    0.982926
     12          6           0       -2.851029    0.611428    0.976852
     13          1           0        2.565106    3.656717   -0.235591
     14          1           0        1.463809    5.736906    0.517917
     15          1           0       -0.885876    5.684202    1.282130
     16          1           0        0.123141   -0.515432   -0.214643
     17          1           0       -1.125245   -2.648326   -0.203933
     18          1           0       -4.576223   -0.620843    1.313801
     19         17           0       -3.635314    2.092828    1.513463
     20         17           0       -2.790280    3.536594    1.506204
     21         17           0       -3.823467   -3.296523    0.563282
     22         17           0        1.624196    0.943046   -0.435255
 ---------------------------------------------------------------------
                    Distance matrix (angstroms):
                    1          2          3          4          5
     1  C    0.000000
     2  C    1.401400   0.000000
     3  C    2.427296   1.401400   0.000000
     4  C    2.802800   2.427296   1.401400   0.000000
     5  C    2.427296   2.802800   2.427296   1.401400   0.000000
     6  C    1.401400   2.427296   2.802800   2.427296   1.401400
     7  C    2.031500   2.989625   4.308084   4.834300   4.308084
     8  C    2.989625   3.432900   4.834300   5.666495   5.409457
     9  C    4.308084   4.834300   6.235700   7.041774   6.691466
    10  C    4.834300   5.666495   7.041774   7.637100   7.041774
    11  C    4.308084   5.409457   6.691466   7.041774   6.235700
    12  C    2.989625   4.204351   5.409457   5.666495   4.834300
    13  H    3.396345   2.146700   1.070000   2.146700   3.396345
    14  H    3.872800   3.396345   2.146700   1.070000   2.146700
    15  H    3.396345   3.872800   3.396345   2.146700   1.070000
    16  H    3.067336   3.042450   4.398029   5.438829   5.452790
    17  H    5.135824   5.448675   6.833817   7.771916   7.555879
    18  H    5.135824   6.330744   7.555879   7.771916   6.833817
    19  Cl   3.305523   4.704429   5.590246   5.400450   4.237887
    20  Cl   2.743718   4.048303   4.562800   4.048303   2.743718
    21  Cl   6.594300   7.395266   8.780678   9.397100   8.780678
    22  Cl   2.743718   1.760000   2.743718   4.048303   4.562800
                    6          7          8          9         10
     6  C    0.000000
     7  C    2.989625   0.000000
     8  C    4.204351   1.401400   0.000000
     9  C    5.409457   2.427296   1.401400   0.000000
    10  C    5.666495   2.802800   2.427296   1.401400   0.000000
    11  C    4.834300   2.427296   2.802800   2.427296   1.401400
    12  C    3.432900   1.401400   2.427296   2.802800   2.427296
    13  H    3.872800   5.135824   5.448675   6.833817   7.771916
    14  H    3.396345   5.904300   6.715576   8.097863   8.707100
    15  H    2.146700   5.135824   6.330744   7.555879   7.771916
    16  H    4.432466   2.146700   1.070000   2.146700   3.396345
    17  H    6.330744   3.396345   2.146700   1.070000   2.146700
    18  H    5.448675   3.396345   3.872800   3.396345   2.146700
    19  Cl   2.973298   2.743718   4.048303   4.562800   4.048303
    20  Cl   1.760000   3.305523   4.704429   5.590246   5.400450
    21  Cl   7.395266   4.562800   4.048303   2.743718   1.760000
    22  Cl   4.048303   3.305523   2.973298   4.237887   5.400450
                   11         12         13         14         15
    11  C    0.000000
    12  C    1.401400   0.000000
    13  H    7.555879   6.330744   0.000000
    14  H    8.097863   6.715576   2.471400   0.000000
    15  H    6.833817   5.448675   4.280590   2.471400   0.000000
    16  H    3.872800   3.396345   4.834300   6.436285   6.457082
    17  H    3.396345   3.872800   7.305700   8.805474   8.467391
    18  H    1.070000   2.146700   8.467391   8.805474   7.305700
    19  Cl   2.743718   1.760000   6.629490   6.345980   4.528895
    20  Cl   4.237887   2.973298   5.632800   4.890332   2.879094
    21  Cl   2.743718   4.048303   9.476266  10.467100   9.476266
    22  Cl   5.590246   4.704429   2.879094   4.890332   5.632800
                   16         17         18         19         20
    16  H    0.000000
    17  H    2.471400   0.000000
    18  H    4.942800   4.280590   0.000000
    19  Cl   4.890332   5.632800   2.879094   0.000000
    20  Cl   5.279038   6.629490   4.528895   1.672900   0.000000
    21  Cl   4.890332   2.879094   2.879094   5.475705   6.974816
    22  Cl   2.104518   4.528895   6.629490   5.725552   5.475705
                   21         22
    21  Cl   0.000000
    22  Cl   6.974816   0.000000
 Stoichiometry    C12H6Cl4
 Framework group  C1[X(C12H6Cl4)]
 Deg. of freedom    60
 Full point group                 C1      NOp   1
 Largest Abelian subgroup         C1      NOp   1
 Largest concise Abelian subgroup C1      NOp   1
                         Standard orientation:                         
 ---------------------------------------------------------------------
 Center     Atomic      Atomic             Coordinates (Angstroms)
 Number     Number       Type             X           Y           Z
 ---------------------------------------------------------------------
      1          6           0        1.548454    0.272321    0.000001
      2          6           0        2.273983    1.471291    0.000000
      3          6           0        3.675086    1.442450   -0.000002
      4          6           0        4.350660    0.214638   -0.000003
      5          6           0        3.625131   -0.984332    0.000000
      6          6           0        2.224028   -0.955491    0.000002
      7          6           0       -0.482616    0.314131    0.000003
      8          6           0       -1.158190    1.541942    0.000004
      9          6           0       -2.559293    1.570784    0.000004
     10          6           0       -3.284822    0.371814    0.000002
     11          6           0       -2.609248   -0.855998   -0.000000
     12          6           0       -1.208145   -0.884840   -0.000000
     13          1           0        4.229044    2.357890   -0.000003
     14          1           0        5.420433    0.192617   -0.000005
     15          1           0        4.140947   -1.921794    0.000001
     16          1           0       -0.604232    2.457383    0.000003
     17          1           0       -3.075109    2.508246    0.000005
     18          1           0       -3.163206   -1.771438   -0.000005
     19         17           0       -0.359701   -2.426832   -0.000005
     20         17           0        1.312845   -2.461262    0.000004
     21         17           0       -5.044450    0.408036   -0.000002
     22         17           0        1.425538    3.013284   -0.000002
 ---------------------------------------------------------------------
 Rotational constants (GHZ):           0.5492550           0.2368712           0.1654985
 Standard basis: 6-311+G(d,p) (5D, 7F)
 There are   436 symmetry adapted cartesian basis functions of A   symmetry.
 There are   420 symmetry adapted basis functions of A   symmetry.
   420 basis functions,   692 primitive gaussians,   436 cartesian basis functions
    73 alpha electrons       73 beta electrons
       nuclear repulsion energy      1495.4315521824 Hartrees.
 NAtoms=   22 NActive=   22 NUniq=   22 SFac= 1.00D+00 NAtFMM=   60 NAOKFM=F Big=F
 Integral buffers will be    131072 words long.
 Raffenetti 2 integral format.
 Two-electron integral symmetry is turned on.
 One-electron integrals computed using PRISM.
 NBasis=   420 RedAO= T EigKep=  1.52D-06  NBF=   420
 NBsUse=   415 1.00D-06 EigRej=  9.94D-07 NBFU=   415
 ExpMin= 4.38D-02 ExpMax= 1.06D+05 ExpMxC= 3.62D+03 IAcc=3 IRadAn=         5 AccDes= 0.00D+00
 Harris functional with IExCor=  402 and IRadAn=       5 diagonalized for initial guess.
 HarFok:  IExCor=  402 AccDes= 0.00D+00 IRadAn=         5 IDoV= 1 UseB2=F ITyADJ=14
 ICtDFT=  3500011 ScaDFX=  1.000000  1.000000  1.000000  1.000000
 FoFCou: FMM=F IPFlag=           0 FMFlag=      100000 FMFlg1=           0
         NFxFlg=           0 DoJE=T BraDBF=F KetDBF=T FulRan=T
         wScrn=  0.000000 ICntrl=       500 IOpCl=  0 I1Cent=   200000004 NGrid=           0
         NMat0=    1 NMatS0=      1 NMatT0=    0 NMatD0=    1 NMtDS0=    0 NMtDT0=    0
 Petite list used in FoFCou.
 Requested convergence on RMS density matrix=1.00D-08 within  32 cycles.
 Requested convergence on MAX density matrix=1.00D-06.
 Requested convergence on             energy=1.00D-06.
 No special actions if energy rises.
 EnCoef did     3 forward-backward iterations
 EnCoef did     2 forward-backward iterations
 EnCoef did     5 forward-backward iterations
 Restarting incremental Fock formation.
 SCF Done:  E(RB3LYP) =  -2301.32693115     A.U. after   27 cycles
            NFock= 27  Conv=0.56D-08     -V/T= 2.0019
 QCSCF skips out because SCF is already converged.

 **********************************************************************

            Population analysis using the SCF Density.

 **********************************************************************

 Orbital symmetries:
       Occupied  (A) (A) (A) (A) (A) (A) (A) (A) (A) (A) (A) (A)
                 (A) (A) (A) (A) (A) (A) (A) (A) (A) (A) (A) (A)
                 (A) (A) (A) (A) (A) (A) (A) (A) (A) (A) (A) (A)
                 (A) (A) (A) (A) (A) (A) (A) (A) (A) (A) (A) (A)
                 (A) (A) (A) (A) (A) (A) (A) (A) (A) (A) (A) (A)
                 (A) (A) (A) (A) (A) (A) (A) (A) (A) (A) (A) (A)
                 (A)
       Virtual   (A) (A) (A) (A) (A) (A) (A) (A) (A) (A) (A) (A)
                 (A) (A) (A) (A) (A) (A) (A) (A) (A) (A) (A) (A)
                 (A) (A) (A) (A) (A) (A) (A) (A) (A) (A) (A) (A)
                 (A) (A) (A) (A) (A) (A) (A) (A) (A) (A) (A) (A)
                 (A) (A) (A) (A) (A) (A) (A) (A) (A) (A) (A) (A)
                 (A) (A) (A) (A) (A) (A) (A) (A) (A) (A) (A) (A)
                 (A) (A) (A) (A) (A) (A) (A) (A) (A) (A) (A) (A)
                 (A) (A) (A) (A) (A) (A) (A) (A) (A) (A) (A) (A)
                 (A) (A) (A) (A) (A) (A) (A) (A) (A) (A) (A) (A)
                 (A) (A) (A) (A) (A) (A) (A) (A) (A) (A) (A) (A)
                 (A) (A) (A) (A) (A) (A) (A) (A) (A) (A) (A) (A)
                 (A) (A) (A) (A) (A) (A) (A) (A) (A) (A) (A) (A)
                 (A) (A) (A) (A) (A) (A) (A) (A) (A) (A) (A) (A)
                 (A) (A) (A) (A) (A) (A) (A) (A) (A) (A) (A) (A)
                 (A) (A) (A) (A) (A) (A) (A) (A) (A) (A) (A) (A)
                 (A) (A) (A) (A) (A) (A) (A) (A) (A) (A) (A) (A)
                 (A) (A) (A) (A) (A) (A) (A) (A) (A) (A) (A) (A)
                 (A) (A) (A) (A) (A) (A) (A) (A) (A) (A) (A) (A)
                 (A) (A) (A) (A) (A) (A) (A) (A) (A) (A) (A) (A)
                 (A) (A) (A) (A) (A) (A) (A) (A) (A) (A) (A) (A)
                 (A) (A) (A) (A) (A) (A) (A) (A) (A) (A) (A) (A)
                 (A) (A) (A) (A) (A) (A) (A) (A) (A) (A) (A) (A)
                 (A) (A) (A) (A) (A) (A) (A) (A) (A) (A) (A) (A)
                 (A) (A) (A) (A) (A) (A) (A) (A) (A) (A) (A) (A)
                 (A) (A) (A) (A) (A) (A) (A) (A) (A) (A) (A) (A)
                 (A) (A) (A) (A) (A) (A) (A) (A) (A) (A) (A) (A)
                 (A) (A) (A) (A) (A) (A) (A) (A) (A) (A) (A) (A)
                 (A) (A) (A) (A) (A) (A) (A) (A) (A) (A) (A) (A)
                 (A) (A) (A) (A) (A) (A)
 The electronic state is 1-A.
 Alpha  occ. eigenvalues -- -101.60345-101.60172-101.56523-101.55978 -10.26138
 Alpha  occ. eigenvalues --  -10.25889 -10.25337 -10.24980 -10.23016 -10.22384
 Alpha  occ. eigenvalues --  -10.20875 -10.20821 -10.20571 -10.20266 -10.19790
 Alpha  occ. eigenvalues --  -10.19510  -9.53104  -9.52926  -9.48078  -9.47413
 Alpha  occ. eigenvalues --   -7.29734  -7.29537  -7.28490  -7.28300  -7.28069
 Alpha  occ. eigenvalues --   -7.27883  -7.24524  -7.23876  -7.23556  -7.23517
 Alpha  occ. eigenvalues --   -7.22898  -7.22863  -1.09814  -0.91162  -0.90577
 Alpha  occ. eigenvalues --   -0.87640  -0.85520  -0.83031  -0.78400  -0.76120
 Alpha  occ. eigenvalues --   -0.75135  -0.73226  -0.66778  -0.63181  -0.62430
 Alpha  occ. eigenvalues --   -0.60057  -0.57142  -0.53125  -0.51858  -0.50983
 Alpha  occ. eigenvalues --   -0.50478  -0.48808  -0.48012  -0.47387  -0.45775
 Alpha  occ. eigenvalues --   -0.43778  -0.43311  -0.41670  -0.41349  -0.41100
 Alpha  occ. eigenvalues --   -0.39732  -0.38441  -0.36654  -0.34891  -0.33573
 Alpha  occ. eigenvalues --   -0.32597  -0.32552  -0.31142  -0.28552  -0.27259
 Alpha  occ. eigenvalues --   -0.26188  -0.24663  -0.11048
 Alpha virt. eigenvalues --   -0.07360  -0.05487  -0.04638  -0.03797  -0.03705
 Alpha virt. eigenvalues --   -0.01749  -0.00712   0.00650   0.01104   0.01343
 Alpha virt. eigenvalues --    0.01694   0.02541   0.03552   0.03969   0.04247
 Alpha virt. eigenvalues --    0.04567   0.05807   0.05834   0.06301   0.06388
 Alpha virt. eigenvalues --    0.07422   0.07574   0.08003   0.08145   0.08854
 Alpha virt. eigenvalues --    0.09271   0.09420   0.10339   0.10777   0.10824
 Alpha virt. eigenvalues --    0.11560   0.11922   0.11929   0.12301   0.13327
 Alpha virt. eigenvalues --    0.13456   0.13895   0.14635   0.14747   0.15368
 Alpha virt. eigenvalues --    0.15631   0.15704   0.16124   0.16627   0.16902
 Alpha virt. eigenvalues --    0.17431   0.17728   0.18192   0.18595   0.18900
 Alpha virt. eigenvalues --    0.19117   0.19687   0.20160   0.20480   0.21052
 Alpha virt. eigenvalues --    0.21143   0.21618   0.22123   0.22969   0.23076
 Alpha virt. eigenvalues --    0.23408   0.23804   0.24331   0.24498   0.24574
 Alpha virt. eigenvalues --    0.25303   0.25530   0.26578   0.26801   0.27397
 Alpha virt. eigenvalues --    0.27866   0.28492   0.29070   0.29660   0.29877
 Alpha virt. eigenvalues --    0.30752   0.31311   0.32189   0.32853   0.33560
 Alpha virt. eigenvalues --    0.34912   0.35236   0.38426   0.39399   0.40245
 Alpha virt. eigenvalues --    0.40609   0.41846   0.42938   0.43184   0.44120
 Alpha virt. eigenvalues --    0.44982   0.45214   0.45884   0.46480   0.47426
 Alpha virt. eigenvalues --    0.48216   0.49161   0.50105   0.50429   0.50924
 Alpha virt. eigenvalues --    0.51577   0.53146   0.53208   0.53459   0.54273
 Alpha virt. eigenvalues --    0.55032   0.56292   0.56849   0.58184   0.58399
 Alpha virt. eigenvalues --    0.58463   0.58745   0.59669   0.59953   0.61038
 Alpha virt. eigenvalues --    0.61619   0.62854   0.63988   0.64800   0.64907
 Alpha virt. eigenvalues --    0.65345   0.66226   0.66418   0.67353   0.69205
 Alpha virt. eigenvalues --    0.70201   0.70618   0.70858   0.71999   0.76747
 Alpha virt. eigenvalues --    0.76822   0.77495   0.79315   0.79824   0.80977
 Alpha virt. eigenvalues --    0.81684   0.82765   0.82791   0.83913   0.84456
 Alpha virt. eigenvalues --    0.84471   0.84813   0.85243   0.85966   0.86212
 Alpha virt. eigenvalues --    0.87330   0.87411   0.88106   0.89895   0.90068
 Alpha virt. eigenvalues --    0.91001   0.91185   0.91566   0.94021   0.94533
 Alpha virt. eigenvalues --    0.94877   0.96259   0.97048   0.97567   0.98316
 Alpha virt. eigenvalues --    0.98562   1.00576   1.00891   1.01218   1.01731
 Alpha virt. eigenvalues --    1.03640   1.03715   1.06019   1.07057   1.08734
 Alpha virt. eigenvalues --    1.09754   1.09995   1.12604   1.12709   1.15286
 Alpha virt. eigenvalues --    1.16348   1.21189   1.22753   1.22957   1.23696
 Alpha virt. eigenvalues --    1.24394   1.25641   1.26925   1.28402   1.29551
 Alpha virt. eigenvalues --    1.29594   1.31054   1.31183   1.33210   1.42673
 Alpha virt. eigenvalues --    1.45884   1.49407   1.50000   1.50585   1.51769
 Alpha virt. eigenvalues --    1.52946   1.54930   1.55436   1.56502   1.56527
 Alpha virt. eigenvalues --    1.60601   1.61520   1.62453   1.65271   1.67865
 Alpha virt. eigenvalues --    1.69543   1.69626   1.69953   1.72729   1.72849
 Alpha virt. eigenvalues --    1.75276   1.77641   1.81481   1.84409   1.84991
 Alpha virt. eigenvalues --    1.87946   1.88331   1.88635   1.89437   1.89777
 Alpha virt. eigenvalues --    1.89851   1.90718   1.93885   1.94940   1.95812
 Alpha virt. eigenvalues --    1.96191   1.97725   2.00311   2.00766   2.02439
 Alpha virt. eigenvalues --    2.05591   2.07310   2.09538   2.15585   2.18175
 Alpha virt. eigenvalues --    2.19093   2.21074   2.23249   2.25939   2.27469
 Alpha virt. eigenvalues --    2.28178   2.28676   2.28810   2.30510   2.31814
 Alpha virt. eigenvalues --    2.34105   2.37073   2.39001   2.39736   2.41437
 Alpha virt. eigenvalues --    2.43528   2.45607   2.51913   2.53386   2.54171
 Alpha virt. eigenvalues --    2.56207   2.57204   2.60209   2.61494   2.61845
 Alpha virt. eigenvalues --    2.63452   2.63635   2.64358   2.68638   2.69454
 Alpha virt. eigenvalues --    2.70635   2.72593   2.73227   2.74004   2.75368
 Alpha virt. eigenvalues --    2.76441   2.76467   2.77023   2.78514   2.78840
 Alpha virt. eigenvalues --    2.79257   2.83179   2.84881   2.84912   2.87132
 Alpha virt. eigenvalues --    2.87620   2.89058   2.98905   3.05373   3.07018
 Alpha virt. eigenvalues --    3.11220   3.13695   3.18191   3.19620   3.21267
 Alpha virt. eigenvalues --    3.28492   3.32142   3.34377   3.35842   3.37431
 Alpha virt. eigenvalues --    3.43635   3.51547   3.54957   3.64416   3.70267
 Alpha virt. eigenvalues --    3.73110   3.81282   3.87857   3.99590   4.04954
 Alpha virt. eigenvalues --    4.10181   4.10977   4.17410   4.80692   4.81632
 Alpha virt. eigenvalues --    9.71765   9.77947   9.83823   9.99036  23.40999
 Alpha virt. eigenvalues --   23.45561  23.83535  23.85642  23.89633  23.91776
 Alpha virt. eigenvalues --   23.98431  24.00091  24.01973  24.03657  24.11878
 Alpha virt. eigenvalues --   24.12217  25.77738  25.82480  25.83994  25.96552
 Alpha virt. eigenvalues --   26.11008  26.25742  26.32672  26.59249  26.68621
 Alpha virt. eigenvalues --   26.75758  26.93995  27.00531 215.73476 215.77609
 Alpha virt. eigenvalues --  215.84289 216.05173
          Condensed to atoms (all electrons):
               1          2          3          4          5          6
     1  C   24.845711   2.109273  -7.324623   3.898229  -6.122774  -4.674265
     2  C    2.109273  13.464757  -4.506231  -1.417492   0.545586  -3.032466
     3  C   -7.324623  -4.506231  14.026908  -1.237506   0.458094   4.491485
     4  C    3.898229  -1.417492  -1.237506  11.355481  -0.830987  -3.427039
     5  C   -6.122774   0.545586   0.458094  -0.830987  12.933331  -2.782091
     6  C   -4.674265  -3.032466   4.491485  -3.427039  -2.782091  25.674740
     7  C    4.836181  -0.661820  -2.399946   1.113736  -1.224488  -2.676300
     8  C    2.748767   0.605931  -0.794383   0.082669   0.058486  -2.208657
     9  C   -0.224025   0.314583  -0.162270   0.102922  -0.056501  -0.818801
    10  C    0.815628  -0.150731  -0.018293  -0.073342  -0.121914  -0.881346
    11  C   -2.503830   0.420280   0.218080  -0.012991  -0.432634   1.914036
    12  C   -5.636432   0.012864   1.292820  -0.512334   0.762617  -2.486712
    13  H    0.041702   0.005936   0.406997  -0.112324  -0.047412   0.051072
    14  H   -0.078953   0.018120   0.027775   0.336039  -0.034359   0.057717
    15  H   -0.077754  -0.010482   0.001168  -0.103133   0.482681  -0.095768
    16  H   -0.016971   0.008603   0.025098   0.012055  -0.006608  -0.028831
    17  H   -0.002914  -0.002170  -0.001706   0.000079   0.000189  -0.000108
    18  H   -0.001298   0.000751  -0.000056   0.000251  -0.000984   0.012828
    19  Cl   4.185808   0.929453  -1.478248   1.832912  -3.770096  15.098597
    20  Cl -10.310097  -1.604583   3.013594  -4.434479   5.863301 -17.368417
    21  Cl  -0.065772  -0.004260  -0.001638   0.000469  -0.003336  -0.007380
    22  Cl  -0.218976  -0.819764   0.137807  -0.236005   0.228810   0.402988
               7          8          9         10         11         12
     1  C    4.836181   2.748767  -0.224025   0.815628  -2.503830  -5.636432
     2  C   -0.661820   0.605931   0.314583  -0.150731   0.420280   0.012864
     3  C   -2.399946  -0.794383  -0.162270  -0.018293   0.218080   1.292820
     4  C    1.113736   0.082669   0.102922  -0.073342  -0.012991  -0.512334
     5  C   -1.224488   0.058486  -0.056501  -0.121914  -0.432634   0.762617
     6  C   -2.676300  -2.208657  -0.818801  -0.881346   1.914036  -2.486712
     7  C   20.128359  -0.596025  -3.634339   2.295301  -4.940056   0.368802
     8  C   -0.596025  12.404974   1.966754  -1.480750  -2.660422  -3.534499
     9  C   -3.634339   1.966754  12.666096   1.858611  -4.339328  -1.581522
    10  C    2.295301  -1.480750   1.858611  14.946121  -3.104008  -3.986578
    11  C   -4.940056  -2.660422  -4.339328  -3.104008  17.532736   0.521121
    12  C    0.368802  -3.534499  -1.581522  -3.986578   0.521121  24.720721
    13  H   -0.005811   0.003445  -0.000375   0.000114  -0.000221  -0.001345
    14  H   -0.006081  -0.000896  -0.000116   0.000033   0.000024   0.002436
    15  H   -0.003788  -0.000895  -0.000122   0.000224  -0.000069   0.019401
    16  H   -0.102471   0.377338  -0.012525   0.001448  -0.014741   0.076001
    17  H   -0.018528  -0.083449   0.367700  -0.013076   0.019554   0.074652
    18  H   -0.060647   0.003126   0.003216  -0.114125   0.487239  -0.136652
    19  Cl  -7.832087  -0.027190   0.452794  -5.407269   6.542068 -19.895480
    20  Cl   1.576856   0.211619  -0.303299   2.165745  -3.652003  17.219868
    21  Cl  -0.361797   0.032971   0.251185  -1.177908   0.277852   0.120387
    22  Cl   0.457480  -0.430044  -0.583107  -0.056930   0.103456  -0.050712
              13         14         15         16         17         18
     1  C    0.041702  -0.078953  -0.077754  -0.016971  -0.002914  -0.001298
     2  C    0.005936   0.018120  -0.010482   0.008603  -0.002170   0.000751
     3  C    0.406997   0.027775   0.001168   0.025098  -0.001706  -0.000056
     4  C   -0.112324   0.336039  -0.103133   0.012055   0.000079   0.000251
     5  C   -0.047412  -0.034359   0.482681  -0.006608   0.000189  -0.000984
     6  C    0.051072   0.057717  -0.095768  -0.028831  -0.000108   0.012828
     7  C   -0.005811  -0.006081  -0.003788  -0.102471  -0.018528  -0.060647
     8  C    0.003445  -0.000896  -0.000895   0.377338  -0.083449   0.003126
     9  C   -0.000375  -0.000116  -0.000122  -0.012525   0.367700   0.003216
    10  C    0.000114   0.000033   0.000224   0.001448  -0.013076  -0.114125
    11  C   -0.000221   0.000024  -0.000069  -0.014741   0.019554   0.487239
    12  C   -0.001345   0.002436   0.019401   0.076001   0.074652  -0.136652
    13  H    0.517128  -0.006045  -0.000093   0.000001  -0.000000  -0.000000
    14  H   -0.006045   0.527691  -0.005437  -0.000003  -0.000000  -0.000000
    15  H   -0.000093  -0.005437   0.526822  -0.000000  -0.000000  -0.000000
    16  H    0.000001  -0.000003  -0.000000   0.588237  -0.009069   0.000105
    17  H   -0.000000  -0.000000  -0.000000  -0.009069   0.522131  -0.000157
    18  H   -0.000000  -0.000000  -0.000000   0.000105  -0.000157   0.514224
    19  Cl  -0.003205  -0.004611  -0.058522   0.038557   0.013869   0.185528
    20  Cl   0.012866   0.025279   0.177294  -0.023646  -0.003277  -0.053834
    21  Cl  -0.000000  -0.000000  -0.000001   0.001631  -0.007290   0.002889
    22  Cl  -0.009303   0.003639   0.001045  -0.055457   0.000597  -0.000049
              19         20         21         22
     1  C    4.185808 -10.310097  -0.065772  -0.218976
     2  C    0.929453  -1.604583  -0.004260  -0.819764
     3  C   -1.478248   3.013594  -0.001638   0.137807
     4  C    1.832912  -4.434479   0.000469  -0.236005
     5  C   -3.770096   5.863301  -0.003336   0.228810
     6  C   15.098597 -17.368417  -0.007380   0.402988
     7  C   -7.832087   1.576856  -0.361797   0.457480
     8  C   -0.027190   0.211619   0.032971  -0.430044
     9  C    0.452794  -0.303299   0.251185  -0.583107
    10  C   -5.407269   2.165745  -1.177908  -0.056930
    11  C    6.542068  -3.652003   0.277852   0.103456
    12  C  -19.895480  17.219868   0.120387  -0.050712
    13  H   -0.003205   0.012866  -0.000000  -0.009303
    14  H   -0.004611   0.025279  -0.000000   0.003639
    15  H   -0.058522   0.177294  -0.000001   0.001045
    16  H    0.038557  -0.023646   0.001631  -0.055457
    17  H    0.013869  -0.003277  -0.007290   0.000597
    18  H    0.185528  -0.053834   0.002889  -0.000049
    19  Cl  82.353922 -57.555981   0.157070  -0.107635
    20  Cl -57.555981  80.643019  -0.050667   0.147238
    21  Cl   0.157070  -0.050667  17.406224  -0.002092
    22  Cl  -0.107635   0.147238  -0.002092  17.529199
 Mulliken charges:
               1
     1  C   -0.222617
     2  C   -0.226137
     3  C   -0.174926
     4  C   -0.337210
     5  C    0.101087
     6  C   -1.215284
     7  C   -0.252530
     8  C   -0.678869
     9  C   -0.267532
    10  C    0.503046
    11  C   -0.376145
    12  C   -1.369425
    13  H    0.146871
    14  H    0.137748
    15  H    0.147431
    16  H    0.141248
    17  H    0.142974
    18  H    0.157646
    19  Cl   1.349747
    20  Cl   1.303602
    21  Cl   0.431461
    22  Cl   0.557814
 Sum of Mulliken charges =  -0.00000
 Mulliken charges with hydrogens summed into heavy atoms:
               1
     1  C   -0.222617
     2  C   -0.226137
     3  C   -0.028055
     4  C   -0.199462
     5  C    0.248518
     6  C   -1.215284
     7  C   -0.252530
     8  C   -0.537621
     9  C   -0.124558
    10  C    0.503046
    11  C   -0.218499
    12  C   -1.369425
    19  Cl   1.349747
    20  Cl   1.303602
    21  Cl   0.431461
    22  Cl   0.557814
 Electronic spatial extent (au):  <R**2>=           5824.5431
 Charge=             -0.0000 electrons
 Dipole moment (field-independent basis, Debye):
    X=              2.7148    Y=             -0.7110    Z=             -0.0000  Tot=              2.8064
 Quadrupole moment (field-independent basis, Debye-Ang):
   XX=           -117.3231   YY=           -115.6270   ZZ=           -124.4103
   XY=             -0.8270   XZ=             -0.0000   YZ=              0.0000
 Traceless Quadrupole moment (field-independent basis, Debye-Ang):
   XX=              1.7970   YY=              3.4931   ZZ=             -5.2902
   XY=             -0.8270   XZ=             -0.0000   YZ=              0.0000
 Octapole moment (field-independent basis, Debye-Ang**2):
  XXX=             92.8533  YYY=             -5.9359  ZZZ=             -0.0000  XYY=            -12.0928
  XXY=              4.4291  XXZ=             -0.0001  XZZ=             -7.5282  YZZ=             -7.0507
  YYZ=             -0.0000  XYZ=              0.0001
 Hexadecapole moment (field-independent basis, Debye-Ang**3):
 XXXX=          -5269.3159 YYYY=          -2233.6078 ZZZZ=           -148.1868 XXXY=             51.7933
 XXXZ=             -0.0004 YYYX=            -30.2939 YYYZ=              0.0000 ZZZX=              0.0000
 ZZZY=             -0.0000 XXYY=          -1257.7996 XXZZ=           -994.0328 YYZZ=           -412.7830
 XXYZ=              0.0001 YYXZ=             -0.0004 ZZXY=             -0.9914
 N-N= 1.495431552182D+03 E-N=-8.434969781020D+03  KE= 2.297044904967D+03
 Calling FoFJK, ICntrl=      2127 FMM=F ISym2X=0 I1Cent= 0 IOpClX= 0 NMat=1 NMatS=1 NMatT=0.
 ***** Axes restored to original set *****
 -------------------------------------------------------------------
 Center     Atomic                   Forces (Hartrees/Bohr)
 Number     Number              X              Y              Z
 -------------------------------------------------------------------
      1        6          -0.026788661   -0.024720039    0.004183362
      2        6          -0.019821108    0.013948746    0.009149910
      3        6          -0.010115691    0.000229551    0.003375843
      4        6          -0.008102443   -0.019725392   -0.001035385
      5        6           0.006323489   -0.006934008   -0.003385284
      6        6           0.070210290    0.013141354   -0.020663238
      7        6           0.002472990    0.032237701    0.005239462
      8        6          -0.023267327   -0.001376321    0.007407253
      9        6          -0.009699010    0.009039778    0.004893166
     10        6           0.011322326    0.009870968   -0.001876447
     11        6           0.005760306   -0.001720661   -0.002220972
     12        6           0.019420247   -0.069040512   -0.019364476
     13        1           0.009061375   -0.000685486   -0.003114002
     14        1           0.005363620    0.008682757   -0.000136413
     15        1          -0.001898204    0.007696630    0.002070868
     16        1          -0.003873098   -0.005736286    0.000198525
     17        1           0.003910299   -0.007926100   -0.002776865
     18        1          -0.007486842   -0.003434232    0.001821577
     19       17          -0.307328721   -0.477379432    0.011599309
     20       17           0.262989938    0.508713470    0.008893131
     21       17           0.000021309    0.000988801    0.000178685
     22       17           0.021524916    0.014128714   -0.004438007
 -------------------------------------------------------------------
 Cartesian Forces:  Max     0.508713470 RMS     0.100569308

 GradGradGradGradGradGradGradGradGradGradGradGradGradGradGradGradGradGrad
 Berny optimization.
 FormGI is forming the generalized inverse of G from B-inverse, IUseBI=4.
 Internal  Forces:  Max     0.599989401 RMS     0.061206155
 Search for a local minimum.
 Step number   1 out of a maximum of  112
 All quantities printed in internal units (Hartrees-Bohrs-Radians)
 Mixed Optimization -- RFO/linear search
 Second derivative matrix not updated -- first step.
 ITU=  0
     Eigenvalues ---    0.00238   0.00238   0.01655   0.01655   0.02070
     Eigenvalues ---    0.02070   0.02070   0.02070   0.02070   0.02070
     Eigenvalues ---    0.02070   0.02070   0.02070   0.02070   0.02070
     Eigenvalues ---    0.02070   0.02070   0.02070   0.04301   0.16000
     Eigenvalues ---    0.16000   0.16000   0.16000   0.16000   0.16000
     Eigenvalues ---    0.22068   0.22308   0.23478   0.23491   0.24544
     Eigenvalues ---    0.24896   0.25000   0.25000   0.25000   0.25000
     Eigenvalues ---    0.25000   0.25000   0.29539   0.29539   0.29539
     Eigenvalues ---    0.29539   0.37230   0.37230   0.37230   0.37230
     Eigenvalues ---    0.37230   0.37230   0.41409   0.41554   0.41956
     Eigenvalues ---    0.42102   0.45389   0.45389   0.45389   0.45389
     Eigenvalues ---    0.45389   0.45389   0.45389   0.45389   1.32680
 RFO step:  Lambda=-2.66866905D-01 EMin= 2.37799094D-03
 Linear search not attempted -- first point.
 Maximum step size (   0.300) exceeded in Quadratic search.
    -- Step size scaled by   0.642
 Iteration  1 RMS(Cart)=  0.27892534 RMS(Int)=  0.00780557
 Iteration  2 RMS(Cart)=  0.02273166 RMS(Int)=  0.00005070
 Iteration  3 RMS(Cart)=  0.00009053 RMS(Int)=  0.00004066
 Iteration  4 RMS(Cart)=  0.00000000 RMS(Int)=  0.00004066
 Variable       Old X    -DE/DX   Delta X   Delta X   Delta X     New X
                                 (Linear)    (Quad)   (Total)
    R1        2.64826   0.01717   0.00000   0.01595   0.01602   2.66428
    R2        2.64826   0.00763   0.00000   0.00753   0.00761   2.65587
    R3        2.64826  -0.00794   0.00000  -0.00715  -0.00715   2.64111
    R4        3.32592  -0.00095   0.00000  -0.00108  -0.00108   3.32484
    R5        2.64826  -0.02451   0.00000  -0.02257  -0.02264   2.62562
    R6        2.02201   0.00956   0.00000   0.00961   0.00961   2.03161
    R7        2.64826  -0.01997   0.00000  -0.01845  -0.01852   2.62974
    R8        2.02201   0.01020   0.00000   0.01025   0.01025   2.03226
    R9        2.64826  -0.00100   0.00000  -0.00082  -0.00081   2.64745
   R10        2.02201   0.00796   0.00000   0.00799   0.00799   2.03000
   R11        3.32592   0.04796   0.00000   0.05477   0.05477   3.38069
   R12        2.64826  -0.00168   0.00000  -0.00146  -0.00144   2.64682
   R13        2.64826  -0.01432   0.00000  -0.01257  -0.01254   2.63572
   R14        2.64826  -0.00583   0.00000  -0.00533  -0.00535   2.64291
   R15        2.02201  -0.00387   0.00000  -0.00388  -0.00388   2.01812
   R16        2.64826  -0.01871   0.00000  -0.01685  -0.01688   2.63138
   R17        2.02201   0.00926   0.00000   0.00930   0.00930   2.03131
   R18        2.64826  -0.01448   0.00000  -0.01294  -0.01296   2.63530
   R19        3.32592  -0.00086   0.00000  -0.00099  -0.00099   3.32493
   R20        2.64826  -0.00199   0.00000  -0.00163  -0.00162   2.64664
   R21        2.02201   0.00776   0.00000   0.00779   0.00779   2.02980
   R22        3.32592   0.03257   0.00000   0.03719   0.03719   3.36311
   R23        3.16132   0.59999   0.00000   0.24174   0.24174   3.40306
    A1        2.09440  -0.04127   0.00000  -0.04856  -0.04834   2.04605
    A2        2.09440   0.01886   0.00000   0.02409   0.02415   2.11854
    A3        2.09440   0.03399   0.00000   0.04189   0.04187   2.13626
    A4        2.09440  -0.05285   0.00000  -0.06599  -0.06601   2.02838
    A5        2.09440   0.00565   0.00000   0.00607   0.00597   2.10037
    A6        2.09440  -0.00374   0.00000  -0.00441  -0.00436   2.09003
    A7        2.09440  -0.00191   0.00000  -0.00166  -0.00161   2.09279
    A8        2.09440  -0.00582   0.00000  -0.00995  -0.01011   2.08428
    A9        2.09440   0.00265   0.00000   0.00458   0.00466   2.09905
   A10        2.09440   0.00317   0.00000   0.00537   0.00545   2.09985
   A11        2.09440   0.00510   0.00000   0.00566   0.00559   2.09998
   A12        2.09440  -0.00453   0.00000  -0.00581  -0.00577   2.08862
   A13        2.09440  -0.00057   0.00000   0.00015   0.00019   2.09458
   A14        2.09440   0.01747   0.00000   0.02268   0.02275   2.11715
   A15        2.09440   0.01612   0.00000   0.01954   0.01950   2.11390
   A16        2.09440  -0.03359   0.00000  -0.04222  -0.04225   2.05214
   A17        2.09440  -0.02816   0.00000  -0.03472  -0.03464   2.05976
   A18        2.09440   0.01547   0.00000   0.02009   0.02010   2.11449
   A19        2.09440  -0.00193   0.00000  -0.00131  -0.00131   2.09308
   A20        2.09440  -0.01354   0.00000  -0.01878  -0.01878   2.07561
   A21        2.09440  -0.00017   0.00000  -0.00087  -0.00093   2.09347
   A22        2.09440   0.00035   0.00000   0.00083   0.00086   2.09525
   A23        2.09440  -0.00017   0.00000   0.00004   0.00007   2.09447
   A24        2.09440  -0.00259   0.00000  -0.00368  -0.00374   2.09065
   A25        2.09440   0.00215   0.00000   0.00291   0.00294   2.09733
   A26        2.09440   0.00044   0.00000   0.00078   0.00081   2.09520
   A27        2.09440  -0.00440   0.00000  -0.00581  -0.00582   2.08858
   A28        2.09440  -0.00116   0.00000  -0.00215  -0.00214   2.09226
   A29        2.09440   0.00556   0.00000   0.00795   0.00796   2.10235
   A30        2.09440   0.01986   0.00000   0.02499   0.02503   2.11942
   A31        2.09440  -0.01973   0.00000  -0.02468  -0.02470   2.06970
   A32        2.09440  -0.00012   0.00000  -0.00031  -0.00033   2.09406
   A33        2.09440   0.04345   0.00000   0.05397   0.05397   2.14837
   A34        2.09440   0.06572   0.00000   0.08164   0.08164   2.17603
    D1        0.00000   0.00000   0.00000   0.00000   0.00000   0.00000
    D2        3.14159  -0.00000   0.00000   0.00000   0.00000   3.14159
    D3       -0.00000  -0.00000   0.00000  -0.00000  -0.00000  -0.00000
    D4        3.14159   0.00000   0.00000   0.00000   0.00000   3.14159
    D5        0.00000   0.00000   0.00000   0.00000   0.00000   0.00000
    D6        3.14159  -0.00000   0.00000   0.00000   0.00000   3.14159
    D7       -3.14159  -0.00000   0.00000  -0.00000  -0.00000  -3.14159
    D8        0.00000  -0.00000   0.00000  -0.00000  -0.00000   0.00000
    D9       -0.00000   0.00000   0.00000   0.00000   0.00000  -0.00000
   D10        3.14159  -0.00000   0.00000  -0.00000  -0.00000   3.14159
   D11        3.14159   0.00000   0.00000   0.00000   0.00000   3.14159
   D12        0.00000  -0.00000   0.00000   0.00000   0.00000   0.00000
   D13        0.00000  -0.00000   0.00000  -0.00000  -0.00000   0.00000
   D14       -3.14159  -0.00000   0.00000  -0.00000  -0.00000  -3.14159
   D15       -3.14159  -0.00000   0.00000  -0.00000  -0.00000  -3.14159
   D16        0.00000  -0.00000   0.00000  -0.00000  -0.00000   0.00000
   D17       -0.00000   0.00000   0.00000   0.00000   0.00000  -0.00000
   D18        3.14159  -0.00000   0.00000  -0.00000  -0.00000   3.14159
   D19        3.14159   0.00000   0.00000   0.00000   0.00000   3.14159
   D20       -0.00000  -0.00000   0.00000  -0.00000  -0.00000  -0.00000
   D21        0.00001  -0.00000   0.00000  -0.00000  -0.00000   0.00001
   D22       -3.14159  -0.00000   0.00000  -0.00000  -0.00000  -3.14159
   D23        0.00000   0.00000   0.00000   0.00000   0.00000   0.00000
   D24       -3.14159  -0.00000   0.00000  -0.00000  -0.00000  -3.14159
   D25       -0.00000  -0.00000   0.00000  -0.00000  -0.00000  -0.00000
   D26        3.14159   0.00000   0.00000   0.00000   0.00000   3.14159
   D27       -0.00000   0.00000   0.00000   0.00000   0.00000  -0.00000
   D28        3.14159  -0.00000   0.00000  -0.00000  -0.00000   3.14159
   D29        3.14159   0.00000   0.00000   0.00000   0.00000   3.14159
   D30       -0.00000   0.00000   0.00000   0.00000   0.00000  -0.00000
   D31       -0.00000  -0.00000   0.00000  -0.00000  -0.00000  -0.00000
   D32       -3.14159  -0.00000   0.00000  -0.00000  -0.00000  -3.14159
   D33        3.14159   0.00000   0.00000   0.00000   0.00000   3.14159
   D34        0.00000  -0.00000   0.00000  -0.00000  -0.00000   0.00000
   D35        0.00000  -0.00000   0.00000  -0.00000  -0.00000   0.00000
   D36       -3.14159  -0.00000   0.00000  -0.00000  -0.00000  -3.14159
   D37        3.14159   0.00000   0.00000  -0.00000  -0.00000   3.14159
   D38        0.00000  -0.00000   0.00000  -0.00000  -0.00000   0.00000
   D39        0.00000   0.00000   0.00000   0.00000   0.00000   0.00000
   D40       -3.14159  -0.00000   0.00000  -0.00000  -0.00000  -3.14159
   D41        3.14159   0.00000   0.00000   0.00000   0.00000   3.14159
   D42       -0.00000  -0.00000   0.00000  -0.00000  -0.00000  -0.00000
   D43        0.00001  -0.00000   0.00000  -0.00000  -0.00000   0.00001
   D44       -3.14159  -0.00000   0.00000  -0.00000  -0.00000  -3.14159
   D45       -0.00001  -0.00000   0.00000  -0.00000  -0.00000  -0.00002
         Item               Value     Threshold  Converged?
 Maximum Force            0.599989     0.000450     NO 
 RMS     Force            0.061206     0.000300     NO 
 Maximum Displacement     0.969891     0.001800     NO 
 RMS     Displacement     0.299711     0.001200     NO 
 Predicted change in Energy=-1.283486D-01
 GradGradGradGradGradGradGradGradGradGradGradGradGradGradGradGradGradGrad

                          Input orientation:                          
 ---------------------------------------------------------------------
 Center     Atomic      Atomic             Coordinates (Angstroms)
 Number     Number       Type             X           Y           Z
 ---------------------------------------------------------------------
      1          6           0       -0.217075    2.517740    0.467107
      2          6           0        1.118977    2.720253    0.064973
      3          6           0        1.708206    3.986832    0.108721
      4          6           0        0.981455    5.084034    0.554213
      5          6           0       -0.339354    4.911297    0.956915
      6          6           0       -0.931724    3.642455    0.913777
      7          6           0       -1.584030    0.362442    0.512662
      8          6           0       -1.066538   -0.875153    0.109736
      9          6           0       -1.848551   -2.033968    0.149743
     10          6           0       -3.165923   -1.968481    0.596065
     11          6           0       -3.699963   -0.745757    1.001650
     12          6           0       -2.905581    0.406820    0.956397
     13          1           0        2.729161    4.111349   -0.204251
     14          1           0        1.436052    6.058086    0.587378
     15          1           0       -0.904941    5.756851    1.302049
     16          1           0       -0.058259   -0.944125   -0.235404
     17          1           0       -1.433342   -2.974609   -0.163714
     18          1           0       -4.715984   -0.693547    1.346198
     19         17           0       -3.578593    1.971579    1.472007
     20         17           0       -2.633342    3.504193    1.448414
     21         17           0       -4.154962   -3.422711    0.648799
     22         17           0        2.137441    1.408843   -0.516852
 ---------------------------------------------------------------------
                    Distance matrix (angstroms):
                    1          2          3          4          5
     1  C    0.000000
     2  C    1.409879   0.000000
     3  C    2.448138   1.397615   0.000000
     4  C    2.833712   2.417794   1.389417   0.000000
     5  C    2.446217   2.779022   2.401369   1.391598   0.000000
     6  C    1.405425   2.403393   2.781356   2.422331   1.400972
     7  C    2.552636   3.614684   4.913063   5.373720   4.736946
     8  C    3.515825   4.207781   5.598045   6.316940   5.893174
     9  C    4.845666   5.605000   6.993014   7.670625   7.153035
    10  C    5.370150   6.373904   7.711057   8.181715   7.446546
    11  C    4.802776   6.009390   7.241755   7.490149   6.580118
    12  C    3.453035   4.726910   5.901023   6.094845   5.184190
    13  H    3.416229   2.144837   1.075084   2.139126   3.376983
    14  H    3.909136   3.393313   2.143192   1.075424   2.145636
    15  H    3.414986   3.853249   3.374246   2.137857   1.074229
    16  H    3.535994   3.860541   5.249110   6.167916   5.982190
    17  H    5.660666   6.244845   7.642331   8.443245   8.039909
    18  H    5.596905   6.880577   8.044099   8.152821   7.121847
    19  Cl   3.550763   4.960586   5.819797   5.596763   4.404534
    20  Cl   2.788260   4.075336   4.569109   4.045028   2.735670
    21  Cl   7.129440   8.117345   9.464130   9.937627   9.171122
    22  Cl   2.782369   1.759428   2.687306   3.998813   4.535822
                    6          7          8          9         10
     6  C    0.000000
     7  C    3.368216   0.000000
     8  C    4.590581   1.400639   0.000000
     9  C    5.800526   2.438128   1.398570   0.000000
    10  C    6.047742   2.818252   2.416465   1.392466   0.000000
    11  C    5.189149   2.438111   2.783376   2.411008   1.394543
    12  C    3.790417   1.394765   2.396325   2.779470   2.416541
    13  H    3.856414   5.759504   6.274641   7.671094   8.506284
    14  H    3.398261   6.447235   7.386535   8.744226   9.252245
    15  H    2.149917   5.493991   6.740267   7.931902   8.080297
    16  H    4.808354   2.143525   1.067945   2.131019   3.376126
    17  H    6.722957   3.408241   2.148730   1.074923   2.142754
    18  H    5.771354   3.408670   3.857497   3.383846   2.142626
    19  Cl   3.179522   2.736411   4.033619   4.559149   4.057295
    20  Cl   1.788982   3.441988   4.840000   5.742271   5.564198
    21  Cl   7.770202   4.577730   4.039679   2.738100   1.759478
    22  Cl   4.056537   4.000525   3.984310   5.308995   6.385184
                   11         12         13         14         15
    11  C    0.000000
    12  C    1.400544   0.000000
    13  H    8.147350   6.842585   0.000000
    14  H    8.534785   7.136019   2.467508   0.000000
    15  H    7.084229   5.722313   4.264190   2.466120   0.000000
    16  H    3.851190   3.369375   5.773084   7.207003   6.927027
    17  H    3.385768   3.854375   8.218205   9.507216   8.869390
    18  H    1.074123   2.154138   8.995616   9.165583   7.492238
    19  Cl   2.760414   1.779682   6.868495   6.529071   4.637411
    20  Cl   4.404469   3.148001   5.644146   4.880955   2.843108
    21  Cl   2.738176   4.039911  10.241138  11.006758   9.759802
    22  Cl   6.404954   5.348513   2.784132   4.829776   5.609783
                   16         17         18         19         20
    16  H    0.000000
    17  H    2.453337   0.000000
    18  H    4.925309   4.273034   0.000000
    19  Cl   4.879481   5.634045   2.900411   0.000000
    20  Cl   5.408680   6.783350   4.687096   1.800822   0.000000
    21  Cl   4.869105   2.875445   2.872185   5.487098   7.136996
    22  Cl   3.230599   5.664791   7.406783   6.078262   5.568943
                   21         22
    21  Cl   0.000000
    22  Cl   8.018540   0.000000
 Stoichiometry    C12H6Cl4
 Framework group  C1[X(C12H6Cl4)]
 Deg. of freedom    60
 Full point group                 C1      NOp   1
 Largest Abelian subgroup         C1      NOp   1
 Largest concise Abelian subgroup C1      NOp   1
                         Standard orientation:                         
 ---------------------------------------------------------------------
 Center     Atomic      Atomic             Coordinates (Angstroms)
 Number     Number       Type             X           Y           Z
 ---------------------------------------------------------------------
      1          6           0        1.788882    0.281892   -0.000001
      2          6           0        2.745980    1.317131   -0.000002
      3          6           0        4.116164    1.041587   -0.000001
      4          6           0        4.567862   -0.272357    0.000001
      5          6           0        3.643802   -1.312865    0.000004
      6          6           0        2.269929   -1.038643    0.000003
      7          6           0       -0.759207    0.434180    0.000010
      8          6           0       -1.448329    1.653565    0.000014
      9          6           0       -2.846299    1.694543    0.000011
     10          6           0       -3.576469    0.508873    0.000003
     11          6           0       -2.909158   -0.715646   -0.000003
     12          6           0       -1.508861   -0.741995    0.000000
     13          1           0        4.823190    1.851476   -0.000002
     14          1           0        5.622456   -0.482998    0.000002
     15          1           0        3.988622   -2.330247    0.000008
     16          1           0       -0.904658    2.572765    0.000019
     17          1           0       -3.357063    2.640365    0.000015
     18          1           0       -3.470929   -1.631152   -0.000012
     19         17           0       -0.648691   -2.299998   -0.000008
     20         17           0        1.147319   -2.431555    0.000004
     21         17           0       -5.335378    0.553631   -0.000004
     22         17           0        2.295139    3.017815   -0.000008
 ---------------------------------------------------------------------
 Rotational constants (GHZ):           0.5608818           0.1980906           0.1463892
 Standard basis: 6-311+G(d,p) (5D, 7F)
 There are   436 symmetry adapted cartesian basis functions of A   symmetry.
 There are   420 symmetry adapted basis functions of A   symmetry.
   420 basis functions,   692 primitive gaussians,   436 cartesian basis functions
    73 alpha electrons       73 beta electrons
       nuclear repulsion energy      1439.0755910408 Hartrees.
 NAtoms=   22 NActive=   22 NUniq=   22 SFac= 1.00D+00 NAtFMM=   60 NAOKFM=F Big=F
 Integral buffers will be    131072 words long.
 Raffenetti 2 integral format.
 Two-electron integral symmetry is turned on.
 One-electron integrals computed using PRISM.
 NBasis=   420 RedAO= T EigKep=  1.09D-06  NBF=   420
 NBsUse=   417 1.00D-06 EigRej=  6.87D-07 NBFU=   417
 Initial guess from the checkpoint file:  "./Gau-285915.chk"
 B after Tr=     0.000000    0.000000   -0.000000
         Rot=    0.999236    0.000000    0.000000    0.039080 Ang=   4.48 deg.
 ExpMin= 4.38D-02 ExpMax= 1.06D+05 ExpMxC= 3.62D+03 IAcc=3 IRadAn=         5 AccDes= 0.00D+00
 Harris functional with IExCor=  402 and IRadAn=       5 diagonalized for initial guess.
 HarFok:  IExCor=  402 AccDes= 0.00D+00 IRadAn=         5 IDoV= 1 UseB2=F ITyADJ=14
 ICtDFT=  3500011 ScaDFX=  1.000000  1.000000  1.000000  1.000000
 FoFCou: FMM=F IPFlag=           0 FMFlag=      100000 FMFlg1=           0
         NFxFlg=           0 DoJE=T BraDBF=F KetDBF=T FulRan=T
         wScrn=  0.000000 ICntrl=       500 IOpCl=  0 I1Cent=   200000004 NGrid=           0
         NMat0=    1 NMatS0=      1 NMatT0=    0 NMatD0=    1 NMtDS0=    0 NMtDT0=    0
 Petite list used in FoFCou.
 Requested convergence on RMS density matrix=1.00D-08 within  32 cycles.
 Requested convergence on MAX density matrix=1.00D-06.
 Requested convergence on             energy=1.00D-06.
 No special actions if energy rises.
 SCF Done:  E(RB3LYP) =  -2301.43489995     A.U. after   20 cycles
            NFock= 20  Conv=0.70D-08     -V/T= 2.0022
 QCSCF skips out because SCF is already converged.
 Calling FoFJK, ICntrl=      2127 FMM=F ISym2X=0 I1Cent= 0 IOpClX= 0 NMat=1 NMatS=1 NMatT=0.
 ***** Axes restored to original set *****
 -------------------------------------------------------------------
 Center     Atomic                   Forces (Hartrees/Bohr)
 Number     Number              X              Y              Z
 -------------------------------------------------------------------
      1        6          -0.013261133    0.016342156    0.007437853
      2        6          -0.021362527    0.000344156    0.007102608
      3        6          -0.003505598    0.000829529    0.001310868
      4        6          -0.003444319   -0.012019957   -0.001122924
      5        6          -0.006476719    0.000800289    0.002284275
      6        6           0.063284088   -0.009222581   -0.022581035
      7        6          -0.012763746    0.002378813    0.004652146
      8        6          -0.010343343    0.011625026    0.005591177
      9        6          -0.002211387    0.003264309    0.001341531
     10        6           0.007467457    0.006504384   -0.001238598
     11        6          -0.005501843    0.004687585    0.002693039
     12        6           0.034722397   -0.035172286   -0.018045616
     13        1           0.005617485   -0.000725193   -0.001986861
     14        1           0.001701218    0.005221443    0.000420121
     15        1          -0.002004939    0.005753175    0.001741058
     16        1           0.011043227    0.000015662   -0.003635440
     17        1           0.002371270   -0.004983747   -0.001717216
     18        1          -0.005478804   -0.001895940    0.001448904
     19       17          -0.211288925   -0.291703353    0.014829168
     20       17           0.173028768    0.300459791   -0.000579539
     21       17           0.000848059    0.003307701    0.000341785
     22       17          -0.002440686   -0.005810959   -0.000287301
 -------------------------------------------------------------------
 Cartesian Forces:  Max     0.300459791 RMS     0.062736227

 GradGradGradGradGradGradGradGradGradGradGradGradGradGradGradGradGradGrad
 Berny optimization.
 Using GEDIIS/GDIIS optimizer.
 FormGI is forming the generalized inverse of G from B-inverse, IUseBI=4.
 Internal  Forces:  Max     0.357406198 RMS     0.039293189
 Search for a local minimum.
 Step number   2 out of a maximum of  112
 All quantities printed in internal units (Hartrees-Bohrs-Radians)
 Mixed Optimization -- RFO/linear search
 Update second derivatives using D2CorX and points    1    2
 DE= -1.08D-01 DEPred=-1.28D-01 R= 8.41D-01
 TightC=F SS=  1.41D+00  RLast= 3.00D-01 DXNew= 5.0454D-01 9.0000D-01
 Trust test= 8.41D-01 RLast= 3.00D-01 DXMaxT set to 5.05D-01
 ITU=  1  0
 Use linear search instead of GDIIS.
 Linear search step of   0.600 exceeds DXMaxT=   0.505 but not scaled.
 Quartic linear search produced a step of  2.00000.
 Iteration  1 RMS(Cart)=  0.38585011 RMS(Int)=  0.03732221
 Iteration  2 RMS(Cart)=  0.16350304 RMS(Int)=  0.01380437
 Iteration  3 RMS(Cart)=  0.02912506 RMS(Int)=  0.00023951
 Iteration  4 RMS(Cart)=  0.00000626 RMS(Int)=  0.00023951
 Iteration  5 RMS(Cart)=  0.00000000 RMS(Int)=  0.00023951
 Variable       Old X    -DE/DX   Delta X   Delta X   Delta X     New X
                                 (Linear)    (Quad)   (Total)
    R1        2.66428  -0.02720   0.03205   0.00000   0.03244   2.69673
    R2        2.65587  -0.03573   0.01521   0.00000   0.01565   2.67152
    R3        2.64111   0.00166  -0.01430   0.00000  -0.01434   2.62677
    R4        3.32484   0.00301  -0.00216   0.00000  -0.00216   3.32267
    R5        2.62562   0.00489  -0.04529   0.00000  -0.04574   2.57988
    R6        2.03161   0.00583   0.01922   0.00000   0.01922   2.05083
    R7        2.62974   0.00189  -0.03705   0.00000  -0.03746   2.59228
    R8        2.03226   0.00546   0.02050   0.00000   0.02050   2.05276
    R9        2.64745  -0.00513  -0.00162   0.00000  -0.00158   2.64587
   R10        2.03000   0.00614   0.01598   0.00000   0.01598   2.04598
   R11        3.38069   0.01904   0.10954   0.00000   0.10954   3.49022
   R12        2.64682  -0.01319  -0.00288   0.00000  -0.00277   2.64406
   R13        2.63572  -0.01592  -0.02508   0.00000  -0.02488   2.61085
   R14        2.64291  -0.00064  -0.01069   0.00000  -0.01078   2.63214
   R15        2.01812   0.01160  -0.00777   0.00000  -0.00777   2.01035
   R16        2.63138   0.00232  -0.03376   0.00000  -0.03397   2.59741
   R17        2.03131   0.00578   0.01861   0.00000   0.01861   2.04991
   R18        2.63530  -0.00087  -0.02592   0.00000  -0.02603   2.60927
   R19        3.32493  -0.00320  -0.00197   0.00000  -0.00197   3.32296
   R20        2.64664  -0.00683  -0.00323   0.00000  -0.00315   2.64350
   R21        2.02980   0.00555   0.01558   0.00000   0.01558   2.04538
   R22        3.36311   0.01913   0.07439   0.00000   0.07439   3.43750
   R23        3.40306   0.35741   0.48348   0.00000   0.48348   3.88654
    A1        2.04605   0.00351  -0.09668   0.00000  -0.09538   1.95067
    A2        2.11854  -0.00161   0.04829   0.00000   0.04859   2.16713
    A3        2.13626  -0.00841   0.08373   0.00000   0.08358   2.21984
    A4        2.02838   0.01002  -0.13202   0.00000  -0.13217   1.89621
    A5        2.10037  -0.00299   0.01194   0.00000   0.01136   2.11172
    A6        2.09003   0.00004  -0.00872   0.00000  -0.00843   2.08160
    A7        2.09279   0.00295  -0.00322   0.00000  -0.00293   2.08986
    A8        2.08428   0.00011  -0.02023   0.00000  -0.02120   2.06309
    A9        2.09905   0.00067   0.00932   0.00000   0.00980   2.10886
   A10        2.09985  -0.00078   0.01091   0.00000   0.01139   2.11124
   A11        2.09998  -0.01784   0.01117   0.00000   0.01070   2.11068
   A12        2.08862   0.00735  -0.01155   0.00000  -0.01131   2.07731
   A13        2.09458   0.01050   0.00038   0.00000   0.00061   2.09519
   A14        2.11715   0.01882   0.04550   0.00000   0.04592   2.16307
   A15        2.11390  -0.05397   0.03900   0.00000   0.03879   2.15269
   A16        2.05214   0.03515  -0.08450   0.00000  -0.08471   1.96743
   A17        2.05976   0.00415  -0.06927   0.00000  -0.06881   1.99095
   A18        2.11449  -0.00560   0.04019   0.00000   0.04020   2.15470
   A19        2.09308   0.00201  -0.00262   0.00000  -0.00263   2.09045
   A20        2.07561   0.00359  -0.03757   0.00000  -0.03757   2.03804
   A21        2.09347  -0.00157  -0.00185   0.00000  -0.00216   2.09131
   A22        2.09525   0.00062   0.00171   0.00000   0.00187   2.09712
   A23        2.09447   0.00095   0.00014   0.00000   0.00030   2.09476
   A24        2.09065   0.00603  -0.00749   0.00000  -0.00784   2.08281
   A25        2.09733  -0.00095   0.00587   0.00000   0.00605   2.10338
   A26        2.09520  -0.00507   0.00161   0.00000   0.00179   2.09699
   A27        2.08858  -0.01524  -0.01164   0.00000  -0.01171   2.07687
   A28        2.09226   0.00539  -0.00428   0.00000  -0.00425   2.08801
   A29        2.10235   0.00986   0.01592   0.00000   0.01595   2.11831
   A30        2.11942   0.01224   0.05006   0.00000   0.05031   2.16974
   A31        2.06970  -0.03330  -0.04939   0.00000  -0.04952   2.02017
   A32        2.09406   0.02106  -0.00066   0.00000  -0.00079   2.09327
   A33        2.14837  -0.10413   0.10795   0.00000   0.10795   2.25631
   A34        2.17603  -0.08898   0.16328   0.00000   0.16328   2.33931
    D1        0.00000  -0.00000   0.00000   0.00000   0.00000   0.00000
    D2        3.14159   0.00000   0.00000   0.00000   0.00000   3.14159
    D3       -0.00000   0.00000  -0.00000   0.00000  -0.00000  -0.00000
    D4        3.14159  -0.00000   0.00000   0.00000   0.00000  -3.14159
    D5        0.00000  -0.00000   0.00000   0.00000   0.00000   0.00000
    D6        3.14159   0.00000   0.00000   0.00000  -0.00000   3.14159
    D7       -3.14159  -0.00000  -0.00000   0.00000  -0.00000  -3.14159
    D8        0.00000  -0.00000  -0.00000   0.00000  -0.00000   0.00000
    D9       -0.00000   0.00000   0.00000   0.00000   0.00000  -0.00000
   D10        3.14159   0.00000  -0.00000   0.00000  -0.00000   3.14159
   D11        3.14159   0.00000   0.00000   0.00000   0.00000   3.14159
   D12        0.00000  -0.00000   0.00000   0.00000   0.00000   0.00000
   D13        0.00000  -0.00000  -0.00000   0.00000  -0.00000   0.00000
   D14       -3.14159  -0.00000  -0.00000   0.00000  -0.00000  -3.14159
   D15       -3.14159  -0.00000  -0.00000   0.00000  -0.00000   3.14159
   D16        0.00000  -0.00000  -0.00000   0.00000  -0.00000   0.00000
   D17       -0.00000   0.00000   0.00000   0.00000   0.00000   0.00000
   D18        3.14159   0.00000  -0.00000   0.00000  -0.00000   3.14159
   D19        3.14159  -0.00000   0.00000   0.00000   0.00000   3.14159
   D20       -0.00000   0.00000  -0.00000   0.00000  -0.00000  -0.00000
   D21        0.00001   0.00000  -0.00000   0.00000  -0.00000   0.00000
   D22       -3.14159   0.00000  -0.00000   0.00000  -0.00000  -3.14159
   D23        0.00000   0.00000   0.00000   0.00000   0.00000   0.00000
   D24       -3.14159  -0.00000  -0.00000   0.00000  -0.00000  -3.14159
   D25       -0.00000   0.00000  -0.00000   0.00000  -0.00000  -0.00000
   D26        3.14159  -0.00000   0.00000   0.00000   0.00000   3.14159
   D27       -0.00000  -0.00000   0.00000   0.00000   0.00000  -0.00000
   D28        3.14159  -0.00000  -0.00000   0.00000  -0.00000   3.14159
   D29        3.14159   0.00000   0.00000   0.00000   0.00000   3.14159
   D30       -0.00000   0.00000   0.00000   0.00000   0.00000  -0.00000
   D31       -0.00000   0.00000  -0.00000   0.00000  -0.00000  -0.00000
   D32       -3.14159  -0.00000  -0.00000   0.00000  -0.00000  -3.14159
   D33        3.14159   0.00000   0.00000   0.00000   0.00000   3.14159
   D34        0.00000  -0.00000  -0.00000   0.00000  -0.00000   0.00000
   D35        0.00000   0.00000  -0.00000   0.00000  -0.00000  -0.00000
   D36       -3.14159  -0.00000  -0.00000   0.00000  -0.00000  -3.14159
   D37        3.14159   0.00000  -0.00000   0.00000  -0.00000   3.14159
   D38        0.00000  -0.00000  -0.00000   0.00000  -0.00000   0.00000
   D39        0.00000  -0.00000   0.00000   0.00000   0.00000   0.00000
   D40       -3.14159   0.00000  -0.00000   0.00000  -0.00000   3.14159
   D41        3.14159   0.00000   0.00000   0.00000   0.00000   3.14159
   D42       -0.00000   0.00000  -0.00000   0.00000  -0.00000  -0.00000
   D43        0.00001   0.00000  -0.00000   0.00000  -0.00000   0.00000
   D44       -3.14159   0.00000  -0.00000   0.00000  -0.00000  -3.14159
   D45       -0.00002   0.00000  -0.00001   0.00000  -0.00001  -0.00003
         Item               Value     Threshold  Converged?
 Maximum Force            0.357406     0.000450     NO 
 RMS     Force            0.039293     0.000300     NO 
 Maximum Displacement     1.936812     0.001800     NO 
 RMS     Displacement     0.569243     0.001200     NO 
 Predicted change in Energy=-5.368264D-02
 GradGradGradGradGradGradGradGradGradGradGradGradGradGradGradGradGradGrad

                          Input orientation:                          
 ---------------------------------------------------------------------
 Center     Atomic      Atomic             Coordinates (Angstroms)
 Number     Number       Type             X           Y           Z
 ---------------------------------------------------------------------
      1          6           0        0.355883    2.763214    0.324457
      2          6           0        1.637049    3.303886    0.003915
      3          6           0        1.975837    4.644684    0.144104
      4          6           0        1.070938    5.553124    0.612829
      5          6           0       -0.183843    5.107487    0.942523
      6          6           0       -0.528068    3.757577    0.802414
      7          6           0       -1.706639   -0.184576    0.450312
      8          6           0       -1.412528   -1.508143    0.104830
      9          6           0       -2.329377   -2.551311    0.210983
     10          6           0       -3.598417   -2.301333    0.676040
     11          6           0       -3.946792   -1.013707    1.032651
     12          6           0       -2.995530    0.004646    0.910500
     13          1           0        2.975774    4.970117   -0.124208
     14          1           0        1.338554    6.600309    0.721325
     15          1           0       -0.911912    5.816684    1.315572
     16          1           0       -0.444703   -1.756151   -0.260614
     17          1           0       -2.043812   -3.558743   -0.072309
     18          1           0       -4.944815   -0.811417    1.399462
     19         17           0       -3.427057    1.710170    1.372992
     20         17           0       -2.269154    3.408767    1.310508
     21         17           0       -4.770401   -3.604623    0.817401
     22         17           0        3.032143    2.433760   -0.619105
 ---------------------------------------------------------------------
                    Distance matrix (angstroms):
                    1          2          3          4          5
     1  C    0.000000
     2  C    1.427046   0.000000
     3  C    2.489318   1.390025   0.000000
     4  C    2.894487   2.397984   1.365213   0.000000
     5  C    2.483732   2.729398   2.348590   1.371775   0.000000
     6  C    1.413707   2.351843   2.736762   2.411794   1.400136
     7  C    3.599903   4.852719   6.080801   6.376719   5.528753
     8  C    4.628175   5.697870   7.024232   7.502476   6.780705
     9  C    5.955474   7.075221   8.385802   8.798039   7.987218
    10  C    6.435040   7.699372   8.922018   9.137798   8.162165
    11  C    5.768855   7.132965   8.239201   8.275091   7.185884
    12  C    4.380082   5.759138   6.843377   6.885520   5.826286
    13  H    3.454786   2.141244   1.085252   2.124033   3.337659
    14  H    3.980759   3.386766   2.136301   1.086272   2.143627
    15  H    3.451564   3.812060   3.329417   2.120143   1.082687
    16  H    4.626868   5.477923   6.855180   7.515688   6.973171
    17  H    6.773707   7.787826   9.137868   9.653870   8.921486
    18  H    6.483134   7.886964   8.901706   8.792921   7.609801
    19  Cl   4.064353   5.482652   6.269992   5.964738   4.716514
    20  Cl   2.877474   4.120268   4.572519   4.030042   2.714698
    21  Cl   8.189696   9.457519  10.677832  10.864042   9.846473
    22  Cl   2.856784   1.758284   2.566410   3.885153   4.464311
                    6          7          8          9         10
     6  C    0.000000
     7  C    4.129597   0.000000
     8  C    5.384858   1.399174   0.000000
     9  C    6.587607   2.458967   1.392868   0.000000
    10  C    6.793629   2.847883   2.394482   1.374492   0.000000
    11  C    5.874166   2.458630   2.743686   2.378108   1.380767
    12  C    4.492721   1.381600   2.333137   2.732398   2.394991
    13  H    3.821752   6.987555   7.827995   9.210259   9.835363
    14  H    3.401761   7.441862   8.584609   9.872503  10.179144
[...]

 Orbital symmetries:
       Occupied  (A) (A) (A) (A) (A) (A) (A) (A) (A) (A) (A) (A)
                 (A) (A) (A) (A) (A) (A) (A) (A) (A) (A) (A) (A)
                 (A) (A) (A) (A) (A) (A) (A) (A) (A) (A) (A) (A)
                 (A) (A) (A) (A) (A) (A) (A) (A) (A) (A) (A) (A)
                 (A) (A) (A) (A) (A) (A) (A) (A) (A) (A) (A) (A)
                 (A) (A) (A) (A) (A) (A) (A) (A) (A) (A) (A) (A)
                 (A)
       Virtual   (A) (A) (A) (A) (A) (A) (A) (A) (A) (A) (A) (A)
                 (A) (A) (A) (A) (A) (A) (A) (A) (A) (A) (A) (A)
                 (A) (A) (A) (A) (A) (A) (A) (A) (A) (A) (A) (A)
                 (A) (A) (A) (A) (A) (A) (A) (A) (A) (A) (A) (A)
                 (A) (A) (A) (A) (A) (A) (A) (A) (A) (A) (A) (A)
                 (A) (A) (A) (A) (A) (A) (A) (A) (A) (A) (A) (A)
                 (A) (A) (A) (A) (A) (A) (A) (A) (A) (A) (A) (A)
                 (A) (A) (A) (A) (A) (A) (A) (A) (A) (A) (A) (A)
                 (A) (A) (A) (A) (A) (A) (A) (A) (A) (A) (A) (A)
                 (A) (A) (A) (A) (A) (A) (A) (A) (A) (A) (A) (A)
                 (A) (A) (A) (A) (A) (A) (A) (A) (A) (A) (A) (A)
                 (A) (A) (A) (A) (A) (A) (A) (A) (A) (A) (A) (A)
                 (A) (A) (A) (A) (A) (A) (A) (A) (A) (A) (A) (A)
                 (A) (A) (A) (A) (A) (A) (A) (A) (A) (A) (A) (A)
                 (A) (A) (A) (A) (A) (A) (A) (A) (A) (A) (A) (A)
                 (A) (A) (A) (A) (A) (A) (A) (A) (A) (A) (A) (A)
                 (A) (A) (A) (A) (A) (A) (A) (A) (A) (A) (A) (A)
                 (A) (A) (A) (A) (A) (A) (A) (A) (A) (A) (A) (A)
                 (A) (A) (A) (A) (A) (A) (A) (A) (A) (A) (A) (A)
                 (A) (A) (A) (A) (A) (A) (A) (A) (A) (A) (A) (A)
                 (A) (A) (A) (A) (A) (A) (A) (A) (A) (A) (A) (A)
                 (A) (A) (A) (A) (A) (A) (A) (A) (A) (A) (A) (A)
                 (A) (A) (A) (A) (A) (A) (A) (A) (A) (A) (A) (A)
                 (A) (A) (A) (A) (A) (A) (A) (A) (A) (A) (A) (A)
                 (A) (A) (A) (A) (A) (A) (A) (A) (A) (A) (A) (A)
                 (A) (A) (A) (A) (A) (A) (A) (A) (A) (A) (A) (A)
                 (A) (A) (A) (A) (A) (A) (A) (A) (A) (A) (A) (A)
                 (A) (A) (A) (A) (A) (A) (A) (A) (A) (A) (A) (A)
                 (A) (A) (A) (A) (A) (A) (A)
 The electronic state is 1-A.
 Alpha  occ. eigenvalues -- -101.56637-101.56637-101.56566-101.56499 -10.26191
 Alpha  occ. eigenvalues --  -10.26190 -10.26009 -10.25806 -10.22675 -10.21952
 Alpha  occ. eigenvalues --  -10.20827 -10.20822 -10.20726 -10.20560 -10.20553
 Alpha  occ. eigenvalues --  -10.20376  -9.48108  -9.48108  -9.48021  -9.47970
 Alpha  occ. eigenvalues --   -7.24574  -7.24574  -7.24486  -7.24436  -7.23593
 Alpha  occ. eigenvalues --   -7.23593  -7.23542  -7.23542  -7.23502  -7.23465
 Alpha  occ. eigenvalues --   -7.23452  -7.23408  -0.93538  -0.91717  -0.88807
 Alpha  occ. eigenvalues --   -0.88626  -0.84528  -0.84165  -0.79789  -0.76637
 Alpha  occ. eigenvalues --   -0.75204  -0.73948  -0.65174  -0.63878  -0.62289
 Alpha  occ. eigenvalues --   -0.60771  -0.55451  -0.52045  -0.51289  -0.51206
 Alpha  occ. eigenvalues --   -0.48730  -0.47538  -0.45585  -0.45466  -0.45401
 Alpha  occ. eigenvalues --   -0.42733  -0.42630  -0.41479  -0.39541  -0.39265
 Alpha  occ. eigenvalues --   -0.38697  -0.38034  -0.37095  -0.33752  -0.33703
 Alpha  occ. eigenvalues --   -0.33323  -0.33191  -0.32555  -0.32419  -0.27743
 Alpha  occ. eigenvalues --   -0.27559  -0.26507  -0.26243
 Alpha virt. eigenvalues --   -0.04916  -0.04605  -0.04335  -0.03820  -0.01938
 Alpha virt. eigenvalues --   -0.00903  -0.00274   0.01217   0.01780   0.01800
 Alpha virt. eigenvalues --    0.02012   0.02225   0.03359   0.04195   0.04767
 Alpha virt. eigenvalues --    0.05156   0.05582   0.05824   0.06097   0.06837
 Alpha virt. eigenvalues --    0.07033   0.08573   0.08694   0.08773   0.09425
 Alpha virt. eigenvalues --    0.09436   0.10149   0.10269   0.10609   0.11093
 Alpha virt. eigenvalues --    0.11925   0.12187   0.12727   0.12792   0.13076
 Alpha virt. eigenvalues --    0.13251   0.13674   0.13700   0.14554   0.14853
 Alpha virt. eigenvalues --    0.15834   0.16171   0.16595   0.16719   0.17192
 Alpha virt. eigenvalues --    0.17561   0.17677   0.17805   0.18130   0.18583
 Alpha virt. eigenvalues --    0.18876   0.19576   0.19879   0.19989   0.20690
 Alpha virt. eigenvalues --    0.20975   0.21470   0.22493   0.22502   0.22553
 Alpha virt. eigenvalues --    0.22825   0.23360   0.23659   0.24071   0.24600
 Alpha virt. eigenvalues --    0.25310   0.25367   0.26022   0.26380   0.26814
 Alpha virt. eigenvalues --    0.27378   0.27473   0.27598   0.27925   0.28792
 Alpha virt. eigenvalues --    0.29367   0.29782   0.30202   0.30350   0.31924
 Alpha virt. eigenvalues --    0.32565   0.32608   0.33727   0.34755   0.36831
 Alpha virt. eigenvalues --    0.40483   0.41929   0.42143   0.44015   0.44986
 Alpha virt. eigenvalues --    0.46070   0.46281   0.46987   0.47280   0.48126
 Alpha virt. eigenvalues --    0.49118   0.49463   0.50409   0.50687   0.50954
 Alpha virt. eigenvalues --    0.51691   0.53372   0.53879   0.54122   0.55158
 Alpha virt. eigenvalues --    0.56771   0.56955   0.57608   0.58090   0.58576
 Alpha virt. eigenvalues --    0.58850   0.59561   0.60791   0.61475   0.61836
 Alpha virt. eigenvalues --    0.63255   0.63495   0.64650   0.65029   0.65487
 Alpha virt. eigenvalues --    0.65733   0.66014   0.68000   0.68682   0.69269
 Alpha virt. eigenvalues --    0.69423   0.70330   0.70425   0.71334   0.72048
 Alpha virt. eigenvalues --    0.73483   0.76116   0.78927   0.79985   0.80667
 Alpha virt. eigenvalues --    0.81182   0.82630   0.83192   0.84210   0.84367
 Alpha virt. eigenvalues --    0.84577   0.84914   0.85241   0.85697   0.85890
 Alpha virt. eigenvalues --    0.86412   0.86877   0.87556   0.88756   0.89350
 Alpha virt. eigenvalues --    0.89731   0.90488   0.91416   0.92615   0.92941
 Alpha virt. eigenvalues --    0.95213   0.95651   0.96183   0.96186   0.96233
 Alpha virt. eigenvalues --    0.96848   0.98232   0.98271   0.99448   1.00055
 Alpha virt. eigenvalues --    1.01513   1.02314   1.03414   1.04210   1.04292
 Alpha virt. eigenvalues --    1.06622   1.07888   1.08777   1.10601   1.13188
 Alpha virt. eigenvalues --    1.18932   1.19933   1.20897   1.23740   1.24621
 Alpha virt. eigenvalues --    1.24922   1.25454   1.26664   1.29343   1.31290
 Alpha virt. eigenvalues --    1.31374   1.33274   1.33454   1.33905   1.41471
 Alpha virt. eigenvalues --    1.42320   1.45048   1.47771   1.48702   1.48821
 Alpha virt. eigenvalues --    1.52362   1.54796   1.55138   1.56019   1.56627
 Alpha virt. eigenvalues --    1.58065   1.59658   1.60175   1.60900   1.64273
 Alpha virt. eigenvalues --    1.67842   1.67890   1.69762   1.69839   1.71859
 Alpha virt. eigenvalues --    1.73949   1.76387   1.79636   1.79904   1.82871
 Alpha virt. eigenvalues --    1.83403   1.86202   1.86471   1.88986   1.91687
 Alpha virt. eigenvalues --    1.93118   1.93868   1.94539   1.95183   1.95706
 Alpha virt. eigenvalues --    1.95707   1.99177   1.99584   2.00683   2.02958
 Alpha virt. eigenvalues --    2.03033   2.04433   2.06009   2.14159   2.15294
 Alpha virt. eigenvalues --    2.18612   2.19467   2.23751   2.25961   2.26668
 Alpha virt. eigenvalues --    2.27736   2.29120   2.30510   2.31439   2.35089
 Alpha virt. eigenvalues --    2.35616   2.36569   2.39831   2.40861   2.40946
 Alpha virt. eigenvalues --    2.43582   2.47169   2.48886   2.50896   2.51542
 Alpha virt. eigenvalues --    2.52583   2.54874   2.55561   2.57319   2.58778
 Alpha virt. eigenvalues --    2.61921   2.67723   2.68290   2.69557   2.69760
 Alpha virt. eigenvalues --    2.69953   2.72531   2.73019   2.73346   2.75188
 Alpha virt. eigenvalues --    2.76192   2.76545   2.77406   2.77705   2.78629
 Alpha virt. eigenvalues --    2.81966   2.83571   2.83926   2.84090   2.86826
 Alpha virt. eigenvalues --    2.89874   2.97096   2.99005   3.10064   3.10236
 Alpha virt. eigenvalues --    3.13056   3.13273   3.13795   3.17911   3.22377
 Alpha virt. eigenvalues --    3.22389   3.27895   3.32697   3.34125   3.38717
 Alpha virt. eigenvalues --    3.44247   3.52767   3.56040   3.59803   3.69659
 Alpha virt. eigenvalues --    3.70667   3.79297   3.83823   3.98023   4.01799
 Alpha virt. eigenvalues --    4.06669   4.08514   4.12835   4.35918   4.81226
 Alpha virt. eigenvalues --    4.81826   9.77284   9.80354   9.83472   9.84778
 Alpha virt. eigenvalues --   23.41964  23.57344  23.85388  23.86645  23.90313
 Alpha virt. eigenvalues --   23.94103  23.96555  24.04232  24.05584  24.08246
 Alpha virt. eigenvalues --   24.14138  24.15632  25.81703  25.82513  25.92896
 Alpha virt. eigenvalues --   25.97114  26.10608  26.22728  26.29045  26.30032
 Alpha virt. eigenvalues --   26.58161  26.61881  26.66551  26.92415 215.76384
 Alpha virt. eigenvalues --  215.79992 215.83647 215.85806
          Condensed to atoms (all electrons):
               1          2          3          4          5          6
     1  C   16.739075   0.501618  -5.389538  -1.150081  -5.395510   0.506011
     2  C    0.501618  14.441249  -2.363298  -1.202698   3.582002  -0.173970
     3  C   -5.389538  -2.363298  13.409704   1.616389   1.336165   3.580125
     4  C   -1.150081  -1.202698   1.616389   7.318383   1.619296  -1.205314
     5  C   -5.395510   3.582002   1.336165   1.619296  13.419516  -2.364602
     6  C    0.506011  -0.173970   3.580125  -1.205314  -2.364602  14.453006
     7  C    6.972850  -2.413362  -3.636304  -0.833899  -3.639978  -2.414827
     8  C   -2.151615   0.209550   0.173853   0.132648   0.172998   0.210566
     9  C    1.284323   0.437402   0.202635  -0.070946   0.202763   0.438630
    10  C   -1.576973  -0.508063  -0.125249   0.017666  -0.125407  -0.508973
    11  C   -1.883178  -0.713714  -0.142522   0.066962  -0.143339  -0.714856
    12  C   -3.048930  -4.801868  -2.412390   0.028618  -2.413507  -4.810399
    13  H    0.079406   0.032353   0.305363  -0.035804  -0.029533  -0.007544
    14  H   -0.000277   0.014532  -0.041404   0.399159  -0.041347   0.014548
    15  H    0.079454  -0.007498  -0.029568  -0.035788   0.305405   0.032257
    16  H    0.068353   0.068464   0.018332   0.004457   0.018386   0.068506
    17  H    0.003005   0.001932   0.000063   0.000104   0.000062   0.001930
    18  H    0.016614   0.001528  -0.000212   0.000132  -0.000209   0.001538
    19  Cl   0.159740  -0.001083  -0.052482  -0.105015  -0.052925  -0.000986
    20  Cl   0.018527  -0.623708   0.293012  -0.131603  -0.683832  -0.209308
    21  Cl  -0.056216  -0.034308  -0.002727  -0.000941  -0.002739  -0.034342
    22  Cl   0.017915  -0.208989  -0.683765  -0.131688   0.292612  -0.623926
               7          8          9         10         11         12
     1  C    6.972850  -2.151615   1.284323  -1.576973  -1.883178  -3.048930
     2  C   -2.413362   0.209550   0.437402  -0.508063  -0.713714  -4.801868
     3  C   -3.636304   0.173853   0.202635  -0.125249  -0.142522  -2.412390
     4  C   -0.833899   0.132648  -0.070946   0.017666   0.066962   0.028618
     5  C   -3.639978   0.172998   0.202763  -0.125407  -0.143339  -2.413507
     6  C   -2.414827   0.210566   0.438630  -0.508973  -0.714856  -4.810399
     7  C   25.156870  -1.479449  -2.918029  -4.899409  -1.571969  -2.009296
     8  C   -1.479449  13.361065  -0.201068   0.063797   1.579517  -5.508706
     9  C   -2.918029  -0.201068  20.077411  -3.254696 -10.270547  -0.141165
    10  C   -4.899409   0.063797  -3.254696  18.319560   0.344924  -1.175744
    11  C   -1.571969   1.579517 -10.270547   0.344924  22.355145  -2.737033
    12  C   -2.009296  -5.508706  -0.141165  -1.175744  -2.737033  35.316488
    13  H    0.012264  -0.001007  -0.000415   0.000007   0.000011   0.002076
    14  H    0.003838  -0.001349  -0.000212   0.000041   0.000111   0.002299
    15  H    0.012252  -0.000998  -0.000415   0.000007   0.000012   0.002070
    16  H   -0.014884   0.329345  -0.042876  -0.023937  -0.041350  -0.094055
    17  H    0.024305  -0.063231   0.295502   0.043293   0.063287  -0.013359
    18  H    0.073653  -0.031507   0.077262   0.018012   0.215917  -0.014483
    19  Cl  -0.885628  -0.522767   0.408610  -0.306058  -0.562704   0.882714
    20  Cl   0.290129   0.006691   0.097560  -0.018825  -0.066908   0.134467
    21  Cl  -0.226058   0.227815   0.112242  -1.199022   0.542025  -0.110274
    22  Cl   0.289948   0.006470   0.097896  -0.018644  -0.066944   0.135826
              13         14         15         16         17         18
     1  C    0.079406  -0.000277   0.079454   0.068353   0.003005   0.016614
     2  C    0.032353   0.014532  -0.007498   0.068464   0.001932   0.001528
     3  C    0.305363  -0.041404  -0.029568   0.018332   0.000063  -0.000212
     4  C   -0.035804   0.399159  -0.035788   0.004457   0.000104   0.000132
     5  C   -0.029533  -0.041347   0.305405   0.018386   0.000062  -0.000209
     6  C   -0.007544   0.014548   0.032257   0.068506   0.001930   0.001538
     7  C    0.012264   0.003838   0.012252  -0.014884   0.024305   0.073653
     8  C   -0.001007  -0.001349  -0.000998   0.329345  -0.063231  -0.031507
     9  C   -0.000415  -0.000212  -0.000415  -0.042876   0.295502   0.077262
    10  C    0.000007   0.000041   0.000007  -0.023937   0.043293   0.018012
    11  C    0.000011   0.000111   0.000012  -0.041350   0.063287   0.215917
    12  C    0.002076   0.002299   0.002070  -0.094055  -0.013359  -0.014483
    13  H    0.509754  -0.007527  -0.000183   0.000003   0.000000   0.000000
    14  H   -0.007527   0.522832  -0.007526  -0.000004  -0.000000  -0.000000
    15  H   -0.000183  -0.007526   0.509752   0.000003   0.000000   0.000000
    16  H    0.000003  -0.000004   0.000003   0.532835  -0.007289   0.000051
    17  H    0.000000  -0.000000   0.000000  -0.007289   0.510229  -0.000271
    18  H    0.000000  -0.000000   0.000000   0.000051  -0.000271   0.494489
    19  Cl  -0.000662  -0.000422  -0.000663  -0.001750   0.000748  -0.005777
    20  Cl   0.000489   0.000447  -0.009248  -0.007668  -0.000528  -0.000690
    21  Cl  -0.000001   0.000000  -0.000001  -0.000831  -0.012210  -0.013421
    22  Cl  -0.009240   0.000449   0.000489  -0.007672  -0.000530  -0.000688
              19         20         21         22
     1  C    0.159740   0.018527  -0.056216   0.017915
     2  C   -0.001083  -0.623708  -0.034308  -0.208989
     3  C   -0.052482   0.293012  -0.002727  -0.683765
     4  C   -0.105015  -0.131603  -0.000941  -0.131688
     5  C   -0.052925  -0.683832  -0.002739   0.292612
     6  C   -0.000986  -0.209308  -0.034342  -0.623926
     7  C   -0.885628   0.290129  -0.226058   0.289948
     8  C   -0.522767   0.006691   0.227815   0.006470
     9  C    0.408610   0.097560   0.112242   0.097896
    10  C   -0.306058  -0.018825  -1.199022  -0.018644
    11  C   -0.562704  -0.066908   0.542025  -0.066944
    12  C    0.882714   0.134467  -0.110274   0.135826
    13  H   -0.000662   0.000489  -0.000001  -0.009240
    14  H   -0.000422   0.000447   0.000000   0.000449
    15  H   -0.000663  -0.009248  -0.000001   0.000489
    16  H   -0.001750  -0.007668  -0.000831  -0.007672
    17  H    0.000748  -0.000528  -0.012210  -0.000530
    18  H   -0.005777  -0.000690  -0.013421  -0.000688
    19  Cl  17.614065   0.051210  -0.026156   0.050928
    20  Cl   0.051210  17.521260   0.005760  -0.065239
    21  Cl  -0.026156   0.005760  17.422389   0.005768
    22  Cl   0.050928  -0.065239   0.005768  17.520918
 Mulliken charges:
               1
     1  C    0.205426
     2  C   -0.238072
     3  C   -0.056181
     4  C   -0.300037
     5  C   -0.056279
     6  C   -0.238071
     7  C    0.106984
     8  C   -0.512620
     9  C   -0.831867
    10  C    0.933696
    11  C   -0.252848
    12  C   -1.213348
    13  H    0.150190
    14  H    0.141810
    15  H    0.150186
    16  H    0.133582
    17  H    0.152959
    18  H    0.168063
    19  Cl   0.357066
    20  Cl   0.398004
    21  Cl   0.403248
    22  Cl   0.398108
 Sum of Mulliken charges =  -0.00000
 Mulliken charges with hydrogens summed into heavy atoms:
               1
     1  C    0.205426
     2  C   -0.238072
     3  C    0.094009
     4  C   -0.158227
     5  C    0.093907
     6  C   -0.238071
     7  C    0.106984
     8  C   -0.379038
     9  C   -0.678908
    10  C    0.933696
    11  C   -0.084785
    12  C   -1.213348
    19  Cl   0.357066
    20  Cl   0.398004
    21  Cl   0.403248
    22  Cl   0.398108
 Electronic spatial extent (au):  <R**2>=           5254.7474
 Charge=             -0.0000 electrons
 Dipole moment (field-independent basis, Debye):
    X=              2.4008    Y=              0.0019    Z=              1.2999  Tot=              2.7301
 Quadrupole moment (field-independent basis, Debye-Ang):
   XX=           -109.4822   YY=           -123.6109   ZZ=           -118.0693
   XY=              0.0036   XZ=              0.7783   YZ=              0.0069
 Traceless Quadrupole moment (field-independent basis, Debye-Ang):
   XX=              7.5719   YY=             -6.5567   ZZ=             -1.0152
   XY=              0.0036   XZ=              0.7783   YZ=              0.0069
 Octapole moment (field-independent basis, Debye-Ang**2):
  XXX=             80.9401  YYY=             -0.0158  ZZZ=              0.4005  XYY=              2.9036
  XXY=              0.0082  XXZ=             -3.0739  XZZ=            -20.4221  YZZ=              0.0074
  YYZ=             -4.7600  XYZ=             -0.0213
 Hexadecapole moment (field-independent basis, Debye-Ang**3):
 XXXX=          -4376.9474 YYYY=          -1478.9870 ZZZZ=           -860.5814 XXXY=              0.0561
 XXXZ=             32.6442 YYYX=              0.0076 YYYZ=             -0.0646 ZZZX=            -32.8774
 ZZZY=              0.0944 XXYY=          -1002.4132 XXZZ=           -928.9846 YYZZ=           -417.4026
 XXYZ=              0.0050 YYXZ=              1.3506 ZZXY=             -0.0486
 N-N= 1.491684835834D+03 E-N=-8.428129734156D+03  KE= 2.295554120765D+03
 1\1\GINC-CN167\FOpt\RB3LYP\6-311+G(d,p)\C12H6Cl4\20CY91R06\03-Apr-2022
 \0\\# opt b3lyp/6-311+g(d,p) scf=xqc\\Title Card Required\\0,1\C,-0.63
 77223079,2.1560135733,0.5706047872\C,0.6900860247,2.185109041,1.021639
 585\C,1.4403751697,3.3560363144,1.0506936486\C,0.8610029793,4.54399230
 68,0.6185391802\C,-0.4522941153,4.5617089411,0.1617672056\C,-1.1804268
 877,3.3766873901,0.1431125179\C,-1.4235930284,0.8899693987,0.527346126
 7\C,-1.3959632737,0.0876151446,-0.617744307\C,-2.1144018006,-1.0995700
 596,-0.6972028715\C,-2.8790940765,-1.4936629123,0.3956309254\C,-2.9345
 048805,-0.7263104781,1.5524645559\C,-2.2046752833,0.4579720024,1.60371
 88827\H,2.4610984684,3.330167704,1.4084047375\H,1.4365501048,5.4618626
 674,0.6380561657\H,-0.9136411912,5.4799697007,-0.1765648693\H,-0.79668
 37234,0.4045902268,-1.4631393987\H,-2.0819147013,-1.708591991,-1.59083
 32911\H,-3.5310750008,-1.0387824439,2.3981210715\Cl,-2.2877334594,1.41
 30645307,3.0726646751\Cl,-2.8369038599,3.433197285,-0.4368678765\Cl,-3
 .795375917,-2.9890201655,0.3197171609\Cl,1.4500219798,0.7024058134,1.5
 764535283\\Version=EM64L-G16RevB.01\State=1-A\HF=-2301.9022843\RMSD=9.
 991e-09\RMSF=1.288e-05\Dipole=0.6655714,0.7133994,-0.4491918\Quadrupol
 e=-1.3093862,2.6490689,-1.3396827,4.5811218,-1.3768904,0.4486036\PG=C0
 1 [X(C12H6Cl4)]\\@


 GOD GAVE US TWO ENDS... ONE TO SIT ON...    
 AND THE OTHER TO THINK WITH...              
 YOUR SUCCESS DEPENDS UPON WHICH END YOU     
 USE THE MOST...                             
                                             
 IT'S A CASE OF HEADS YOU WIN TAILS YOU LOSE.
          SOURCE UNKNOWN(IT'S JUST AS WELL.) 
 Job cpu time:       1 days 11 hours 33 minutes 36.4 seconds.
 Elapsed time:       0 days  2 hours 59 minutes  8.1 seconds.
 File lengths (MBytes):  RWF=    114 Int=      0 D2E=      0 Chk=     20 Scr=      1
 Normal termination of Gaussian 16 at Sun Apr  3 03:45:32 2022.
