 Entering Gaussian System, Link 0=g16
 Input=2,2prime,3,3prime,5,6-Hexachlorobiphenyl.gjf
 Output=2,2prime,3,3prime,5,6-Hexachlorobiphenyl.log
 Initial command:
 /home/apps/g16/l1.exe "./Gau-106119.inp" -scrdir="./"
 Entering Link 1 = /home/apps/g16/l1.exe PID=    106120.
  
 Copyright (c) 1988-2017, Gaussian, Inc.  All Rights Reserved.
  
 This is part of the Gaussian(R) 16 program.  It is based on
 the Gaussian(R) 09 system (copyright 2009, Gaussian, Inc.),
 the Gaussian(R) 03 system (copyright 2003, Gaussian, Inc.),
 the Gaussian(R) 98 system (copyright 1998, Gaussian, Inc.),
 the Gaussian(R) 94 system (copyright 1995, Gaussian, Inc.),
 the Gaussian 92(TM) system (copyright 1992, Gaussian, Inc.),
 the Gaussian 90(TM) system (copyright 1990, Gaussian, Inc.),
 the Gaussian 88(TM) system (copyright 1988, Gaussian, Inc.),
 the Gaussian 86(TM) system (copyright 1986, Carnegie Mellon
 University), and the Gaussian 82(TM) system (copyright 1983,
 Carnegie Mellon University). Gaussian is a federally registered
 trademark of Gaussian, Inc.
  
 This software contains proprietary and confidential information,
 including trade secrets, belonging to Gaussian, Inc.
  
 This software is provided under written license and may be
 used, copied, transmitted, or stored only in accord with that
 written license.
  
 The following legend is applicable only to US Government
 contracts under FAR:
  
                    RESTRICTED RIGHTS LEGEND
  
 Use, reproduction and disclosure by the US Government is
 subject to restrictions as set forth in subparagraphs (a)
 and (c) of the Commercial Computer Software - Restricted
 Rights clause in FAR 52.227-19.
  
 Gaussian, Inc.
 340 Quinnipiac St., Bldg. 40, Wallingford CT 06492
  
  
 ---------------------------------------------------------------
 Warning -- This program may not be used in any manner that
 competes with the business of Gaussian, Inc. or will provide
 assistance to any competitor of Gaussian, Inc.  The licensee
 of this program is prohibited from giving any competitor of
 Gaussian, Inc. access to this program.  By using this program,
 the user acknowledges that Gaussian, Inc. is engaged in the
 business of creating and licensing software in the field of
 computational chemistry and represents and warrants to the
 licensee that it is not a competitor of Gaussian, Inc. and that
 it will not use this program in any manner prohibited above.
 ---------------------------------------------------------------
  

 Cite this work as:
 Gaussian 16, Revision B.01,
 M. J. Frisch, G. W. Trucks, H. B. Schlegel, G. E. Scuseria, 
 M. A. Robb, J. R. Cheeseman, G. Scalmani, V. Barone, 
 G. A. Petersson, H. Nakatsuji, X. Li, M. Caricato, A. V. Marenich, 
 J. Bloino, B. G. Janesko, R. Gomperts, B. Mennucci, H. P. Hratchian, 
 J. V. Ortiz, A. F. Izmaylov, J. L. Sonnenberg, D. Williams-Young, 
 F. Ding, F. Lipparini, F. Egidi, J. Goings, B. Peng, A. Petrone, 
 T. Henderson, D. Ranasinghe, V. G. Zakrzewski, J. Gao, N. Rega, 
 G. Zheng, W. Liang, M. Hada, M. Ehara, K. Toyota, R. Fukuda, 
 J. Hasegawa, M. Ishida, T. Nakajima, Y. Honda, O. Kitao, H. Nakai, 
 T. Vreven, K. Throssell, J. A. Montgomery, Jr., J. E. Peralta, 
 F. Ogliaro, M. J. Bearpark, J. J. Heyd, E. N. Brothers, K. N. Kudin, 
 V. N. Staroverov, T. A. Keith, R. Kobayashi, J. Normand, 
 K. Raghavachari, A. P. Rendell, J. C. Burant, S. S. Iyengar, 
 J. Tomasi, M. Cossi, J. M. Millam, M. Klene, C. Adamo, R. Cammi, 
 J. W. Ochterski, R. L. Martin, K. Morokuma, O. Farkas, 
 J. B. Foresman, and D. J. Fox, Gaussian, Inc., Wallingford CT, 2016.
 
 ******************************************
 Gaussian 16:  EM64L-G16RevB.01 20-Dec-2017
                 3-Apr-2022 
 ******************************************
 %mem=32GB
 %nprocshared=16
 Will use up to   16 processors via shared memory.
 --------------------------------
 # opt b3lyp/6-311+g(d,p) scf=xqc
 --------------------------------
 1/18=20,19=15,26=3,38=1/1,3;
 2/9=110,12=2,17=6,18=5,40=1/2;
 3/5=4,6=6,7=111,11=2,25=1,30=1,71=1,74=-5/1,2,3;
 4//1;
 5/5=2,8=3,13=1,38=5/2,8;
 6/7=2,8=2,9=2,10=2,28=1/1;
 7//1,2,3,16;
 1/18=20,19=15,26=3/3(2);
 2/9=110/2;
 99//99;
 2/9=110/2;
 3/5=4,6=6,7=111,11=2,25=1,30=1,71=1,74=-5/1,2,3;
 4/5=5,16=3,69=1/1;
 5/5=2,8=3,13=1,38=5/2,8;
 7//1,2,3,16;
 1/18=20,19=15,26=3/3(-5);
 2/9=110/2;
 6/7=2,8=2,9=2,10=2,19=2,28=1/1;
 99/9=1/99;
 -------------------
 Title Card Required
 -------------------
 Symbolic Z-matrix:
 Charge =  0 Multiplicity = 1
 C                    -0.0304    0.64155  -0.00384 
 C                     1.30199   0.67144  -0.43719 
 C                     2.00988   1.88089  -0.44326 
 C                     1.38539   3.06045  -0.01599 
 C                     0.05301   3.03057   0.41736 
 C                    -0.65488   1.82111   0.42343 
 C                    -1.0394   -1.08235   0.00481 
 C                    -0.41491  -2.26192  -0.42246 
 C                    -1.1228   -3.47137  -0.41639 
 C                    -2.45518  -3.50126   0.01696 
 C                    -3.07967  -2.32169   0.44424 
 C                    -2.37178  -1.11224   0.43816 
 H                     1.7788   -0.22919  -0.76342 
 H                     3.02718   1.9037   -0.77413 
 H                     1.92588   3.98389  -0.02062 
 H                    -2.99568  -4.4247    0.0216 
 Cl                   -3.15606   0.36916   0.97478 
 Cl                   -2.3282    1.78358   0.96766 
 Cl                   -4.75299  -2.35923   0.98848 
 Cl                   -0.73128   4.51197   0.95396 
 Cl                   -0.33852  -4.95277  -0.953 
 Cl                    1.25841  -2.22439  -0.96669 
 

 GradGradGradGradGradGradGradGradGradGradGradGradGradGradGradGradGradGrad
 Berny optimization.
 Initialization pass.
                           ----------------------------
                           !    Initial Parameters    !
                           ! (Angstroms and Degrees)  !
 --------------------------                            --------------------------
 ! Name  Definition              Value          Derivative Info.                !
 --------------------------------------------------------------------------------
 ! R1    R(1,2)                  1.4014         estimate D2E/DX2                !
 ! R2    R(1,6)                  1.4014         estimate D2E/DX2                !
 ! R3    R(2,3)                  1.4014         estimate D2E/DX2                !
 ! R4    R(2,13)                 1.07           estimate D2E/DX2                !
 ! R5    R(3,4)                  1.4014         estimate D2E/DX2                !
 ! R6    R(3,14)                 1.07           estimate D2E/DX2                !
 ! R7    R(4,5)                  1.4014         estimate D2E/DX2                !
 ! R8    R(4,15)                 1.07           estimate D2E/DX2                !
 ! R9    R(5,6)                  1.4014         estimate D2E/DX2                !
 ! R10   R(5,20)                 1.76           estimate D2E/DX2                !
 ! R11   R(6,18)                 1.76           estimate D2E/DX2                !
 ! R12   R(7,8)                  1.4014         estimate D2E/DX2                !
 ! R13   R(7,12)                 1.4014         estimate D2E/DX2                !
 ! R14   R(8,9)                  1.4014         estimate D2E/DX2                !
 ! R15   R(8,22)                 1.76           estimate D2E/DX2                !
 ! R16   R(9,10)                 1.4014         estimate D2E/DX2                !
 ! R17   R(9,21)                 1.76           estimate D2E/DX2                !
 ! R18   R(10,11)                1.4014         estimate D2E/DX2                !
 ! R19   R(10,16)                1.07           estimate D2E/DX2                !
 ! R20   R(11,12)                1.4014         estimate D2E/DX2                !
 ! R21   R(11,19)                1.76           estimate D2E/DX2                !
 ! R22   R(12,17)                1.76           estimate D2E/DX2                !
 ! R23   R(17,18)                1.6389         estimate D2E/DX2                !
 ! A1    A(2,1,6)              120.0            estimate D2E/DX2                !
 ! A2    A(1,2,3)              120.0            estimate D2E/DX2                !
 ! A3    A(1,2,13)             120.0            estimate D2E/DX2                !
 ! A4    A(3,2,13)             120.0            estimate D2E/DX2                !
 ! A5    A(2,3,4)              120.0            estimate D2E/DX2                !
 ! A6    A(2,3,14)             120.0            estimate D2E/DX2                !
 ! A7    A(4,3,14)             120.0            estimate D2E/DX2                !
 ! A8    A(3,4,5)              120.0            estimate D2E/DX2                !
 ! A9    A(3,4,15)             120.0            estimate D2E/DX2                !
 ! A10   A(5,4,15)             120.0            estimate D2E/DX2                !
 ! A11   A(4,5,6)              120.0            estimate D2E/DX2                !
 ! A12   A(4,5,20)             120.0            estimate D2E/DX2                !
 ! A13   A(6,5,20)             120.0            estimate D2E/DX2                !
 ! A14   A(1,6,5)              120.0            estimate D2E/DX2                !
 ! A15   A(1,6,18)             120.0            estimate D2E/DX2                !
 ! A16   A(5,6,18)             120.0            estimate D2E/DX2                !
 ! A17   A(8,7,12)             120.0            estimate D2E/DX2                !
 ! A18   A(7,8,9)              120.0            estimate D2E/DX2                !
 ! A19   A(7,8,22)             120.0            estimate D2E/DX2                !
 ! A20   A(9,8,22)             120.0            estimate D2E/DX2                !
 ! A21   A(8,9,10)             120.0            estimate D2E/DX2                !
 ! A22   A(8,9,21)             120.0            estimate D2E/DX2                !
 ! A23   A(10,9,21)            120.0            estimate D2E/DX2                !
 ! A24   A(9,10,11)            120.0            estimate D2E/DX2                !
 ! A25   A(9,10,16)            120.0            estimate D2E/DX2                !
 ! A26   A(11,10,16)           120.0            estimate D2E/DX2                !
 ! A27   A(10,11,12)           120.0            estimate D2E/DX2                !
 ! A28   A(10,11,19)           120.0            estimate D2E/DX2                !
 ! A29   A(12,11,19)           120.0            estimate D2E/DX2                !
 ! A30   A(7,12,11)            120.0            estimate D2E/DX2                !
 ! A31   A(7,12,17)            120.0            estimate D2E/DX2                !
 ! A32   A(11,12,17)           120.0            estimate D2E/DX2                !
 ! A33   A(12,17,18)           120.0            estimate D2E/DX2                !
 ! A34   A(6,18,17)            120.0            estimate D2E/DX2                !
 ! D1    D(6,1,2,3)              0.0001         estimate D2E/DX2                !
 ! D2    D(6,1,2,13)           180.0            estimate D2E/DX2                !
 ! D3    D(2,1,6,5)             -0.0001         estimate D2E/DX2                !
 ! D4    D(2,1,6,18)           180.0            estimate D2E/DX2                !
 ! D5    D(1,2,3,4)              0.0            estimate D2E/DX2                !
 ! D6    D(1,2,3,14)           180.0            estimate D2E/DX2                !
 ! D7    D(13,2,3,4)          -179.9999         estimate D2E/DX2                !
 ! D8    D(13,2,3,14)            0.0001         estimate D2E/DX2                !
 ! D9    D(2,3,4,5)             -0.0001         estimate D2E/DX2                !
 ! D10   D(2,3,4,15)           180.0            estimate D2E/DX2                !
 ! D11   D(14,3,4,5)           179.9999         estimate D2E/DX2                !
 ! D12   D(14,3,4,15)            0.0            estimate D2E/DX2                !
 ! D13   D(3,4,5,6)              0.0001         estimate D2E/DX2                !
 ! D14   D(3,4,5,20)          -179.9999         estimate D2E/DX2                !
 ! D15   D(15,4,5,6)          -180.0            estimate D2E/DX2                !
 ! D16   D(15,4,5,20)            0.0            estimate D2E/DX2                !
 ! D17   D(4,5,6,1)              0.0            estimate D2E/DX2                !
 ! D18   D(4,5,6,18)           179.9999         estimate D2E/DX2                !
 ! D19   D(20,5,6,1)           180.0            estimate D2E/DX2                !
 ! D20   D(20,5,6,18)           -0.0001         estimate D2E/DX2                !
 ! D21   D(1,6,18,17)            0.0004         estimate D2E/DX2                !
 ! D22   D(5,6,18,17)         -179.9996         estimate D2E/DX2                !
 ! D23   D(12,7,8,9)             0.0001         estimate D2E/DX2                !
 ! D24   D(12,7,8,22)         -179.9998         estimate D2E/DX2                !
 ! D25   D(8,7,12,11)           -0.0001         estimate D2E/DX2                !
 ! D26   D(8,7,12,17)          179.9999         estimate D2E/DX2                !
 ! D27   D(7,8,9,10)             0.0            estimate D2E/DX2                !
 ! D28   D(7,8,9,21)           180.0            estimate D2E/DX2                !
 ! D29   D(22,8,9,10)          179.9998         estimate D2E/DX2                !
 ! D30   D(22,8,9,21)           -0.0002         estimate D2E/DX2                !
 ! D31   D(8,9,10,11)            0.0            estimate D2E/DX2                !
 ! D32   D(8,9,10,16)         -179.9999         estimate D2E/DX2                !
 ! D33   D(21,9,10,11)         180.0            estimate D2E/DX2                !
 ! D34   D(21,9,10,16)           0.0001         estimate D2E/DX2                !
 ! D35   D(9,10,11,12)           0.0            estimate D2E/DX2                !
 ! D36   D(9,10,11,19)        -179.9998         estimate D2E/DX2                !
 ! D37   D(16,10,11,12)        179.9999         estimate D2E/DX2                !
 ! D38   D(16,10,11,19)          0.0001         estimate D2E/DX2                !
 ! D39   D(10,11,12,7)           0.0            estimate D2E/DX2                !
 ! D40   D(10,11,12,17)       -179.9999         estimate D2E/DX2                !
 ! D41   D(19,11,12,7)         179.9999         estimate D2E/DX2                !
 ! D42   D(19,11,12,17)         -0.0001         estimate D2E/DX2                !
 ! D43   D(7,12,17,18)           0.0004         estimate D2E/DX2                !
 ! D44   D(11,12,17,18)       -179.9997         estimate D2E/DX2                !
 ! D45   D(12,17,18,6)          -0.0006         estimate D2E/DX2                !
 --------------------------------------------------------------------------------
 Trust Radius=3.00D-01 FncErr=1.00D-07 GrdErr=1.00D-06 EigMax=2.50D+02 EigMin=1.00D-04
 Number of steps in this run=    112 maximum allowed number of steps=    132.
 GradGradGradGradGradGradGradGradGradGradGradGradGradGradGradGradGradGrad

                          Input orientation:                          
 ---------------------------------------------------------------------
 Center     Atomic      Atomic             Coordinates (Angstroms)
 Number     Number       Type             X           Y           Z
 ---------------------------------------------------------------------
      1          6           0       -0.030395    0.641549   -0.003842
      2          6           0        1.301986    0.671435   -0.437189
      3          6           0        2.009879    1.880886   -0.443261
      4          6           0        1.385392    3.060451   -0.015987
      5          6           0        0.053010    3.030566    0.417358
      6          6           0       -0.654883    1.821115    0.423431
      7          6           0       -1.039399   -1.082355    0.004814
      8          6           0       -0.414911   -2.261920   -0.422461
      9          6           0       -1.122804   -3.471371   -0.416386
     10          6           0       -2.455184   -3.501257    0.016963
     11          6           0       -3.079671   -2.321692    0.444239
     12          6           0       -2.371778   -1.112241    0.438164
     13          1           0        1.778796   -0.229189   -0.763421
     14          1           0        3.027182    1.903704   -0.774131
     15          1           0        1.925884    3.983894   -0.020623
     16          1           0       -2.995676   -4.424701    0.021603
     17         17           0       -3.156063    0.369159    0.974776
     18         17           0       -2.328204    1.783582    0.967664
     19         17           0       -4.752989   -2.359227    0.988481
     20         17           0       -0.731277    4.511967    0.953963
     21         17           0       -0.338519   -4.952771   -0.952996
     22         17           0        1.258409   -2.224386   -0.966695
 ---------------------------------------------------------------------
                    Distance matrix (angstroms):
                    1          2          3          4          5
     1  C    0.000000
     2  C    1.401400   0.000000
     3  C    2.427296   1.401400   0.000000
     4  C    2.802800   2.427296   1.401400   0.000000
     5  C    2.427296   2.802800   2.427296   1.401400   0.000000
     6  C    1.401400   2.427296   2.802800   2.427296   1.401400
     7  C    1.997500   2.958585   4.275472   4.800300   4.275472
     8  C    2.958585   3.398900   4.800300   5.633289   5.379093
     9  C    4.275472   4.800300   6.201700   7.008286   6.659793
    10  C    4.800300   5.633289   7.008286   7.603100   7.008286
    11  C    4.275472   5.379093   6.659793   7.008286   6.201700
    12  C    2.958585   4.176636   5.379093   5.633289   4.800300
    13  H    2.146700   1.070000   2.146700   3.396345   3.872800
    14  H    3.396345   2.146700   1.070000   2.146700   3.396345
    15  H    3.872800   3.396345   2.146700   1.070000   2.146700
    16  H    5.870300   6.682139   8.064248   8.673100   8.064248
    17  Cl   3.286592   4.686066   5.566247   5.371171   4.206180
    18  Cl   2.743718   4.048303   4.562800   4.048303   2.743718
    19  Cl   5.682627   6.919550   8.109552   8.249945   7.243872
    20  Cl   4.048303   4.562800   4.048303   2.743718   1.760000
    21  Cl   5.682627   5.881242   7.243872   8.249945   8.109552
    22  Cl   3.286592   2.944156   4.206180   5.371171   5.566247
                    6          7          8          9         10
     6  C    0.000000
     7  C    2.958585   0.000000
     8  C    4.176636   1.401400   0.000000
     9  C    5.379093   2.427296   1.401400   0.000000
    10  C    5.633289   2.802800   2.427296   1.401400   0.000000
    11  C    4.800300   2.427296   2.802800   2.427296   1.401400
    12  C    3.398900   1.401400   2.427296   2.802800   2.427296
    13  H    3.396345   3.043074   3.010083   4.364798   5.407589
    14  H    3.872800   5.104937   5.415173   6.800132   7.739237
    15  H    3.396345   5.870300   6.682139   8.064248   8.673100
    16  H    6.682139   3.872800   3.396345   2.146700   1.070000
    17  Cl   2.944156   2.743718   4.048303   4.562800   4.048303
    18  Cl   1.760000   3.286592   4.686066   5.566247   5.371171
    19  Cl   5.881242   4.048303   4.562800   4.048303   2.743718
    20  Cl   2.743718   5.682627   6.919550   8.109552   8.249945
    21  Cl   6.919550   4.048303   2.743718   1.760000   2.743718
    22  Cl   4.686066   2.743718   1.760000   2.743718   4.048303
                   11         12         13         14         15
    11  C    0.000000
    12  C    1.401400   0.000000
    13  H    5.426022   4.410313   0.000000
    14  H    7.525428   6.301933   2.471400   0.000000
    15  H    8.064248   6.682139   4.280590   2.471400   0.000000
    16  H    2.146700   3.396345   6.404230   8.772498   9.743100
    17  Cl   2.743718   1.760000   5.266136   6.606514   6.315324
    18  Cl   4.206180   2.944156   4.890332   5.632800   4.890332
    19  Cl   1.760000   2.743718   7.090165   9.044913   9.266112
    20  Cl   7.243872   5.881242   5.632800   4.890332   2.879094
    21  Cl   4.048303   4.562800   5.179883   7.640104   9.266112
    22  Cl   4.562800   4.048303   2.071940   4.495194   6.315324
                   16         17         18         19         20
    16  H    0.000000
    17  Cl   4.890332   0.000000
    18  Cl   6.315324   1.638900   0.000000
    19  Cl   2.879094   3.161400   4.800300   0.000000
    20  Cl   9.266112   4.800300   3.161400   7.961700   0.000000
    21  Cl   2.879094   6.322800   7.281911   5.475705   9.662920
    22  Cl   4.890332   5.475705   5.715710   6.322800   7.281911
                   21         22
    21  Cl   0.000000
    22  Cl   3.161400   0.000000
 Stoichiometry    C12H4Cl6
 Framework group  C1[X(C12H4Cl6)]
 Deg. of freedom    60
 Full point group                 C1      NOp   1
 Largest Abelian subgroup         C1      NOp   1
 Largest concise Abelian subgroup C1      NOp   1
                         Standard orientation:                         
 ---------------------------------------------------------------------
 Center     Atomic      Atomic             Coordinates (Angstroms)
 Number     Number       Type             X           Y           Z
 ---------------------------------------------------------------------
      1          6           0        1.155630   -0.979292    0.000000
      2          6           0        1.373700   -2.363621    0.000003
      3          6           0        2.681600   -2.866931    0.000005
      4          6           0        3.771429   -1.985912    0.000005
      5          6           0        3.553358   -0.601583    0.000001
      6          6           0        2.245459   -0.098273   -0.000002
      7          6           0       -0.708598   -0.261894   -0.000002
      8          6           0       -1.798427   -1.142913   -0.000002
      9          6           0       -3.106327   -0.639603   -0.000002
     10          6           0       -3.324397    0.744726   -0.000002
     11          6           0       -2.234568    1.625745   -0.000001
     12          6           0       -0.926669    1.122435   -0.000000
     13          1           0        0.541592   -3.036299    0.000005
     14          1           0        2.848102   -3.923897    0.000008
     15          1           0        4.770039   -2.370200    0.000007
     16          1           0       -4.323008    1.129014    0.000000
     17         17           0        0.442033    2.228896    0.000003
     18         17           0        1.971587    1.640288   -0.000006
     19         17           0       -2.508440    3.364306    0.000005
     20         17           0        4.922060    0.504878   -0.000003
     21         17           0       -4.475029   -1.746064   -0.000003
     22         17           0       -1.524555   -2.881474    0.000001
 ---------------------------------------------------------------------
 Rotational constants (GHZ):           0.3600253           0.1734401           0.1170513
 Standard basis: 6-311+G(d,p) (5D, 7F)
 There are   486 symmetry adapted cartesian basis functions of A   symmetry.
 There are   468 symmetry adapted basis functions of A   symmetry.
   468 basis functions,   782 primitive gaussians,   486 cartesian basis functions
    89 alpha electrons       89 beta electrons
       nuclear repulsion energy      2079.2328447235 Hartrees.
 NAtoms=   22 NActive=   22 NUniq=   22 SFac= 1.00D+00 NAtFMM=   60 NAOKFM=F Big=F
 Integral buffers will be    131072 words long.
 Raffenetti 2 integral format.
 Two-electron integral symmetry is turned on.
 One-electron integrals computed using PRISM.
 NBasis=   468 RedAO= T EigKep=  1.53D-06  NBF=   468
 NBsUse=   462 1.00D-06 EigRej=  6.33D-07 NBFU=   462
 ExpMin= 4.38D-02 ExpMax= 1.06D+05 ExpMxC= 3.62D+03 IAcc=3 IRadAn=         5 AccDes= 0.00D+00
 Harris functional with IExCor=  402 and IRadAn=       5 diagonalized for initial guess.
 HarFok:  IExCor=  402 AccDes= 0.00D+00 IRadAn=         5 IDoV= 1 UseB2=F ITyADJ=14
 ICtDFT=  3500011 ScaDFX=  1.000000  1.000000  1.000000  1.000000
 FoFCou: FMM=F IPFlag=           0 FMFlag=      100000 FMFlg1=           0
         NFxFlg=           0 DoJE=T BraDBF=F KetDBF=T FulRan=T
         wScrn=  0.000000 ICntrl=       500 IOpCl=  0 I1Cent=   200000004 NGrid=           0
         NMat0=    1 NMatS0=      1 NMatT0=    0 NMatD0=    1 NMtDS0=    0 NMtDT0=    0
 Petite list used in FoFCou.
 Requested convergence on RMS density matrix=1.00D-08 within  32 cycles.
 Requested convergence on MAX density matrix=1.00D-06.
 Requested convergence on             energy=1.00D-06.
 No special actions if energy rises.
 EnCoef did     2 forward-backward iterations
 EnCoef did     2 forward-backward iterations
 EnCoef did     4 forward-backward iterations
 EnCoef did     9 forward-backward iterations
 Restarting incremental Fock formation.
 SCF Done:  E(RB3LYP) =  -3220.54670321     A.U. after   27 cycles
            NFock= 27  Conv=0.53D-08     -V/T= 2.0022
 QCSCF skips out because SCF is already converged.

 **********************************************************************

            Population analysis using the SCF Density.

 **********************************************************************

 Orbital symmetries:
       Occupied  (A) (A) (A) (A) (A) (A) (A) (A) (A) (A) (A) (A)
                 (A) (A) (A) (A) (A) (A) (A) (A) (A) (A) (A) (A)
                 (A) (A) (A) (A) (A) (A) (A) (A) (A) (A) (A) (A)
                 (A) (A) (A) (A) (A) (A) (A) (A) (A) (A) (A) (A)
                 (A) (A) (A) (A) (A) (A) (A) (A) (A) (A) (A) (A)
                 (A) (A) (A) (A) (A) (A) (A) (A) (A) (A) (A) (A)
                 (A) (A) (A) (A) (A) (A) (A) (A) (A) (A) (A) (A)
                 (A) (A) (A) (A) (A)
       Virtual   (A) (A) (A) (A) (A) (A) (A) (A) (A) (A) (A) (A)
                 (A) (A) (A) (A) (A) (A) (A) (A) (A) (A) (A) (A)
                 (A) (A) (A) (A) (A) (A) (A) (A) (A) (A) (A) (A)
                 (A) (A) (A) (A) (A) (A) (A) (A) (A) (A) (A) (A)
                 (A) (A) (A) (A) (A) (A) (A) (A) (A) (A) (A) (A)
                 (A) (A) (A) (A) (A) (A) (A) (A) (A) (A) (A) (A)
                 (A) (A) (A) (A) (A) (A) (A) (A) (A) (A) (A) (A)
                 (A) (A) (A) (A) (A) (A) (A) (A) (A) (A) (A) (A)
                 (A) (A) (A) (A) (A) (A) (A) (A) (A) (A) (A) (A)
                 (A) (A) (A) (A) (A) (A) (A) (A) (A) (A) (A) (A)
                 (A) (A) (A) (A) (A) (A) (A) (A) (A) (A) (A) (A)
                 (A) (A) (A) (A) (A) (A) (A) (A) (A) (A) (A) (A)
                 (A) (A) (A) (A) (A) (A) (A) (A) (A) (A) (A) (A)
                 (A) (A) (A) (A) (A) (A) (A) (A) (A) (A) (A) (A)
                 (A) (A) (A) (A) (A) (A) (A) (A) (A) (A) (A) (A)
                 (A) (A) (A) (A) (A) (A) (A) (A) (A) (A) (A) (A)
                 (A) (A) (A) (A) (A) (A) (A) (A) (A) (A) (A) (A)
                 (A) (A) (A) (A) (A) (A) (A) (A) (A) (A) (A) (A)
                 (A) (A) (A) (A) (A) (A) (A) (A) (A) (A) (A) (A)
                 (A) (A) (A) (A) (A) (A) (A) (A) (A) (A) (A) (A)
                 (A) (A) (A) (A) (A) (A) (A) (A) (A) (A) (A) (A)
                 (A) (A) (A) (A) (A) (A) (A) (A) (A) (A) (A) (A)
                 (A) (A) (A) (A) (A) (A) (A) (A) (A) (A) (A) (A)
                 (A) (A) (A) (A) (A) (A) (A) (A) (A) (A) (A) (A)
                 (A) (A) (A) (A) (A) (A) (A) (A) (A) (A) (A) (A)
                 (A) (A) (A) (A) (A) (A) (A) (A) (A) (A) (A) (A)
                 (A) (A) (A) (A) (A) (A) (A) (A) (A) (A) (A) (A)
                 (A) (A) (A) (A) (A) (A) (A) (A) (A) (A) (A) (A)
                 (A) (A) (A) (A) (A) (A) (A) (A) (A) (A) (A) (A)
                 (A) (A) (A) (A) (A) (A) (A) (A) (A) (A) (A) (A)
                 (A) (A) (A) (A) (A) (A) (A) (A) (A) (A) (A) (A)
                 (A)
 The electronic state is 1-A.
 Alpha  occ. eigenvalues -- -101.68795-101.68305-101.57143-101.57074-101.57046
 Alpha  occ. eigenvalues -- -101.56848 -10.26838 -10.26765 -10.26169 -10.25850
 Alpha  occ. eigenvalues --  -10.25111 -10.24340 -10.21653 -10.20499 -10.20447
 Alpha  occ. eigenvalues --  -10.20000 -10.19504 -10.19219  -9.60148  -9.59716
 Alpha  occ. eigenvalues --   -9.48606  -9.48531  -9.48468  -9.48410  -7.36684
 Alpha  occ. eigenvalues --   -7.36271  -7.35827  -7.35359  -7.35229  -7.34771
 Alpha  occ. eigenvalues --   -7.25041  -7.24975  -7.24965  -7.24866  -7.24088
 Alpha  occ. eigenvalues --   -7.24078  -7.24010  -7.23998  -7.23943  -7.23892
 Alpha  occ. eigenvalues --   -7.23892  -7.23828  -1.15508  -0.93640  -0.91944
 Alpha  occ. eigenvalues --   -0.90115  -0.87307  -0.86352  -0.85279  -0.83359
 Alpha  occ. eigenvalues --   -0.78553  -0.75390  -0.75032  -0.73151  -0.67276
 Alpha  occ. eigenvalues --   -0.63776  -0.61678  -0.60637  -0.58706  -0.55767
 Alpha  occ. eigenvalues --   -0.54714  -0.52502  -0.51098  -0.50734  -0.48713
 Alpha  occ. eigenvalues --   -0.47456  -0.46272  -0.44768  -0.44224  -0.44003
 Alpha  occ. eigenvalues --   -0.42098  -0.42029  -0.41244  -0.39627  -0.39054
 Alpha  occ. eigenvalues --   -0.36532  -0.36315  -0.35524  -0.34894  -0.33821
 Alpha  occ. eigenvalues --   -0.33514  -0.32978  -0.32785  -0.31179  -0.28955
 Alpha  occ. eigenvalues --   -0.26505  -0.26376  -0.25217  -0.12587
 Alpha virt. eigenvalues --   -0.08131  -0.06198  -0.04911  -0.04799  -0.03553
 Alpha virt. eigenvalues --   -0.02447  -0.01413  -0.00253  -0.00003   0.00880
 Alpha virt. eigenvalues --    0.01243   0.01893   0.02217   0.02959   0.03770
 Alpha virt. eigenvalues --    0.04111   0.04255   0.04644   0.05482   0.06033
 Alpha virt. eigenvalues --    0.06065   0.06867   0.07042   0.07368   0.07706
 Alpha virt. eigenvalues --    0.08107   0.08263   0.09349   0.09595   0.09944
 Alpha virt. eigenvalues --    0.10100   0.10263   0.10816   0.10875   0.11296
 Alpha virt. eigenvalues --    0.11470   0.12587   0.12947   0.13005   0.13233
 Alpha virt. eigenvalues --    0.13972   0.14127   0.14366   0.14577   0.14632
 Alpha virt. eigenvalues --    0.15317   0.15449   0.16061   0.16499   0.16707
 Alpha virt. eigenvalues --    0.17409   0.17947   0.18382   0.18683   0.18728
 Alpha virt. eigenvalues --    0.19064   0.19928   0.20230   0.20239   0.21043
 Alpha virt. eigenvalues --    0.21283   0.21412   0.22393   0.22446   0.22759
 Alpha virt. eigenvalues --    0.23460   0.24226   0.24680   0.25006   0.25045
 Alpha virt. eigenvalues --    0.25515   0.25875   0.25884   0.26284   0.26350
 Alpha virt. eigenvalues --    0.26864   0.27641   0.28183   0.28529   0.29216
 Alpha virt. eigenvalues --    0.30001   0.30422   0.31095   0.31833   0.32632
 Alpha virt. eigenvalues --    0.33313   0.34492   0.34985   0.35696   0.36109
 Alpha virt. eigenvalues --    0.37786   0.39132   0.39251   0.39872   0.41666
 Alpha virt. eigenvalues --    0.42992   0.43104   0.43300   0.43728   0.43738
 Alpha virt. eigenvalues --    0.44699   0.45748   0.45809   0.47138   0.47317
 Alpha virt. eigenvalues --    0.47378   0.48522   0.49141   0.49437   0.49523
 Alpha virt. eigenvalues --    0.50503   0.51976   0.52368   0.52437   0.53406
 Alpha virt. eigenvalues --    0.53841   0.54808   0.55952   0.56770   0.57361
 Alpha virt. eigenvalues --    0.58042   0.58216   0.59262   0.59497   0.59818
 Alpha virt. eigenvalues --    0.59828   0.61273   0.61575   0.62453   0.62486
 Alpha virt. eigenvalues --    0.63669   0.64026   0.65342   0.65771   0.65956
 Alpha virt. eigenvalues --    0.66619   0.69621   0.69621   0.70492   0.70924
 Alpha virt. eigenvalues --    0.72127   0.75173   0.76754   0.77828   0.78865
 Alpha virt. eigenvalues --    0.79865   0.80395   0.81598   0.81636   0.82914
 Alpha virt. eigenvalues --    0.84275   0.84323   0.84719   0.84931   0.85116
 Alpha virt. eigenvalues --    0.85217   0.86025   0.86049   0.87180   0.87262
 Alpha virt. eigenvalues --    0.87702   0.88370   0.89021   0.89486   0.89948
 Alpha virt. eigenvalues --    0.90087   0.90551   0.91299   0.93619   0.94160
 Alpha virt. eigenvalues --    0.94167   0.94765   0.95236   0.95764   0.96021
 Alpha virt. eigenvalues --    0.96268   0.96610   0.96668   0.97970   0.98747
 Alpha virt. eigenvalues --    1.00272   1.00827   1.01537   1.01868   1.03691
 Alpha virt. eigenvalues --    1.05300   1.05778   1.07613   1.08124   1.09933
 Alpha virt. eigenvalues --    1.11066   1.13099   1.16079   1.17392   1.19787
 Alpha virt. eigenvalues --    1.21061   1.21947   1.23069   1.23836   1.24453
 Alpha virt. eigenvalues --    1.26112   1.26201   1.26865   1.27242   1.29312
 Alpha virt. eigenvalues --    1.29407   1.29717   1.30305   1.32669   1.33532
 Alpha virt. eigenvalues --    1.36915   1.38972   1.44795   1.46701   1.49572
 Alpha virt. eigenvalues --    1.50082   1.51182   1.52044   1.55373   1.56269
 Alpha virt. eigenvalues --    1.58797   1.59786   1.61361   1.61869   1.64042
 Alpha virt. eigenvalues --    1.68581   1.69885   1.72488   1.72646   1.76006
 Alpha virt. eigenvalues --    1.76542   1.77682   1.78728   1.82741   1.83028
 Alpha virt. eigenvalues --    1.84492   1.86783   1.86971   1.87159   1.88800
 Alpha virt. eigenvalues --    1.88827   1.88888   1.90202   1.92731   1.96775
 Alpha virt. eigenvalues --    1.97347   1.98242   2.00135   2.03153   2.04759
 Alpha virt. eigenvalues --    2.05985   2.13430   2.15316   2.15366   2.20112
 Alpha virt. eigenvalues --    2.20714   2.21108   2.22864   2.23894   2.23932
 Alpha virt. eigenvalues --    2.27058   2.27550   2.29024   2.29137   2.30539
 Alpha virt. eigenvalues --    2.31038   2.31536   2.32491   2.34556   2.37200
 Alpha virt. eigenvalues --    2.39100   2.42270   2.43627   2.44229   2.45404
 Alpha virt. eigenvalues --    2.46629   2.53325   2.54321   2.55355   2.57456
 Alpha virt. eigenvalues --    2.57694   2.59084   2.60572   2.61806   2.62278
 Alpha virt. eigenvalues --    2.62942   2.64792   2.66962   2.69263   2.73264
 Alpha virt. eigenvalues --    2.73858   2.75068   2.75327   2.75738   2.77802
 Alpha virt. eigenvalues --    2.78215   2.79229   2.79290   2.82244   2.85796
 Alpha virt. eigenvalues --    2.86469   2.87285   2.89940   2.96890   3.06143
 Alpha virt. eigenvalues --    3.07638   3.08269   3.11360   3.12907   3.17357
 Alpha virt. eigenvalues --    3.19648   3.20722   3.24392   3.29322   3.34010
 Alpha virt. eigenvalues --    3.34624   3.39226   3.41187   3.51906   3.53516
 Alpha virt. eigenvalues --    3.63561   3.72184   3.74745   3.79095   3.91898
 Alpha virt. eigenvalues --    3.98821   4.03791   4.08492   4.15844   4.80923
 Alpha virt. eigenvalues --    4.81902   9.64568   9.76346   9.78516   9.79092
 Alpha virt. eigenvalues --    9.84710   9.98093  23.30765  23.44088  23.80284
 Alpha virt. eigenvalues --   23.84609  23.86870  23.91161  23.95205  23.99064
 Alpha virt. eigenvalues --   24.00871  24.03005  24.05734  24.13021  25.71394
 Alpha virt. eigenvalues --   25.78237  25.79259  25.83279  25.87865  25.96134
 Alpha virt. eigenvalues --   26.07209  26.11434  26.19062  26.21388  26.33731
 Alpha virt. eigenvalues --   26.49897  26.62971  26.64826  26.76446  26.83174
 Alpha virt. eigenvalues --   26.94009  27.06673 215.64280 215.75706 215.78250
 Alpha virt. eigenvalues --  215.78864 215.85331 216.02873
          Condensed to atoms (all electrons):
               1          2          3          4          5          6
     1  C   21.915523  -3.672829  -3.065889  -2.509253   2.556296   0.388599
     2  C   -3.672829  19.183511  -3.569118   1.590585   2.282477  -6.878453
     3  C   -3.065889  -3.569118  12.012365   1.032212  -2.965429   2.583022
     4  C   -2.509253   1.590585   1.032212  18.762805  -7.073968  -8.023940
     5  C    2.556296   2.282477  -2.965429  -7.073968  20.850384  -5.586674
     6  C    0.388599  -6.878453   2.583022  -8.023940  -5.586674  42.028107
     7  C    3.215183  -1.985437  -0.743371  -0.021659  -1.478383  -0.355405
     8  C   -1.401910   1.179471  -0.557896   0.478597   0.150049  -0.506460
     9  C   -4.006648  -0.914410   0.426001  -0.053066  -0.443442   0.115799
    10  C   -0.681340   0.831514   0.238735   0.103211  -0.173726  -0.757817
    11  C   -2.515236   0.021804  -0.182843   0.106965   0.228069  -0.659637
    12  C   -2.276190  -3.317245   0.214068  -1.045972  -0.398395  11.203065
    13  H   -0.120910   0.282877   0.035112   0.052943  -0.107813   0.106390
    14  H    0.044732   0.023811   0.374455  -0.038937  -0.026761  -0.038494
    15  H    0.034554  -0.043540  -0.071916   0.497571  -0.122508   0.052117
    16  H    0.005803   0.000307   0.000018   0.000034  -0.000083  -0.001698
    17  Cl  -0.386806   1.119884   0.039522   1.127098  -0.955894 -11.345724
    18  Cl  -1.888506   0.755744   0.936320   4.023241  -0.676670 -19.099038
    19  Cl   0.038751  -0.034061  -0.005905  -0.000191   0.048730   0.123849
    20  Cl  -0.040793   0.094607  -0.079393  -2.371087  -0.581739   3.792225
    21  Cl  -0.023948  -0.029684  -0.000289   0.000430  -0.007347  -0.012540
    22  Cl   0.436168  -0.553385  -0.461552  -0.165705   0.180305  -0.036853
               7          8          9         10         11         12
     1  C    3.215183  -1.401910  -4.006648  -0.681340  -2.515236  -2.276190
     2  C   -1.985437   1.179471  -0.914410   0.831514   0.021804  -3.317245
     3  C   -0.743371  -0.557896   0.426001   0.238735  -0.182843   0.214068
     4  C   -0.021659   0.478597  -0.053066   0.103211   0.106965  -1.045972
     5  C   -1.478383   0.150049  -0.443442  -0.173726   0.228069  -0.398395
     6  C   -0.355405  -0.506460   0.115799  -0.757817  -0.659637  11.203065
     7  C   18.664508  -1.172949  -5.142865   4.104400  -4.294866  -3.198191
     8  C   -1.172949  16.261758  -1.230957  -7.411010   4.390452  -0.317966
     9  C   -5.142865  -1.230957  22.672371  -4.472131  -6.277038   4.209560
    10  C    4.104400  -7.411010  -4.472131  23.930295  -5.388052  -6.898330
    11  C   -4.294866   4.390452  -6.277038  -5.388052  24.680938  -3.510574
    12  C   -3.198191  -0.317966   4.209560  -6.898330  -3.510574  41.449978
    13  H    0.028700   0.028463   0.004157   0.003932  -0.021286   0.029385
    14  H    0.011027   0.001677   0.000035  -0.000041   0.000411   0.000381
    15  H    0.005667   0.000604   0.000130   0.000020  -0.000049  -0.000982
    16  H    0.052030   0.011346   0.014201   0.366416  -0.162863   0.044600
    17  Cl  -0.213553  -2.976820   1.576733   4.253344  -0.707224 -23.640172
    18  Cl  -0.245774  -0.273205  -0.004051   0.770795  -0.156844  -8.210139
    19  Cl  -0.246090   0.661608  -0.592563  -1.608142   0.040006   2.279788
    20  Cl  -0.047478  -0.063205   0.001205  -0.011414  -0.035859   0.271297
    21  Cl  -0.411269   0.658681  -0.395038  -0.382064  -0.478360   0.394379
    22  Cl  -0.074589  -1.147934   0.060829   0.119439   0.948428  -0.147649
              13         14         15         16         17         18
     1  C   -0.120910   0.044732   0.034554   0.005803  -0.386806  -1.888506
     2  C    0.282877   0.023811  -0.043540   0.000307   1.119884   0.755744
     3  C    0.035112   0.374455  -0.071916   0.000018   0.039522   0.936320
     4  C    0.052943  -0.038937   0.497571   0.000034   1.127098   4.023241
     5  C   -0.107813  -0.026761  -0.122508  -0.000083  -0.955894  -0.676670
     6  C    0.106390  -0.038494   0.052117  -0.001698 -11.345724 -19.099038
     7  C    0.028700   0.011027   0.005667   0.052030  -0.213553  -0.245774
     8  C    0.028463   0.001677   0.000604   0.011346  -2.976820  -0.273205
     9  C    0.004157   0.000035   0.000130   0.014201   1.576733  -0.004051
    10  C    0.003932  -0.000041   0.000020   0.366416   4.253344   0.770795
    11  C   -0.021286   0.000411  -0.000049  -0.162863  -0.707224  -0.156844
    12  C    0.029385   0.000381  -0.000982   0.044600 -23.640172  -8.210139
    13  H    0.615186  -0.011553  -0.000172   0.000004   0.025429   0.035332
    14  H   -0.011553   0.531448  -0.007508  -0.000000  -0.001160  -0.001891
    15  H   -0.000172  -0.007508   0.519182   0.000000   0.002504   0.017229
    16  H    0.000004  -0.000000   0.000000   0.501616   0.021119   0.001874
    17  Cl   0.025429  -0.001160   0.002504   0.021119  42.485959   8.566465
    18  Cl   0.035332  -0.001891   0.017229   0.001874   8.566465  34.439036
    19  Cl  -0.000246   0.000001  -0.000002  -0.018604  -2.039120  -0.416067
    20  Cl  -0.002296   0.000852  -0.025632  -0.000003  -0.701177  -2.377040
    21  Cl   0.003397  -0.000011   0.000001   0.005821   0.062123   0.012358
    22  Cl  -0.118049   0.000839  -0.000109  -0.002021  -0.350771  -0.148164
              19         20         21         22
     1  C    0.038751  -0.040793  -0.023948   0.436168
     2  C   -0.034061   0.094607  -0.029684  -0.553385
     3  C   -0.005905  -0.079393  -0.000289  -0.461552
     4  C   -0.000191  -2.371087   0.000430  -0.165705
     5  C    0.048730  -0.581739  -0.007347   0.180305
     6  C    0.123849   3.792225  -0.012540  -0.036853
     7  C   -0.246090  -0.047478  -0.411269  -0.074589
     8  C    0.661608  -0.063205   0.658681  -1.147934
     9  C   -0.592563   0.001205  -0.395038   0.060829
    10  C   -1.608142  -0.011414  -0.382064   0.119439
    11  C    0.040006  -0.035859  -0.478360   0.948428
    12  C    2.279788   0.271297   0.394379  -0.147649
    13  H   -0.000246  -0.002296   0.003397  -0.118049
    14  H    0.000001   0.000852  -0.000011   0.000839
    15  H   -0.000002  -0.025632   0.000001  -0.000109
    16  H   -0.018604  -0.000003   0.005821  -0.002021
    17  Cl  -2.039120  -0.701177   0.062123  -0.350771
    18  Cl  -0.416067  -2.377040   0.012358  -0.148164
    19  Cl  18.307596  -0.000750  -0.049306   0.022842
    20  Cl  -0.000750  18.657568  -0.000121   0.007722
    21  Cl  -0.049306  -0.000121  17.432255  -0.280442
    22  Cl   0.022842   0.007722  -0.280442  18.038112
 Mulliken charges:
               1
     1  C   -0.045349
     2  C   -0.368430
     3  C   -0.188229
     4  C   -0.471914
     5  C    0.302521
     6  C   -1.090439
     7  C   -0.449634
     8  C   -0.762397
     9  C    0.451187
    10  C   -0.938033
    11  C   -0.026343
    12  C   -1.134697
    13  H    0.131017
    14  H    0.136687
    15  H    0.142838
    16  H    0.160083
    17  Cl   1.038239
    18  Cl   0.938993
    19  Cl   0.487874
    20  Cl   0.512512
    21  Cl   0.500974
    22  Cl   0.672540
 Sum of Mulliken charges =  -0.00000
 Mulliken charges with hydrogens summed into heavy atoms:
               1
     1  C   -0.045349
     2  C   -0.237412
     3  C   -0.051543
     4  C   -0.329076
     5  C    0.302521
     6  C   -1.090439
     7  C   -0.449634
     8  C   -0.762397
     9  C    0.451187
    10  C   -0.777950
    11  C   -0.026343
    12  C   -1.134697
    17  Cl   1.038239
    18  Cl   0.938993
    19  Cl   0.487874
    20  Cl   0.512512
    21  Cl   0.500974
    22  Cl   0.672540
 Electronic spatial extent (au):  <R**2>=           8026.5623
 Charge=             -0.0000 electrons
 Dipole moment (field-independent basis, Debye):
    X=              1.4143    Y=              0.0231    Z=              0.0000  Tot=              1.4145
 Quadrupole moment (field-independent basis, Debye-Ang):
   XX=           -148.5371   YY=           -139.6907   ZZ=           -147.4741
   XY=             -5.4112   XZ=              0.0000   YZ=             -0.0000
 Traceless Quadrupole moment (field-independent basis, Debye-Ang):
   XX=             -3.3031   YY=              5.5433   ZZ=             -2.2401
   XY=             -5.4112   XZ=              0.0000   YZ=             -0.0000
 Octapole moment (field-independent basis, Debye-Ang**2):
  XXX=            -13.9581  YYY=            -13.7626  ZZZ=             -0.0000  XYY=             35.0085
  XXY=             -5.0321  XXZ=              0.0001  XZZ=             -2.4832  YZZ=             13.0663
  YYZ=              0.0001  XYZ=             -0.0001
 Hexadecapole moment (field-independent basis, Debye-Ang**3):
 XXXX=          -7064.3543 YYYY=          -3277.4328 ZZZZ=           -174.5395 XXXY=            -52.5340
 XXXZ=              0.0000 YYYX=              9.4902 YYYZ=             -0.0002 ZZZX=             -0.0002
 ZZZY=              0.0001 XXYY=          -1686.0413 XXZZ=          -1248.7282 YYZZ=           -619.2840
 XXYZ=             -0.0003 YYXZ=              0.0001 ZZXY=             36.1242
 N-N= 2.079232844723D+03 E-N=-1.178570526062D+04  KE= 3.213580541909D+03
 Calling FoFJK, ICntrl=      2127 FMM=F ISym2X=0 I1Cent= 0 IOpClX= 0 NMat=1 NMatS=1 NMatT=0.
 ***** Axes restored to original set *****
 -------------------------------------------------------------------
 Center     Atomic                   Forces (Hartrees/Bohr)
 Number     Number              X              Y              Z
 -------------------------------------------------------------------
      1        6          -0.016707821   -0.058276870   -0.005440465
      2        6          -0.004080893    0.009723874    0.003170915
      3        6          -0.023503774    0.003252277    0.008354334
      4        6          -0.006891309   -0.009445505    0.000496222
      5        6           0.009398132   -0.026885876   -0.008145463
      6        6           0.109264527   -0.009636721   -0.037808006
      7        6           0.029573968    0.048399588   -0.000653392
      8        6           0.004308812    0.012006213    0.000835340
      9        6          -0.004286700    0.001114697    0.001621602
     10        6           0.000960037    0.011131592    0.001774334
     11        6           0.039723210    0.007860843   -0.011610801
     12        6           0.074409834   -0.126399419   -0.048253561
     13        1           0.002527475    0.008127556    0.000693662
     14        1           0.008607489    0.000308654   -0.002777805
     15        1           0.004371550    0.010083858    0.000453628
     16        1          -0.004248193   -0.010172826   -0.000511000
     17       17          -0.214631752   -0.126664237    0.046924559
     18       17           0.016248791    0.273080310    0.045932208
     19       17          -0.010069401    0.000418648    0.003396081
     20       17          -0.004195519    0.005748704    0.002461873
     21       17          -0.006547222    0.003542828    0.002822412
     22       17          -0.004231243   -0.027318188   -0.003736677
 -------------------------------------------------------------------
 Cartesian Forces:  Max     0.273080310 RMS     0.053760195

 GradGradGradGradGradGradGradGradGradGradGradGradGradGradGradGradGradGrad
 Berny optimization.
 FormGI is forming the generalized inverse of G from B-inverse, IUseBI=4.
 Internal  Forces:  Max     0.273056183 RMS     0.045393029
 Search for a local minimum.
 Step number   1 out of a maximum of  112
 All quantities printed in internal units (Hartrees-Bohrs-Radians)
 Mixed Optimization -- RFO/linear search
 Second derivative matrix not updated -- first step.
 ITU=  0
     Eigenvalues ---    0.00238   0.00238   0.01655   0.01655   0.02070
     Eigenvalues ---    0.02070   0.02070   0.02070   0.02070   0.02070
     Eigenvalues ---    0.02070   0.02070   0.02070   0.02070   0.02070
     Eigenvalues ---    0.02070   0.02070   0.02070   0.04751   0.16000
     Eigenvalues ---    0.16000   0.16000   0.16000   0.22076   0.23331
     Eigenvalues ---    0.23454   0.24905   0.25000   0.25000   0.25000
     Eigenvalues ---    0.25000   0.25000   0.25000   0.25000   0.25000
     Eigenvalues ---    0.25000   0.25000   0.29539   0.29539   0.29539
     Eigenvalues ---    0.29539   0.29539   0.29539   0.37230   0.37230
     Eigenvalues ---    0.37230   0.37230   0.41539   0.41797   0.41990
     Eigenvalues ---    0.42057   0.45389   0.45389   0.45389   0.45389
     Eigenvalues ---    0.45389   0.45389   0.45389   0.45389   1.59115
 RFO step:  Lambda=-3.06372794D-01 EMin= 2.37799080D-03
 Linear search not attempted -- first point.
 Maximum step size (   0.300) exceeded in Quadratic search.
    -- Step size scaled by   0.422
 Iteration  1 RMS(Cart)=  0.35032181 RMS(Int)=  0.01211851
 Iteration  2 RMS(Cart)=  0.17923712 RMS(Int)=  0.00194407
 Iteration  3 RMS(Cart)=  0.00330157 RMS(Int)=  0.00002480
 Iteration  4 RMS(Cart)=  0.00000088 RMS(Int)=  0.00002480
 Variable       Old X    -DE/DX   Delta X   Delta X   Delta X     New X
                                 (Linear)    (Quad)   (Total)
    R1        2.64826  -0.00114   0.00000  -0.00032  -0.00029   2.64798
    R2        2.64826   0.02757   0.00000   0.01561   0.01563   2.66389
    R3        2.64826  -0.00005   0.00000  -0.00003  -0.00002   2.64824
    R4        2.02201  -0.00593   0.00000  -0.00368  -0.00368   2.01833
    R5        2.64826  -0.01254   0.00000  -0.00727  -0.00729   2.64097
    R6        2.02201   0.00905   0.00000   0.00562   0.00562   2.02763
    R7        2.64826  -0.01963   0.00000  -0.01120  -0.01123   2.63703
    R8        2.02201   0.01091   0.00000   0.00678   0.00678   2.02878
    R9        2.64826  -0.02074   0.00000  -0.01149  -0.01150   2.63676
   R10        3.32592   0.00746   0.00000   0.00522   0.00522   3.33114
   R11        3.32592   0.08540   0.00000   0.05982   0.05982   3.38574
   R12        2.64826   0.02882   0.00000   0.01677   0.01681   2.66508
   R13        2.64826   0.04066   0.00000   0.02310   0.02314   2.67140
   R14        2.64826   0.00435   0.00000   0.00265   0.00265   2.65091
   R15        3.32592  -0.00345   0.00000  -0.00242  -0.00242   3.32350
   R16        2.64826  -0.02224   0.00000  -0.01289  -0.01293   2.63533
   R17        3.32592  -0.00676   0.00000  -0.00474  -0.00474   3.32118
   R18        2.64826  -0.02778   0.00000  -0.01619  -0.01623   2.63203
   R19        2.02201   0.01092   0.00000   0.00678   0.00678   2.02879
   R20        2.64826  -0.02420   0.00000  -0.01365  -0.01365   2.63461
   R21        3.32592   0.01062   0.00000   0.00744   0.00744   3.33335
   R22        3.32592   0.13669   0.00000   0.09575   0.09575   3.42167
   R23        3.09707   0.22583   0.00000   0.05017   0.05017   3.14724
    A1        2.09440  -0.03782   0.00000  -0.02753  -0.02745   2.06694
    A2        2.09440   0.00976   0.00000   0.00813   0.00817   2.10256
    A3        2.09440   0.00134   0.00000   0.00155   0.00153   2.09593
    A4        2.09440  -0.01110   0.00000  -0.00968  -0.00970   2.08469
    A5        2.09440   0.01159   0.00000   0.00866   0.00864   2.10304
    A6        2.09440  -0.00567   0.00000  -0.00422  -0.00421   2.09018
    A7        2.09440  -0.00591   0.00000  -0.00443  -0.00443   2.08997
    A8        2.09440  -0.00918   0.00000  -0.00843  -0.00849   2.08590
    A9        2.09440   0.00602   0.00000   0.00551   0.00554   2.09993
   A10        2.09440   0.00316   0.00000   0.00293   0.00296   2.09735
   A11        2.09440   0.00244   0.00000   0.00127   0.00123   2.09562
   A12        2.09440   0.00050   0.00000   0.00067   0.00069   2.09509
   A13        2.09440  -0.00294   0.00000  -0.00194  -0.00192   2.09248
   A14        2.09440   0.02321   0.00000   0.01790   0.01791   2.11230
   A15        2.09440  -0.03185   0.00000  -0.02429  -0.02429   2.07011
   A16        2.09440   0.00863   0.00000   0.00638   0.00638   2.10078
   A17        2.09440  -0.04587   0.00000  -0.03203  -0.03191   2.06248
   A18        2.09440   0.00644   0.00000   0.00624   0.00628   2.10068
   A19        2.09440   0.04281   0.00000   0.03176   0.03174   2.12613
   A20        2.09440  -0.04925   0.00000  -0.03799  -0.03802   2.05638
   A21        2.09440   0.01562   0.00000   0.01131   0.01127   2.10567
   A22        2.09440  -0.00081   0.00000  -0.00036  -0.00034   2.09406
   A23        2.09440  -0.01480   0.00000  -0.01096  -0.01093   2.08346
   A24        2.09440  -0.00932   0.00000  -0.00952  -0.00961   2.08479
   A25        2.09440   0.00307   0.00000   0.00332   0.00337   2.09776
   A26        2.09440   0.00625   0.00000   0.00620   0.00624   2.10064
   A27        2.09440   0.01451   0.00000   0.00950   0.00944   2.10384
   A28        2.09440  -0.00616   0.00000  -0.00392  -0.00390   2.09050
   A29        2.09440  -0.00834   0.00000  -0.00558  -0.00555   2.08885
   A30        2.09440   0.01862   0.00000   0.01450   0.01453   2.10892
   A31        2.09440   0.00679   0.00000   0.00495   0.00494   2.09933
   A32        2.09440  -0.02542   0.00000  -0.01945  -0.01947   2.07493
   A33        2.09440  -0.19995   0.00000  -0.15149  -0.15149   1.94291
   A34        2.09440  -0.27306   0.00000  -0.20687  -0.20687   1.88752
    D1        0.00000  -0.00000   0.00000  -0.00000  -0.00000   0.00000
    D2        3.14159   0.00000   0.00000   0.00000   0.00000   3.14159
    D3       -0.00000   0.00000   0.00000   0.00000   0.00000  -0.00000
    D4        3.14159   0.00000   0.00000   0.00000   0.00000   3.14159
    D5        0.00000   0.00000   0.00000   0.00000   0.00000   0.00000
    D6        3.14159   0.00000   0.00000   0.00000   0.00000   3.14159
    D7       -3.14159  -0.00000   0.00000  -0.00000  -0.00000  -3.14159
    D8        0.00000  -0.00000   0.00000  -0.00000  -0.00000   0.00000
    D9       -0.00000   0.00000   0.00000   0.00000   0.00000  -0.00000
   D10        3.14159  -0.00000   0.00000  -0.00000  -0.00000   3.14159
   D11        3.14159   0.00000   0.00000   0.00000   0.00000   3.14159
   D12        0.00000  -0.00000   0.00000  -0.00000  -0.00000   0.00000
   D13        0.00000  -0.00000   0.00000  -0.00000  -0.00000   0.00000
   D14       -3.14159  -0.00000   0.00000  -0.00000  -0.00000  -3.14159
   D15       -3.14159  -0.00000   0.00000  -0.00000  -0.00000  -3.14159
   D16        0.00000  -0.00000   0.00000  -0.00000  -0.00000   0.00000
   D17       -0.00000   0.00000   0.00000   0.00000   0.00000  -0.00000
   D18        3.14159  -0.00000   0.00000  -0.00000  -0.00000   3.14159
   D19        3.14159   0.00000   0.00000   0.00000   0.00000   3.14159
   D20       -0.00000  -0.00000   0.00000  -0.00000  -0.00000  -0.00000
   D21        0.00001  -0.00000   0.00000  -0.00000  -0.00000   0.00001
   D22       -3.14158   0.00000   0.00000   0.00000   0.00000  -3.14158
   D23        0.00000  -0.00000   0.00000  -0.00000  -0.00000   0.00000
   D24       -3.14159  -0.00000   0.00000  -0.00000  -0.00000  -3.14159
   D25       -0.00000   0.00000   0.00000   0.00000   0.00000  -0.00000
   D26        3.14159   0.00000   0.00000   0.00000   0.00000   3.14159
   D27       -0.00000  -0.00000   0.00000  -0.00000  -0.00000  -0.00000
   D28        3.14159  -0.00000   0.00000  -0.00000  -0.00000   3.14159
   D29        3.14159   0.00000   0.00000   0.00000   0.00000   3.14159
   D30       -0.00000   0.00000   0.00000   0.00000   0.00000  -0.00000
   D31       -0.00000   0.00000   0.00000   0.00000   0.00000  -0.00000
   D32       -3.14159  -0.00000   0.00000  -0.00000  -0.00000  -3.14159
   D33        3.14159   0.00000   0.00000   0.00000   0.00000   3.14159
   D34        0.00000  -0.00000   0.00000  -0.00000  -0.00000   0.00000
   D35        0.00000   0.00000   0.00000   0.00000   0.00000   0.00000
   D36       -3.14159  -0.00000   0.00000  -0.00000  -0.00000  -3.14159
   D37        3.14159   0.00000   0.00000   0.00000   0.00000   3.14159
   D38        0.00000  -0.00000   0.00000  -0.00000  -0.00000   0.00000
   D39        0.00000  -0.00000   0.00000  -0.00000  -0.00000   0.00000
   D40       -3.14159  -0.00000   0.00000  -0.00000  -0.00000  -3.14159
   D41        3.14159   0.00000   0.00000   0.00000   0.00000   3.14159
   D42       -0.00000  -0.00000   0.00000  -0.00000  -0.00000  -0.00000
   D43        0.00001   0.00000   0.00000   0.00000   0.00000   0.00001
   D44       -3.14159   0.00000   0.00000   0.00000   0.00000  -3.14159
   D45       -0.00001   0.00000   0.00000   0.00000   0.00000  -0.00001
         Item               Value     Threshold  Converged?
 Maximum Force            0.273056     0.000450     NO 
 RMS     Force            0.045393     0.000300     NO 
 Maximum Displacement     1.628101     0.001800     NO 
 RMS     Displacement     0.528212     0.001200     NO 
 Predicted change in Energy=-1.157094D-01
 GradGradGradGradGradGradGradGradGradGradGradGradGradGradGradGradGradGrad

                          Input orientation:                          
 ---------------------------------------------------------------------
 Center     Atomic      Atomic             Coordinates (Angstroms)
 Number     Number       Type             X           Y           Z
 ---------------------------------------------------------------------
      1          6           0       -0.530503    0.381603    0.112100
      2          6           0        0.771029    0.161432   -0.358045
      3          6           0        1.679669    1.223641   -0.457908
      4          6           0        1.301118    2.517696   -0.090156
      5          6           0        0.007400    2.748230    0.379359
      6          6           0       -0.898636    1.691832    0.479455
      7          6           0       -0.983179   -0.554388    0.085450
      8          6           0       -0.199383   -1.632512   -0.375259
      9          6           0       -0.739982   -2.925346   -0.439961
     10          6           0       -2.057527   -3.165194   -0.050932
     11          6           0       -2.840120   -2.107335    0.405576
     12          6           0       -2.316347   -0.817173    0.475319
     13          1           0        1.078149   -0.820818   -0.643702
     14          1           0        2.673476    1.042151   -0.819407
     15          1           0        1.999533    3.329343   -0.167817
     16          1           0       -2.463862   -4.157530   -0.103429
     17         17           0       -3.373482    0.524701    1.075619
     18         17           0       -2.561619    1.978852    1.081237
     19         17           0       -4.507740   -2.400940    0.899848
     20         17           0       -0.484824    4.374984    0.847041
     21         17           0        0.245730   -4.261647   -1.015681
     22         17           0        1.469886   -1.414387   -0.884241
 ---------------------------------------------------------------------
                    Distance matrix (angstroms):
                    1          2          3          4          5
     1  C    0.000000
     2  C    1.401249   0.000000
     3  C    2.432858   1.401388   0.000000
     4  C    2.821105   2.429967   1.397541   0.000000
     5  C    2.441657   2.796144   2.412856   1.395456   0.000000
     6  C    1.409670   2.414811   2.783075   2.417731   1.395313
     7  C    1.040051   1.945850   3.247673   3.832304   3.460479
     8  C    2.098528   2.039664   3.419835   4.422331   4.450068
     9  C    3.359251   3.437740   4.803032   5.823672   5.780945
    10  C    3.864991   4.377383   5.778765   6.601308   6.278348
    11  C    3.408119   4.332530   5.680625   6.227882   5.628994
    12  C    2.181337   3.344257   4.583009   4.952491   4.256889
    13  H    2.145883   1.068052   2.139195   3.391431   3.864099
    14  H    3.401399   2.146585   1.072974   2.142991   3.384629
    15  H    3.894689   3.403098   2.149523   1.073585   2.146086
    16  H    4.938427   5.402109   6.800846   7.663804   7.350493
    17  Cl   3.005225   4.400492   5.326778   5.213727   4.105999
    18  Cl   2.759685   4.059691   4.574694   4.072253   2.772080
    19  Cl   4.917470   6.001120   7.298295   7.675671   6.868140
    20  Cl   4.060704   4.558884   4.039664   2.741796   1.762765
    21  Cl   4.840889   4.502450   5.696988   6.923145   7.151316
    22  Cl   2.867025   1.802356   2.680477   4.015013   4.589437
                    6          7          8          9         10
     6  C    0.000000
     7  C    2.282081   0.000000
     8  C    3.502963   1.410297   0.000000
     9  C    4.710502   2.440623   1.402802   0.000000
    10  C    5.021458   2.826505   2.430432   1.394559   0.000000
    11  C    4.267141   2.441793   2.794396   2.407208   1.392809
    12  C    2.881844   1.413645   2.422767   2.786944   2.420151
    13  H    3.388594   2.202662   1.537205   2.788575   3.959791
    14  H    3.856049   4.091312   3.950242   5.247543   6.377671
    15  H    3.391133   4.903477   5.431231   6.833750   7.658486
    16  H    6.083151   3.900094   3.402569   2.145529   1.073590
    17  Cl   2.800442   2.803287   4.102867   4.597295   4.076295
    18  Cl   1.791657   3.146486   4.554502   5.448262   5.291231
    19  Cl   5.472947   4.061469   4.558324   4.033124   2.737081
    20  Cl   2.739647   5.012693   6.137223   7.417297   7.754614
    21  Cl   6.244111   4.057891   2.742375   1.757494   2.727259
    22  Cl   4.137409   2.774423   1.758721   2.713650   4.025217
                   11         12         13         14         15
    11  C    0.000000
    12  C    1.394174   0.000000
    13  H    4.255461   3.574189   0.000000
    14  H    6.466807   5.480122   2.458982   0.000000
    15  H    7.301266   6.019471   4.277762   2.471846   0.000000
    16  H    2.145683   3.393332   4.896059   7.344491   8.716612
    17  Cl   2.767860   1.810668   4.958176   6.358033   6.187200
    18  Cl   4.151025   2.871419   4.905250   5.647661   4.918136
    19  Cl   1.763935   2.736923   6.006787   8.147428   8.736169
    20  Cl   6.911062   5.518256   5.626860   4.884638   2.880161
    21  Cl   4.022873   4.544417   3.559579   5.836330   7.836953
    22  Cl   4.551918   4.067017   0.750760   2.736313   4.826672
                   16         17         18         19         20
    16  H    0.000000
    17  Cl   4.913334   0.000000
    18  Cl   6.250454   1.665446   0.000000
    19  Cl   2.875693   3.142739   4.796131   0.000000
    20  Cl   8.810437   4.818847   3.179524   7.880342   0.000000
    21  Cl   2.860933   6.354633   7.156962   5.452244   8.865374
    22  Cl   4.858897   5.573089   5.624073   6.315716   6.350987
                   21         22
    21  Cl   0.000000
    22  Cl   3.102052   0.000000
 Stoichiometry    C12H4Cl6
 Framework group  C1[X(C12H4Cl6)]
 Deg. of freedom    60
 Full point group                 C1      NOp   1
 Largest Abelian subgroup         C1      NOp   1
 Largest concise Abelian subgroup C1      NOp   1
                         Standard orientation:                         
 ---------------------------------------------------------------------
 Center     Atomic      Atomic             Coordinates (Angstroms)
 Number     Number       Type             X           Y           Z
 ---------------------------------------------------------------------
      1          6           0        0.620448   -0.523875   -0.000001
      2          6           0        0.469494   -1.916970    0.000002
      3          6           0        1.593787   -2.753541    0.000005
      4          6           0        2.881632   -2.210790    0.000006
      5          6           0        3.043496   -0.824754    0.000001
      6          6           0        1.925222    0.009729   -0.000002
      7          6           0       -0.351078   -0.152602   -0.000001
      8          6           0       -1.398219   -1.097289   -0.000002
      9          6           0       -2.735470   -0.673480   -0.000002
     10          6           0       -3.050624    0.685002   -0.000002
     11          6           0       -2.023910    1.626158   -0.000001
     12          6           0       -0.690288    1.219742    0.000000
     13          1           0       -0.506951   -2.349742    0.000004
     14          1           0        1.464998   -3.818758    0.000008
     15          1           0        3.740945   -2.854348    0.000008
     16          1           0       -4.076578    1.001251   -0.000001
     17         17           0        0.608529    2.481326    0.000003
     18         17           0        2.123867    1.790339   -0.000006
     19         17           0       -2.412716    3.346709    0.000004
     20         17           0        4.661541   -0.125276   -0.000002
     21         17           0       -4.032587   -1.859344   -0.000004
     22         17           0       -1.085655   -2.828012    0.000002
 ---------------------------------------------------------------------
 Rotational constants (GHZ):           0.3536165           0.2148443           0.1336459
 Standard basis: 6-311+G(d,p) (5D, 7F)
 There are   486 symmetry adapted cartesian basis functions of A   symmetry.
 There are   468 symmetry adapted basis functions of A   symmetry.
   468 basis functions,   782 primitive gaussians,   486 cartesian basis functions
    89 alpha electrons       89 beta electrons
       nuclear repulsion energy      2196.5387080872 Hartrees.
 NAtoms=   22 NActive=   22 NUniq=   22 SFac= 1.00D+00 NAtFMM=   60 NAOKFM=F Big=F
 Integral buffers will be    131072 words long.
 Raffenetti 2 integral format.
 Two-electron integral symmetry is turned on.
 One-electron integrals computed using PRISM.
 NBasis=   468 RedAO= T EigKep=  1.25D-06  NBF=   468
 NBsUse=   460 1.00D-06 EigRej=  7.58D-07 NBFU=   460
 Initial guess from the checkpoint file:  "./Gau-106120.chk"
 B after Tr=     0.000000   -0.000000    0.000000
         Rot=    0.999817    0.000000    0.000000    0.019104 Ang=   2.19 deg.
 ExpMin= 4.38D-02 ExpMax= 1.06D+05 ExpMxC= 3.62D+03 IAcc=3 IRadAn=         5 AccDes= 0.00D+00
 Harris functional with IExCor=  402 and IRadAn=       5 diagonalized for initial guess.
 HarFok:  IExCor=  402 AccDes= 0.00D+00 IRadAn=         5 IDoV= 1 UseB2=F ITyADJ=14
 ICtDFT=  3500011 ScaDFX=  1.000000  1.000000  1.000000  1.000000
 FoFCou: FMM=F IPFlag=           0 FMFlag=      100000 FMFlg1=           0
         NFxFlg=           0 DoJE=T BraDBF=F KetDBF=T FulRan=T
         wScrn=  0.000000 ICntrl=       500 IOpCl=  0 I1Cent=   200000004 NGrid=           0
         NMat0=    1 NMatS0=      1 NMatT0=    0 NMatD0=    1 NMtDS0=    0 NMtDT0=    0
 Petite list used in FoFCou.
 Requested convergence on RMS density matrix=1.00D-08 within  32 cycles.
 Requested convergence on MAX density matrix=1.00D-06.
 Requested convergence on             energy=1.00D-06.
 No special actions if energy rises.
 EnCoef did     3 forward-backward iterations
 EnCoef did     2 forward-backward iterations
 EnCoef did     4 forward-backward iterations
 EnCoef did     4 forward-backward iterations
 EnCoef did     3 forward-backward iterations
 EnCoef did     3 forward-backward iterations
 Restarting incremental Fock formation.
 SCF Done:  E(RB3LYP) =  -3219.34391493     A.U. after   30 cycles
            NFock= 30  Conv=0.69D-08     -V/T= 2.0002
 QCSCF skips out because SCF is already converged.
 Calling FoFJK, ICntrl=      2127 FMM=F ISym2X=0 I1Cent= 0 IOpClX= 0 NMat=1 NMatS=1 NMatT=0.
 ***** Axes restored to original set *****
 -------------------------------------------------------------------
 Center     Atomic                   Forces (Hartrees/Bohr)
 Number     Number              X              Y              Z
 -------------------------------------------------------------------
      1        6           0.430800142    0.794606935    0.007304510
      2        6          -0.021003198    0.400370187    0.082112531
      3        6          -0.020933263   -0.008504115    0.005299665
      4        6           0.004344099   -0.007855315   -0.002906702
      5        6          -0.015733322   -0.025931877    0.000313251
      6        6           0.104283290   -0.022958467   -0.038668283
      7        6          -0.417697940   -0.803033537   -0.013203727
      8        6          -0.138222673   -0.162016854    0.015109877
      9        6          -0.005051849    0.021565232    0.005714311
     10        6           0.002764062   -0.005043356   -0.001857782
     11        6           0.021255462    0.024850473   -0.002335671
     12        6           0.060024369   -0.117722538   -0.041884782
     13        1          -0.892883998    1.453633691    0.567177268
     14        1           0.012465448   -0.003682028   -0.004798268
     15        1           0.005044427    0.008103216   -0.000140138
     16        1          -0.003491177   -0.009356997   -0.000607037
     17       17          -0.213741898   -0.138340450    0.044438761
     18       17           0.013171644    0.271467634    0.046642758
     19       17          -0.006752191   -0.001035372    0.002030076
     20       17          -0.001762864    0.002833063    0.001112864
     21       17          -0.002607231   -0.007288232   -0.000509839
     22       17           1.085728660   -1.664661293   -0.670343644
 -------------------------------------------------------------------
 Cartesian Forces:  Max     1.664661293 RMS     0.382565221

 GradGradGradGradGradGradGradGradGradGradGradGradGradGradGradGradGradGrad
 Berny optimization.
 Using GEDIIS/GDIIS optimizer.
 FormGI is forming the generalized inverse of G from B-inverse, IUseBI=4.
 Internal  Forces:  Max    18.500657561 RMS     2.580706026
 Search for a local minimum.
 Step number   2 out of a maximum of  112
 All quantities printed in internal units (Hartrees-Bohrs-Radians)
 Mixed Optimization -- RFO/linear search
 Update second derivatives using D2CorX and points    2    1
 DE=  1.20D+00 DEPred=-1.16D-01 R=-1.04D+01
 Trust test=-1.04D+01 RLast= 3.00D-01 DXMaxT set to 1.50D-01
 ITU= -1  0
 Use linear search instead of GDIIS.
     Eigenvalues ---    0.00238   0.00238   0.01661   0.01666   0.02070
     Eigenvalues ---    0.02070   0.02070   0.02070   0.02070   0.02070
     Eigenvalues ---    0.02070   0.02070   0.02070   0.02070   0.02070
     Eigenvalues ---    0.02070   0.02070   0.02070   0.04751   0.09936
     Eigenvalues ---    0.16000   0.16000   0.16001   0.16005   0.22077
     Eigenvalues ---    0.23368   0.23545   0.24910   0.25000   0.25000
     Eigenvalues ---    0.25000   0.25000   0.25000   0.25000   0.25000
     Eigenvalues ---    0.25000   0.27878   0.29505   0.29539   0.29539
     Eigenvalues ---    0.29539   0.29539   0.37087   0.37213   0.37230
     Eigenvalues ---    0.37230   0.40634   0.41468   0.41721   0.41982
     Eigenvalues ---    0.45168   0.45243   0.45389   0.45389   0.45389
     Eigenvalues ---    0.45389   0.45389   0.45389   1.35676 145.10856
 RFO step:  Lambda=-2.80428494D+00 EMin= 2.37799080D-03
 Quartic linear search produced a step of -0.77943.
 Maximum step size (   0.150) exceeded in Quadratic search.
    -- Step size scaled by   0.156
 Iteration  1 RMS(Cart)=  0.27262947 RMS(Int)=  0.00632375
 Iteration  2 RMS(Cart)=  0.08878956 RMS(Int)=  0.00059390
 Iteration  3 RMS(Cart)=  0.00123866 RMS(Int)=  0.00001878
 Iteration  4 RMS(Cart)=  0.00000013 RMS(Int)=  0.00001878
 Variable       Old X    -DE/DX   Delta X   Delta X   Delta X     New X
                                 (Linear)    (Quad)   (Total)
    R1        2.64798  -0.89815   0.00022  -0.00397  -0.00377   2.64420
    R2        2.66389  -2.00587  -0.01218   0.00144  -0.01076   2.65313
    R3        2.64824  -0.29044   0.00002  -0.00123  -0.00122   2.64702
    R4        2.01833  -1.74530   0.00287  -0.00983  -0.00696   2.01137
    R5        2.64097  -0.74549   0.00568  -0.00772  -0.00202   2.63895
    R6        2.02763   0.01379  -0.00438   0.00359  -0.00079   2.02684
    R7        2.63703  -0.46121   0.00876  -0.00902  -0.00024   2.63679
    R8        2.02878   0.00942  -0.00528   0.00430  -0.00098   2.02780
    R9        2.63676   0.25226   0.00897  -0.00621   0.00276   2.63952
   R10        3.33114   0.00340  -0.00407   0.00328  -0.00080   3.33035
   R11        3.38574  -0.98917  -0.04663   0.03297  -0.01366   3.37208
   R12        2.66508   2.92163  -0.01311   0.02295   0.00981   2.67489
   R13        2.67140   1.41979  -0.01804   0.02066   0.00260   2.67400
   R14        2.65091  -0.43961  -0.00206  -0.00018  -0.00225   2.64866
   R15        3.32350   1.01805   0.00188   0.00298   0.00487   3.32837
   R16        2.63533  -1.23410   0.01008  -0.01342  -0.00332   2.63202
   R17        3.32118   0.00425   0.00369  -0.00294   0.00075   3.32194
   R18        2.63203  -0.79774   0.01265  -0.01367  -0.00098   2.63104
   R19        2.02879   0.01000  -0.00529   0.00430  -0.00098   2.02781
   R20        2.63461   0.40228   0.01064  -0.00693   0.00372   2.63832
   R21        3.33335   0.00712  -0.00580   0.00467  -0.00112   3.33223
   R22        3.42167   2.60117  -0.07463   0.07123  -0.00340   3.41827
   R23        3.14724   2.31489  -0.03910   0.04102   0.00192   3.14916
    A1        2.06694  -0.74443   0.02140  -0.02046   0.00089   2.06783
    A2        2.10256   1.12134  -0.00637   0.01012   0.00372   2.10629
    A3        2.09593  -0.99580  -0.00120  -0.00360  -0.00479   2.09114
    A4        2.08469  -0.12554   0.00756  -0.00651   0.00106   2.08575
    A5        2.10304  -0.41329  -0.00673   0.00351  -0.00321   2.09983
    A6        2.09018   0.20524   0.00328  -0.00170   0.00158   2.09176
    A7        2.08997   0.20806   0.00345  -0.00182   0.00163   2.09160
    A8        2.08590  -0.62289   0.00662  -0.00803  -0.00137   2.08454
    A9        2.09993   0.31302  -0.00431   0.00482   0.00048   2.10041
   A10        2.09735   0.30986  -0.00230   0.00321   0.00089   2.09824
   A11        2.09562   0.41987  -0.00096   0.00267   0.00175   2.09737
   A12        2.09509  -0.20845  -0.00054  -0.00052  -0.00107   2.09401
   A13        2.09248  -0.21142   0.00150  -0.00215  -0.00067   2.09180
   A14        2.11230   0.23940  -0.01396   0.01218  -0.00178   2.11052
   A15        2.07011   1.98211   0.01893  -0.00621   0.01273   2.08283
   A16        2.10078  -2.22150  -0.00497  -0.00597  -0.01094   2.08983
   A17        2.06248  -0.85782   0.02487  -0.02348   0.00130   2.06379
   A18        2.10068   0.29070  -0.00489   0.00524   0.00031   2.10099
   A19        2.12613   2.90198  -0.02474   0.03270   0.00798   2.13411
   A20        2.05638  -3.19268   0.02963  -0.03794  -0.00830   2.04808
   A21        2.10567   0.26749  -0.00878   0.00810  -0.00065   2.10501
   A22        2.09406  -0.12296   0.00026  -0.00071  -0.00046   2.09360
   A23        2.08346  -0.14453   0.00852  -0.00739   0.00112   2.08458
   A24        2.08479  -0.13376   0.00749  -0.00671   0.00085   2.08563
   A25        2.09776   0.06654  -0.00262   0.00247  -0.00019   2.09757
   A26        2.10064   0.06722  -0.00487   0.00424  -0.00066   2.09998
   A27        2.10384   1.56762  -0.00736   0.01283   0.00551   2.10935
   A28        2.09050  -0.78355   0.00304  -0.00590  -0.00289   2.08761
   A29        2.08885  -0.78407   0.00432  -0.00693  -0.00263   2.08622
   A30        2.10892  -1.13424  -0.01132   0.00402  -0.00732   2.10160
   A31        2.09933   7.71588  -0.00385   0.03759   0.03375   2.13308
   A32        2.07493  -6.58164   0.01517  -0.04161  -0.02643   2.04850
   A33        1.94291  18.50066   0.11807  -0.01129   0.10678   2.04969
   A34        1.88752  12.68122   0.16124  -0.07177   0.08947   1.97699
    D1        0.00000  -0.00000   0.00000  -0.00000   0.00000   0.00000
    D2        3.14159  -0.00001  -0.00000  -0.00000  -0.00000   3.14159
    D3       -0.00000   0.00000  -0.00000   0.00000   0.00000  -0.00000
    D4        3.14159   0.00001  -0.00000   0.00000   0.00000   3.14159
    D5        0.00000   0.00000  -0.00000   0.00000   0.00000   0.00000
    D6        3.14159  -0.00000  -0.00000   0.00000  -0.00000   3.14159
    D7       -3.14159   0.00001   0.00000  -0.00000   0.00000  -3.14159
    D8        0.00000   0.00000   0.00000  -0.00000   0.00000   0.00000
    D9       -0.00000   0.00000  -0.00000   0.00000  -0.00000  -0.00000
   D10        3.14159  -0.00000   0.00000  -0.00000  -0.00000   3.14159
   D11        3.14159   0.00000  -0.00000   0.00000   0.00000   3.14159
   D12        0.00000   0.00000   0.00000  -0.00000   0.00000   0.00000
   D13        0.00000  -0.00000   0.00000  -0.00000   0.00000   0.00000
   D14       -3.14159  -0.00000   0.00000  -0.00000  -0.00000  -3.14159
   D15       -3.14159   0.00000   0.00000  -0.00000   0.00000  -3.14159
   D16        0.00000  -0.00000   0.00000  -0.00000  -0.00000   0.00000
   D17       -0.00000   0.00000  -0.00000   0.00000  -0.00000  -0.00000
   D18        3.14159  -0.00001   0.00000  -0.00000  -0.00000   3.14159
   D19        3.14159   0.00000  -0.00000   0.00000   0.00000   3.14159
   D20       -0.00000  -0.00001   0.00000  -0.00000  -0.00000  -0.00000
   D21        0.00001  -0.00002   0.00000  -0.00000  -0.00000   0.00001
   D22       -3.14158  -0.00001  -0.00000  -0.00000  -0.00000  -3.14159
   D23        0.00000  -0.00000   0.00000  -0.00000  -0.00000   0.00000
   D24       -3.14159  -0.00000   0.00000  -0.00000  -0.00000  -3.14159
   D25       -0.00000   0.00000  -0.00000   0.00000   0.00000  -0.00000
   D26        3.14159   0.00001  -0.00000   0.00000  -0.00000   3.14159
   D27       -0.00000  -0.00000   0.00000  -0.00000   0.00000  -0.00000
   D28        3.14159  -0.00000   0.00000  -0.00000   0.00000   3.14159
   D29        3.14159   0.00001  -0.00000   0.00000   0.00000   3.14159
   D30       -0.00000   0.00001  -0.00000   0.00000   0.00000  -0.00000
   D31       -0.00000   0.00000  -0.00000   0.00000   0.00000  -0.00000
   D32       -3.14159  -0.00000   0.00000  -0.00000   0.00000  -3.14159
   D33        3.14159   0.00000  -0.00000   0.00000   0.00000   3.14159
   D34        0.00000   0.00000   0.00000  -0.00000   0.00000   0.00000
   D35        0.00000  -0.00000  -0.00000  -0.00000  -0.00000   0.00000
   D36       -3.14159  -0.00001   0.00000  -0.00000  -0.00000  -3.14159
   D37        3.14159   0.00000  -0.00000   0.00000  -0.00000   3.14159
   D38        0.00000  -0.00000   0.00000  -0.00000  -0.00000   0.00000
   D39        0.00000  -0.00000   0.00000  -0.00000   0.00000   0.00000
   D40       -3.14159  -0.00001   0.00000  -0.00000  -0.00000  -3.14159
   D41        3.14159   0.00000  -0.00000   0.00000  -0.00000   3.14159
   D42       -0.00000  -0.00001   0.00000  -0.00000  -0.00000  -0.00000
   D43        0.00001  -0.00000  -0.00000   0.00000  -0.00000   0.00001
   D44       -3.14159   0.00000  -0.00000   0.00000  -0.00000  -3.14159
   D45       -0.00001  -0.00016  -0.00000   0.00000  -0.00000  -0.00001
         Item               Value     Threshold  Converged?
 Maximum Force            ********     0.000450     NO 
 RMS     Force            2.580706     0.000300     NO 
 Maximum Displacement     1.282523     0.001800     NO 
 RMS     Displacement     0.359851     0.001200     NO 
 Predicted change in Energy=-1.038644D+00
 GradGradGradGradGradGradGradGradGradGradGradGradGradGradGradGradGradGrad

                          Input orientation:                          
 ---------------------------------------------------------------------
 Center     Atomic      Atomic             Coordinates (Angstroms)
 Number     Number       Type             X           Y           Z
 ---------------------------------------------------------------------
      1          6           0       -0.239936    0.564074    0.050641
      2          6           0        1.084982    0.509739   -0.396064
      3          6           0        1.873035    1.667003   -0.438346
      4          6           0        1.344644    2.894683   -0.033695
      5          6           0        0.024439    2.959115    0.413352
      6          6           0       -0.759823    1.804045    0.454797
      7          6           0       -0.952628   -0.911497    0.008316
      8          6           0       -0.302095   -2.090697   -0.427471
      9          6           0       -0.983599   -3.315454   -0.432965
     10          6           0       -2.308667   -3.391596   -0.010712
     11          6           0       -2.958308   -2.237935    0.419985
     12          6           0       -2.298750   -1.007488    0.433779
     13          1           0        1.500751   -0.419250   -0.707512
     14          1           0        2.887066    1.610031   -0.783123
     15          1           0        1.947867    3.781561   -0.065865
     16          1           0       -2.823882   -4.332863   -0.017748
     17         17           0       -3.232410    0.430103    1.011375
     18         17           0       -2.446791    1.899664    1.028534
     19         17           0       -4.635880   -2.330901    0.955219
     20         17           0       -0.656942    4.500971    0.927408
[...]
                 (A) (A) (A) (A) (A) (A) (A) (A) (A) (A) (A) (A)
                 (A) (A) (A) (A) (A) (A) (A) (A) (A) (A) (A) (A)
                 (A) (A) (A) (A) (A) (A) (A) (A) (A) (A) (A) (A)
                 (A) (A) (A) (A) (A) (A) (A) (A) (A) (A) (A) (A)
                 (A) (A) (A) (A) (A) (A) (A) (A) (A) (A) (A) (A)
                 (A) (A) (A) (A) (A) (A) (A) (A) (A) (A) (A) (A)
                 (A) (A) (A) (A) (A) (A) (A) (A) (A) (A) (A) (A)
                 (A) (A) (A) (A) (A) (A) (A) (A) (A) (A) (A) (A)
                 (A) (A) (A) (A) (A) (A) (A) (A) (A) (A) (A) (A)
                 (A) (A) (A) (A) (A) (A) (A) (A) (A) (A) (A) (A)
                 (A) (A) (A) (A) (A) (A) (A) (A) (A) (A) (A) (A)
                 (A) (A) (A) (A) (A) (A) (A) (A) (A) (A) (A) (A)
                 (A) (A) (A) (A) (A) (A) (A) (A) (A) (A) (A) (A)
                 (A) (A) (A) (A) (A) (A) (A) (A) (A) (A) (A) (A)
                 (A) (A) (A) (A) (A) (A) (A) (A) (A) (A) (A) (A)
                 (A) (A) (A) (A) (A) (A) (A) (A) (A) (A) (A) (A)
                 (A) (A) (A) (A) (A) (A) (A) (A) (A) (A) (A) (A)
                 (A) (A) (A) (A) (A) (A) (A) (A) (A) (A) (A) (A)
                 (A) (A) (A) (A) (A) (A) (A) (A) (A) (A) (A) (A)
                 (A) (A) (A) (A) (A) (A) (A) (A) (A) (A) (A) (A)
                 (A) (A) (A) (A) (A) (A) (A) (A) (A) (A) (A) (A)
                 (A) (A) (A) (A) (A) (A) (A) (A) (A) (A) (A) (A)
                 (A) (A) (A) (A) (A) (A) (A) (A) (A) (A) (A) (A)
                 (A) (A) (A) (A) (A) (A) (A) (A) (A) (A) (A) (A)
                 (A) (A) (A) (A) (A) (A) (A) (A) (A) (A) (A) (A)
                 (A) (A) (A) (A) (A) (A) (A) (A) (A) (A) (A) (A)
                 (A) (A) (A)
 The electronic state is 1-A.
 Alpha  occ. eigenvalues -- -101.57863-101.57863-101.57737-101.57737-101.57090
 Alpha  occ. eigenvalues -- -101.56950 -10.27724 -10.27723 -10.27560 -10.27560
 Alpha  occ. eigenvalues --  -10.26735 -10.26451 -10.24273 -10.22900 -10.22589
 Alpha  occ. eigenvalues --  -10.21063 -10.20804 -10.20651  -9.49320  -9.49320
 Alpha  occ. eigenvalues --   -9.49211  -9.49210  -9.48567  -9.48410  -7.25812
 Alpha  occ. eigenvalues --   -7.25811  -7.25701  -7.25701  -7.25046  -7.24892
 Alpha  occ. eigenvalues --   -7.24796  -7.24796  -7.24738  -7.24738  -7.24692
 Alpha  occ. eigenvalues --   -7.24692  -7.24618  -7.24618  -7.24048  -7.23985
 Alpha  occ. eigenvalues --   -7.23891  -7.23834  -0.96041  -0.93464  -0.92029
 Alpha  occ. eigenvalues --   -0.89396  -0.87712  -0.87378  -0.86108  -0.84104
 Alpha  occ. eigenvalues --   -0.79973  -0.75661  -0.75368  -0.74206  -0.67757
 Alpha  occ. eigenvalues --   -0.62849  -0.62368  -0.62118  -0.54901  -0.54825
 Alpha  occ. eigenvalues --   -0.53180  -0.51693  -0.49794  -0.47995  -0.46951
 Alpha  occ. eigenvalues --   -0.46413  -0.45884  -0.45621  -0.43894  -0.43321
 Alpha  occ. eigenvalues --   -0.42225  -0.40809  -0.40048  -0.39847  -0.37516
 Alpha  occ. eigenvalues --   -0.36546  -0.36033  -0.35579  -0.35303  -0.34546
 Alpha  occ. eigenvalues --   -0.34267  -0.33218  -0.32974  -0.32671  -0.32123
 Alpha  occ. eigenvalues --   -0.28198  -0.27780  -0.26733  -0.26442
 Alpha virt. eigenvalues --   -0.06226  -0.05793  -0.05080  -0.04329  -0.04247
 Alpha virt. eigenvalues --   -0.01913  -0.00788  -0.00574   0.00470   0.01325
 Alpha virt. eigenvalues --    0.01979   0.02439   0.02679   0.03014   0.03100
 Alpha virt. eigenvalues --    0.04164   0.04878   0.05354   0.05672   0.05828
 Alpha virt. eigenvalues --    0.06348   0.06420   0.07314   0.07822   0.07987
 Alpha virt. eigenvalues --    0.08195   0.08581   0.09037   0.09455   0.09710
 Alpha virt. eigenvalues --    0.10448   0.10668   0.11032   0.11258   0.11501
 Alpha virt. eigenvalues --    0.12106   0.12554   0.12555   0.12950   0.13101
 Alpha virt. eigenvalues --    0.13998   0.14030   0.14395   0.14494   0.15012
 Alpha virt. eigenvalues --    0.15236   0.15726   0.15746   0.16820   0.17333
 Alpha virt. eigenvalues --    0.17800   0.17804   0.18307   0.18605   0.18893
 Alpha virt. eigenvalues --    0.19041   0.19515   0.20121   0.20188   0.20449
 Alpha virt. eigenvalues --    0.20700   0.21339   0.21341   0.21567   0.22022
 Alpha virt. eigenvalues --    0.22180   0.22510   0.22874   0.23418   0.23819
 Alpha virt. eigenvalues --    0.24872   0.25312   0.25771   0.25874   0.26135
 Alpha virt. eigenvalues --    0.26415   0.26912   0.27193   0.27833   0.28512
 Alpha virt. eigenvalues --    0.28642   0.28845   0.28953   0.29562   0.29733
 Alpha virt. eigenvalues --    0.30023   0.31102   0.31949   0.32156   0.32201
 Alpha virt. eigenvalues --    0.33212   0.33516   0.35294   0.39751   0.41394
 Alpha virt. eigenvalues --    0.42241   0.43740   0.43800   0.44327   0.44428
 Alpha virt. eigenvalues --    0.45571   0.45915   0.46199   0.46479   0.46879
 Alpha virt. eigenvalues --    0.47670   0.48528   0.48705   0.48968   0.50056
 Alpha virt. eigenvalues --    0.51185   0.51283   0.51671   0.52203   0.53274
 Alpha virt. eigenvalues --    0.53657   0.55300   0.56894   0.57009   0.57521
 Alpha virt. eigenvalues --    0.57647   0.58483   0.58864   0.59055   0.60026
 Alpha virt. eigenvalues --    0.60070   0.61292   0.61937   0.62479   0.63183
 Alpha virt. eigenvalues --    0.63847   0.64391   0.65289   0.65574   0.66512
 Alpha virt. eigenvalues --    0.67633   0.68449   0.68650   0.68947   0.69427
 Alpha virt. eigenvalues --    0.70350   0.71006   0.73169   0.75832   0.78568
 Alpha virt. eigenvalues --    0.79672   0.80368   0.81400   0.81739   0.82004
 Alpha virt. eigenvalues --    0.83020   0.83111   0.83770   0.83892   0.84208
 Alpha virt. eigenvalues --    0.84227   0.84445   0.84688   0.85606   0.85886
 Alpha virt. eigenvalues --    0.86508   0.87057   0.87241   0.87696   0.88840
 Alpha virt. eigenvalues --    0.89305   0.89449   0.89931   0.90221   0.92173
 Alpha virt. eigenvalues --    0.92353   0.93260   0.94137   0.94345   0.94903
 Alpha virt. eigenvalues --    0.95114   0.95562   0.95686   0.96957   0.97039
 Alpha virt. eigenvalues --    0.97940   0.98639   0.99353   1.00091   1.00381
 Alpha virt. eigenvalues --    1.01429   1.02366   1.04921   1.05693   1.06067
 Alpha virt. eigenvalues --    1.06952   1.10675   1.10825   1.15678   1.16318
 Alpha virt. eigenvalues --    1.17269   1.17914   1.22052   1.22826   1.24433
 Alpha virt. eigenvalues --    1.25573   1.25674   1.26518   1.27503   1.27816
 Alpha virt. eigenvalues --    1.28512   1.29936   1.30424   1.31061   1.34203
 Alpha virt. eigenvalues --    1.36501   1.37701   1.38184   1.40505   1.43922
 Alpha virt. eigenvalues --    1.45085   1.47834   1.49513   1.50906   1.55184
 Alpha virt. eigenvalues --    1.55529   1.56976   1.57940   1.59086   1.60755
 Alpha virt. eigenvalues --    1.63848   1.65177   1.66408   1.68160   1.71627
 Alpha virt. eigenvalues --    1.72803   1.75115   1.75164   1.76766   1.78891
 Alpha virt. eigenvalues --    1.78961   1.81245   1.82051   1.85573   1.87931
 Alpha virt. eigenvalues --    1.88148   1.89401   1.90908   1.91760   1.93403
 Alpha virt. eigenvalues --    1.95599   1.95954   1.98581   2.00843   2.01169
 Alpha virt. eigenvalues --    2.01961   2.04625   2.07113   2.12131   2.16137
 Alpha virt. eigenvalues --    2.17756   2.21024   2.23074   2.23351   2.25009
 Alpha virt. eigenvalues --    2.25319   2.25327   2.28358   2.28521   2.30483
 Alpha virt. eigenvalues --    2.32287   2.32420   2.34078   2.34689   2.37611
 Alpha virt. eigenvalues --    2.39046   2.39919   2.41763   2.43363   2.46370
 Alpha virt. eigenvalues --    2.46976   2.47096   2.49695   2.50213   2.52235
 Alpha virt. eigenvalues --    2.53169   2.54502   2.56892   2.58953   2.60935
 Alpha virt. eigenvalues --    2.62929   2.64904   2.67092   2.68396   2.69568
 Alpha virt. eigenvalues --    2.70077   2.72857   2.74141   2.74212   2.74414
 Alpha virt. eigenvalues --    2.77190   2.77636   2.77886   2.82662   2.83497
 Alpha virt. eigenvalues --    2.83582   2.85916   2.89911   2.96625   2.97532
 Alpha virt. eigenvalues --    3.05599   3.08296   3.09195   3.12230   3.12495
 Alpha virt. eigenvalues --    3.13973   3.17940   3.21310   3.22705   3.25216
 Alpha virt. eigenvalues --    3.28011   3.35057   3.38066   3.39128   3.51941
 Alpha virt. eigenvalues --    3.51980   3.57063   3.70311   3.73750   3.78782
 Alpha virt. eigenvalues --    3.89452   3.92787   4.01013   4.04456   4.09613
 Alpha virt. eigenvalues --    4.32582   4.80400   4.81738   9.76405   9.78259
 Alpha virt. eigenvalues --    9.78370   9.81305   9.83588   9.85874  23.33807
 Alpha virt. eigenvalues --   23.51825  23.78858  23.86195  23.88902  23.90161
 Alpha virt. eigenvalues --   23.93720  23.94981  24.01747  24.06631  24.09065
 Alpha virt. eigenvalues --   24.15398  25.78654  25.80381  25.80969  25.87175
 Alpha virt. eigenvalues --   25.95231  25.98928  26.11324  26.16119  26.16383
 Alpha virt. eigenvalues --   26.20744  26.35017  26.36995  26.52971  26.57466
 Alpha virt. eigenvalues --   26.63104  26.76652  26.81629  27.05356 215.75629
 Alpha virt. eigenvalues --  215.77649 215.77811 215.81298 215.84506 215.86632
          Condensed to atoms (all electrons):
               1          2          3          4          5          6
     1  C   33.484130  -5.686553  -2.707774  -7.758356  -2.413196   2.165850
     2  C   -5.686553  23.274661  -2.323809   3.656045  -3.312706  -8.507794
     3  C   -2.707774  -2.323809  12.917212  -2.291514  -0.256279  -4.476640
     4  C   -7.758356   3.656045  -2.291514  30.541600  -7.810252  -2.639281
     5  C   -2.413196  -3.312706  -0.256279  -7.810252  24.345191  -3.081139
     6  C    2.165850  -8.507794  -4.476640  -2.639281  -3.081139  53.831500
     7  C    5.288822   1.034431   4.325738  -8.025105  -1.340619 -16.282852
     8  C   -1.902578  -0.079951   0.463947  -0.040475  -0.869835  -6.657118
     9  C   -4.709771  -1.466710  -0.068902   0.143111   0.566610  -0.104597
    10  C   -2.415714  -1.448731  -0.261905   0.172584   0.492542   3.284206
    11  C   -4.718984  -1.458309  -0.067665   0.142319   0.562469  -0.115301
    12  C   -1.881079  -0.088137   0.465185  -0.043648  -0.867419  -6.660433
    13  H   -0.017770   0.276404  -0.041779  -0.027126  -0.009274  -0.095856
    14  H    0.011081   0.031216   0.332737   0.033701  -0.044481  -0.005762
    15  H    0.074922  -0.061559  -0.037866   0.226637   0.104712   0.020764
    16  H    0.016032   0.001485  -0.000080   0.000026  -0.000234  -0.001787
    17  Cl   0.122760   0.733097   0.362574  -0.465735  -0.119982  -1.428308
    18  Cl  -0.272126   0.713304  -0.184628   1.850503   0.479843  -1.320045
    19  Cl  -0.168480   0.015093   0.010143  -0.004733  -0.003349  -0.107712
    20  Cl  -0.267483   0.069050   0.078090  -0.720973  -0.996059   1.363388
    21  Cl  -0.168659   0.015168   0.010142  -0.004733  -0.003340  -0.107756
    22  Cl   0.123281   0.735219   0.361915  -0.465603  -0.121508  -1.433304
               7          8          9         10         11         12
     1  C    5.288822  -1.902578  -4.709771  -2.415714  -4.718984  -1.881079
     2  C    1.034431  -0.079951  -1.466710  -1.448731  -1.458309  -0.088137
     3  C    4.325738   0.463947  -0.068902  -0.261905  -0.067665   0.465185
     4  C   -8.025105  -0.040475   0.143111   0.172584   0.142319  -0.043648
     5  C   -1.340619  -0.869835   0.566610   0.492542   0.562469  -0.867419
     6  C  -16.282852  -6.657118  -0.104597   3.284206  -0.115301  -6.660433
     7  C   29.373991  -1.855588  -3.639871   3.277496  -3.640585  -1.835070
     8  C   -1.855588  48.696506 -14.589287 -14.482859   8.610730 -10.210700
     9  C   -3.639871 -14.589287  29.641111   1.143987  -8.370966   8.595493
    10  C    3.277496 -14.482859   1.143987  31.044066   1.136346 -14.481783
    11  C   -3.640585   8.610730  -8.370966   1.136346  29.643564 -14.591856
    12  C   -1.835070 -10.210700   8.595493 -14.481783 -14.591856  48.685578
    13  H    0.096425   0.073478   0.016061   0.004896   0.016000   0.073611
    14  H   -0.011948   0.001703   0.000062   0.000100   0.000064   0.001699
    15  H    0.022153   0.001189   0.000111   0.000020   0.000112   0.001193
    16  H    0.038243   0.090448  -0.020746   0.152053  -0.020822   0.090514
    17  Cl   0.749105  -0.983818   0.844066   0.120664  -1.563406  -0.084526
    18  Cl  -1.283098  -0.103113  -0.477221  -0.737907  -0.474962  -0.102517
    19  Cl  -0.526251   0.474447  -0.263674  -0.231062  -0.127248   0.330278
    20  Cl   0.040704  -0.051734  -0.000910   0.000659  -0.000912  -0.051740
    21  Cl  -0.526288   0.329645  -0.125939  -0.230943  -0.263888   0.474112
    22  Cl   0.751305  -0.080838  -1.568290   0.118671   0.845504  -0.983855
              13         14         15         16         17         18
     1  C   -0.017770   0.011081   0.074922   0.016032   0.122760  -0.272126
     2  C    0.276404   0.031216  -0.061559   0.001485   0.733097   0.713304
     3  C   -0.041779   0.332737  -0.037866  -0.000080   0.362574  -0.184628
     4  C   -0.027126   0.033701   0.226637   0.000026  -0.465735   1.850503
     5  C   -0.009274  -0.044481   0.104712  -0.000234  -0.119982   0.479843
     6  C   -0.095856  -0.005762   0.020764  -0.001787  -1.428308  -1.320045
     7  C    0.096425  -0.011948   0.022153   0.038243   0.749105  -1.283098
     8  C    0.073478   0.001703   0.001189   0.090448  -0.983818  -0.103113
     9  C    0.016061   0.000062   0.000111  -0.020746   0.844066  -0.477221
    10  C    0.004896   0.000100   0.000020   0.152053   0.120664  -0.737907
    11  C    0.016000   0.000064   0.000112  -0.020822  -1.563406  -0.474962
    12  C    0.073611   0.001699   0.001193   0.090514  -0.084526  -0.102517
    13  H    0.533445  -0.006884  -0.000225  -0.000003  -0.009223  -0.004922
    14  H   -0.006884   0.525194  -0.007549  -0.000000  -0.001026   0.001225
    15  H   -0.000225  -0.007549   0.507549  -0.000000  -0.000110  -0.003557
    16  H   -0.000003  -0.000000  -0.000000   0.486563  -0.001134   0.000220
    17  Cl  -0.009223  -0.001026  -0.000110  -0.001134  18.410889   0.098981
    18  Cl  -0.004922   0.001225  -0.003557   0.000220   0.098981  18.529036
    19  Cl   0.000423   0.000000   0.000001  -0.002280  -0.270486  -0.004364
    20  Cl  -0.000096  -0.000372  -0.003284  -0.000000   0.006276  -0.330934
    21  Cl   0.000423   0.000000   0.000001  -0.002273   0.010119  -0.004451
    22  Cl  -0.009213  -0.001025  -0.000108  -0.001132  -0.121030   0.100411
              19         20         21         22
     1  C   -0.168480  -0.267483  -0.168659   0.123281
     2  C    0.015093   0.069050   0.015168   0.735219
     3  C    0.010143   0.078090   0.010142   0.361915
     4  C   -0.004733  -0.720973  -0.004733  -0.465603
     5  C   -0.003349  -0.996059  -0.003340  -0.121508
     6  C   -0.107712   1.363388  -0.107756  -1.433304
     7  C   -0.526251   0.040704  -0.526288   0.751305
     8  C    0.474447  -0.051734   0.329645  -0.080838
     9  C   -0.263674  -0.000910  -0.125939  -1.568290
    10  C   -0.231062   0.000659  -0.230943   0.118671
    11  C   -0.127248  -0.000912  -0.263888   0.845504
    12  C    0.330278  -0.051740   0.474112  -0.983855
    13  H    0.000423  -0.000096   0.000423  -0.009213
    14  H    0.000000  -0.000372   0.000000  -0.001025
    15  H    0.000001  -0.003284   0.000001  -0.000108
    16  H   -0.002280  -0.000000  -0.002273  -0.001132
    17  Cl  -0.270486   0.006276   0.010119  -0.121030
    18  Cl  -0.004364  -0.330934  -0.004451   0.100411
    19  Cl  17.396585   0.000069  -0.028341   0.010130
    20  Cl   0.000069  17.391298   0.000070   0.006222
    21  Cl  -0.028341   0.000070  17.396610  -0.270589
    22  Cl   0.010130   0.006222  -0.270589  18.413682
 Mulliken charges:
               1
     1  C   -0.198357
     2  C   -0.120915
     3  C   -0.608840
     4  C   -0.468994
     5  C    0.698305
     6  C   -1.640023
     7  C   -0.031140
     8  C   -0.834201
     9  C    0.456271
    10  C   -0.657387
    11  C    0.457796
    12  C   -0.834902
    13  H    0.131205
    14  H    0.140263
    15  H    0.154893
    16  H    0.174906
    17  Cl   0.590253
    18  Cl   0.530322
    19  Cl   0.500811
    20  Cl   0.468672
    21  Cl   0.500911
    22  Cl   0.590152
 Sum of Mulliken charges =  -0.00000
 Mulliken charges with hydrogens summed into heavy atoms:
               1
     1  C   -0.198357
     2  C    0.010289
     3  C   -0.468578
     4  C   -0.314101
     5  C    0.698305
     6  C   -1.640023
     7  C   -0.031140
     8  C   -0.834201
     9  C    0.456271
    10  C   -0.482481
    11  C    0.457796
    12  C   -0.834902
    17  Cl   0.590253
    18  Cl   0.530322
    19  Cl   0.500811
    20  Cl   0.468672
    21  Cl   0.500911
    22  Cl   0.590152
 Electronic spatial extent (au):  <R**2>=           7330.4098
 Charge=             -0.0000 electrons
 Dipole moment (field-independent basis, Debye):
    X=             -0.0862    Y=              0.0017    Z=             -2.3677  Tot=              2.3693
 Quadrupole moment (field-independent basis, Debye-Ang):
   XX=           -138.1885   YY=           -149.9613   ZZ=           -138.9981
   XY=              0.0081   XZ=             -8.0098   YZ=             -0.0085
 Traceless Quadrupole moment (field-independent basis, Debye-Ang):
   XX=              4.1942   YY=             -7.5787   ZZ=              3.3845
   XY=              0.0081   XZ=             -8.0098   YZ=             -0.0085
 Octapole moment (field-independent basis, Debye-Ang**2):
  XXX=             -9.0440  YYY=             -0.0311  ZZZ=             -2.7331  XYY=              1.0350
  XXY=              0.0212  XXZ=            -15.7352  XZZ=             15.0135  YZZ=              0.0118
  YYZ=              8.9563  XYZ=             -0.0174
 Hexadecapole moment (field-independent basis, Debye-Ang**3):
 XXXX=          -5820.5245 YYYY=          -2497.5560 ZZZZ=           -996.3392 XXXY=              0.0928
 XXXZ=            -87.2336 YYYX=             -0.0260 YYYZ=              0.0783 ZZZX=            -10.1087
 ZZZY=             -0.1179 XXYY=          -1448.4866 XXZZ=          -1133.7606 YYZZ=           -629.8811
 XXYZ=             -0.0711 YYXZ=              9.4021 ZZXY=              0.0416
 N-N= 2.079492332639D+03 E-N=-1.178825021932D+04  KE= 3.212688236286D+03
 1\1\GINC-CN159\FOpt\RB3LYP\6-311+G(d,p)\C12H4Cl6\20CY91R06\04-Apr-2022
 \0\\# opt b3lyp/6-311+g(d,p) scf=xqc\\Title Card Required\\0,1\C,-0.22
 13315556,0.4642357482,-0.0509371571\C,0.4134916092,0.8178651039,-1.242
 5365063\C,1.0696886443,2.037603884,-1.3617570007\C,1.0989098564,2.9200
 2394,-0.2884248323\C,0.4701870676,2.5810527881,0.9067848549\C,-0.19157
 2117,1.3542170858,1.0313454947\C,-0.9188595823,-0.8536294326,0.0470329
 314\C,-0.2267920849,-1.996786499,0.4744969463\C,-0.8775985269,-3.23284
 75103,0.5428946284\C,-2.2153348165,-3.3360721166,0.1849187276\C,-2.913
 0913234,-2.213246948,-0.240353126\C,-2.2700121683,-0.9733419643,-0.311
 6284086\H,0.3878758392,0.1265771807,-2.0762308583\H,1.5597607292,2.303
 9053189,-2.2903553445\H,1.605351563,3.8735354525,-0.3646992553\H,-2.71
 53380462,-4.2930884486,0.2384340376\Cl,-3.143556763,0.4390229364,-0.83
 939314\Cl,-0.9823978433,0.9181050618,2.524468878\Cl,-4.5903043133,-2.4
 004055713,-0.6789423587\Cl,0.5291980316,3.7169353488,2.2329171572\Cl,-
 0.0496429749,-4.6746077121,1.0683620016\Cl,1.4501537155,-1.8618572566,
 0.9280684311\\Version=EM64L-G16RevB.01\State=1-A\HF=-3221.1295609\RMSD
 =1.743e-09\RMSF=2.357e-05\Dipole=0.320033,-0.03234,-0.8748762\Quadrupo
 le=-1.5311713,1.5312918,-0.0001205,5.0605929,-4.0860911,-3.8359381\PG=
 C01 [X(C12H4Cl6)]\\@


 IF YOU GET CONFUSED, LOGIC OUT YOUR DILEMMA

           --  PICKER X-RAY CORP.    DIGITAL PRINTER MANUAL CA. 1964
 Job cpu time:       2 days  6 hours 44 minutes 52.3 seconds.
 Elapsed time:       0 days 13 hours 41 minutes 39.1 seconds.
 File lengths (MBytes):  RWF=    147 Int=      0 D2E=      0 Chk=     21 Scr=      1
 Normal termination of Gaussian 16 at Mon Apr  4 00:19:26 2022.
