 Entering Gaussian System, Link 0=g16
 Input=2,2prime,3,4,4prime,5-Hexachlorobiphenyl.gjf
 Output=2,2prime,3,4,4prime,5-Hexachlorobiphenyl.log
 Initial command:
 /opt/g16/l1.exe "/scratch/gour/Gau-78126.inp" -scrdir="/scratch/gour/"
 Entering Link 1 = /opt/g16/l1.exe PID=     78127.
  
 Copyright (c) 1988-2017, Gaussian, Inc.  All Rights Reserved.
  
 This is part of the Gaussian(R) 16 program.  It is based on
 the Gaussian(R) 09 system (copyright 2009, Gaussian, Inc.),
 the Gaussian(R) 03 system (copyright 2003, Gaussian, Inc.),
 the Gaussian(R) 98 system (copyright 1998, Gaussian, Inc.),
 the Gaussian(R) 94 system (copyright 1995, Gaussian, Inc.),
 the Gaussian 92(TM) system (copyright 1992, Gaussian, Inc.),
 the Gaussian 90(TM) system (copyright 1990, Gaussian, Inc.),
 the Gaussian 88(TM) system (copyright 1988, Gaussian, Inc.),
 the Gaussian 86(TM) system (copyright 1986, Carnegie Mellon
 University), and the Gaussian 82(TM) system (copyright 1983,
 Carnegie Mellon University). Gaussian is a federally registered
 trademark of Gaussian, Inc.
  
 This software contains proprietary and confidential information,
 including trade secrets, belonging to Gaussian, Inc.
  
 This software is provided under written license and may be
 used, copied, transmitted, or stored only in accord with that
 written license.
  
 The following legend is applicable only to US Government
 contracts under FAR:
  
                    RESTRICTED RIGHTS LEGEND
  
 Use, reproduction and disclosure by the US Government is
 subject to restrictions as set forth in subparagraphs (a)
 and (c) of the Commercial Computer Software - Restricted
 Rights clause in FAR 52.227-19.
  
 Gaussian, Inc.
 340 Quinnipiac St., Bldg. 40, Wallingford CT 06492
  
  
 ---------------------------------------------------------------
 Warning -- This program may not be used in any manner that
 competes with the business of Gaussian, Inc. or will provide
 assistance to any competitor of Gaussian, Inc.  The licensee
 of this program is prohibited from giving any competitor of
 Gaussian, Inc. access to this program.  By using this program,
 the user acknowledges that Gaussian, Inc. is engaged in the
 business of creating and licensing software in the field of
 computational chemistry and represents and warrants to the
 licensee that it is not a competitor of Gaussian, Inc. and that
 it will not use this program in any manner prohibited above.
 ---------------------------------------------------------------
  

 Cite this work as:
 Gaussian 16, Revision B.01,
 M. J. Frisch, G. W. Trucks, H. B. Schlegel, G. E. Scuseria, 
 M. A. Robb, J. R. Cheeseman, G. Scalmani, V. Barone, 
 G. A. Petersson, H. Nakatsuji, X. Li, M. Caricato, A. V. Marenich, 
 J. Bloino, B. G. Janesko, R. Gomperts, B. Mennucci, H. P. Hratchian, 
 J. V. Ortiz, A. F. Izmaylov, J. L. Sonnenberg, D. Williams-Young, 
 F. Ding, F. Lipparini, F. Egidi, J. Goings, B. Peng, A. Petrone, 
 T. Henderson, D. Ranasinghe, V. G. Zakrzewski, J. Gao, N. Rega, 
 G. Zheng, W. Liang, M. Hada, M. Ehara, K. Toyota, R. Fukuda, 
 J. Hasegawa, M. Ishida, T. Nakajima, Y. Honda, O. Kitao, H. Nakai, 
 T. Vreven, K. Throssell, J. A. Montgomery, Jr., J. E. Peralta, 
 F. Ogliaro, M. J. Bearpark, J. J. Heyd, E. N. Brothers, K. N. Kudin, 
 V. N. Staroverov, T. A. Keith, R. Kobayashi, J. Normand, 
 K. Raghavachari, A. P. Rendell, J. C. Burant, S. S. Iyengar, 
 J. Tomasi, M. Cossi, J. M. Millam, M. Klene, C. Adamo, R. Cammi, 
 J. W. Ochterski, R. L. Martin, K. Morokuma, O. Farkas, 
 J. B. Foresman, and D. J. Fox, Gaussian, Inc., Wallingford CT, 2016.
 
 ******************************************
 Gaussian 16:  EM64L-G16RevB.01 20-Dec-2017
                16-Mar-2022 
 ******************************************
 %mem=10GB
 %nprocshared=4
 Will use up to    4 processors via shared memory.
 --------------------------------
 # opt b3lyp/6-311+g(d,p) scf=xqc
 --------------------------------
 1/18=20,19=15,26=3,38=1/1,3;
 2/9=110,12=2,17=6,18=5,40=1/2;
 3/5=4,6=6,7=111,11=2,25=1,30=1,71=1,74=-5/1,2,3;
 4//1;
 5/5=2,8=3,13=1,38=5/2,8;
 6/7=2,8=2,9=2,10=2,28=1/1;
 7//1,2,3,16;
 1/18=20,19=15,26=3/3(2);
 2/9=110/2;
 99//99;
 2/9=110/2;
 3/5=4,6=6,7=111,11=2,25=1,30=1,71=1,74=-5/1,2,3;
 4/5=5,16=3,69=1/1;
 5/5=2,8=3,13=1,38=5/2,8;
 7//1,2,3,16;
 1/18=20,19=15,26=3/3(-5);
 2/9=110/2;
 6/7=2,8=2,9=2,10=2,19=2,28=1/1;
 99/9=1/99;
 -------------------
 Title Card Required
 -------------------
 Symbolic Z-matrix:
 Charge =  0 Multiplicity = 1
 C                     0.18192   0.69003  -0.00285 
 C                     1.51431   0.71992  -0.4362 
 C                     2.2222    1.92937  -0.44227 
 C                     1.59771   3.10893  -0.015 
 C                     0.26533   3.07905   0.41835 
 C                    -0.44256   1.8696    0.42442 
 C                    -0.59598  -0.63903   0.00382 
 C                     0.02851  -1.8186   -0.42345 
 C                    -0.67939  -3.02805  -0.41738 
 C                    -2.01177  -3.05794   0.01597 
 C                    -2.63625  -1.87837   0.44325 
 C                    -1.92836  -0.66892   0.43717 
 H                     1.99112  -0.18071  -0.76243 
 H                     3.2395    1.95219  -0.77314 
 H                    -0.21148   3.97967   0.74458 
 H                     1.04581  -1.79578  -0.75432 
 Cl                   -2.71265   0.81248   0.97378 
 Cl                   -2.11588   1.83206   0.96866 
 Cl                   -4.30957  -1.91591   0.98749 
 Cl                   -2.9008   -4.57687   0.0236 
 Cl                    2.48675   4.62787  -0.02262 
 Cl                    0.1049   -4.50945  -0.95399 
 

 GradGradGradGradGradGradGradGradGradGradGradGradGradGradGradGradGradGrad
 Berny optimization.
 Initialization pass.
                           ----------------------------
                           !    Initial Parameters    !
                           ! (Angstroms and Degrees)  !
 --------------------------                            --------------------------
 ! Name  Definition              Value          Derivative Info.                !
 --------------------------------------------------------------------------------
 ! R1    R(1,2)                  1.4014         estimate D2E/DX2                !
 ! R2    R(1,6)                  1.4014         estimate D2E/DX2                !
 ! R3    R(1,7)                  1.54           estimate D2E/DX2                !
 ! R4    R(2,3)                  1.4014         estimate D2E/DX2                !
 ! R5    R(2,13)                 1.07           estimate D2E/DX2                !
 ! R6    R(3,4)                  1.4014         estimate D2E/DX2                !
 ! R7    R(3,14)                 1.07           estimate D2E/DX2                !
 ! R8    R(4,5)                  1.4014         estimate D2E/DX2                !
 ! R9    R(4,21)                 1.76           estimate D2E/DX2                !
 ! R10   R(5,6)                  1.4014         estimate D2E/DX2                !
 ! R11   R(5,15)                 1.07           estimate D2E/DX2                !
 ! R12   R(6,18)                 1.76           estimate D2E/DX2                !
 ! R13   R(7,8)                  1.4014         estimate D2E/DX2                !
 ! R14   R(7,12)                 1.4014         estimate D2E/DX2                !
 ! R15   R(8,9)                  1.4014         estimate D2E/DX2                !
 ! R16   R(8,16)                 1.07           estimate D2E/DX2                !
 ! R17   R(9,10)                 1.4014         estimate D2E/DX2                !
 ! R18   R(9,22)                 1.76           estimate D2E/DX2                !
 ! R19   R(10,11)                1.4014         estimate D2E/DX2                !
 ! R20   R(10,20)                1.76           estimate D2E/DX2                !
 ! R21   R(11,12)                1.4014         estimate D2E/DX2                !
 ! R22   R(11,19)                1.76           estimate D2E/DX2                !
 ! R23   R(12,17)                1.76           estimate D2E/DX2                !
 ! R24   R(17,18)                1.1814         estimate D2E/DX2                !
 ! A1    A(2,1,6)              120.0            estimate D2E/DX2                !
 ! A2    A(2,1,7)              120.0            estimate D2E/DX2                !
 ! A3    A(6,1,7)              120.0            estimate D2E/DX2                !
 ! A4    A(1,2,3)              120.0            estimate D2E/DX2                !
 ! A5    A(1,2,13)             120.0            estimate D2E/DX2                !
 ! A6    A(3,2,13)             120.0            estimate D2E/DX2                !
 ! A7    A(2,3,4)              120.0            estimate D2E/DX2                !
 ! A8    A(2,3,14)             120.0            estimate D2E/DX2                !
 ! A9    A(4,3,14)             120.0            estimate D2E/DX2                !
 ! A10   A(3,4,5)              120.0            estimate D2E/DX2                !
 ! A11   A(3,4,21)             120.0            estimate D2E/DX2                !
 ! A12   A(5,4,21)             120.0            estimate D2E/DX2                !
 ! A13   A(4,5,6)              120.0            estimate D2E/DX2                !
 ! A14   A(4,5,15)             120.0            estimate D2E/DX2                !
 ! A15   A(6,5,15)             120.0            estimate D2E/DX2                !
 ! A16   A(1,6,5)              120.0            estimate D2E/DX2                !
 ! A17   A(1,6,18)             120.0            estimate D2E/DX2                !
 ! A18   A(5,6,18)             120.0            estimate D2E/DX2                !
 ! A19   A(1,7,8)              120.0            estimate D2E/DX2                !
 ! A20   A(1,7,12)             120.0            estimate D2E/DX2                !
 ! A21   A(8,7,12)             120.0            estimate D2E/DX2                !
 ! A22   A(7,8,9)              120.0            estimate D2E/DX2                !
 ! A23   A(7,8,16)             120.0            estimate D2E/DX2                !
 ! A24   A(9,8,16)             120.0            estimate D2E/DX2                !
 ! A25   A(8,9,10)             120.0            estimate D2E/DX2                !
 ! A26   A(8,9,22)             120.0            estimate D2E/DX2                !
 ! A27   A(10,9,22)            120.0            estimate D2E/DX2                !
 ! A28   A(9,10,11)            120.0            estimate D2E/DX2                !
 ! A29   A(9,10,20)            120.0            estimate D2E/DX2                !
 ! A30   A(11,10,20)           120.0            estimate D2E/DX2                !
 ! A31   A(10,11,12)           120.0            estimate D2E/DX2                !
 ! A32   A(10,11,19)           120.0            estimate D2E/DX2                !
 ! A33   A(12,11,19)           120.0            estimate D2E/DX2                !
 ! A34   A(7,12,11)            120.0            estimate D2E/DX2                !
 ! A35   A(7,12,17)            120.0            estimate D2E/DX2                !
 ! A36   A(11,12,17)           120.0            estimate D2E/DX2                !
 ! A37   A(12,17,18)           120.0            estimate D2E/DX2                !
 ! A38   A(6,18,17)            120.0            estimate D2E/DX2                !
 ! D1    D(6,1,2,3)              0.0001         estimate D2E/DX2                !
 ! D2    D(6,1,2,13)           180.0            estimate D2E/DX2                !
 ! D3    D(7,1,2,3)           -180.0            estimate D2E/DX2                !
 ! D4    D(7,1,2,13)            -0.0001         estimate D2E/DX2                !
 ! D5    D(2,1,6,5)             -0.0001         estimate D2E/DX2                !
 ! D6    D(2,1,6,18)           180.0            estimate D2E/DX2                !
 ! D7    D(7,1,6,5)            180.0            estimate D2E/DX2                !
 ! D8    D(7,1,6,18)             0.0            estimate D2E/DX2                !
 ! D9    D(2,1,7,8)             -0.0001         estimate D2E/DX2                !
 ! D10   D(2,1,7,12)           179.9998         estimate D2E/DX2                !
 ! D11   D(6,1,7,8)            179.9999         estimate D2E/DX2                !
 ! D12   D(6,1,7,12)            -0.0002         estimate D2E/DX2                !
 ! D13   D(1,2,3,4)              0.0            estimate D2E/DX2                !
 ! D14   D(1,2,3,14)           180.0            estimate D2E/DX2                !
 ! D15   D(13,2,3,4)          -179.9999         estimate D2E/DX2                !
 ! D16   D(13,2,3,14)            0.0001         estimate D2E/DX2                !
 ! D17   D(2,3,4,5)             -0.0001         estimate D2E/DX2                !
 ! D18   D(2,3,4,21)           180.0            estimate D2E/DX2                !
 ! D19   D(14,3,4,5)           179.9999         estimate D2E/DX2                !
 ! D20   D(14,3,4,21)            0.0            estimate D2E/DX2                !
 ! D21   D(3,4,5,6)              0.0001         estimate D2E/DX2                !
 ! D22   D(3,4,5,15)          -179.9999         estimate D2E/DX2                !
 ! D23   D(21,4,5,6)          -180.0            estimate D2E/DX2                !
 ! D24   D(21,4,5,15)            0.0            estimate D2E/DX2                !
 ! D25   D(4,5,6,1)              0.0            estimate D2E/DX2                !
 ! D26   D(4,5,6,18)           179.9999         estimate D2E/DX2                !
 ! D27   D(15,5,6,1)           180.0            estimate D2E/DX2                !
 ! D28   D(15,5,6,18)           -0.0001         estimate D2E/DX2                !
 ! D29   D(1,6,18,17)            0.0006         estimate D2E/DX2                !
 ! D30   D(5,6,18,17)         -179.9994         estimate D2E/DX2                !
 ! D31   D(1,7,8,9)            179.9999         estimate D2E/DX2                !
 ! D32   D(1,7,8,16)             0.0001         estimate D2E/DX2                !
 ! D33   D(12,7,8,9)             0.0001         estimate D2E/DX2                !
 ! D34   D(12,7,8,16)         -179.9998         estimate D2E/DX2                !
 ! D35   D(1,7,12,11)         -179.9999         estimate D2E/DX2                !
 ! D36   D(1,7,12,17)            0.0            estimate D2E/DX2                !
 ! D37   D(8,7,12,11)           -0.0001         estimate D2E/DX2                !
 ! D38   D(8,7,12,17)          179.9999         estimate D2E/DX2                !
 ! D39   D(7,8,9,10)             0.0            estimate D2E/DX2                !
 ! D40   D(7,8,9,22)           180.0            estimate D2E/DX2                !
 ! D41   D(16,8,9,10)          179.9998         estimate D2E/DX2                !
 ! D42   D(16,8,9,22)           -0.0002         estimate D2E/DX2                !
 ! D43   D(8,9,10,11)            0.0            estimate D2E/DX2                !
 ! D44   D(8,9,10,20)         -179.9999         estimate D2E/DX2                !
 ! D45   D(22,9,10,11)         180.0            estimate D2E/DX2                !
 ! D46   D(22,9,10,20)           0.0001         estimate D2E/DX2                !
 ! D47   D(9,10,11,12)           0.0            estimate D2E/DX2                !
 ! D48   D(9,10,11,19)        -179.9998         estimate D2E/DX2                !
 ! D49   D(20,10,11,12)        179.9999         estimate D2E/DX2                !
 ! D50   D(20,10,11,19)          0.0001         estimate D2E/DX2                !
 ! D51   D(10,11,12,7)           0.0            estimate D2E/DX2                !
 ! D52   D(10,11,12,17)       -179.9999         estimate D2E/DX2                !
 ! D53   D(19,11,12,7)         179.9999         estimate D2E/DX2                !
 ! D54   D(19,11,12,17)         -0.0001         estimate D2E/DX2                !
 ! D55   D(7,12,17,18)           0.0005         estimate D2E/DX2                !
 ! D56   D(11,12,17,18)       -179.9995         estimate D2E/DX2                !
 ! D57   D(12,17,18,6)          -0.0008         estimate D2E/DX2                !
 --------------------------------------------------------------------------------
 Trust Radius=3.00D-01 FncErr=1.00D-07 GrdErr=1.00D-06 EigMax=2.50D+02 EigMin=1.00D-04
 Number of steps in this run=    129 maximum allowed number of steps=    132.
 GradGradGradGradGradGradGradGradGradGradGradGradGradGradGradGradGradGrad

                          Input orientation:                          
 ---------------------------------------------------------------------
 Center     Atomic      Atomic             Coordinates (Angstroms)
 Number     Number       Type             X           Y           Z
 ---------------------------------------------------------------------
      1          6           0        0.181924    0.690033   -0.002851
      2          6           0        1.514305    0.719918   -0.436198
      3          6           0        2.222199    1.929369   -0.442270
      4          6           0        1.597712    3.108935   -0.014995
      5          6           0        0.265330    3.079049    0.418350
      6          6           0       -0.442564    1.869598    0.424422
      7          6           0       -0.595981   -0.639035    0.003823
      8          6           0        0.028507   -1.818600   -0.423452
      9          6           0       -0.679386   -3.028051   -0.417378
     10          6           0       -2.011766   -3.057937    0.015972
     11          6           0       -2.636253   -1.878373    0.443247
     12          6           0       -1.928360   -0.668921    0.437173
     13          1           0        1.991116   -0.180706   -0.762430
     14          1           0        3.239502    1.952188   -0.773139
     15          1           0       -0.211481    3.979674    0.744581
     16          1           0        1.045809   -1.795781   -0.754322
     17         17           0       -2.712645    0.812479    0.973785
     18         17           0       -2.115884    1.832065    0.968656
     19         17           0       -4.309571   -1.915907    0.987490
     20         17           0       -2.900799   -4.576872    0.023603
     21         17           0        2.486746    4.627868   -0.022621
     22         17           0        0.104899   -4.509451   -0.953987
 ---------------------------------------------------------------------
                    Distance matrix (angstroms):
                    1          2          3          4          5
     1  C    0.000000
     2  C    1.401400   0.000000
     3  C    2.427296   1.401400   0.000000
     4  C    2.802800   2.427296   1.401400   0.000000
     5  C    2.427296   2.802800   2.427296   1.401400   0.000000
     6  C    1.401400   2.427296   2.802800   2.427296   1.401400
     7  C    1.540000   2.548270   3.838989   4.342800   3.838989
     8  C    2.548270   2.941400   4.342800   5.187469   4.975106
     9  C    3.838989   4.342800   5.744200   6.558176   6.235992
    10  C    4.342800   5.187469   6.558176   7.145600   6.558176
    11  C    3.838989   4.975106   6.235992   6.558176   5.744200
    12  C    2.548270   3.813607   4.975106   5.187469   4.342800
    13  H    2.146700   1.070000   2.146700   3.396345   3.872800
    14  H    3.396345   2.146700   1.070000   2.146700   3.396345
    15  H    3.396345   3.872800   3.396345   2.146700   1.070000
    16  H    2.736837   2.578650   3.918930   4.990735   5.074276
    17  Cl   3.057342   4.456874   5.254079   4.983028   3.783409
    18  Cl   2.743718   4.048303   4.562800   4.048303   2.743718
    19  Cl   5.286324   6.549198   7.713260   7.819846   6.797295
    20  Cl   6.102800   6.910901   8.294174   8.905600   8.294174
    21  Cl   4.562800   4.048303   2.743718   1.760000   2.743718
    22  Cl   5.286324   5.440665   6.797295   7.819846   7.713260
                    6          7          8          9         10
     6  C    0.000000
     7  C    2.548270   0.000000
     8  C    3.813607   1.401400   0.000000
     9  C    4.975106   2.427296   1.401400   0.000000
    10  C    5.187469   2.802800   2.427296   1.401400   0.000000
    11  C    4.342800   2.427296   2.802800   2.427296   1.401400
    12  C    2.941400   1.401400   2.427296   2.802800   2.427296
    13  H    3.396345   2.736837   2.578650   3.918930   4.990735
    14  H    3.872800   4.693509   4.965039   6.347206   7.300676
    15  H    2.146700   4.693509   5.919617   7.118798   7.300676
    16  H    4.127917   2.146700   1.070000   2.146700   3.396345
    17  Cl   2.563702   2.743718   4.048303   4.562800   4.048303
    18  Cl   1.760000   3.057342   4.456874   5.254079   4.983028
    19  Cl   5.440665   4.048303   4.562800   4.048303   2.743718
    20  Cl   6.910901   4.562800   4.048303   2.743718   1.760000
    21  Cl   4.048303   6.102800   6.910901   8.294174   8.905600
    22  Cl   6.549198   4.048303   2.743718   1.760000   2.743718
                   11         12         13         14         15
    11  C    0.000000
    12  C    1.401400   0.000000
    13  H    5.074276   4.127917   0.000000
    14  H    7.118798   5.919617   2.471400   0.000000
    15  H    6.347206   4.965039   4.942800   4.280590   0.000000
    16  H    3.872800   3.396345   1.871400   4.342800   6.097816
    17  Cl   2.743718   1.760000   5.111382   6.307038   4.042212
    18  Cl   3.783409   2.563702   4.890333   5.632800   2.879094
    19  Cl   1.760000   2.743718   6.765486   8.663168   7.184095
    20  Cl   2.743718   4.048303   6.623817   8.998151   8.998151
    21  Cl   8.294174   6.910901   4.890332   2.879094   2.879094
    22  Cl   4.048303   4.562800   4.725732   7.184095   8.663168
                   16         17         18         19         20
    16  H    0.000000
    17  Cl   4.890332   0.000000
    18  Cl   5.111382   1.181400   0.000000
    19  Cl   5.632800   3.161400   4.342800   0.000000
    20  Cl   4.890332   5.475705   6.525618   3.161400   0.000000
    21  Cl   6.623817   6.525618   5.475705   9.488480  10.665600
    22  Cl   2.879094   6.322800   6.988795   5.475705   3.161400
                   21         22
    21  Cl   0.000000
    22  Cl   9.488480   0.000000
 Stoichiometry    C12H4Cl6
 Framework group  C1[X(C12H4Cl6)]
 Deg. of freedom    60
 Full point group                 C1      NOp   1
 Largest Abelian subgroup         C1      NOp   1
 Largest concise Abelian subgroup C1      NOp   1
                         Standard orientation:                         
 ---------------------------------------------------------------------
 Center     Atomic      Atomic             Coordinates (Angstroms)
 Number     Number       Type             X           Y           Z
 ---------------------------------------------------------------------
      1          6           0        1.422911    0.567568    0.000002
      2          6           0        2.064805    1.813318   -0.000001
      3          6           0        3.464603    1.880297   -0.000002
      4          6           0        4.222508    0.701526   -0.000002
      5          6           0        3.580614   -0.544225    0.000002
      6          6           0        2.180815   -0.611204    0.000004
      7          6           0       -0.115329    0.493965    0.000003
      8          6           0       -0.873234    1.672736    0.000002
      9          6           0       -2.273032    1.605758    0.000002
     10          6           0       -2.914926    0.360007    0.000001
     11          6           0       -2.157022   -0.818765    0.000000
     12          6           0       -0.757223   -0.751786    0.000001
     13          1           0        1.486128    2.713337   -0.000003
     14          1           0        3.954703    2.831455   -0.000005
     15          1           0        4.159291   -1.444243    0.000005
     16          1           0       -0.383134    2.623895    0.000001
     17         17           0        0.194619   -2.232190   -0.000002
     18         17           0        1.374669   -2.175725    0.000008
     19         17           0       -2.963168   -2.383286   -0.000005
     20         17           0       -4.672915    0.275889   -0.000003
     21         17           0        5.980496    0.785644   -0.000005
     22         17           0       -3.224875    3.086161    0.000002
 ---------------------------------------------------------------------
 Rotational constants (GHZ):           0.4579893           0.1377820           0.1059176
 Standard basis: 6-311+G(d,p) (5D, 7F)
 There are   486 symmetry adapted cartesian basis functions of A   symmetry.
 There are   468 symmetry adapted basis functions of A   symmetry.
   468 basis functions,   782 primitive gaussians,   486 cartesian basis functions
    89 alpha electrons       89 beta electrons
       nuclear repulsion energy      2105.6303983693 Hartrees.
 NAtoms=   22 NActive=   22 NUniq=   22 SFac= 1.00D+00 NAtFMM=   60 NAOKFM=F Big=F
 Integral buffers will be    131072 words long.
 Raffenetti 2 integral format.
 Two-electron integral symmetry is turned on.
 One-electron integrals computed using PRISM.
 NBasis=   468 RedAO= T EigKep=  1.28D-06  NBF=   468
 NBsUse=   461 1.00D-06 EigRej=  6.61D-07 NBFU=   461
 ExpMin= 4.38D-02 ExpMax= 1.06D+05 ExpMxC= 3.62D+03 IAcc=3 IRadAn=         5 AccDes= 0.00D+00
 Harris functional with IExCor=  402 and IRadAn=       5 diagonalized for initial guess.
 HarFok:  IExCor=  402 AccDes= 0.00D+00 IRadAn=         5 IDoV= 1 UseB2=F ITyADJ=14
 ICtDFT=  3500011 ScaDFX=  1.000000  1.000000  1.000000  1.000000
 FoFCou: FMM=F IPFlag=           0 FMFlag=      100000 FMFlg1=           0
         NFxFlg=           0 DoJE=T BraDBF=F KetDBF=T FulRan=T
         wScrn=  0.000000 ICntrl=       500 IOpCl=  0 I1Cent=   200000004 NGrid=           0
         NMat0=    1 NMatS0=      1 NMatT0=    0 NMatD0=    1 NMtDS0=    0 NMtDT0=    0
 Petite list used in FoFCou.
 Requested convergence on RMS density matrix=1.00D-08 within  32 cycles.
 Requested convergence on MAX density matrix=1.00D-06.
 Requested convergence on             energy=1.00D-06.
 No special actions if energy rises.
 SCF Done:  E(RB3LYP) =  -3219.51586795     A.U. after   19 cycles
            NFock= 19  Conv=0.87D-08     -V/T= 2.0002
 QCSCF skips out because SCF is already converged.

 **********************************************************************

            Population analysis using the SCF Density.

 **********************************************************************

 Orbital symmetries:
       Occupied  (A) (A) (A) (A) (A) (A) (A) (A) (A) (A) (A) (A)
                 (A) (A) (A) (A) (A) (A) (A) (A) (A) (A) (A) (A)
                 (A) (A) (A) (A) (A) (A) (A) (A) (A) (A) (A) (A)
                 (A) (A) (A) (A) (A) (A) (A) (A) (A) (A) (A) (A)
                 (A) (A) (A) (A) (A) (A) (A) (A) (A) (A) (A) (A)
                 (A) (A) (A) (A) (A) (A) (A) (A) (A) (A) (A) (A)
                 (A) (A) (A) (A) (A) (A) (A) (A) (A) (A) (A) (A)
                 (A) (A) (A) (A) (A)
       Virtual   (A) (A) (A) (A) (A) (A) (A) (A) (A) (A) (A) (A)
                 (A) (A) (A) (A) (A) (A) (A) (A) (A) (A) (A) (A)
                 (A) (A) (A) (A) (A) (A) (A) (A) (A) (A) (A) (A)
                 (A) (A) (A) (A) (A) (A) (A) (A) (A) (A) (A) (A)
                 (A) (A) (A) (A) (A) (A) (A) (A) (A) (A) (A) (A)
                 (A) (A) (A) (A) (A) (A) (A) (A) (A) (A) (A) (A)
                 (A) (A) (A) (A) (A) (A) (A) (A) (A) (A) (A) (A)
                 (A) (A) (A) (A) (A) (A) (A) (A) (A) (A) (A) (A)
                 (A) (A) (A) (A) (A) (A) (A) (A) (A) (A) (A) (A)
                 (A) (A) (A) (A) (A) (A) (A) (A) (A) (A) (A) (A)
                 (A) (A) (A) (A) (A) (A) (A) (A) (A) (A) (A) (A)
                 (A) (A) (A) (A) (A) (A) (A) (A) (A) (A) (A) (A)
                 (A) (A) (A) (A) (A) (A) (A) (A) (A) (A) (A) (A)
                 (A) (A) (A) (A) (A) (A) (A) (A) (A) (A) (A) (A)
                 (A) (A) (A) (A) (A) (A) (A) (A) (A) (A) (A) (A)
                 (A) (A) (A) (A) (A) (A) (A) (A) (A) (A) (A) (A)
                 (A) (A) (A) (A) (A) (A) (A) (A) (A) (A) (A) (A)
                 (A) (A) (A) (A) (A) (A) (A) (A) (A) (A) (A) (A)
                 (A) (A) (A) (A) (A) (A) (A) (A) (A) (A) (A) (A)
                 (A) (A) (A) (A) (A) (A) (A) (A) (A) (A) (A) (A)
                 (A) (A) (A) (A) (A) (A) (A) (A) (A) (A) (A) (A)
                 (A) (A) (A) (A) (A) (A) (A) (A) (A) (A) (A) (A)
                 (A) (A) (A) (A) (A) (A) (A) (A) (A) (A) (A) (A)
                 (A) (A) (A) (A) (A) (A) (A) (A) (A) (A) (A) (A)
                 (A) (A) (A) (A) (A) (A) (A) (A) (A) (A) (A) (A)
                 (A) (A) (A) (A) (A) (A) (A) (A) (A) (A) (A) (A)
                 (A) (A) (A) (A) (A) (A) (A) (A) (A) (A) (A) (A)
                 (A) (A) (A) (A) (A) (A) (A) (A) (A) (A) (A) (A)
                 (A) (A) (A) (A) (A) (A) (A) (A) (A) (A) (A) (A)
                 (A) (A) (A) (A) (A) (A) (A) (A) (A) (A) (A) (A)
                 (A) (A) (A) (A) (A) (A) (A) (A) (A) (A) (A) (A)
 The electronic state is 1-A.
 Alpha  occ. eigenvalues -- -101.67007-101.66608-101.56959-101.56721-101.56402
 Alpha  occ. eigenvalues -- -101.56367 -10.26523 -10.26336 -10.26327 -10.25616
 Alpha  occ. eigenvalues --  -10.22124 -10.21408 -10.20645 -10.20506 -10.20171
 Alpha  occ. eigenvalues --  -10.20117 -10.18643 -10.18585  -9.65659  -9.63508
 Alpha  occ. eigenvalues --   -9.48418  -9.48148  -9.47844  -9.47808  -7.44044
 Alpha  occ. eigenvalues --   -7.39125  -7.39031  -7.38645  -7.38416  -7.37955
 Alpha  occ. eigenvalues --   -7.24877  -7.24640  -7.24303  -7.24298  -7.23910
 Alpha  occ. eigenvalues --   -7.23856  -7.23627  -7.23572  -7.23331  -7.23299
 Alpha  occ. eigenvalues --   -7.23294  -7.23217  -1.40099  -0.93791  -0.90948
 Alpha  occ. eigenvalues --   -0.89118  -0.87703  -0.86223  -0.84647  -0.81749
 Alpha  occ. eigenvalues --   -0.80828  -0.77582  -0.74566  -0.73257  -0.72852
 Alpha  occ. eigenvalues --   -0.71138  -0.66157  -0.64065  -0.61569  -0.59288
 Alpha  occ. eigenvalues --   -0.58098  -0.52753  -0.51944  -0.49928  -0.48554
 Alpha  occ. eigenvalues --   -0.48116  -0.46160  -0.45201  -0.44201  -0.43321
 Alpha  occ. eigenvalues --   -0.41961  -0.41593  -0.40909  -0.38244  -0.37902
 Alpha  occ. eigenvalues --   -0.37069  -0.36427  -0.35051  -0.34379  -0.33797
 Alpha  occ. eigenvalues --   -0.33468  -0.32709  -0.30923  -0.30536  -0.28322
 Alpha  occ. eigenvalues --   -0.27862  -0.25221  -0.21825  -0.17115
 Alpha virt. eigenvalues --   -0.07312  -0.06188  -0.03642  -0.02713  -0.02711
 Alpha virt. eigenvalues --   -0.00467  -0.00160   0.00204   0.00769   0.01385
 Alpha virt. eigenvalues --    0.01715   0.01921   0.02456   0.03265   0.03293
 Alpha virt. eigenvalues --    0.04856   0.05051   0.05530   0.05641   0.05952
 Alpha virt. eigenvalues --    0.06109   0.07098   0.07598   0.08044   0.08237
 Alpha virt. eigenvalues --    0.09268   0.09306   0.09564   0.09569   0.09846
 Alpha virt. eigenvalues --    0.10413   0.10806   0.11381   0.11585   0.11995
 Alpha virt. eigenvalues --    0.12506   0.12572   0.13133   0.13758   0.13802
 Alpha virt. eigenvalues --    0.14349   0.14876   0.14955   0.15028   0.15447
 Alpha virt. eigenvalues --    0.15870   0.16061   0.16563   0.17310   0.17653
 Alpha virt. eigenvalues --    0.18000   0.18191   0.18520   0.18972   0.18999
 Alpha virt. eigenvalues --    0.19101   0.19726   0.19866   0.20683   0.21101
 Alpha virt. eigenvalues --    0.21666   0.22099   0.22112   0.22161   0.23157
 Alpha virt. eigenvalues --    0.23756   0.24261   0.24534   0.24826   0.25031
 Alpha virt. eigenvalues --    0.25384   0.25996   0.26113   0.26412   0.26625
 Alpha virt. eigenvalues --    0.27853   0.28129   0.28278   0.28795   0.29928
 Alpha virt. eigenvalues --    0.30210   0.31143   0.31793   0.32044   0.32237
 Alpha virt. eigenvalues --    0.33125   0.33908   0.34225   0.34982   0.36229
 Alpha virt. eigenvalues --    0.37559   0.39190   0.40565   0.42653   0.42805
 Alpha virt. eigenvalues --    0.43593   0.43948   0.44171   0.45091   0.45433
 Alpha virt. eigenvalues --    0.45996   0.46152   0.46651   0.47261   0.47910
 Alpha virt. eigenvalues --    0.48130   0.48919   0.49753   0.49914   0.50563
 Alpha virt. eigenvalues --    0.50905   0.51809   0.52429   0.53902   0.54164
 Alpha virt. eigenvalues --    0.54438   0.55516   0.56818   0.56973   0.58296
 Alpha virt. eigenvalues --    0.58436   0.58838   0.60207   0.61236   0.61441
 Alpha virt. eigenvalues --    0.61599   0.62433   0.62471   0.64448   0.64910
 Alpha virt. eigenvalues --    0.64924   0.66179   0.66208   0.66901   0.67545
 Alpha virt. eigenvalues --    0.69507   0.70133   0.70459   0.71222   0.72157
 Alpha virt. eigenvalues --    0.74076   0.76528   0.77935   0.78517   0.80420
 Alpha virt. eigenvalues --    0.81895   0.83225   0.83432   0.83507   0.84160
 Alpha virt. eigenvalues --    0.84549   0.85026   0.85321   0.85551   0.85761
 Alpha virt. eigenvalues --    0.85802   0.86141   0.86592   0.86781   0.87891
 Alpha virt. eigenvalues --    0.88417   0.89820   0.89859   0.90270   0.91072
 Alpha virt. eigenvalues --    0.91523   0.92543   0.93525   0.94080   0.94733
 Alpha virt. eigenvalues --    0.95232   0.95882   0.95907   0.96518   0.97041
 Alpha virt. eigenvalues --    0.97671   0.98848   0.99441   0.99905   1.00079
 Alpha virt. eigenvalues --    1.01966   1.04957   1.05773   1.06205   1.08383
 Alpha virt. eigenvalues --    1.09305   1.09492   1.11252   1.11874   1.14655
 Alpha virt. eigenvalues --    1.16037   1.18105   1.18867   1.21969   1.23928
 Alpha virt. eigenvalues --    1.24701   1.25613   1.26850   1.27770   1.28432
 Alpha virt. eigenvalues --    1.28852   1.29674   1.30506   1.31052   1.33909
 Alpha virt. eigenvalues --    1.34461   1.37688   1.39362   1.41495   1.43423
 Alpha virt. eigenvalues --    1.45445   1.48196   1.49439   1.49916   1.50796
 Alpha virt. eigenvalues --    1.53447   1.55016   1.57134   1.59458   1.60068
 Alpha virt. eigenvalues --    1.61026   1.63546   1.65660   1.68243   1.68740
 Alpha virt. eigenvalues --    1.70197   1.71713   1.74804   1.77748   1.78106
 Alpha virt. eigenvalues --    1.81653   1.82537   1.85019   1.85742   1.87525
 Alpha virt. eigenvalues --    1.88219   1.89656   1.90654   1.91474   1.93498
 Alpha virt. eigenvalues --    1.94025   1.95711   1.97497   1.99475   2.00071
 Alpha virt. eigenvalues --    2.00951   2.05938   2.06801   2.06877   2.09396
 Alpha virt. eigenvalues --    2.12507   2.16796   2.19410   2.19627   2.22999
 Alpha virt. eigenvalues --    2.23750   2.25277   2.25359   2.26076   2.26918
 Alpha virt. eigenvalues --    2.27923   2.28735   2.29038   2.32648   2.32948
 Alpha virt. eigenvalues --    2.35407   2.35439   2.36680   2.40411   2.41421
 Alpha virt. eigenvalues --    2.42718   2.44037   2.44347   2.47362   2.49040
 Alpha virt. eigenvalues --    2.51299   2.52730   2.55237   2.56709   2.59990
 Alpha virt. eigenvalues --    2.60905   2.62816   2.63563   2.63578   2.65952
 Alpha virt. eigenvalues --    2.69157   2.71823   2.73212   2.73900   2.74181
 Alpha virt. eigenvalues --    2.75356   2.76290   2.79411   2.80159   2.82143
 Alpha virt. eigenvalues --    2.84338   2.85941   2.86103   2.90929   2.92344
 Alpha virt. eigenvalues --    2.94833   3.00502   3.02421   3.06621   3.08294
 Alpha virt. eigenvalues --    3.11989   3.13456   3.16071   3.17971   3.19178
 Alpha virt. eigenvalues --    3.21578   3.23781   3.35099   3.35350   3.40166
 Alpha virt. eigenvalues --    3.44273   3.52052   3.55039   3.59659   3.68906
 Alpha virt. eigenvalues --    3.71014   3.79382   3.87494   3.92568   4.07014
 Alpha virt. eigenvalues --    4.08411   4.19455   4.46269   4.80617   4.84122
 Alpha virt. eigenvalues --    9.72574   9.77349   9.78494   9.80789   9.82091
 Alpha virt. eigenvalues --   10.54654  23.33621  23.54574  23.82438  23.84393
 Alpha virt. eigenvalues --   23.85564  23.93868  23.95718  23.99987  24.01598
 Alpha virt. eigenvalues --   24.05044  24.08309  24.12162  25.40418  25.77208
 Alpha virt. eigenvalues --   25.81938  25.82185  25.89310  25.97379  26.11726
 Alpha virt. eigenvalues --   26.12707  26.14755  26.20493  26.25173  26.48070
 Alpha virt. eigenvalues --   26.60793  26.64722  26.86433  27.11183  27.42064
 Alpha virt. eigenvalues --   28.45447 215.72318 215.76580 215.78704 215.81086
 Alpha virt. eigenvalues --  215.90508 216.86631
          Condensed to atoms (all electrons):
               1          2          3          4          5          6
     1  C   18.503177  -4.554184   4.903607  -6.062545  -6.965596   8.300373
     2  C   -4.554184  18.387370  -8.087655   3.933018   1.457274  -2.024987
     3  C    4.903607  -8.087655  24.304792  -5.911876  -5.887558  -0.102397
     4  C   -6.062545   3.933018  -5.911876  19.138956   4.675768  -8.292163
     5  C   -6.965596   1.457274  -5.887558   4.675768  21.167460 -10.727278
     6  C    8.300373  -2.024987  -0.102397  -8.292163 -10.727278  34.484550
     7  C    5.907135  -2.054194   0.922296  -1.900573  -2.893728   0.232874
     8  C   -2.467534  -0.651504  -1.471306  -0.727683  -0.329704  -1.902785
     9  C   -2.608089  -1.018803   1.268782  -0.566206  -1.238501  -2.568329
    10  C   -1.896136   0.560602  -0.982196   0.228845   0.475383   0.083469
    11  C   -0.559937  -0.747152   0.670070  -0.372015  -0.742269  -0.693555
    12  C    3.624397  -1.789701   0.467250  -2.147522  -6.237974   6.742859
    13  H    0.050169   0.448682  -0.289171   0.017285  -0.012324   0.017790
    14  H    0.024901  -0.037831   0.266898   0.033753   0.031069   0.018577
    15  H    0.138972  -0.028927   0.049939   0.000814   0.217205   0.014764
    16  H    0.113327   0.079448  -0.023836   0.017934   0.008024   0.071088
    17  Cl  -0.684589   0.053208  -0.292387   0.567225  -0.151631   0.943702
    18  Cl  -9.176895   2.454500  -3.663232   3.739398  13.715655 -17.688865
    19  Cl   0.399608  -0.066727   0.103543  -0.061919  -0.344118   0.021675
    20  Cl  -0.078254  -0.052627  -0.031817   0.004696   0.029077   0.022708
    21  Cl  -0.323565   0.028999   0.208284  -0.767208   0.364116  -0.221473
    22  Cl  -0.257233  -0.068217   0.077505  -0.015434  -0.030663  -0.164035
               7          8          9         10         11         12
     1  C    5.907135  -2.467534  -2.608089  -1.896136  -0.559937   3.624397
     2  C   -2.054194  -0.651504  -1.018803   0.560602  -0.747152  -1.789701
     3  C    0.922296  -1.471306   1.268782  -0.982196   0.670070   0.467250
     4  C   -1.900573  -0.727683  -0.566206   0.228845  -0.372015  -2.147522
     5  C   -2.893728  -0.329704  -1.238501   0.475383  -0.742269  -6.237974
     6  C    0.232874  -1.902785  -2.568329   0.083469  -0.693555   6.742859
     7  C   18.717066  -1.374291  -5.019409   0.989036  -0.524480  -1.214475
     8  C   -1.374291  12.478220   2.560918  -3.945528   1.538231   2.833637
     9  C   -5.019409   2.560918  22.255942  -7.388025   1.951784   2.645201
    10  C    0.989036  -3.945528  -7.388025  25.035386  -4.347131  -4.749294
    11  C   -0.524480   1.538231   1.951784  -4.347131  15.335621  -3.342088
    12  C   -1.214475   2.833637   2.645201  -4.749294  -3.342088  34.375676
    13  H    0.025052   0.051356  -0.042392   0.016337  -0.019529   0.017001
    14  H    0.003430   0.011423   0.001170   0.000445  -0.000161   0.003216
    15  H    0.015559   0.001855   0.000747  -0.000435   0.001451   0.012380
    16  H    0.132177   0.218395  -0.329174   0.066019  -0.061923   0.007595
    17  Cl  -1.641538  -0.654324  -3.079911   1.049621   1.113082 -10.080536
    18  Cl  -2.586304   0.412034  -2.186063   1.922612  -0.017737 -18.514867
    19  Cl  -0.251182   0.099285   1.656765  -0.875966  -3.102245   4.413840
    20  Cl   0.101245  -0.238976  -1.228000   0.353234   0.536438  -0.515375
    21  Cl  -0.062210  -0.032404  -0.001830  -0.001895  -0.001624  -0.040508
    22  Cl  -1.025828   0.252764   0.891323  -0.618523   0.117182   0.064248
              13         14         15         16         17         18
     1  C    0.050169   0.024901   0.138972   0.113327  -0.684589  -9.176895
     2  C    0.448682  -0.037831  -0.028927   0.079448   0.053208   2.454500
     3  C   -0.289171   0.266898   0.049939  -0.023836  -0.292387  -3.663232
     4  C    0.017285   0.033753   0.000814   0.017934   0.567225   3.739398
     5  C   -0.012324   0.031069   0.217205   0.008024  -0.151631  13.715655
     6  C    0.017790   0.018577   0.014764   0.071088   0.943702 -17.688865
     7  C    0.025052   0.003430   0.015559   0.132177  -1.641538  -2.586304
     8  C    0.051356   0.011423   0.001855   0.218395  -0.654324   0.412034
     9  C   -0.042392   0.001170   0.000747  -0.329174  -3.079911  -2.186063
    10  C    0.016337   0.000445  -0.000435   0.066019   1.049621   1.922612
    11  C   -0.019529  -0.000161   0.001451  -0.061923   1.113082  -0.017737
    12  C    0.017001   0.003216   0.012380   0.007595 -10.080536 -18.514867
    13  H    0.573781  -0.007533   0.000057   0.005566   0.008560   0.020545
    14  H   -0.007533   0.514879  -0.000353   0.000051  -0.001343   0.003301
    15  H    0.000057  -0.000353   0.514867  -0.000003   0.044530  -0.112222
    16  H    0.005566   0.000051  -0.000003   0.562223   0.029648   0.012406
    17  Cl   0.008560  -0.001343   0.044530   0.029648  30.556790   0.651153
    18  Cl   0.020545   0.003301  -0.112222   0.012406   0.651153  50.420603
    19  Cl  -0.000651  -0.000005   0.000160  -0.002780  -2.672313  -2.857788
    20  Cl   0.000450   0.000001  -0.000005   0.002703   0.377493   0.225843
    21  Cl  -0.000284  -0.013200  -0.013627   0.000065  -0.016571   0.007734
    22  Cl  -0.001909  -0.000004   0.000005  -0.040560  -0.107721  -0.049094
              19         20         21         22
     1  C    0.399608  -0.078254  -0.323565  -0.257233
     2  C   -0.066727  -0.052627   0.028999  -0.068217
     3  C    0.103543  -0.031817   0.208284   0.077505
     4  C   -0.061919   0.004696  -0.767208  -0.015434
     5  C   -0.344118   0.029077   0.364116  -0.030663
     6  C    0.021675   0.022708  -0.221473  -0.164035
     7  C   -0.251182   0.101245  -0.062210  -1.025828
     8  C    0.099285  -0.238976  -0.032404   0.252764
     9  C    1.656765  -1.228000  -0.001830   0.891323
    10  C   -0.875966   0.353234  -0.001895  -0.618523
    11  C   -3.102245   0.536438  -0.001624   0.117182
    12  C    4.413840  -0.515375  -0.040508   0.064248
    13  H   -0.000651   0.000450  -0.000284  -0.001909
    14  H   -0.000005   0.000001  -0.013200  -0.000004
    15  H    0.000160  -0.000005  -0.013627   0.000005
    16  H   -0.002780   0.002703   0.000065  -0.040560
    17  Cl  -2.672313   0.377493  -0.016571  -0.107721
    18  Cl  -2.857788   0.225843   0.007734  -0.049094
    19  Cl  20.742378  -1.030126  -0.000134   0.108550
    20  Cl  -1.030126  18.269589  -0.000005  -0.382152
    21  Cl  -0.000134  -0.000005  17.457753   0.000013
    22  Cl   0.108550  -0.382152   0.000013  17.698339
 Mulliken charges:
               1
     1  C   -0.331108
     2  C   -0.220592
     3  C   -0.499535
     4  C    0.467449
     5  C   -0.579690
     6  C   -0.568561
     7  C   -0.497661
     8  C   -0.662081
     9  C    0.042100
    10  C    0.024140
    11  C   -0.732014
    12  C   -0.574960
    13  H    0.121162
    14  H    0.147316
    15  H    0.142267
    16  H    0.131607
    17  Cl   0.987849
    18  Cl   0.267283
    19  Cl   0.720151
    20  Cl   0.633859
    21  Cl   0.429576
    22  Cl   0.551442
 Sum of Mulliken charges =  -0.00000
 Mulliken charges with hydrogens summed into heavy atoms:
               1
     1  C   -0.331108
     2  C   -0.099431
     3  C   -0.352218
     4  C    0.467449
     5  C   -0.437422
     6  C   -0.568561
     7  C   -0.497661
     8  C   -0.530475
     9  C    0.042100
    10  C    0.024140
    11  C   -0.732014
    12  C   -0.574960
    17  Cl   0.987849
    18  Cl   0.267283
    19  Cl   0.720151
    20  Cl   0.633859
    21  Cl   0.429576
    22  Cl   0.551442
 Electronic spatial extent (au):  <R**2>=           8776.1255
 Charge=             -0.0000 electrons
 Dipole moment (field-independent basis, Debye):
    X=              2.0601    Y=             -2.0111    Z=              0.0000  Tot=              2.8790
 Quadrupole moment (field-independent basis, Debye-Ang):
   XX=           -165.5650   YY=           -132.3119   ZZ=           -146.2481
   XY=             -1.7338   XZ=              0.0000   YZ=             -0.0000
 Traceless Quadrupole moment (field-independent basis, Debye-Ang):
   XX=            -17.5233   YY=             15.7297   ZZ=              1.7936
   XY=             -1.7338   XZ=              0.0000   YZ=             -0.0000
 Octapole moment (field-independent basis, Debye-Ang**2):
  XXX=            -52.1900  YYY=            -36.5644  ZZZ=             -0.0000  XYY=             23.3241
  XXY=            -18.2489  XXZ=              0.0000  XZZ=             -9.1023  YZZ=            -13.7920
  YYZ=             -0.0000  XYZ=             -0.0001
 Hexadecapole moment (field-independent basis, Debye-Ang**3):
 XXXX=          -9137.6869 YYYY=          -2510.3623 ZZZZ=           -173.1507 XXXY=            -54.4457
 XXXZ=              0.0005 YYYX=             -0.3355 YYYZ=             -0.0002 ZZZX=              0.0000
 ZZZY=             -0.0001 XXYY=          -1874.1804 XXZZ=          -1529.1365 YYZZ=           -484.2430
 XXYZ=             -0.0001 YYXZ=              0.0000 ZZXY=            -13.8189
 N-N= 2.105630398369D+03 E-N=-1.184012396339D+04  KE= 3.218857331122D+03
 Calling FoFJK, ICntrl=      2127 FMM=F ISym2X=0 I1Cent= 0 IOpClX= 0 NMat=1 NMatS=1 NMatT=0.
 ***** Axes restored to original set *****
 -------------------------------------------------------------------
 Center     Atomic                   Forces (Hartrees/Bohr)
 Number     Number              X              Y              Z
 -------------------------------------------------------------------
      1        6           0.001830614   -0.031352114   -0.006491300
      2        6          -0.006483139    0.020800238    0.006042597
      3        6          -0.009046738    0.000228038    0.003023420
      4        6          -0.008275153   -0.011603833    0.000546760
      5        6           0.004632324   -0.015254125   -0.004390873
      6        6           0.108067762   -0.006030091   -0.036736581
      7        6           0.023014476    0.007905558   -0.006097550
      8        6          -0.014567299   -0.003677858    0.004108562
      9        6           0.001310190    0.004307010    0.000377204
     10        6          -0.006268351   -0.008136111    0.000537150
     11        6           0.020985221    0.010120804   -0.005012901
     12        6           0.051383158   -0.103644337   -0.036393464
     13        1           0.007540231   -0.004232014   -0.003279047
     14        1           0.008527207    0.000871237   -0.002645695
     15        1          -0.005902184    0.011028845    0.004015843
     16        1           0.006605108   -0.005122761   -0.003138289
     17       17          -1.718609270   -2.708853813    0.057485909
     18       17           1.535371961    2.830377462    0.025706041
     19       17          -0.002210651    0.002653524    0.001226656
     20       17           0.002292707    0.003586111   -0.000081910
     21       17          -0.000466110   -0.001398593   -0.000109098
     22       17           0.000267936    0.007426824    0.001306567
 -------------------------------------------------------------------
 Cartesian Forces:  Max     2.830377462 RMS     0.559976053

 GradGradGradGradGradGradGradGradGradGradGradGradGradGradGradGradGradGrad
 Berny optimization.
 FormGI is forming the generalized inverse of G from B-inverse, IUseBI=4.
 Internal  Forces:  Max     3.118844714 RMS     0.292692120
 Search for a local minimum.
 Step number   1 out of a maximum of  129
 All quantities printed in internal units (Hartrees-Bohrs-Radians)
 Mixed Optimization -- RFO/linear search
 Second derivative matrix not updated -- first step.
 ITU=  0
     Eigenvalues ---    0.01035   0.01214   0.01489   0.01712   0.01738
     Eigenvalues ---    0.01829   0.02070   0.02070   0.02070   0.02070
     Eigenvalues ---    0.02070   0.02070   0.02070   0.02070   0.02070
     Eigenvalues ---    0.02070   0.02070   0.02070   0.03966   0.16000
     Eigenvalues ---    0.16000   0.16000   0.16000   0.22443   0.23514
     Eigenvalues ---    0.23535   0.24620   0.25000   0.25000   0.25000
     Eigenvalues ---    0.25000   0.25000   0.25000   0.25000   0.25000
     Eigenvalues ---    0.25000   0.28335   0.29044   0.29447   0.29539
     Eigenvalues ---    0.29539   0.29539   0.29539   0.37230   0.37230
     Eigenvalues ---    0.37230   0.37230   0.40065   0.40943   0.41416
     Eigenvalues ---    0.41634   0.44582   0.45130   0.45389   0.45389
     Eigenvalues ---    0.45389   0.45389   0.45389   0.45389  16.61567
 RFO step:  Lambda=-6.28726768D-01 EMin= 1.03510889D-02
 Linear search not attempted -- first point.
 Iteration  1 RMS(Cart)=  0.03362024 RMS(Int)=  0.00052173
 Iteration  2 RMS(Cart)=  0.00130739 RMS(Int)=  0.00023639
 Iteration  3 RMS(Cart)=  0.00000067 RMS(Int)=  0.00023639
 Variable       Old X    -DE/DX   Delta X   Delta X   Delta X     New X
                                 (Linear)    (Quad)   (Total)
    R1        2.64826   0.01839   0.00000   0.00243   0.00237   2.65063
    R2        2.64826   0.10209   0.00000   0.01687   0.01655   2.66481
    R3        2.91018   0.11833   0.00000  -0.01403  -0.01455   2.89563
    R4        2.64826  -0.01116   0.00000  -0.00801  -0.00800   2.64026
    R5        2.02201   0.00792   0.00000   0.00791   0.00791   2.02992
    R6        2.64826  -0.03032   0.00000  -0.01116  -0.01108   2.63718
    R7        2.02201   0.00894   0.00000   0.00893   0.00893   2.03094
    R8        2.64826  -0.02719   0.00000  -0.01057  -0.01051   2.63775
    R9        3.32592  -0.00144   0.00000  -0.00156  -0.00156   3.32436
   R10        2.64826  -0.00808   0.00000  -0.00976  -0.00977   2.63849
   R11        2.02201   0.01314   0.00000   0.01312   0.01312   2.03513
   R12        3.32592   0.04691   0.00000   0.12171   0.12197   3.44788
   R13        2.64826   0.01497   0.00000  -0.00088  -0.00095   2.64731
   R14        2.64826   0.10080   0.00000   0.01556   0.01520   2.66346
   R15        2.64826  -0.01336   0.00000  -0.01006  -0.01005   2.63821
   R16        2.02201   0.00714   0.00000   0.00713   0.00713   2.02914
   R17        2.64826  -0.02354   0.00000  -0.00476  -0.00468   2.64359
   R18        3.32592  -0.00653   0.00000  -0.00707  -0.00707   3.31885
   R19        2.64826  -0.01917   0.00000  -0.00300  -0.00293   2.64533
   R20        3.32592  -0.00425   0.00000  -0.00460  -0.00460   3.32132
   R21        2.64826  -0.01214   0.00000  -0.01349  -0.01350   2.63476
   R22        3.32592   0.00242   0.00000   0.00262   0.00262   3.32854
   R23        3.32592   0.06308   0.00000   0.13924   0.13946   3.46538
   R24        2.23252   3.11884   0.00000   0.18087   0.18138   2.41391
    A1        2.09440  -0.08176   0.00000  -0.01217  -0.01188   2.08251
    A2        2.09440  -0.16620   0.00000  -0.00157  -0.00092   2.09348
    A3        2.09440   0.24796   0.00000   0.01374   0.01280   2.10719
    A4        2.09440   0.04823   0.00000   0.00807   0.00791   2.10231
    A5        2.09440  -0.01929   0.00000   0.00208   0.00216   2.09656
    A6        2.09440  -0.02894   0.00000  -0.01015  -0.01007   2.08432
    A7        2.09440   0.00408   0.00000  -0.00313  -0.00315   2.09124
    A8        2.09440  -0.00134   0.00000   0.00245   0.00246   2.09686
    A9        2.09440  -0.00274   0.00000   0.00068   0.00069   2.09509
   A10        2.09440  -0.00257   0.00000   0.00480   0.00483   2.09922
   A11        2.09440   0.00074   0.00000  -0.00302  -0.00303   2.09137
   A12        2.09440   0.00182   0.00000  -0.00179  -0.00180   2.09259
   A13        2.09440   0.01710   0.00000   0.00326   0.00320   2.09759
   A14        2.09440  -0.00849   0.00000  -0.00156  -0.00153   2.09287
   A15        2.09440  -0.00861   0.00000  -0.00170  -0.00167   2.09272
   A16        2.09440   0.01493   0.00000  -0.00083  -0.00090   2.09349
   A17        2.09440   0.07026   0.00000   0.03201   0.03185   2.12625
   A18        2.09440  -0.08519   0.00000  -0.03118  -0.03095   2.06345
   A19        2.09440  -0.17009   0.00000  -0.00583  -0.00515   2.08925
   A20        2.09440   0.24740   0.00000   0.01330   0.01234   2.10673
   A21        2.09440  -0.07731   0.00000  -0.00747  -0.00719   2.08720
   A22        2.09440   0.04666   0.00000   0.00601   0.00583   2.10023
   A23        2.09440  -0.01791   0.00000   0.00386   0.00395   2.09835
   A24        2.09440  -0.02875   0.00000  -0.00988  -0.00979   2.08461
   A25        2.09440   0.00920   0.00000   0.00298   0.00296   2.09735
   A26        2.09440  -0.01089   0.00000  -0.00865  -0.00863   2.08576
   A27        2.09440   0.00169   0.00000   0.00567   0.00568   2.10007
   A28        2.09440  -0.01420   0.00000  -0.00804  -0.00801   2.08639
   A29        2.09440   0.00680   0.00000   0.00368   0.00366   2.09806
   A30        2.09440   0.00740   0.00000   0.00436   0.00434   2.09874
   A31        2.09440   0.02528   0.00000   0.01269   0.01263   2.10703
   A32        2.09440  -0.00807   0.00000  -0.00115  -0.00112   2.09328
   A33        2.09440  -0.01721   0.00000  -0.01155  -0.01152   2.08288
   A34        2.09440   0.01038   0.00000  -0.00617  -0.00622   2.08817
   A35        2.09440   0.06555   0.00000   0.02677   0.02655   2.12094
   A36        2.09440  -0.07593   0.00000  -0.02059  -0.02032   2.07407
   A37        2.09440  -0.31513   0.00000  -0.04238  -0.04126   2.05313
   A38        2.09440  -0.31603   0.00000  -0.04343  -0.04227   2.05212
    D1        0.00000   0.00000   0.00000   0.00000   0.00000   0.00000
    D2        3.14159   0.00000   0.00000   0.00000   0.00000   3.14159
    D3       -3.14159   0.00000   0.00000   0.00000   0.00000  -3.14159
    D4       -0.00000   0.00000   0.00000   0.00000   0.00000  -0.00000
    D5       -0.00000  -0.00000   0.00000  -0.00000  -0.00000  -0.00000
    D6        3.14159  -0.00000   0.00000   0.00000   0.00000   3.14159
    D7        3.14159  -0.00000   0.00000  -0.00000  -0.00000   3.14159
    D8        0.00000  -0.00000   0.00000   0.00000   0.00000   0.00000
    D9       -0.00000  -0.00000   0.00000  -0.00000  -0.00000  -0.00000
   D10        3.14159  -0.00000   0.00000  -0.00000  -0.00000   3.14159
   D11        3.14159  -0.00000   0.00000  -0.00000  -0.00000   3.14159
   D12       -0.00000  -0.00000   0.00000  -0.00000  -0.00000  -0.00000
   D13        0.00000  -0.00000   0.00000  -0.00000  -0.00000   0.00000
   D14        3.14159  -0.00000   0.00000   0.00000   0.00000   3.14159
   D15       -3.14159   0.00000   0.00000  -0.00000  -0.00000  -3.14159
   D16        0.00000   0.00000   0.00000  -0.00000  -0.00000   0.00000
   D17       -0.00000  -0.00000   0.00000   0.00000   0.00000  -0.00000
   D18        3.14159   0.00000   0.00000  -0.00000  -0.00000   3.14159
   D19        3.14159  -0.00000   0.00000   0.00000   0.00000   3.14159
   D20        0.00000   0.00000   0.00000  -0.00000  -0.00000   0.00000
   D21        0.00000   0.00000   0.00000  -0.00000  -0.00000   0.00000
   D22       -3.14159   0.00000   0.00000  -0.00000  -0.00000  -3.14159
   D23       -3.14159  -0.00000   0.00000  -0.00000  -0.00000  -3.14159
   D24        0.00000   0.00000   0.00000   0.00000   0.00000   0.00000
   D25       -0.00000   0.00000   0.00000   0.00000   0.00000  -0.00000
   D26        3.14159   0.00000   0.00000   0.00000   0.00000   3.14159
   D27        3.14159  -0.00000   0.00000   0.00000   0.00000   3.14159
   D28       -0.00000   0.00000   0.00000  -0.00000  -0.00000  -0.00000
   D29        0.00001  -0.00000   0.00000  -0.00000  -0.00000   0.00001
   D30       -3.14158  -0.00000   0.00000  -0.00000  -0.00000  -3.14158
   D31        3.14159   0.00000   0.00000   0.00000   0.00000   3.14159
   D32        0.00000   0.00000   0.00000   0.00000   0.00000   0.00000
   D33        0.00000   0.00000   0.00000   0.00000   0.00000   0.00000
   D34       -3.14159   0.00000   0.00000  -0.00000  -0.00000  -3.14159
   D35       -3.14159  -0.00000   0.00000  -0.00000  -0.00000  -3.14159
   D36        0.00000  -0.00000   0.00000   0.00000   0.00000   0.00000
   D37       -0.00000  -0.00000   0.00000  -0.00000  -0.00000  -0.00000
   D38        3.14159  -0.00000   0.00000   0.00000   0.00000   3.14159
   D39       -0.00000  -0.00000   0.00000  -0.00000  -0.00000  -0.00000
   D40        3.14159  -0.00000   0.00000  -0.00000  -0.00000   3.14159
   D41        3.14159   0.00000   0.00000   0.00000   0.00000   3.14159
   D42       -0.00000   0.00000   0.00000   0.00000   0.00000  -0.00000
   D43       -0.00000  -0.00000   0.00000  -0.00000  -0.00000  -0.00000
   D44       -3.14159  -0.00000   0.00000  -0.00000  -0.00000  -3.14159
   D45        3.14159  -0.00000   0.00000   0.00000   0.00000   3.14159
   D46        0.00000   0.00000   0.00000  -0.00000  -0.00000   0.00000
   D47        0.00000   0.00000   0.00000   0.00000  -0.00000   0.00000
   D48       -3.14159   0.00000   0.00000  -0.00000  -0.00000  -3.14159
   D49        3.14159  -0.00000   0.00000   0.00000   0.00000   3.14159
   D50        0.00000   0.00000   0.00000   0.00000   0.00000   0.00000
   D51        0.00000   0.00000   0.00000   0.00000   0.00000   0.00000
   D52       -3.14159   0.00000   0.00000  -0.00000  -0.00000  -3.14159
   D53        3.14159   0.00000   0.00000   0.00000   0.00000   3.14159
   D54       -0.00000   0.00000   0.00000  -0.00000  -0.00000  -0.00000
   D55        0.00001  -0.00000   0.00000  -0.00000  -0.00000   0.00001
   D56       -3.14158  -0.00000   0.00000  -0.00000  -0.00000  -3.14158
   D57       -0.00001   0.00000   0.00000   0.00000   0.00000  -0.00001
         Item               Value     Threshold  Converged?
 Maximum Force            3.118845     0.000450     NO 
 RMS     Force            0.292692     0.000300     NO 
 Maximum Displacement     0.197966     0.001800     NO 
 RMS     Displacement     0.032858     0.001200     NO 
 Predicted change in Energy=-3.369682D-01
 GradGradGradGradGradGradGradGradGradGradGradGradGradGradGradGradGradGrad

                          Input orientation:                          
 ---------------------------------------------------------------------
 Center     Atomic      Atomic             Coordinates (Angstroms)
 Number     Number       Type             X           Y           Z
 ---------------------------------------------------------------------
      1          6           0        0.173226    0.686710   -0.000609
      2          6           0        1.506693    0.713622   -0.434872
      3          6           0        2.223770    1.912684   -0.445921
      4          6           0        1.610041    3.092221   -0.022196
      5          6           0        0.283602    3.078612    0.412248
      6          6           0       -0.438440    1.883651    0.425702
      7          6           0       -0.602345   -0.634798    0.006715
      8          6           0        0.026491   -1.811152   -0.421389
      9          6           0       -0.667744   -3.022382   -0.420149
     10          6           0       -1.998274   -3.069663    0.009325
     11          6           0       -2.627556   -1.894755    0.437305
     12          6           0       -1.942827   -0.680225    0.439816
     13          1           0        1.985358   -0.190535   -0.762378
     14          1           0        3.245257    1.927542   -0.779664
     15          1           0       -0.184235    3.992308    0.737977
     16          1           0        1.047380   -1.788325   -0.753439
     17         17           0       -2.817404    0.826977    1.011022
     18         17           0       -2.168418    1.927194    1.003829
     19         17           0       -4.302515   -1.942348    0.980200
     20         17           0       -2.873273   -4.593936    0.011330
     21         17           0        2.512739    4.602069   -0.036030
     22         17           0        0.141834   -4.483931   -0.961363
 ---------------------------------------------------------------------
                    Distance matrix (angstroms):
                    1          2          3          4          5
     1  C    0.000000
     2  C    1.402656   0.000000
     3  C    2.430235   1.397165   0.000000
     4  C    2.802032   2.416344   1.395534   0.000000
     5  C    2.429779   2.794055   2.420764   1.395839   0.000000
     6  C    1.410157   2.427570   2.801416   2.420233   1.396230
     7  C    1.532302   2.541904   3.831641   4.334301   3.839112
     8  C    2.537303   2.926716   4.323840   5.168178   4.966977
     9  C    3.826305   4.322744   5.719825   6.537205   6.230576
    10  C    4.338877   5.176423   6.546502   7.140711   6.570434
    11  C    3.834072   4.965515   6.229931   6.560358   5.762798
    12  C    2.557375   3.821920   4.986806   5.202660   4.368821
    13  H    2.152597   1.074188   2.140214   3.386033   3.868209
    14  H    3.403522   2.148275   1.074728   2.145732   3.393673
    15  H    3.405916   3.870994   3.394840   2.146496   1.076945
    16  H    2.730695   2.563628   3.895629   4.966994   5.062535
    17  Cl   3.160212   4.560842   5.358627   5.079482   3.878741
    18  Cl   2.833901   4.129051   4.625290   4.084944   2.772749
    19  Cl   5.282631   6.542439   7.712813   7.830070   6.823861
    20  Cl   6.096435   6.895895   8.277984   8.898215   8.306298
    21  Cl   4.561206   4.036239   2.735746   1.759174   2.736955
    22  Cl   5.259236   5.399498   6.746615   7.774043   7.687585
                    6          7          8          9         10
     6  C    0.000000
     7  C    2.558320   0.000000
     8  C    3.819070   1.400898   0.000000
     9  C    4.983694   2.426324   1.396080   0.000000
    10  C    5.209777   2.806634   2.422609   1.398926   0.000000
    11  C    4.366773   2.423711   2.790754   2.418188   1.399848
    12  C    2.972682   1.409444   2.428762   2.801978   2.428542
    13  H    3.404199   2.735887   2.565119   3.895565   4.975362
    14  H    3.876139   4.689138   4.946378   6.320014   7.286232
    15  H    2.146759   4.703156   5.921882   7.126073   7.327559
    16  H    4.132969   2.151755   1.073775   2.139072   3.391113
    17  Cl   2.668076   2.837589   4.135126   4.635392   4.105872
    18  Cl   1.824542   3.163958   4.563344   5.364517   5.097703
    19  Cl   5.465968   4.043343   4.552137   4.042154   2.742803
    20  Cl   6.932477   4.564198   4.042246   2.742319   1.757564
    21  Cl   4.038867   6.093468   6.889074   8.270143   8.899819
    22  Cl   6.542687   4.038167   2.729216   1.756261   2.742708
                   11         12         13         14         15
    11  C    0.000000
    12  C    1.394254   0.000000
    13  H    5.061875   4.137113   0.000000
    14  H    7.112024   5.933278   2.464527   0.000000
    15  H    6.381045   5.001411   4.945136   4.281111   0.000000
    16  H    3.864499   3.404861   1.852786   4.317292   6.095647
    17  Cl   2.788013   1.833799   5.219847   6.416670   4.126434
    18  Cl   3.890893   2.677244   4.985792   5.699888   2.876171
    19  Cl   1.761388   2.730036   6.755943   8.662680   7.227658
    20  Cl   2.743613   4.045549   6.602640   8.977290   9.026767
    21  Cl   8.297915   6.926840   4.875937   2.871005   2.871335
    22  Cl   4.040993   4.558211   4.676689   7.125393   8.651052
                   16         17         18         19         20
    16  H    0.000000
    17  Cl   4.988956   0.000000
    18  Cl   5.218661   1.277385   0.000000
    19  Cl   5.625887   3.142557   4.419081   0.000000
    20  Cl   4.881377   5.512604   6.633778   3.164232   0.000000
    21  Cl   6.595383   6.614988   5.490856   9.503147  10.657291
    22  Cl   2.851234   6.391646   7.092373   5.475541   3.170031
                   21         22
    21  Cl   0.000000
    22  Cl   9.435720   0.000000
 Stoichiometry    C12H4Cl6
 Framework group  C1[X(C12H4Cl6)]
 Deg. of freedom    60
 Full point group                 C1      NOp   1
 Largest Abelian subgroup         C1      NOp   1
 Largest concise Abelian subgroup C1      NOp   1
                         Standard orientation:                         
 ---------------------------------------------------------------------
 Center     Atomic      Atomic             Coordinates (Angstroms)
 Number     Number       Type             X           Y           Z
 ---------------------------------------------------------------------
      1          6           0        1.413303    0.569364    0.000002
      2          6           0        2.051400    1.818474   -0.000001
      3          6           0        3.446116    1.901173   -0.000002
      4          6           0        4.210518    0.733610   -0.000002
      5          6           0        3.587467   -0.515460    0.000002
      6          6           0        2.194104   -0.604899    0.000004
      7          6           0       -0.117053    0.492168    0.000002
      8          6           0       -0.871671    1.672451    0.000002
      9          6           0       -2.266666    1.617427    0.000002
     10          6           0       -2.921493    0.381225    0.000001
     11          6           0       -2.168364   -0.798763    0.000000
     12          6           0       -0.774817   -0.754379    0.000001
     13          1           0        1.469246    2.721233   -0.000003
     14          1           0        3.929812    2.860902   -0.000005
     15          1           0        4.183077   -1.412711    0.000005
     16          1           0       -0.381175    2.627651    0.000001
     17         17           0        0.160308   -2.331833   -0.000002
     18         17           0        1.435914   -2.264447    0.000008
     19         17           0       -2.982115   -2.360908   -0.000005
     20         17           0       -4.677642    0.310711   -0.000002
     21         17           0        5.966620    0.837519   -0.000005
     22         17           0       -3.191203    3.110639    0.000002
 ---------------------------------------------------------------------
 Rotational constants (GHZ):           0.4432792           0.1379237           0.1051934
 Standard basis: 6-311+G(d,p) (5D, 7F)
 There are   486 symmetry adapted cartesian basis functions of A   symmetry.
 There are   468 symmetry adapted basis functions of A   symmetry.
   468 basis functions,   782 primitive gaussians,   486 cartesian basis functions
    89 alpha electrons       89 beta electrons
       nuclear repulsion energy      2084.7396703447 Hartrees.
 NAtoms=   22 NActive=   22 NUniq=   22 SFac= 1.00D+00 NAtFMM=   60 NAOKFM=F Big=F
 Integral buffers will be    131072 words long.
 Raffenetti 2 integral format.
 Two-electron integral symmetry is turned on.
 One-electron integrals computed using PRISM.
 NBasis=   468 RedAO= T EigKep=  1.88D-06  NBF=   468
 NBsUse=   461 1.00D-06 EigRej=  6.84D-07 NBFU=   461
 Initial guess from the checkpoint file:  "/scratch/gour/Gau-78127.chk"
 B after Tr=     0.000000    0.000000   -0.000000
         Rot=    1.000000   -0.000000   -0.000000    0.000370 Ang=  -0.04 deg.
 ExpMin= 4.38D-02 ExpMax= 1.06D+05 ExpMxC= 3.62D+03 IAcc=3 IRadAn=         5 AccDes= 0.00D+00
 Harris functional with IExCor=  402 and IRadAn=       5 diagonalized for initial guess.
 HarFok:  IExCor=  402 AccDes= 0.00D+00 IRadAn=         5 IDoV= 1 UseB2=F ITyADJ=14
 ICtDFT=  3500011 ScaDFX=  1.000000  1.000000  1.000000  1.000000
 FoFCou: FMM=F IPFlag=           0 FMFlag=      100000 FMFlg1=           0
         NFxFlg=           0 DoJE=T BraDBF=F KetDBF=T FulRan=T
         wScrn=  0.000000 ICntrl=       500 IOpCl=  0 I1Cent=   200000004 NGrid=           0
         NMat0=    1 NMatS0=      1 NMatT0=    0 NMatD0=    1 NMtDS0=    0 NMtDT0=    0
 Petite list used in FoFCou.
 Requested convergence on RMS density matrix=1.00D-08 within  32 cycles.
 Requested convergence on MAX density matrix=1.00D-06.
 Requested convergence on             energy=1.00D-06.
 No special actions if energy rises.
 SCF Done:  E(RB3LYP) =  -3220.02563021     A.U. after   16 cycles
            NFock= 16  Conv=0.72D-08     -V/T= 2.0009
 QCSCF skips out because SCF is already converged.
 Calling FoFJK, ICntrl=      2127 FMM=F ISym2X=0 I1Cent= 0 IOpClX= 0 NMat=1 NMatS=1 NMatT=0.
 ***** Axes restored to original set *****
 -------------------------------------------------------------------
 Center     Atomic                   Forces (Hartrees/Bohr)
 Number     Number              X              Y              Z
 -------------------------------------------------------------------
      1        6          -0.002017237   -0.025329124   -0.004092476
      2        6          -0.004792376    0.015158340    0.004425934
      3        6          -0.004373229   -0.000739214    0.001302051
      4        6          -0.004765310   -0.006947115    0.000265005
      5        6          -0.002130002   -0.009850498   -0.001148168
      6        6           0.088688708   -0.017974193   -0.032595089
      7        6           0.016716236    0.009974779   -0.003633880
      8        6          -0.009666079   -0.002243434    0.002763246
      9        6           0.001066575    0.002778140    0.000170323
     10        6          -0.006242556   -0.008488150    0.000462541
     11        6           0.017989062    0.010997639   -0.003861095
     12        6           0.053676620   -0.081331821   -0.032958739
     13        1           0.005611400   -0.002143166   -0.002251273
     14        1           0.005254009    0.000572405   -0.001623448
     15        1          -0.003430690    0.007341904    0.002509167
     16        1           0.004044487   -0.004554152   -0.002187896
     17       17          -1.108752814   -1.686109173    0.048635562
     18       17           0.955042271    1.789668675    0.021454783
     19       17          -0.004115608    0.001643794    0.001664614
     20       17           0.001913901    0.002752046   -0.000113750
     21       17           0.000084450   -0.000200575   -0.000065483
     22       17           0.000198181    0.005022893    0.000878070
 -------------------------------------------------------------------
 Cartesian Forces:  Max     1.789668675 RMS     0.352747421

 GradGradGradGradGradGradGradGradGradGradGradGradGradGradGradGradGradGrad
 Berny optimization.
 Using GEDIIS/GDIIS optimizer.
 FormGI is forming the generalized inverse of G from B-inverse, IUseBI=4.
 Internal  Forces:  Max     1.970471924 RMS     0.184918905
 Search for a local minimum.
 Step number   2 out of a maximum of  129
 All quantities printed in internal units (Hartrees-Bohrs-Radians)
 Mixed Optimization -- RFO/linear search
 Update second derivatives using D2CorX and points    1    2
 DE= -5.10D-01 DEPred=-3.37D-01 R= 1.51D+00
 TightC=F SS=  1.41D+00  RLast= 2.78D-01 DXNew= 5.0454D-01 8.3324D-01
 Trust test= 1.51D+00 RLast= 2.78D-01 DXMaxT set to 5.05D-01
 ITU=  1  0
 Use linear search instead of GDIIS.
 Linear search step of   0.555 exceeds DXMaxT=   0.505 but not scaled.
 Quartic linear search produced a step of  2.00000.
 Iteration  1 RMS(Cart)=  0.04154973 RMS(Int)=  0.01667050
 Iteration  2 RMS(Cart)=  0.02441240 RMS(Int)=  0.00131023
 Iteration  3 RMS(Cart)=  0.00025365 RMS(Int)=  0.00130323
 Iteration  4 RMS(Cart)=  0.00000016 RMS(Int)=  0.00130323
 Variable       Old X    -DE/DX   Delta X   Delta X   Delta X     New X
                                 (Linear)    (Quad)   (Total)
    R1        2.65063   0.01244   0.00475   0.00000   0.00441   2.65505
    R2        2.66481   0.06047   0.03310   0.00000   0.03134   2.69615
    R3        2.89563   0.06141  -0.02909   0.00000  -0.03177   2.86387
    R4        2.64026  -0.00715  -0.01600   0.00000  -0.01592   2.62434
    R5        2.02992   0.00499   0.01583   0.00000   0.01583   2.04575
    R6        2.63718  -0.01874  -0.02217   0.00000  -0.02175   2.61543
    R7        2.03094   0.00551   0.01787   0.00000   0.01787   2.04881
    R8        2.63775  -0.01588  -0.02102   0.00000  -0.02067   2.61708
    R9        3.32436  -0.00013  -0.00312   0.00000  -0.00312   3.32124
   R10        2.63849  -0.00620  -0.01954   0.00000  -0.01961   2.61888
   R11        2.03513   0.00848   0.02625   0.00000   0.02625   2.06138
   R12        3.44788   0.05648   0.24393   0.00000   0.24505   3.69293
   R13        2.64731   0.01042  -0.00190   0.00000  -0.00229   2.64503
   R14        2.66346   0.05961   0.03040   0.00000   0.02844   2.69191
   R15        2.63821  -0.00839  -0.02011   0.00000  -0.02003   2.61818
   R16        2.02914   0.00443   0.01427   0.00000   0.01427   2.04341
   R17        2.64359  -0.01474  -0.00935   0.00000  -0.00888   2.63470
   R18        3.31885  -0.00436  -0.01413   0.00000  -0.01413   3.30472
   R19        2.64533  -0.01096  -0.00587   0.00000  -0.00548   2.63985
   R20        3.32132  -0.00334  -0.00921   0.00000  -0.00921   3.31211
   R21        2.63476  -0.00983  -0.02701   0.00000  -0.02707   2.60768
   R22        3.32854   0.00438   0.00525   0.00000   0.00525   3.33379
   R23        3.46538   0.07185   0.27892   0.00000   0.27991   3.74529
   R24        2.41391   1.97047   0.36277   0.00000   0.36544   2.77935
    A1        2.08251  -0.05025  -0.02377   0.00000  -0.02227   2.06025
    A2        2.09348  -0.09772  -0.00183   0.00000   0.00178   2.09526
    A3        2.10719   0.14797   0.02560   0.00000   0.02049   2.12768
    A4        2.10231   0.03052   0.01582   0.00000   0.01494   2.11725
    A5        2.09656  -0.01117   0.00432   0.00000   0.00476   2.10132
    A6        2.08432  -0.01935  -0.02014   0.00000  -0.01970   2.06462
    A7        2.09124   0.00151  -0.00631   0.00000  -0.00642   2.08482
    A8        2.09686  -0.00024   0.00493   0.00000   0.00498   2.10184
    A9        2.09509  -0.00127   0.00138   0.00000   0.00143   2.09652
   A10        2.09922  -0.00212   0.00966   0.00000   0.00981   2.10903
   A11        2.09137   0.00075  -0.00606   0.00000  -0.00613   2.08523
   A12        2.09259   0.00137  -0.00360   0.00000  -0.00367   2.08892
   A13        2.09759   0.01135   0.00640   0.00000   0.00604   2.10364
   A14        2.09287  -0.00598  -0.00305   0.00000  -0.00287   2.08999
   A15        2.09272  -0.00537  -0.00335   0.00000  -0.00317   2.08955
   A16        2.09349   0.00899  -0.00180   0.00000  -0.00211   2.09139
   A17        2.12625   0.05519   0.06370   0.00000   0.06262   2.18887
   A18        2.06345  -0.06418  -0.06190   0.00000  -0.06051   2.00293
   A19        2.08925  -0.10070  -0.01029   0.00000  -0.00652   2.08273
   A20        2.10673   0.14758   0.02468   0.00000   0.01946   2.12620
   A21        2.08720  -0.04688  -0.01439   0.00000  -0.01295   2.07426
   A22        2.10023   0.02893   0.01166   0.00000   0.01068   2.11090
   A23        2.09835  -0.00968   0.00791   0.00000   0.00840   2.10675
   A24        2.08461  -0.01926  -0.01957   0.00000  -0.01908   2.06553
   A25        2.09735   0.00546   0.00591   0.00000   0.00580   2.10315
   A26        2.08576  -0.00713  -0.01727   0.00000  -0.01721   2.06855
   A27        2.10007   0.00167   0.01136   0.00000   0.01141   2.11149
   A28        2.08639  -0.01090  -0.01601   0.00000  -0.01579   2.07060
   A29        2.09806   0.00493   0.00733   0.00000   0.00722   2.10527
   A30        2.09874   0.00596   0.00869   0.00000   0.00858   2.10731
   A31        2.10703   0.01862   0.02527   0.00000   0.02492   2.13195
   A32        2.09328  -0.00633  -0.00223   0.00000  -0.00206   2.09122
   A33        2.08288  -0.01229  -0.02304   0.00000  -0.02286   2.06001
   A34        2.08817   0.00477  -0.01245   0.00000  -0.01266   2.07551
   A35        2.12094   0.05092   0.05309   0.00000   0.05170   2.17264
   A36        2.07407  -0.05569  -0.04065   0.00000  -0.03904   2.03503
   A37        2.05313  -0.20121  -0.08253   0.00000  -0.07623   1.97690
   A38        2.05212  -0.20046  -0.08454   0.00000  -0.07804   1.97408
    D1        0.00000   0.00000   0.00000   0.00000  -0.00000   0.00000
    D2        3.14159   0.00000   0.00000   0.00000   0.00000   3.14159
    D3       -3.14159   0.00000   0.00000   0.00000   0.00000  -3.14159
    D4       -0.00000   0.00000   0.00000   0.00000   0.00000  -0.00000
    D5       -0.00000  -0.00000  -0.00000   0.00000  -0.00000  -0.00000
    D6        3.14159  -0.00000   0.00000   0.00000   0.00000   3.14159
    D7        3.14159  -0.00000  -0.00000   0.00000  -0.00000   3.14159
    D8        0.00000  -0.00000   0.00000   0.00000   0.00000   0.00000
    D9       -0.00000  -0.00000  -0.00000   0.00000  -0.00000  -0.00000
   D10        3.14159  -0.00000  -0.00000   0.00000  -0.00000   3.14159
   D11        3.14159  -0.00000  -0.00000   0.00000  -0.00000   3.14159
   D12       -0.00000  -0.00000  -0.00000   0.00000  -0.00000  -0.00000
   D13        0.00000  -0.00000  -0.00000   0.00000   0.00000   0.00000
   D14        3.14159  -0.00000   0.00000   0.00000   0.00000   3.14159
   D15       -3.14159   0.00000  -0.00000   0.00000  -0.00000  -3.14159
   D16        0.00000   0.00000  -0.00000   0.00000  -0.00000   0.00000
   D17       -0.00000  -0.00000   0.00000   0.00000   0.00000  -0.00000
   D18        3.14159   0.00000  -0.00000   0.00000  -0.00000   3.14159
   D19        3.14159  -0.00000   0.00000   0.00000   0.00000   3.14159
   D20        0.00000   0.00000  -0.00000   0.00000  -0.00000   0.00000
   D21        0.00000   0.00000  -0.00000   0.00000  -0.00000   0.00000
   D22       -3.14159   0.00000  -0.00000   0.00000  -0.00000  -3.14159
   D23       -3.14159  -0.00000  -0.00000   0.00000  -0.00000  -3.14159
   D24        0.00000   0.00000   0.00000   0.00000   0.00000   0.00000
   D25       -0.00000   0.00000   0.00000   0.00000   0.00000  -0.00000
   D26        3.14159   0.00000   0.00000   0.00000   0.00000   3.14159
   D27        3.14159  -0.00000   0.00000   0.00000   0.00000   3.14159
   D28       -0.00000   0.00000  -0.00000   0.00000  -0.00000  -0.00000
   D29        0.00001  -0.00000  -0.00000   0.00000  -0.00000   0.00001
   D30       -3.14158  -0.00000  -0.00000   0.00000  -0.00000  -3.14158
   D31        3.14159   0.00000   0.00000   0.00000   0.00000   3.14159
   D32        0.00000   0.00000   0.00000   0.00000   0.00000   0.00000
   D33        0.00000   0.00000   0.00000   0.00000   0.00000   0.00000
   D34       -3.14159   0.00000  -0.00000   0.00000  -0.00000  -3.14159
   D35       -3.14159  -0.00000  -0.00000   0.00000  -0.00000  -3.14159
   D36        0.00000  -0.00000   0.00000   0.00000   0.00000   0.00000
   D37       -0.00000  -0.00000  -0.00000   0.00000  -0.00000  -0.00000
   D38        3.14159  -0.00000   0.00000   0.00000   0.00000   3.14159
   D39       -0.00000  -0.00000  -0.00000   0.00000  -0.00000  -0.00000
   D40        3.14159  -0.00000  -0.00000   0.00000  -0.00000   3.14159
   D41        3.14159   0.00000   0.00000   0.00000   0.00000   3.14159
   D42       -0.00000   0.00000   0.00000   0.00000   0.00000  -0.00000
   D43       -0.00000  -0.00000  -0.00000   0.00000  -0.00000  -0.00000
   D44       -3.14159  -0.00000  -0.00000   0.00000  -0.00000  -3.14159
   D45        3.14159  -0.00000   0.00000   0.00000   0.00000   3.14159
   D46        0.00000   0.00000  -0.00000   0.00000  -0.00000   0.00000
   D47        0.00000   0.00000  -0.00000   0.00000  -0.00000   0.00000
   D48       -3.14159   0.00000  -0.00000   0.00000  -0.00000  -3.14159
   D49        3.14159  -0.00000   0.00000   0.00000   0.00000   3.14159
   D50        0.00000   0.00000   0.00000   0.00000   0.00000   0.00000
   D51        0.00000   0.00000   0.00000   0.00000   0.00000   0.00000
   D52       -3.14159   0.00000  -0.00000   0.00000  -0.00000  -3.14159
   D53        3.14159   0.00000   0.00000   0.00000   0.00000   3.14159
   D54       -0.00000   0.00000  -0.00000   0.00000  -0.00000  -0.00000
   D55        0.00001  -0.00000  -0.00000   0.00000  -0.00000   0.00001
   D56       -3.14158  -0.00000  -0.00000   0.00000  -0.00000  -3.14158
[...]
                 (A) (A) (A) (A) (A) (A) (A) (A) (A) (A) (A) (A)
                 (A) (A) (A) (A) (A) (A) (A) (A) (A) (A) (A) (A)
                 (A) (A) (A) (A) (A) (A) (A) (A) (A) (A) (A) (A)
                 (A) (A) (A) (A) (A) (A) (A) (A) (A) (A) (A) (A)
                 (A) (A) (A) (A) (A) (A) (A) (A) (A) (A) (A) (A)
                 (A) (A) (A) (A) (A) (A) (A) (A) (A) (A) (A) (A)
                 (A) (A) (A) (A) (A) (A) (A) (A) (A) (A) (A) (A)
                 (A) (A) (A) (A) (A) (A) (A) (A) (A) (A) (A) (A)
                 (A) (A) (A) (A) (A) (A) (A) (A) (A) (A) (A) (A)
                 (A) (A) (A) (A) (A) (A) (A) (A) (A) (A) (A) (A)
                 (A) (A) (A) (A) (A) (A) (A) (A) (A) (A) (A) (A)
                 (A) (A) (A) (A) (A) (A) (A) (A) (A) (A) (A) (A)
                 (A) (A) (A) (A) (A) (A) (A) (A) (A) (A) (A) (A)
                 (A) (A) (A) (A) (A) (A) (A) (A) (A) (A) (A) (A)
                 (A) (A) (A) (A) (A) (A) (A) (A) (A) (A) (A) (A)
                 (A) (A) (A) (A) (A) (A) (A) (A) (A) (A) (A) (A)
                 (A) (A) (A) (A) (A) (A) (A) (A) (A) (A) (A) (A)
                 (A) (A) (A) (A) (A) (A) (A) (A) (A) (A) (A) (A)
                 (A) (A) (A) (A) (A) (A) (A) (A) (A) (A) (A) (A)
                 (A) (A) (A) (A) (A) (A) (A) (A) (A) (A) (A) (A)
                 (A) (A) (A) (A) (A) (A) (A) (A) (A) (A) (A) (A)
                 (A) (A) (A) (A) (A) (A) (A) (A) (A) (A) (A) (A)
                 (A) (A) (A) (A) (A) (A) (A) (A) (A) (A) (A) (A)
                 (A) (A) (A) (A) (A) (A) (A) (A) (A) (A) (A) (A)
                 (A) (A) (A) (A) (A) (A) (A) (A) (A) (A) (A) (A)
                 (A) (A) (A) (A) (A) (A) (A) (A) (A) (A) (A) (A)
                 (A) (A)
 The electronic state is 1-A.
 Alpha  occ. eigenvalues -- -101.58018-101.57965-101.57857-101.57726-101.57307
 Alpha  occ. eigenvalues -- -101.57258 -10.28213 -10.28134 -10.27677 -10.27527
 Alpha  occ. eigenvalues --  -10.26899 -10.26615 -10.23630 -10.22863 -10.22183
 Alpha  occ. eigenvalues --  -10.21669 -10.21637 -10.21229  -9.49482  -9.49432
 Alpha  occ. eigenvalues --   -9.49313  -9.49200  -9.48778  -9.48712  -7.25986
 Alpha  occ. eigenvalues --   -7.25936  -7.25804  -7.25689  -7.25246  -7.25180
 Alpha  occ. eigenvalues --   -7.24963  -7.24914  -7.24877  -7.24826  -7.24790
 Alpha  occ. eigenvalues --   -7.24731  -7.24681  -7.24608  -7.24260  -7.24213
 Alpha  occ. eigenvalues --   -7.24193  -7.24154  -0.96273  -0.93393  -0.91598
 Alpha  occ. eigenvalues --   -0.90035  -0.89137  -0.86870  -0.85752  -0.84455
 Alpha  occ. eigenvalues --   -0.79449  -0.77372  -0.75524  -0.73942  -0.65980
 Alpha  occ. eigenvalues --   -0.64688  -0.63821  -0.61181  -0.55611  -0.54726
 Alpha  occ. eigenvalues --   -0.52595  -0.52010  -0.49630  -0.48549  -0.46992
 Alpha  occ. eigenvalues --   -0.46727  -0.46368  -0.46041  -0.43844  -0.43647
 Alpha  occ. eigenvalues --   -0.42151  -0.40644  -0.40216  -0.40063  -0.38229
 Alpha  occ. eigenvalues --   -0.37908  -0.35701  -0.35547  -0.35160  -0.34395
 Alpha  occ. eigenvalues --   -0.34003  -0.33551  -0.33504  -0.33213  -0.31795
 Alpha  occ. eigenvalues --   -0.28437  -0.27812  -0.27135  -0.26765
 Alpha virt. eigenvalues --   -0.06369  -0.06034  -0.05079  -0.04905  -0.04706
 Alpha virt. eigenvalues --   -0.01891  -0.00818  -0.00246   0.00749   0.01358
 Alpha virt. eigenvalues --    0.01719   0.02039   0.02168   0.02531   0.03716
 Alpha virt. eigenvalues --    0.03798   0.04580   0.04801   0.05366   0.05615
 Alpha virt. eigenvalues --    0.06345   0.06559   0.07546   0.07939   0.08168
 Alpha virt. eigenvalues --    0.08223   0.08558   0.08769   0.09137   0.09656
 Alpha virt. eigenvalues --    0.09783   0.10374   0.10695   0.11061   0.11231
 Alpha virt. eigenvalues --    0.11495   0.11902   0.12097   0.12339   0.12969
 Alpha virt. eigenvalues --    0.13278   0.13804   0.14202   0.14329   0.14838
 Alpha virt. eigenvalues --    0.15249   0.15785   0.16175   0.16319   0.16906
 Alpha virt. eigenvalues --    0.17378   0.17730   0.17916   0.18246   0.18656
 Alpha virt. eigenvalues --    0.18779   0.19091   0.19305   0.19870   0.20134
 Alpha virt. eigenvalues --    0.20595   0.20877   0.21138   0.21934   0.22223
 Alpha virt. eigenvalues --    0.22292   0.22606   0.23457   0.23799   0.24132
 Alpha virt. eigenvalues --    0.24555   0.24779   0.25277   0.25897   0.26175
 Alpha virt. eigenvalues --    0.26412   0.27108   0.27212   0.27554   0.27957
 Alpha virt. eigenvalues --    0.28135   0.28386   0.28703   0.29235   0.29399
 Alpha virt. eigenvalues --    0.30111   0.30653   0.31684   0.32016   0.33393
 Alpha virt. eigenvalues --    0.34753   0.35189   0.39926   0.40519   0.42108
 Alpha virt. eigenvalues --    0.42792   0.43346   0.43771   0.44457   0.44956
 Alpha virt. eigenvalues --    0.45169   0.45350   0.45769   0.46266   0.47537
 Alpha virt. eigenvalues --    0.47675   0.47909   0.48427   0.48663   0.49751
 Alpha virt. eigenvalues --    0.49948   0.50432   0.50926   0.52798   0.53832
 Alpha virt. eigenvalues --    0.54771   0.55941   0.56316   0.56737   0.57298
 Alpha virt. eigenvalues --    0.57524   0.58032   0.59241   0.60608   0.60967
 Alpha virt. eigenvalues --    0.60993   0.61911   0.62841   0.63187   0.63649
 Alpha virt. eigenvalues --    0.64310   0.64846   0.65376   0.66626   0.67257
 Alpha virt. eigenvalues --    0.67478   0.68069   0.68782   0.69501   0.70048
 Alpha virt. eigenvalues --    0.70858   0.71458   0.74476   0.77722   0.78456
 Alpha virt. eigenvalues --    0.78751   0.80566   0.80920   0.82359   0.82879
 Alpha virt. eigenvalues --    0.83357   0.83499   0.83768   0.83846   0.84144
 Alpha virt. eigenvalues --    0.84290   0.84796   0.84860   0.85253   0.85560
 Alpha virt. eigenvalues --    0.86016   0.86220   0.87107   0.87741   0.88276
 Alpha virt. eigenvalues --    0.88911   0.89423   0.90389   0.90704   0.91417
 Alpha virt. eigenvalues --    0.91905   0.93201   0.93236   0.93822   0.94138
 Alpha virt. eigenvalues --    0.94550   0.94782   0.95364   0.95750   0.96517
 Alpha virt. eigenvalues --    0.97910   0.98463   0.98789   0.99373   1.00954
 Alpha virt. eigenvalues --    1.02138   1.03409   1.04540   1.06064   1.07312
 Alpha virt. eigenvalues --    1.09627   1.10924   1.14407   1.16267   1.18170
 Alpha virt. eigenvalues --    1.18711   1.19932   1.21331   1.22834   1.23622
 Alpha virt. eigenvalues --    1.24072   1.25041   1.26761   1.27515   1.27966
 Alpha virt. eigenvalues --    1.28710   1.30027   1.31185   1.31503   1.32539
 Alpha virt. eigenvalues --    1.36405   1.38211   1.39718   1.42530   1.44686
 Alpha virt. eigenvalues --    1.47204   1.48777   1.51337   1.54073   1.55053
 Alpha virt. eigenvalues --    1.55182   1.58007   1.59903   1.61108   1.62473
 Alpha virt. eigenvalues --    1.64841   1.67607   1.67916   1.68532   1.71854
 Alpha virt. eigenvalues --    1.72184   1.75875   1.77580   1.79537   1.80708
 Alpha virt. eigenvalues --    1.82710   1.83184   1.84026   1.85652   1.88184
 Alpha virt. eigenvalues --    1.88874   1.92024   1.92195   1.93095   1.95508
 Alpha virt. eigenvalues --    1.96606   1.99308   2.01838   2.02736   2.04756
 Alpha virt. eigenvalues --    2.05447   2.07356   2.12211   2.12987   2.13323
 Alpha virt. eigenvalues --    2.20650   2.22446   2.22677   2.24362   2.24604
 Alpha virt. eigenvalues --    2.26438   2.26887   2.28203   2.28372   2.29513
 Alpha virt. eigenvalues --    2.31334   2.33478   2.34699   2.35211   2.38283
 Alpha virt. eigenvalues --    2.39367   2.41628   2.42049   2.42659   2.45527
 Alpha virt. eigenvalues --    2.47808   2.49211   2.49873   2.51733   2.54028
 Alpha virt. eigenvalues --    2.54859   2.55952   2.58124   2.60150   2.62332
 Alpha virt. eigenvalues --    2.66193   2.67119   2.67368   2.68976   2.69747
 Alpha virt. eigenvalues --    2.70733   2.72925   2.73120   2.75014   2.75340
 Alpha virt. eigenvalues --    2.77464   2.81637   2.82510   2.83203   2.83876
 Alpha virt. eigenvalues --    2.87871   2.89764   2.96956   2.97848   3.05443
 Alpha virt. eigenvalues --    3.07665   3.09034   3.10962   3.11911   3.13668
 Alpha virt. eigenvalues --    3.14571   3.17229   3.21188   3.23864   3.27086
 Alpha virt. eigenvalues --    3.31905   3.36738   3.42708   3.50773   3.54179
 Alpha virt. eigenvalues --    3.61886   3.66206   3.71681   3.78984   3.83513
 Alpha virt. eigenvalues --    3.92151   4.02654   4.05421   4.11807   4.31719
 Alpha virt. eigenvalues --    4.80201   4.81102   9.73873   9.76495   9.78655
 Alpha virt. eigenvalues --    9.80579   9.81350   9.83287  23.32376  23.52814
 Alpha virt. eigenvalues --   23.79433  23.84823  23.85712  23.91024  23.94094
 Alpha virt. eigenvalues --   23.94434  24.02484  24.04736  24.10321  24.14671
 Alpha virt. eigenvalues --   25.76727  25.80192  25.81651  25.85388  25.89548
 Alpha virt. eigenvalues --   25.96326  26.07989  26.09857  26.10606  26.17528
 Alpha virt. eigenvalues --   26.23906  26.33863  26.47165  26.57307  26.59174
 Alpha virt. eigenvalues --   26.69428  26.79237  26.97976 215.72820 215.75560
 Alpha virt. eigenvalues --  215.78163 215.80381 215.81652 215.83554
          Condensed to atoms (all electrons):
               1          2          3          4          5          6
     1  C   23.990614  -0.711946  -2.899882  -5.082655   0.737735  -7.294178
     2  C   -0.711946  14.940362  -1.423147  -0.553881   2.575235  -7.216942
     3  C   -2.899882  -1.423147  19.375533  -2.615524 -10.606275   1.690661
     4  C   -5.082655  -0.553881  -2.615524  18.539009  -1.559409   0.409543
     5  C    0.737735   2.575235 -10.606275  -1.559409  25.191834  -7.927553
     6  C   -7.294178  -7.216942   1.690661   0.409543  -7.927553  40.072954
     7  C    4.300274  -1.050644   0.982410  -1.689302  -1.111117  -5.713218
     8  C   -3.047812  -0.140730   0.431227  -0.154882  -0.361561  -1.513059
     9  C    0.338511  -0.053609   0.160893   0.078809   0.045417   0.197535
    10  C   -0.690497   0.224361  -0.113114  -0.014584   0.079174   0.136135
    11  C   -2.850410  -0.093375   0.119943  -0.069289  -0.162312  -1.210571
    12  C   -0.135973  -0.071555   0.431351  -0.579114  -0.658200  -4.828172
    13  H    0.017660   0.344488  -0.044203  -0.019876  -0.031864  -0.094314
    14  H    0.026344  -0.058850   0.306141   0.031281   0.066288  -0.017487
    15  H    0.083381  -0.033367   0.081638   0.016964   0.199634  -0.004351
    16  H    0.076385   0.007444  -0.016705   0.009447   0.011570   0.076660
    17  Cl   0.125733   0.097934   0.139778  -0.016809   0.011741   0.076100
    18  Cl  -0.898685  -0.420238   0.483711  -0.396971  -0.590147   0.345807
    19  Cl  -0.124366  -0.007486   0.003033  -0.000075  -0.001618  -0.049850
    20  Cl  -0.048858  -0.000286   0.005152  -0.001876  -0.004337  -0.049598
    21  Cl  -0.226126   0.174851   0.166282  -1.240026   0.520255  -0.120159
    22  Cl  -0.059990   0.048125   0.011146   0.005121   0.007564  -0.082244
               7          8          9         10         11         12
     1  C    4.300274  -3.047812   0.338511  -0.690497  -2.850410  -0.135973
     2  C   -1.050644  -0.140730  -0.053609   0.224361  -0.093375  -0.071555
     3  C    0.982410   0.431227   0.160893  -0.113114   0.119943   0.431351
     4  C   -1.689302  -0.154882   0.078809  -0.014584  -0.069289  -0.579114
     5  C   -1.111117  -0.361561   0.045417   0.079174  -0.162312  -0.658200
     6  C   -5.713218  -1.513059   0.197535   0.136135  -1.210571  -4.828172
     7  C   21.671708  -1.562654  -8.210393   5.334432  -2.897084  -2.113582
     8  C   -1.562654  10.102507   0.735657  -3.579173   2.843396   2.320577
     9  C   -8.210393   0.735657  21.328499  -8.201995  -3.912081   3.944147
    10  C    5.334432  -3.579173  -8.201995  22.483823  -0.117162  -7.791233
    11  C   -2.897084   2.843396  -3.912081  -0.117162  14.462532  -0.346195
    12  C   -2.113582   2.320577   3.944147  -7.791233  -0.346195  17.457392
    13  H    0.097821   0.020160  -0.024462   0.005742   0.013776   0.073523
    14  H    0.003502  -0.001371  -0.000614   0.000129  -0.000024   0.002811
    15  H    0.013287  -0.001773  -0.000795   0.000202  -0.000104   0.004483
    16  H    0.059763   0.343808  -0.090245  -0.023951  -0.039020  -0.053039
    17  Cl  -0.778967  -0.076122   0.926523  -0.981086  -0.204328  -0.985169
    18  Cl  -0.084753   0.131999   0.134139  -0.064850   0.005635   0.065082
    19  Cl  -0.483402   0.182872  -0.110445  -0.255907  -0.190217   0.505399
    20  Cl   0.245538  -0.109314  -1.035441   0.373525   0.745653  -0.764727
    21  Cl  -0.034947   0.001221   0.007489  -0.001685  -0.001607  -0.035621
    22  Cl  -0.839440   0.236017   0.258894  -0.636256  -0.125547   0.389269
              13         14         15         16         17         18
     1  C    0.017660   0.026344   0.083381   0.076385   0.125733  -0.898685
     2  C    0.344488  -0.058850  -0.033367   0.007444   0.097934  -0.420238
     3  C   -0.044203   0.306141   0.081638  -0.016705   0.139778   0.483711
     4  C   -0.019876   0.031281   0.016964   0.009447  -0.016809  -0.396971
     5  C   -0.031864   0.066288   0.199634   0.011570   0.011741  -0.590147
     6  C   -0.094314  -0.017487  -0.004351   0.076660   0.076100   0.345807
     7  C    0.097821   0.003502   0.013287   0.059763  -0.778967  -0.084753
     8  C    0.020160  -0.001371  -0.001773   0.343808  -0.076122   0.131999
     9  C   -0.024462  -0.000614  -0.000795  -0.090245   0.926523   0.134139
    10  C    0.005742   0.000129   0.000202  -0.023951  -0.981086  -0.064850
    11  C    0.013776  -0.000024  -0.000104  -0.039020  -0.204328   0.005635
    12  C    0.073523   0.002811   0.004483  -0.053039  -0.985169   0.065082
    13  H    0.528614  -0.007078   0.000046  -0.000640  -0.013318  -0.001165
    14  H   -0.007078   0.506269  -0.000274   0.000009  -0.000808   0.000741
    15  H    0.000046  -0.000274   0.491423   0.000004  -0.001491  -0.006606
    16  H   -0.000640   0.000009   0.000004   0.506080  -0.001876  -0.009078
    17  Cl  -0.013318  -0.000808  -0.001491  -0.001876  18.275689   0.118696
    18  Cl  -0.001165   0.000741  -0.006606  -0.009078   0.118696  17.863186
    19  Cl   0.000547  -0.000001  -0.000006   0.000596  -0.243122  -0.007434
    20  Cl   0.000175  -0.000001  -0.000000  -0.001086  -0.042221   0.010833
    21  Cl  -0.000446  -0.012186  -0.013890   0.000014   0.009634  -0.023643
    22  Cl   0.000041  -0.000005  -0.000013  -0.007882   0.010046  -0.008268
              19         20         21         22
     1  C   -0.124366  -0.048858  -0.226126  -0.059990
     2  C   -0.007486  -0.000286   0.174851   0.048125
     3  C    0.003033   0.005152   0.166282   0.011146
     4  C   -0.000075  -0.001876  -1.240026   0.005121
     5  C   -0.001618  -0.004337   0.520255   0.007564
     6  C   -0.049850  -0.049598  -0.120159  -0.082244
     7  C   -0.483402   0.245538  -0.034947  -0.839440
     8  C    0.182872  -0.109314   0.001221   0.236017
     9  C   -0.110445  -1.035441   0.007489   0.258894
    10  C   -0.255907   0.373525  -0.001685  -0.636256
    11  C   -0.190217   0.745653  -0.001607  -0.125547
    12  C    0.505399  -0.764727  -0.035621   0.389269
    13  H    0.000547   0.000175  -0.000446   0.000041
    14  H   -0.000001  -0.000001  -0.012186  -0.000005
    15  H   -0.000006  -0.000000  -0.013890  -0.000013
    16  H    0.000596  -0.001086   0.000014  -0.007882
    17  Cl  -0.243122  -0.042221   0.009634   0.010046
    18  Cl  -0.007434   0.010833  -0.023643  -0.008268
    19  Cl  17.356154  -0.193743   0.000008   0.007965
    20  Cl  -0.193743  17.449811   0.000012  -0.195524
    21  Cl   0.000008   0.000012  17.422256   0.000139
    22  Cl   0.007965  -0.195524   0.000139  17.425710
 Mulliken charges:
               1
     1  C    0.374740
     2  C   -0.576744
     3  C   -0.670049
     4  C    0.904096
     5  C   -0.432056
     6  C   -0.883700
     7  C   -0.139233
     8  C   -0.800990
     9  C   -0.516434
    10  C   -0.166030
    11  C    0.028389
    12  C   -0.831455
    13  H    0.134770
    14  H    0.155180
    15  H    0.171609
    16  H    0.151741
    17  Cl   0.553441
    18  Cl   0.352006
    19  Cl   0.611098
    20  Cl   0.616312
    21  Cl   0.408176
    22  Cl   0.555132
 Sum of Mulliken charges =  -0.00000
 Mulliken charges with hydrogens summed into heavy atoms:
               1
     1  C    0.374740
     2  C   -0.441974
     3  C   -0.514869
     4  C    0.904096
     5  C   -0.260446
     6  C   -0.883700
     7  C   -0.139233
     8  C   -0.649249
     9  C   -0.516434
    10  C   -0.166030
    11  C    0.028389
    12  C   -0.831455
    17  Cl   0.553441
    18  Cl   0.352006
    19  Cl   0.611098
    20  Cl   0.616312
    21  Cl   0.408176
    22  Cl   0.555132
 Electronic spatial extent (au):  <R**2>=           8769.0596
 Charge=              0.0000 electrons
 Dipole moment (field-independent basis, Debye):
    X=              1.0789    Y=              0.9118    Z=              1.2163  Tot=              1.8641
 Quadrupole moment (field-independent basis, Debye-Ang):
   XX=           -150.5931   YY=           -146.1292   ZZ=           -141.1292
   XY=              1.1046   XZ=              1.4315   YZ=              1.2965
 Traceless Quadrupole moment (field-independent basis, Debye-Ang):
   XX=             -4.6426   YY=             -0.1787   ZZ=              4.8213
   XY=              1.1046   XZ=              1.4315   YZ=              1.2965
 Octapole moment (field-independent basis, Debye-Ang**2):
  XXX=            -40.8335  YYY=            -10.2961  ZZZ=              2.9843  XYY=             -9.5197
  XXY=             -9.9576  XXZ=             -7.6480  XZZ=              8.8170  YZZ=             -0.8584
  YYZ=             -3.2004  XYZ=              2.9375
 Hexadecapole moment (field-independent basis, Debye-Ang**3):
 XXXX=          -8654.5182 YYYY=          -1971.9831 ZZZZ=           -879.0304 XXXY=             -6.9125
 XXXZ=            -39.8882 YYYX=            -12.2495 YYYZ=             -9.0317 ZZZX=             25.9855
 ZZZY=              9.9901 XXYY=          -1778.4093 XXZZ=          -1540.4025 YYZZ=           -507.9481
 XXYZ=              6.3407 YYXZ=             -2.6122 ZZXY=              7.8715
 N-N= 2.008734159274D+03 E-N=-1.164643615792D+04  KE= 3.212690795075D+03
 1\1\GINC-LOCALHOST\FOpt\RB3LYP\6-311+G(d,p)\C12H4Cl6\GOUR\17-Mar-2022\
 0\\# opt b3lyp/6-311+g(d,p) scf=xqc\\Title Card Required\\0,1\C,0.0946
 17195,0.7020392,-0.0277378235\C,0.8342767967,1.0130849522,-1.173845337
 5\C,1.5412146497,2.205051684,-1.2879358156\C,1.5097246747,3.1066901875
 ,-0.2294912608\C,0.7916805748,2.8343177927,0.9288541794\C,0.0922778534
 ,1.6338797574,1.0162502341\C,-0.6299876584,-0.5997412745,0.0595643505\
 C,0.066689437,-1.7389263868,0.455507798\C,-0.5616448901,-2.9751598891,
 0.5347120582\C,-1.9172504605,-3.1017181442,0.2146577984\C,-2.632490685
 4,-1.9622704391,-0.19047651\C,-1.9864463614,-0.7204890698,-0.267046777
 6\H,0.8475641789,0.3059588638,-1.9950348234\H,2.1055092459,2.431001237
 2,-2.1829742213\H,0.7752693465,3.5378560904,1.7495703859\H,1.114181765
 4,-1.6613183212,0.7148282349\Cl,-2.8666625046,0.6943063435,-0.77923656
 1\Cl,-0.8005575893,1.3067040462,2.4899574315\Cl,-4.3148059759,-2.09823
 43734,-0.5993156677\Cl,-2.7038025779,-4.6455539924,0.3139225404\Cl,2.3
 934452468,4.6169803158,-0.3491918634\Cl,0.3805569487,-4.3529179102,1.0
 419209006\\Version=EM64L-G16RevB.01\State=1-A\HF=-3221.1315012\RMSD=5.
 937e-09\RMSF=1.071e-05\Dipole=0.6144732,0.1418496,-0.3743937\Quadrupol
 e=0.5816232,-3.428351,2.8467277,-1.145394,-1.9051657,0.2949144\PG=C01 
 [X(C12H4Cl6)]\\@


 THE PROGRESS OF RIVERS TO THE SEA IS NOT AS RAPID
 AS THAT OF MAN TO ERROR.
                                              -- VOLTAIRE
 Job cpu time:       1 days  2 hours 20 minutes  4.6 seconds.
 Elapsed time:       0 days  6 hours 36 minutes  9.2 seconds.
 File lengths (MBytes):  RWF=    148 Int=      0 D2E=      0 Chk=     23 Scr=      1
 Normal termination of Gaussian 16 at Thu Mar 17 06:13:11 2022.
