 Entering Gaussian System, Link 0=g16
 Input=2,2prime,3,4prime,5,6,6prime-Heptachlorobiphenyl.gjf
 Output=2,2prime,3,4prime,5,6,6prime-Heptachlorobiphenyl.log
 Initial command:
 /home/apps/g16/l1.exe "./Gau-385625.inp" -scrdir="./"
 Entering Link 1 = /home/apps/g16/l1.exe PID=    385626.
  
 Copyright (c) 1988-2017, Gaussian, Inc.  All Rights Reserved.
  
 This is part of the Gaussian(R) 16 program.  It is based on
 the Gaussian(R) 09 system (copyright 2009, Gaussian, Inc.),
 the Gaussian(R) 03 system (copyright 2003, Gaussian, Inc.),
 the Gaussian(R) 98 system (copyright 1998, Gaussian, Inc.),
 the Gaussian(R) 94 system (copyright 1995, Gaussian, Inc.),
 the Gaussian 92(TM) system (copyright 1992, Gaussian, Inc.),
 the Gaussian 90(TM) system (copyright 1990, Gaussian, Inc.),
 the Gaussian 88(TM) system (copyright 1988, Gaussian, Inc.),
 the Gaussian 86(TM) system (copyright 1986, Carnegie Mellon
 University), and the Gaussian 82(TM) system (copyright 1983,
 Carnegie Mellon University). Gaussian is a federally registered
 trademark of Gaussian, Inc.
  
 This software contains proprietary and confidential information,
 including trade secrets, belonging to Gaussian, Inc.
  
 This software is provided under written license and may be
 used, copied, transmitted, or stored only in accord with that
 written license.
  
 The following legend is applicable only to US Government
 contracts under FAR:
  
                    RESTRICTED RIGHTS LEGEND
  
 Use, reproduction and disclosure by the US Government is
 subject to restrictions as set forth in subparagraphs (a)
 and (c) of the Commercial Computer Software - Restricted
 Rights clause in FAR 52.227-19.
  
 Gaussian, Inc.
 340 Quinnipiac St., Bldg. 40, Wallingford CT 06492
  
  
 ---------------------------------------------------------------
 Warning -- This program may not be used in any manner that
 competes with the business of Gaussian, Inc. or will provide
 assistance to any competitor of Gaussian, Inc.  The licensee
 of this program is prohibited from giving any competitor of
 Gaussian, Inc. access to this program.  By using this program,
 the user acknowledges that Gaussian, Inc. is engaged in the
 business of creating and licensing software in the field of
 computational chemistry and represents and warrants to the
 licensee that it is not a competitor of Gaussian, Inc. and that
 it will not use this program in any manner prohibited above.
 ---------------------------------------------------------------
  

 Cite this work as:
 Gaussian 16, Revision B.01,
 M. J. Frisch, G. W. Trucks, H. B. Schlegel, G. E. Scuseria, 
 M. A. Robb, J. R. Cheeseman, G. Scalmani, V. Barone, 
 G. A. Petersson, H. Nakatsuji, X. Li, M. Caricato, A. V. Marenich, 
 J. Bloino, B. G. Janesko, R. Gomperts, B. Mennucci, H. P. Hratchian, 
 J. V. Ortiz, A. F. Izmaylov, J. L. Sonnenberg, D. Williams-Young, 
 F. Ding, F. Lipparini, F. Egidi, J. Goings, B. Peng, A. Petrone, 
 T. Henderson, D. Ranasinghe, V. G. Zakrzewski, J. Gao, N. Rega, 
 G. Zheng, W. Liang, M. Hada, M. Ehara, K. Toyota, R. Fukuda, 
 J. Hasegawa, M. Ishida, T. Nakajima, Y. Honda, O. Kitao, H. Nakai, 
 T. Vreven, K. Throssell, J. A. Montgomery, Jr., J. E. Peralta, 
 F. Ogliaro, M. J. Bearpark, J. J. Heyd, E. N. Brothers, K. N. Kudin, 
 V. N. Staroverov, T. A. Keith, R. Kobayashi, J. Normand, 
 K. Raghavachari, A. P. Rendell, J. C. Burant, S. S. Iyengar, 
 J. Tomasi, M. Cossi, J. M. Millam, M. Klene, C. Adamo, R. Cammi, 
 J. W. Ochterski, R. L. Martin, K. Morokuma, O. Farkas, 
 J. B. Foresman, and D. J. Fox, Gaussian, Inc., Wallingford CT, 2016.
 
 ******************************************
 Gaussian 16:  EM64L-G16RevB.01 20-Dec-2017
                25-Mar-2022 
 ******************************************
 %mem=10GB
 %nprocshared=4
 Will use up to    4 processors via shared memory.
 --------------------------------
 # opt b3lyp/6-311+g(d,p) scf=xqc
 --------------------------------
 1/18=20,19=15,26=3,38=1/1,3;
 2/9=110,12=2,17=6,18=5,40=1/2;
 3/5=4,6=6,7=111,11=2,25=1,30=1,71=1,74=-5/1,2,3;
 4//1;
 5/5=2,8=3,13=1,38=5/2,8;
 6/7=2,8=2,9=2,10=2,28=1/1;
 7//1,2,3,16;
 1/18=20,19=15,26=3/3(2);
 2/9=110/2;
 99//99;
 2/9=110/2;
 3/5=4,6=6,7=111,11=2,25=1,30=1,71=1,74=-5/1,2,3;
 4/5=5,16=3,69=1/1;
 5/5=2,8=3,13=1,38=5/2,8;
 7//1,2,3,16;
 1/18=20,19=15,26=3/3(-5);
 2/9=110/2;
 6/7=2,8=2,9=2,10=2,19=2,28=1/1;
 99/9=1/99;
 -------------------
 Title Card Required
 -------------------
 Symbolic Z-matrix:
 Charge =  0 Multiplicity = 1
 C                     0.85406   0.32938  -0.00285 
 C                     2.18644   0.35926  -0.4362 
 C                     2.89433   1.56871  -0.44227 
 C                     2.26984   2.74828  -0.015 
 C                     0.93746   2.71839   0.41835 
 C                     0.22957   1.50894   0.42442 
 C                     0.07615  -0.99969   0.00382 
 C                     0.70064  -2.17926  -0.42345 
 C                    -0.00725  -3.38871  -0.41738 
 C                    -1.33964  -3.41859   0.01597 
 C                    -1.96412  -2.23903   0.44325 
 C                    -1.25623  -1.02958   0.43717 
 H                     3.91163   1.59153  -0.77314 
 H                     0.46065   3.61902   0.74458 
 H                    -1.88013  -4.34204   0.02061 
 Cl                   -2.04051   0.45182   0.97378 
 Cl                   -1.44375   1.47141   0.96866 
 Cl                   -3.63744  -2.27656   0.98749 
 Cl                    3.15888   4.26721  -0.02262 
 Cl                    0.77703  -4.87011  -0.95399 
 Cl                    2.37396  -2.14172  -0.96769 
 Cl                    2.97072  -1.12214  -0.9728 
 

 GradGradGradGradGradGradGradGradGradGradGradGradGradGradGradGradGradGrad
 Berny optimization.
 Initialization pass.
                           ----------------------------
                           !    Initial Parameters    !
                           ! (Angstroms and Degrees)  !
 --------------------------                            --------------------------
 ! Name  Definition              Value          Derivative Info.                !
 --------------------------------------------------------------------------------
 ! R1    R(1,2)                  1.4014         estimate D2E/DX2                !
 ! R2    R(1,6)                  1.4014         estimate D2E/DX2                !
 ! R3    R(1,7)                  1.54           estimate D2E/DX2                !
 ! R4    R(2,3)                  1.4014         estimate D2E/DX2                !
 ! R5    R(2,22)                 1.76           estimate D2E/DX2                !
 ! R6    R(3,4)                  1.4014         estimate D2E/DX2                !
 ! R7    R(3,13)                 1.07           estimate D2E/DX2                !
 ! R8    R(4,5)                  1.4014         estimate D2E/DX2                !
 ! R9    R(4,19)                 1.76           estimate D2E/DX2                !
 ! R10   R(5,6)                  1.4014         estimate D2E/DX2                !
 ! R11   R(5,14)                 1.07           estimate D2E/DX2                !
 ! R12   R(6,17)                 1.76           estimate D2E/DX2                !
 ! R13   R(7,8)                  1.4014         estimate D2E/DX2                !
 ! R14   R(7,12)                 1.4014         estimate D2E/DX2                !
 ! R15   R(8,9)                  1.4014         estimate D2E/DX2                !
 ! R16   R(8,21)                 1.76           estimate D2E/DX2                !
 ! R17   R(9,10)                 1.4014         estimate D2E/DX2                !
 ! R18   R(9,20)                 1.76           estimate D2E/DX2                !
 ! R19   R(10,11)                1.4014         estimate D2E/DX2                !
 ! R20   R(10,15)                1.07           estimate D2E/DX2                !
 ! R21   R(11,12)                1.4014         estimate D2E/DX2                !
 ! R22   R(11,18)                1.76           estimate D2E/DX2                !
 ! R23   R(12,16)                1.76           estimate D2E/DX2                !
 ! R24   R(16,17)                1.1814         estimate D2E/DX2                !
 ! R25   R(21,22)                1.1814         estimate D2E/DX2                !
 ! A1    A(2,1,6)              120.0            estimate D2E/DX2                !
 ! A2    A(2,1,7)              120.0            estimate D2E/DX2                !
 ! A3    A(6,1,7)              120.0            estimate D2E/DX2                !
 ! A4    A(1,2,3)              120.0            estimate D2E/DX2                !
 ! A5    A(1,2,22)             120.0            estimate D2E/DX2                !
 ! A6    A(3,2,22)             120.0            estimate D2E/DX2                !
 ! A7    A(2,3,4)              120.0            estimate D2E/DX2                !
 ! A8    A(2,3,13)             120.0            estimate D2E/DX2                !
 ! A9    A(4,3,13)             120.0            estimate D2E/DX2                !
 ! A10   A(3,4,5)              120.0            estimate D2E/DX2                !
 ! A11   A(3,4,19)             120.0            estimate D2E/DX2                !
 ! A12   A(5,4,19)             120.0            estimate D2E/DX2                !
 ! A13   A(4,5,6)              120.0            estimate D2E/DX2                !
 ! A14   A(4,5,14)             120.0            estimate D2E/DX2                !
 ! A15   A(6,5,14)             120.0            estimate D2E/DX2                !
 ! A16   A(1,6,5)              120.0            estimate D2E/DX2                !
 ! A17   A(1,6,17)             120.0            estimate D2E/DX2                !
 ! A18   A(5,6,17)             120.0            estimate D2E/DX2                !
 ! A19   A(1,7,8)              120.0            estimate D2E/DX2                !
 ! A20   A(1,7,12)             120.0            estimate D2E/DX2                !
 ! A21   A(8,7,12)             120.0            estimate D2E/DX2                !
 ! A22   A(7,8,9)              120.0            estimate D2E/DX2                !
 ! A23   A(7,8,21)             120.0            estimate D2E/DX2                !
 ! A24   A(9,8,21)             120.0            estimate D2E/DX2                !
 ! A25   A(8,9,10)             120.0            estimate D2E/DX2                !
 ! A26   A(8,9,20)             120.0            estimate D2E/DX2                !
 ! A27   A(10,9,20)            120.0            estimate D2E/DX2                !
 ! A28   A(9,10,11)            120.0            estimate D2E/DX2                !
 ! A29   A(9,10,15)            120.0            estimate D2E/DX2                !
 ! A30   A(11,10,15)           120.0            estimate D2E/DX2                !
 ! A31   A(10,11,12)           120.0            estimate D2E/DX2                !
 ! A32   A(10,11,18)           120.0            estimate D2E/DX2                !
 ! A33   A(12,11,18)           120.0            estimate D2E/DX2                !
 ! A34   A(7,12,11)            120.0            estimate D2E/DX2                !
 ! A35   A(7,12,16)            120.0            estimate D2E/DX2                !
 ! A36   A(11,12,16)           120.0            estimate D2E/DX2                !
 ! A37   A(12,16,17)           120.0            estimate D2E/DX2                !
 ! A38   A(6,17,16)            120.0            estimate D2E/DX2                !
 ! A39   A(8,21,22)            120.0            estimate D2E/DX2                !
 ! A40   A(2,22,21)            120.0            estimate D2E/DX2                !
 ! D1    D(6,1,2,3)              0.0001         estimate D2E/DX2                !
 ! D2    D(6,1,2,22)           180.0            estimate D2E/DX2                !
 ! D3    D(7,1,2,3)           -180.0            estimate D2E/DX2                !
 ! D4    D(7,1,2,22)            -0.0001         estimate D2E/DX2                !
 ! D5    D(2,1,6,5)             -0.0001         estimate D2E/DX2                !
 ! D6    D(2,1,6,17)           180.0            estimate D2E/DX2                !
 ! D7    D(7,1,6,5)            180.0            estimate D2E/DX2                !
 ! D8    D(7,1,6,17)             0.0            estimate D2E/DX2                !
 ! D9    D(2,1,7,8)             -0.0001         estimate D2E/DX2                !
 ! D10   D(2,1,7,12)           179.9998         estimate D2E/DX2                !
 ! D11   D(6,1,7,8)            179.9999         estimate D2E/DX2                !
 ! D12   D(6,1,7,12)            -0.0002         estimate D2E/DX2                !
 ! D13   D(1,2,3,4)              0.0            estimate D2E/DX2                !
 ! D14   D(1,2,3,13)           180.0            estimate D2E/DX2                !
 ! D15   D(22,2,3,4)          -179.9999         estimate D2E/DX2                !
 ! D16   D(22,2,3,13)            0.0001         estimate D2E/DX2                !
 ! D17   D(1,2,22,21)            0.0002         estimate D2E/DX2                !
 ! D18   D(3,2,22,21)         -179.9999         estimate D2E/DX2                !
 ! D19   D(2,3,4,5)             -0.0001         estimate D2E/DX2                !
 ! D20   D(2,3,4,19)           180.0            estimate D2E/DX2                !
 ! D21   D(13,3,4,5)           179.9999         estimate D2E/DX2                !
 ! D22   D(13,3,4,19)            0.0            estimate D2E/DX2                !
 ! D23   D(3,4,5,6)              0.0001         estimate D2E/DX2                !
 ! D24   D(3,4,5,14)          -179.9999         estimate D2E/DX2                !
 ! D25   D(19,4,5,6)          -180.0            estimate D2E/DX2                !
 ! D26   D(19,4,5,14)            0.0            estimate D2E/DX2                !
 ! D27   D(4,5,6,1)              0.0            estimate D2E/DX2                !
 ! D28   D(4,5,6,17)           179.9999         estimate D2E/DX2                !
 ! D29   D(14,5,6,1)           180.0            estimate D2E/DX2                !
 ! D30   D(14,5,6,17)           -0.0001         estimate D2E/DX2                !
 ! D31   D(1,6,17,16)            0.0006         estimate D2E/DX2                !
 ! D32   D(5,6,17,16)         -179.9994         estimate D2E/DX2                !
 ! D33   D(1,7,8,9)            179.9999         estimate D2E/DX2                !
 ! D34   D(1,7,8,21)             0.0001         estimate D2E/DX2                !
 ! D35   D(12,7,8,9)             0.0001         estimate D2E/DX2                !
 ! D36   D(12,7,8,21)         -179.9998         estimate D2E/DX2                !
 ! D37   D(1,7,12,11)         -179.9999         estimate D2E/DX2                !
 ! D38   D(1,7,12,16)            0.0            estimate D2E/DX2                !
 ! D39   D(8,7,12,11)           -0.0001         estimate D2E/DX2                !
 ! D40   D(8,7,12,16)          179.9999         estimate D2E/DX2                !
 ! D41   D(7,8,9,10)             0.0            estimate D2E/DX2                !
 ! D42   D(7,8,9,20)           180.0            estimate D2E/DX2                !
 ! D43   D(21,8,9,10)          179.9998         estimate D2E/DX2                !
 ! D44   D(21,8,9,20)           -0.0002         estimate D2E/DX2                !
 ! D45   D(7,8,21,22)            0.0001         estimate D2E/DX2                !
 ! D46   D(9,8,21,22)         -179.9998         estimate D2E/DX2                !
 ! D47   D(8,9,10,11)            0.0            estimate D2E/DX2                !
 ! D48   D(8,9,10,15)         -179.9999         estimate D2E/DX2                !
 ! D49   D(20,9,10,11)         180.0            estimate D2E/DX2                !
 ! D50   D(20,9,10,15)           0.0001         estimate D2E/DX2                !
 ! D51   D(9,10,11,12)           0.0            estimate D2E/DX2                !
 ! D52   D(9,10,11,18)        -179.9998         estimate D2E/DX2                !
 ! D53   D(15,10,11,12)        179.9999         estimate D2E/DX2                !
 ! D54   D(15,10,11,18)          0.0001         estimate D2E/DX2                !
 ! D55   D(10,11,12,7)           0.0            estimate D2E/DX2                !
 ! D56   D(10,11,12,16)       -179.9999         estimate D2E/DX2                !
 ! D57   D(18,11,12,7)         179.9999         estimate D2E/DX2                !
 ! D58   D(18,11,12,16)         -0.0001         estimate D2E/DX2                !
 ! D59   D(7,12,16,17)           0.0005         estimate D2E/DX2                !
 ! D60   D(11,12,16,17)       -179.9995         estimate D2E/DX2                !
 ! D61   D(12,16,17,6)          -0.0008         estimate D2E/DX2                !
 ! D62   D(8,21,22,2)           -0.0002         estimate D2E/DX2                !
 --------------------------------------------------------------------------------
 Trust Radius=3.00D-01 FncErr=1.00D-07 GrdErr=1.00D-06 EigMax=2.50D+02 EigMin=1.00D-04
 Number of steps in this run=    132 maximum allowed number of steps=    132.
 GradGradGradGradGradGradGradGradGradGradGradGradGradGradGradGradGradGrad

                          Input orientation:                          
 ---------------------------------------------------------------------
 Center     Atomic      Atomic             Coordinates (Angstroms)
 Number     Number       Type             X           Y           Z
 ---------------------------------------------------------------------
      1          6           0        0.854055    0.329377   -0.002851
      2          6           0        2.186437    0.359263   -0.436198
      3          6           0        2.894330    1.568714   -0.442270
      4          6           0        2.269843    2.748279   -0.014995
      5          6           0        0.937461    2.718393    0.418349
      6          6           0        0.229567    1.508942    0.424422
      7          6           0        0.076151   -0.999690    0.003823
      8          6           0        0.700638   -2.179255   -0.423452
      9          6           0       -0.007255   -3.388707   -0.417378
     10          6           0       -1.339635   -3.418593    0.015972
     11          6           0       -1.964122   -2.239028    0.443247
     12          6           0       -1.256229   -1.029577    0.437173
     13          1           0        3.911633    1.591532   -0.773139
     14          1           0        0.460650    3.619018    0.744581
     15          1           0       -1.880126   -4.342036    0.020612
     16         17           0       -2.040514    0.451823    0.973785
     17         17           0       -1.443753    1.471409    0.968655
     18         17           0       -3.637440   -2.276563    0.987490
     19         17           0        3.158877    4.267212   -0.022621
     20         17           0        0.777031   -4.870107   -0.953987
     21         17           0        2.373958   -2.141722   -0.967686
     22         17           0        2.970723   -1.122138   -0.972803
 ---------------------------------------------------------------------
                    Distance matrix (angstroms):
                    1          2          3          4          5
     1  C    0.000000
     2  C    1.401400   0.000000
     3  C    2.427296   1.401400   0.000000
     4  C    2.802800   2.427296   1.401400   0.000000
     5  C    2.427296   2.802800   2.427296   1.401400   0.000000
     6  C    1.401400   2.427296   2.802800   2.427296   1.401400
     7  C    1.540000   2.548270   3.838989   4.342800   3.838989
     8  C    2.548270   2.941400   4.342800   5.187469   4.975106
     9  C    3.838989   4.342800   5.744200   6.558176   6.235992
    10  C    4.342800   5.187469   6.558176   7.145600   6.558176
    11  C    3.838989   4.975106   6.235992   6.558176   5.744200
    12  C    2.548270   3.813607   4.975106   5.187469   4.342800
    13  H    3.396345   2.146700   1.070000   2.146700   3.396345
    14  H    3.396345   3.872800   3.396345   2.146700   1.070000
    15  H    5.412800   6.232802   7.612271   8.215600   7.612271
    16  Cl   3.057342   4.456874   5.254079   4.983028   3.783409
    17  Cl   2.743718   4.048303   4.562800   4.048303   2.743718
    18  Cl   5.286324   6.549198   7.713260   7.819846   6.797295
    19  Cl   4.562800   4.048303   2.743718   1.760000   2.743718
    20  Cl   5.286324   5.440665   6.797295   7.819846   7.713260
    21  Cl   3.057342   2.563702   3.783409   4.983028   5.254079
    22  Cl   2.743718   1.760000   2.743718   4.048303   4.562800
                    6          7          8          9         10
     6  C    0.000000
     7  C    2.548270   0.000000
     8  C    3.813607   1.401400   0.000000
     9  C    4.975106   2.427296   1.401400   0.000000
    10  C    5.187469   2.802800   2.427296   1.401400   0.000000
    11  C    4.342800   2.427296   2.802800   2.427296   1.401400
    12  C    2.941400   1.401400   2.427296   2.802800   2.427296
    13  H    3.872800   4.693509   4.965039   6.347206   7.300676
    14  H    2.146700   4.693509   5.919617   7.118798   7.300676
    15  H    6.232802   3.872800   3.396345   2.146700   1.070000
    16  Cl   2.563702   2.743718   4.048303   4.562800   4.048303
    17  Cl   1.760000   3.057342   4.456874   5.254079   4.983028
    18  Cl   5.440665   4.048303   4.562800   4.048303   2.743718
    19  Cl   4.048303   6.102800   6.910901   8.294174   8.905600
    20  Cl   6.549198   4.048303   2.743718   1.760000   2.743718
    21  Cl   4.456874   2.743718   1.760000   2.743718   4.048303
    22  Cl   4.048303   3.057342   2.563702   3.783409   4.983028
                   11         12         13         14         15
    11  C    0.000000
    12  C    1.401400   0.000000
    13  H    7.118798   5.919617   0.000000
    14  H    6.347206   4.965039   4.280590   0.000000
    15  H    2.146700   3.396345   8.329571   8.329571   0.000000
    16  Cl   2.743718   1.760000   6.307038   4.042212   4.890332
    17  Cl   3.783409   2.563702   5.632800   2.879094   5.906383
    18  Cl   1.760000   2.743718   8.663168   7.184095   2.879094
    19  Cl   8.294174   6.910901   2.879094   2.879094   9.975600
    20  Cl   4.048303   4.562800   7.184095   8.663168   2.879094
    21  Cl   4.562800   4.048303   4.042212   6.307038   4.890332
    22  Cl   5.254079   4.456874   2.879094   5.632800   5.906383
                   16         17         18         19         20
    16  Cl   0.000000
    17  Cl   1.181400   0.000000
    18  Cl   3.161400   4.342800   0.000000
    19  Cl   6.525618   5.475705   9.488480   0.000000
    20  Cl   6.322800   6.988795   5.475705   9.488480   0.000000
    21  Cl   5.475705   5.601701   6.322800   6.525618   3.161400
    22  Cl   5.601701   5.475705   6.988795   5.475705   4.342800
                   21         22
    21  Cl   0.000000
    22  Cl   1.181400   0.000000
 Stoichiometry    C12H3Cl7
 Framework group  C1[X(C12H3Cl7)]
 Deg. of freedom    60
 Full point group                 C1      NOp   1
 Largest Abelian subgroup         C1      NOp   1
 Largest concise Abelian subgroup C1      NOp   1
                         Standard orientation:                         
 ---------------------------------------------------------------------
 Center     Atomic      Atomic             Coordinates (Angstroms)
 Number     Number       Type             X           Y           Z
 ---------------------------------------------------------------------
      1          6           0        0.949085    0.000000    0.000002
      2          6           0        1.649785    1.213648    0.000000
      3          6           0        3.051185    1.213648   -0.000001
      4          6           0        3.751885    0.000000   -0.000001
      5          6           0        3.051185   -1.213648    0.000003
      6          6           0        1.649785   -1.213648    0.000004
      7          6           0       -0.590915    0.000000    0.000003
      8          6           0       -1.291615    1.213648    0.000003
      9          6           0       -2.693015    1.213648    0.000002
     10          6           0       -3.393715    0.000000    0.000001
     11          6           0       -2.693015   -1.213648   -0.000000
     12          6           0       -1.291615   -1.213648    0.000001
     13          1           0        3.586185    2.140295   -0.000003
     14          1           0        3.586185   -2.140295    0.000005
     15          1           0       -4.463715    0.000000   -0.000002
     16         17           0       -0.411615   -2.737853   -0.000002
     17         17           0        0.769785   -2.737853    0.000007
     18         17           0       -3.573015   -2.737853   -0.000006
     19         17           0        5.511885    0.000000   -0.000003
     20         17           0       -3.573015    2.737853    0.000002
     21         17           0       -0.411615    2.737853    0.000000
     22         17           0        0.769785    2.737853   -0.000003
 ---------------------------------------------------------------------
 Rotational constants (GHZ):           0.2932520           0.1755105           0.1097972
 Standard basis: 6-311+G(d,p) (5D, 7F)
 There are   511 symmetry adapted cartesian basis functions of A   symmetry.
 There are   492 symmetry adapted basis functions of A   symmetry.
   492 basis functions,   827 primitive gaussians,   511 cartesian basis functions
    97 alpha electrons       97 beta electrons
       nuclear repulsion energy      2583.2229436631 Hartrees.
 NAtoms=   22 NActive=   22 NUniq=   22 SFac= 1.00D+00 NAtFMM=   60 NAOKFM=F Big=F
 Integral buffers will be    131072 words long.
 Raffenetti 2 integral format.
 Two-electron integral symmetry is turned on.
 One-electron integrals computed using PRISM.
 NBasis=   492 RedAO= T EigKep=  1.12D-06  NBF=   492
 NBsUse=   485 1.00D-06 EigRej=  5.04D-07 NBFU=   485
 ExpMin= 4.38D-02 ExpMax= 1.06D+05 ExpMxC= 3.62D+03 IAcc=3 IRadAn=         5 AccDes= 0.00D+00
 Harris functional with IExCor=  402 and IRadAn=       5 diagonalized for initial guess.
 HarFok:  IExCor=  402 AccDes= 0.00D+00 IRadAn=         5 IDoV= 1 UseB2=F ITyADJ=14
 ICtDFT=  3500011 ScaDFX=  1.000000  1.000000  1.000000  1.000000
 FoFCou: FMM=F IPFlag=           0 FMFlag=      100000 FMFlg1=           0
         NFxFlg=           0 DoJE=T BraDBF=F KetDBF=T FulRan=T
         wScrn=  0.000000 ICntrl=       500 IOpCl=  0 I1Cent=   200000004 NGrid=           0
         NMat0=    1 NMatS0=      1 NMatT0=    0 NMatD0=    1 NMtDS0=    0 NMtDT0=    0
 Petite list used in FoFCou.
 Requested convergence on RMS density matrix=1.00D-08 within  32 cycles.
 Requested convergence on MAX density matrix=1.00D-06.
 Requested convergence on             energy=1.00D-06.
 No special actions if energy rises.
 SCF Done:  E(RB3LYP) =  -3677.51980346     A.U. after   19 cycles
            NFock= 19  Conv=0.87D-08     -V/T= 1.9983
 QCSCF skips out because SCF is already converged.

 **********************************************************************

            Population analysis using the SCF Density.

 **********************************************************************

 Orbital symmetries:
       Occupied  (A) (A) (A) (A) (A) (A) (A) (A) (A) (A) (A) (A)
                 (A) (A) (A) (A) (A) (A) (A) (A) (A) (A) (A) (A)
                 (A) (A) (A) (A) (A) (A) (A) (A) (A) (A) (A) (A)
                 (A) (A) (A) (A) (A) (A) (A) (A) (A) (A) (A) (A)
                 (A) (A) (A) (A) (A) (A) (A) (A) (A) (A) (A) (A)
                 (A) (A) (A) (A) (A) (A) (A) (A) (A) (A) (A) (A)
                 (A) (A) (A) (A) (A) (A) (A) (A) (A) (A) (A) (A)
                 (A) (A) (A) (A) (A) (A) (A) (A) (A) (A) (A) (A)
                 (A)
       Virtual   (A) (A) (A) (A) (A) (A) (A) (A) (A) (A) (A) (A)
                 (A) (A) (A) (A) (A) (A) (A) (A) (A) (A) (A) (A)
                 (A) (A) (A) (A) (A) (A) (A) (A) (A) (A) (A) (A)
                 (A) (A) (A) (A) (A) (A) (A) (A) (A) (A) (A) (A)
                 (A) (A) (A) (A) (A) (A) (A) (A) (A) (A) (A) (A)
                 (A) (A) (A) (A) (A) (A) (A) (A) (A) (A) (A) (A)
                 (A) (A) (A) (A) (A) (A) (A) (A) (A) (A) (A) (A)
                 (A) (A) (A) (A) (A) (A) (A) (A) (A) (A) (A) (A)
                 (A) (A) (A) (A) (A) (A) (A) (A) (A) (A) (A) (A)
                 (A) (A) (A) (A) (A) (A) (A) (A) (A) (A) (A) (A)
                 (A) (A) (A) (A) (A) (A) (A) (A) (A) (A) (A) (A)
                 (A) (A) (A) (A) (A) (A) (A) (A) (A) (A) (A) (A)
                 (A) (A) (A) (A) (A) (A) (A) (A) (A) (A) (A) (A)
                 (A) (A) (A) (A) (A) (A) (A) (A) (A) (A) (A) (A)
                 (A) (A) (A) (A) (A) (A) (A) (A) (A) (A) (A) (A)
                 (A) (A) (A) (A) (A) (A) (A) (A) (A) (A) (A) (A)
                 (A) (A) (A) (A) (A) (A) (A) (A) (A) (A) (A) (A)
                 (A) (A) (A) (A) (A) (A) (A) (A) (A) (A) (A) (A)
                 (A) (A) (A) (A) (A) (A) (A) (A) (A) (A) (A) (A)
                 (A) (A) (A) (A) (A) (A) (A) (A) (A) (A) (A) (A)
                 (A) (A) (A) (A) (A) (A) (A) (A) (A) (A) (A) (A)
                 (A) (A) (A) (A) (A) (A) (A) (A) (A) (A) (A) (A)
                 (A) (A) (A) (A) (A) (A) (A) (A) (A) (A) (A) (A)
                 (A) (A) (A) (A) (A) (A) (A) (A) (A) (A) (A) (A)
                 (A) (A) (A) (A) (A) (A) (A) (A) (A) (A) (A) (A)
                 (A) (A) (A) (A) (A) (A) (A) (A) (A) (A) (A) (A)
                 (A) (A) (A) (A) (A) (A) (A) (A) (A) (A) (A) (A)
                 (A) (A) (A) (A) (A) (A) (A) (A) (A) (A) (A) (A)
                 (A) (A) (A) (A) (A) (A) (A) (A) (A) (A) (A) (A)
                 (A) (A) (A) (A) (A) (A) (A) (A) (A) (A) (A) (A)
                 (A) (A) (A) (A) (A) (A) (A) (A) (A) (A) (A) (A)
                 (A) (A) (A) (A) (A) (A) (A) (A) (A) (A) (A) (A)
                 (A) (A) (A) (A)
 The electronic state is 1-A.
 Alpha  occ. eigenvalues -- -101.65762-101.65762-101.65485-101.65485-101.56043
 Alpha  occ. eigenvalues -- -101.56043-101.55669 -10.24877 -10.24528 -10.24527
 Alpha  occ. eigenvalues --  -10.20830 -10.20157 -10.19890 -10.19240 -10.19239
 Alpha  occ. eigenvalues --  -10.17300 -10.17298 -10.17059 -10.17057  -9.64429
 Alpha  occ. eigenvalues --   -9.64429  -9.62290  -9.62289  -9.47508  -9.47508
 Alpha  occ. eigenvalues --   -9.47117  -7.42824  -7.42824  -7.37882  -7.37882
 Alpha  occ. eigenvalues --   -7.37816  -7.37816  -7.37415  -7.37415  -7.37212
 Alpha  occ. eigenvalues --   -7.37212  -7.36763  -7.36763  -7.23948  -7.23948
 Alpha  occ. eigenvalues --   -7.23568  -7.22997  -7.22997  -7.22969  -7.22969
 Alpha  occ. eigenvalues --   -7.22608  -7.22570  -1.38804  -1.38802  -0.91560
 Alpha  occ. eigenvalues --   -0.90167  -0.88321  -0.86719  -0.84319  -0.83246
 Alpha  occ. eigenvalues --   -0.81520  -0.79098  -0.78041  -0.73399  -0.72386
 Alpha  occ. eigenvalues --   -0.72034  -0.72003  -0.70844  -0.69444  -0.66096
 Alpha  occ. eigenvalues --   -0.62637  -0.59570  -0.57333  -0.57153  -0.55823
 Alpha  occ. eigenvalues --   -0.51265  -0.49675  -0.48625  -0.47319  -0.44701
 Alpha  occ. eigenvalues --   -0.42606  -0.42276  -0.42120  -0.41179  -0.40742
 Alpha  occ. eigenvalues --   -0.38645  -0.37596  -0.37180  -0.35837  -0.34314
 Alpha  occ. eigenvalues --   -0.33496  -0.32918  -0.32328  -0.31797  -0.31482
 Alpha  occ. eigenvalues --   -0.28344  -0.27224  -0.26974  -0.20913  -0.20682
 Alpha  occ. eigenvalues --   -0.17929  -0.13720
 Alpha virt. eigenvalues --   -0.06670  -0.05603  -0.02831  -0.01357  -0.00856
 Alpha virt. eigenvalues --   -0.00674   0.00248   0.00852   0.00998   0.01746
 Alpha virt. eigenvalues --    0.01785   0.02261   0.02273   0.02712   0.02818
 Alpha virt. eigenvalues --    0.03969   0.04410   0.05303   0.05592   0.05624
 Alpha virt. eigenvalues --    0.07064   0.07072   0.07270   0.08367   0.08471
 Alpha virt. eigenvalues --    0.08518   0.08740   0.09504   0.10021   0.10432
 Alpha virt. eigenvalues --    0.10811   0.10842   0.10915   0.11068   0.11365
 Alpha virt. eigenvalues --    0.12123   0.12353   0.13070   0.13114   0.14003
 Alpha virt. eigenvalues --    0.14187   0.14499   0.15131   0.15496   0.15533
 Alpha virt. eigenvalues --    0.15573   0.15714   0.15968   0.16076   0.17042
 Alpha virt. eigenvalues --    0.17665   0.18028   0.18108   0.18569   0.18873
 Alpha virt. eigenvalues --    0.18896   0.19753   0.20504   0.20782   0.20794
 Alpha virt. eigenvalues --    0.21372   0.21582   0.21588   0.21883   0.22583
 Alpha virt. eigenvalues --    0.22710   0.23370   0.23435   0.23596   0.23980
 Alpha virt. eigenvalues --    0.25100   0.25402   0.25657   0.26206   0.26375
 Alpha virt. eigenvalues --    0.27062   0.27361   0.27556   0.27613   0.27616
 Alpha virt. eigenvalues --    0.28832   0.28976   0.29184   0.29278   0.29964
 Alpha virt. eigenvalues --    0.30249   0.31784   0.31844   0.33174   0.33272
 Alpha virt. eigenvalues --    0.33891   0.34196   0.34753   0.35480   0.36811
 Alpha virt. eigenvalues --    0.37375   0.38284   0.39862   0.41096   0.42079
 Alpha virt. eigenvalues --    0.43953   0.44348   0.44512   0.44722   0.45181
 Alpha virt. eigenvalues --    0.45458   0.46019   0.46283   0.46478   0.46831
 Alpha virt. eigenvalues --    0.48537   0.49418   0.49537   0.49669   0.49812
 Alpha virt. eigenvalues --    0.50506   0.52359   0.53552   0.53777   0.54130
 Alpha virt. eigenvalues --    0.55541   0.56093   0.56098   0.56482   0.57013
 Alpha virt. eigenvalues --    0.58937   0.59436   0.59536   0.60891   0.60915
 Alpha virt. eigenvalues --    0.61069   0.62056   0.62500   0.63395   0.64885
 Alpha virt. eigenvalues --    0.65309   0.66328   0.66758   0.66944   0.67271
 Alpha virt. eigenvalues --    0.67730   0.68603   0.69085   0.69167   0.71752
 Alpha virt. eigenvalues --    0.72116   0.72602   0.73306   0.73643   0.76807
 Alpha virt. eigenvalues --    0.78605   0.78852   0.80950   0.82014   0.82982
 Alpha virt. eigenvalues --    0.83021   0.84251   0.84351   0.85088   0.85114
 Alpha virt. eigenvalues --    0.85791   0.85892   0.86529   0.86578   0.86582
 Alpha virt. eigenvalues --    0.87188   0.88173   0.88447   0.88841   0.90289
 Alpha virt. eigenvalues --    0.90812   0.91005   0.92485   0.93182   0.94861
 Alpha virt. eigenvalues --    0.95117   0.96254   0.96354   0.96529   0.97413
 Alpha virt. eigenvalues --    0.97446   0.97954   0.98451   0.99507   1.00486
 Alpha virt. eigenvalues --    1.01266   1.02972   1.04372   1.04940   1.05780
 Alpha virt. eigenvalues --    1.08160   1.09944   1.09994   1.12191   1.12314
 Alpha virt. eigenvalues --    1.13585   1.15819   1.16432   1.18643   1.19112
 Alpha virt. eigenvalues --    1.19949   1.24088   1.24735   1.25689   1.26182
 Alpha virt. eigenvalues --    1.26744   1.29108   1.29734   1.31269   1.31565
 Alpha virt. eigenvalues --    1.32585   1.33280   1.34469   1.35233   1.36802
 Alpha virt. eigenvalues --    1.37597   1.40907   1.43527   1.44402   1.46689
 Alpha virt. eigenvalues --    1.47457   1.50054   1.50242   1.52084   1.53222
 Alpha virt. eigenvalues --    1.55420   1.57864   1.58664   1.59430   1.61740
 Alpha virt. eigenvalues --    1.61771   1.62224   1.67493   1.70362   1.70766
 Alpha virt. eigenvalues --    1.73733   1.75626   1.77899   1.78957   1.79423
 Alpha virt. eigenvalues --    1.82464   1.84351   1.86815   1.87315   1.88924
 Alpha virt. eigenvalues --    1.90422   1.93911   1.94365   1.94678   1.97772
 Alpha virt. eigenvalues --    1.98366   1.99768   2.00095   2.00213   2.05708
 Alpha virt. eigenvalues --    2.05800   2.06456   2.08853   2.09667   2.10124
 Alpha virt. eigenvalues --    2.13519   2.15228   2.15428   2.20136   2.20999
 Alpha virt. eigenvalues --    2.23212   2.24068   2.25125   2.26007   2.26490
 Alpha virt. eigenvalues --    2.28126   2.28401   2.28563   2.29120   2.33150
 Alpha virt. eigenvalues --    2.35929   2.36556   2.37445   2.38566   2.42072
 Alpha virt. eigenvalues --    2.42342   2.42430   2.45239   2.46671   2.48414
 Alpha virt. eigenvalues --    2.52768   2.53234   2.55138   2.56644   2.59872
 Alpha virt. eigenvalues --    2.60735   2.61372   2.62742   2.65458   2.67355
 Alpha virt. eigenvalues --    2.67730   2.70265   2.72481   2.74904   2.75638
 Alpha virt. eigenvalues --    2.75796   2.76501   2.76921   2.78953   2.81451
 Alpha virt. eigenvalues --    2.83899   2.84516   2.86427   2.87485   2.89292
 Alpha virt. eigenvalues --    2.94875   2.94986   2.96973   3.02536   3.08730
 Alpha virt. eigenvalues --    3.10737   3.13594   3.16075   3.16166   3.19272
 Alpha virt. eigenvalues --    3.20848   3.24517   3.24772   3.32074   3.38283
 Alpha virt. eigenvalues --    3.41387   3.43953   3.48031   3.59162   3.59613
 Alpha virt. eigenvalues --    3.64653   3.78573   3.79558   3.80885   3.97616
 Alpha virt. eigenvalues --    4.00439   4.04040   4.13965   4.48652   4.82682
 Alpha virt. eigenvalues --    4.84786   9.74378   9.78383   9.78656   9.82544
 Alpha virt. eigenvalues --    9.82935  10.54860  10.56752  23.35157  23.53512
 Alpha virt. eigenvalues --   23.84095  23.85184  23.88609  23.93171  24.01145
 Alpha virt. eigenvalues --   24.01171  24.04267  24.05357  24.09039  24.11084
 Alpha virt. eigenvalues --   25.41196  25.42043  25.82670  25.82938  25.83053
 Alpha virt. eigenvalues --   25.99116  26.00242  26.14580  26.15844  26.20604
 Alpha virt. eigenvalues --   26.22406  26.29692  26.62042  26.62573  26.69752
 Alpha virt. eigenvalues --   27.11515  27.13411  27.30610  27.57118  28.39252
 Alpha virt. eigenvalues --   28.55048 215.75236 215.77981 215.79292 215.91304
 Alpha virt. eigenvalues --  215.92154 216.86745 216.88779
          Condensed to atoms (all electrons):
               1          2          3          4          5          6
     1  C   38.001560   7.039318  -7.562513  -8.196893  -7.562512   7.039316
     2  C    7.039318  48.119245 -24.002586  -6.248041   4.056092  -3.205275
     3  C   -7.562513 -24.002586  40.134259   4.749102  -4.788612   4.056092
     4  C   -8.196893  -6.248041   4.749102  18.462438   4.749101  -6.248038
     5  C   -7.562512   4.056092  -4.788612   4.749101  40.134260 -24.002587
     6  C    7.039316  -3.205275   4.056092  -6.248038 -24.002587  48.119245
     7  C   11.699251  -2.108471  -9.401667  -3.232107  -9.401667  -2.108471
     8  C   -1.628931   5.405850 -12.682377  -2.214658  -1.558827  -2.911168
     9  C   -6.899099  -2.988101  -0.551429  -0.087826  -0.873471  -2.362816
    10  C   -1.093856   1.141083   0.385945   0.175059   0.385944   1.141082
    11  C   -6.899098  -2.362816  -0.873471  -0.087826  -0.551429  -2.988101
    12  C   -1.628933  -2.911169  -1.558827  -2.214657 -12.682376   5.405851
    13  H    0.177592   0.151635  -0.013772   0.044597   0.031324  -0.025351
    14  H    0.177592  -0.025351   0.031324   0.044597  -0.013772   0.151635
    15  H    0.043041   0.007264   0.000932   0.000140   0.000932   0.007264
    16  Cl   1.408349   2.169779   1.260851   1.028919   2.380919   1.507176
    17  Cl  -8.966783   0.918890  -2.965063   2.169994  18.392244 -20.263880
    18  Cl  -0.061125  -0.137115   0.037312  -0.042182  -0.402252  -0.203411
    19  Cl  -0.410653  -0.292850   0.359866  -0.438781   0.359866  -0.292850
    20  Cl  -0.061125  -0.203411  -0.402252  -0.042182   0.037312  -0.137115
    21  Cl   1.408348   1.507177   2.380919   1.028919   1.260851   2.169779
    22  Cl  -8.966785 -20.263880  18.392243   2.169995  -2.965063   0.918890
               7          8          9         10         11         12
     1  C   11.699251  -1.628931  -6.899099  -1.093856  -6.899098  -1.628933
     2  C   -2.108471   5.405850  -2.988101   1.141083  -2.362816  -2.911169
     3  C   -9.401667 -12.682377  -0.551429   0.385945  -0.873471  -1.558827
     4  C   -3.232107  -2.214658  -0.087826   0.175059  -0.087826  -2.214657
     5  C   -9.401667  -1.558827  -0.873471   0.385944  -0.551429 -12.682376
     6  C   -2.108471  -2.911168  -2.362816   1.141082  -2.988101   5.405851
     7  C   38.445785   4.921146  -3.574656  -0.785520  -3.574655   4.921145
     8  C    4.921146  47.952096  -2.755832  -7.993270   5.431783   8.833802
     9  C   -3.574656  -2.755832  26.722930  -3.422486  -3.071308   5.431784
    10  C   -0.785520  -7.993270  -3.422486  24.345472  -3.422483  -7.993267
    11  C   -3.574655   5.431783  -3.071308  -3.422483  26.722927  -2.755830
    12  C    4.921145   8.833802   5.431784  -7.993267  -2.755830  47.952090
    13  H    0.052360   0.028076   0.002066  -0.000047   0.000962   0.006040
    14  H    0.052360   0.006040   0.000962  -0.000047   0.002066   0.028076
    15  H    0.179532   0.049921  -0.119214   0.276680  -0.119214   0.049921
    16  Cl  -6.129835  -2.892047  -0.814011   2.887963  -2.677244 -17.501703
    17  Cl  -3.177822  -0.152513   1.447646   1.136957   3.032425 -19.237868
    18  Cl  -0.254277   0.574516  -0.489389  -2.284590  -0.306212   5.022728
    19  Cl  -0.095520  -0.049717  -0.005542  -0.000212  -0.005542  -0.049717
    20  Cl  -0.254277   5.022729  -0.306212  -2.284592  -0.489389   0.574516
    21  Cl  -6.129836 -17.501706  -2.677243   2.887965  -0.814011  -2.892047
    22  Cl  -3.177822 -19.237869   3.032427   1.136958   1.447646  -0.152512
              13         14         15         16         17         18
     1  C    0.177592   0.177592   0.043041   1.408349  -8.966783  -0.061125
     2  C    0.151635  -0.025351   0.007264   2.169779   0.918890  -0.137115
     3  C   -0.013772   0.031324   0.000932   1.260851  -2.965063   0.037312
     4  C    0.044597   0.044597   0.000140   1.028919   2.169994  -0.042182
     5  C    0.031324  -0.013772   0.000932   2.380919  18.392244  -0.402252
     6  C   -0.025351   0.151635   0.007264   1.507176 -20.263880  -0.203411
     7  C    0.052360   0.052360   0.179532  -6.129835  -3.177822  -0.254277
     8  C    0.028076   0.006040   0.049921  -2.892047  -0.152513   0.574516
     9  C    0.002066   0.000962  -0.119214  -0.814011   1.447646  -0.489389
    10  C   -0.000047  -0.000047   0.276680   2.887963   1.136957  -2.284590
    11  C    0.000962   0.002066  -0.119214  -2.677244   3.032425  -0.306212
    12  C    0.006040   0.028076   0.049921 -17.501703 -19.237868   5.022728
    13  H    0.522185  -0.000375  -0.000000  -0.002620   0.005016  -0.000004
    14  H   -0.000375   0.522185  -0.000000   0.028827  -0.132388   0.000187
    15  H   -0.000000  -0.000000   0.521438   0.017976   0.000473  -0.040404
    16  Cl  -0.002620   0.028827   0.017976  37.171968  -1.592639  -2.481027
    17  Cl   0.005016  -0.132388   0.000473  -1.592639  49.978149  -1.997878
    18  Cl  -0.000004   0.000187  -0.040404  -2.481027  -1.997878  19.463957
    19  Cl  -0.017510  -0.017510   0.000000  -0.023387   0.040186  -0.000226
    20  Cl   0.000187  -0.000004  -0.040404  -0.027406   0.123034  -0.035560
    21  Cl   0.028827  -0.002620   0.017976   0.898837  -0.376661  -0.027406
    22  Cl  -0.132388   0.005016   0.000473  -0.376661  -1.752081   0.123034
              19         20         21         22
     1  C   -0.410653  -0.061125   1.408348  -8.966785
     2  C   -0.292850  -0.203411   1.507177 -20.263880
     3  C    0.359866  -0.402252   2.380919  18.392243
     4  C   -0.438781  -0.042182   1.028919   2.169995
     5  C    0.359866   0.037312   1.260851  -2.965063
     6  C   -0.292850  -0.137115   2.169779   0.918890
     7  C   -0.095520  -0.254277  -6.129836  -3.177822
     8  C   -0.049717   5.022729 -17.501706 -19.237869
     9  C   -0.005542  -0.306212  -2.677243   3.032427
    10  C   -0.000212  -2.284592   2.887965   1.136958
    11  C   -0.005542  -0.489389  -0.814011   1.447646
    12  C   -0.049717   0.574516  -2.892047  -0.152512
    13  H   -0.017510   0.000187   0.028827  -0.132388
    14  H   -0.017510  -0.000004  -0.002620   0.005016
    15  H    0.000000  -0.040404   0.017976   0.000473
    16  Cl  -0.023387  -0.027406   0.898837  -0.376661
    17  Cl   0.040186   0.123034  -0.376661  -1.752081
    18  Cl  -0.000226  -0.035560  -0.027406   0.123034
    19  Cl  17.498012  -0.000226  -0.023387   0.040186
    20  Cl  -0.000226  19.463957  -2.481028  -1.997878
    21  Cl  -0.023387  -2.481028  37.171969  -1.592639
    22  Cl   0.040186  -1.997878  -1.592639  49.978149
 Mulliken charges:
               1
     1  C   -1.056062
     2  C    0.232733
     3  C   -0.986274
     4  C    0.430329
     5  C   -0.986274
     6  C    0.232733
     7  C   -0.864975
     8  C   -0.647047
     9  C    0.360820
    10  C   -0.620740
    11  C    0.360820
    12  C   -0.647047
    13  H    0.141199
    14  H    0.141199
    15  H    0.145270
    16  Cl   0.757017
    17  Cl   0.370559
    18  Cl   0.541326
    19  Cl   0.425514
    20  Cl   0.541326
    21  Cl   0.757017
    22  Cl   0.370559
 Sum of Mulliken charges =  -0.00000
 Mulliken charges with hydrogens summed into heavy atoms:
               1
     1  C   -1.056062
     2  C    0.232733
     3  C   -0.845075
     4  C    0.430329
     5  C   -0.845075
     6  C    0.232733
     7  C   -0.864975
     8  C   -0.647047
     9  C    0.360820
    10  C   -0.475469
    11  C    0.360820
    12  C   -0.647047
    16  Cl   0.757017
    17  Cl   0.370559
    18  Cl   0.541326
    19  Cl   0.425514
    20  Cl   0.541326
    21  Cl   0.757017
    22  Cl   0.370559
 Electronic spatial extent (au):  <R**2>=           8490.1943
 Charge=             -0.0000 electrons
 Dipole moment (field-independent basis, Debye):
    X=              0.3561    Y=              0.0000    Z=             -0.0000  Tot=              0.3561
 Quadrupole moment (field-independent basis, Debye-Ang):
   XX=           -177.2009   YY=           -138.9204   ZZ=           -156.9064
   XY=             -0.0000   XZ=              0.0000   YZ=             -0.0000
 Traceless Quadrupole moment (field-independent basis, Debye-Ang):
   XX=            -19.5250   YY=             18.7555   ZZ=              0.7695
   XY=             -0.0000   XZ=              0.0000   YZ=             -0.0000
 Octapole moment (field-independent basis, Debye-Ang**2):
  XXX=            -54.9598  YYY=              0.0000  ZZZ=             -0.0000  XYY=             27.6718
  XXY=              0.0000  XXZ=             -0.0000  XZZ=             -2.8498  YZZ=              0.0000
  YYZ=             -0.0000  XYZ=             -0.0000
 Hexadecapole moment (field-independent basis, Debye-Ang**3):
 XXXX=          -7363.3188 YYYY=          -3638.8439 ZZZZ=           -189.7538 XXXY=             -0.0000
 XXXZ=              0.0003 YYYX=             -0.0000 YYYZ=             -0.0003 ZZZX=              0.0000
 ZZZY=             -0.0001 XXYY=          -1891.6635 XXZZ=          -1252.5132 YYZZ=           -687.5426
 XXYZ=             -0.0001 YYXZ=              0.0001 ZZXY=              0.0000
 N-N= 2.583222943663D+03 E-N=-1.388831643567D+04  KE= 3.683785299030D+03
 Calling FoFJK, ICntrl=      2127 FMM=F ISym2X=0 I1Cent= 0 IOpClX= 0 NMat=1 NMatS=1 NMatT=0.
 ***** Axes restored to original set *****
 -------------------------------------------------------------------
 Center     Atomic                   Forces (Hartrees/Bohr)
 Number     Number              X              Y              Z
 -------------------------------------------------------------------
      1        6          -0.009917595   -0.016944462    0.000085133
      2        6          -0.056976327    0.090038548    0.035681304
      3        6          -0.013893842   -0.002216620    0.004161196
      4        6          -0.008211353   -0.014029166    0.000070294
      5        6           0.004852751   -0.013230434   -0.004083432
      6        6           0.106247617   -0.005857101   -0.036104520
      7        6           0.005122980    0.008752721   -0.000043945
      8        6          -0.102010805   -0.004487075    0.032764813
      9        6          -0.009824286    0.028933036    0.008670538
     10        6           0.001908776    0.003261152   -0.000016330
     11        6           0.029999233    0.005536330   -0.008843667
     12        6           0.045897110   -0.091384400   -0.032283401
     13        1           0.012478379    0.000292200   -0.004056195
     14        1          -0.005837904    0.011053198    0.003999235
     15        1          -0.005279039   -0.009019326    0.000045255
     16       17          -1.714012232   -2.710805468    0.055604785
     17       17           1.532984292    2.828110776    0.026067025
     18       17          -0.004876788   -0.001948121    0.001240800
     19       17           0.000098983    0.000169110   -0.000000844
     20       17           0.000684091   -0.005215190   -0.001204832
     21       17          -1.524443145   -2.822179349   -0.027803559
     22       17           1.715009104    2.721169640   -0.053949655
 -------------------------------------------------------------------
 Cartesian Forces:  Max     2.828110776 RMS     0.791322577

 GradGradGradGradGradGradGradGradGradGradGradGradGradGradGradGradGradGrad
 Berny optimization.
 FormGI is forming the generalized inverse of G from B-inverse, IUseBI=4.
 Internal  Forces:  Max     3.025780919 RMS     0.394522033
 Search for a local minimum.
 Step number   1 out of a maximum of  132
 All quantities printed in internal units (Hartrees-Bohrs-Radians)
 Mixed Optimization -- RFO/linear search
 Second derivative matrix not updated -- first step.
 ITU=  0
     Eigenvalues ---    0.01036   0.01292   0.01426   0.01600   0.01677
     Eigenvalues ---    0.01713   0.01839   0.01901   0.01914   0.02070
     Eigenvalues ---    0.02070   0.02070   0.02070   0.02070   0.02070
     Eigenvalues ---    0.02070   0.02070   0.03828   0.04012   0.16000
     Eigenvalues ---    0.16000   0.16000   0.23508   0.23551   0.23559
     Eigenvalues ---    0.25000   0.25000   0.25000   0.25000   0.25000
     Eigenvalues ---    0.25000   0.25000   0.25000   0.25000   0.25000
     Eigenvalues ---    0.27743   0.28928   0.29125   0.29412   0.29456
     Eigenvalues ---    0.29539   0.29539   0.29539   0.37230   0.37230
     Eigenvalues ---    0.37230   0.38705   0.39290   0.40621   0.41536
     Eigenvalues ---    0.44383   0.44771   0.45090   0.45159   0.45389
     Eigenvalues ---    0.45389   0.45389   0.45389  16.13878  16.74783
 RFO step:  Lambda=-1.18387451D+00 EMin= 1.03631774D-02
 Linear search not attempted -- first point.
 Maximum step size (   0.300) exceeded in Quadratic search.
    -- Step size scaled by   0.962
 Iteration  1 RMS(Cart)=  0.02835743 RMS(Int)=  0.00033970
 Iteration  2 RMS(Cart)=  0.00038851 RMS(Int)=  0.00018409
 Iteration  3 RMS(Cart)=  0.00000005 RMS(Int)=  0.00018409
 Variable       Old X    -DE/DX   Delta X   Delta X   Delta X     New X
                                 (Linear)    (Quad)   (Total)
    R1        2.64826   0.21673   0.00000   0.01839   0.01807   2.66633
    R2        2.64826   0.21673   0.00000   0.01839   0.01807   2.66633
    R3        2.91018   0.43552   0.00000   0.01034   0.00957   2.91975
    R4        2.64826  -0.01041   0.00000  -0.00611  -0.00611   2.64215
    R5        3.32592   0.00230   0.00000   0.06971   0.06990   3.39582
    R6        2.64826  -0.09795   0.00000  -0.01028  -0.01014   2.63812
    R7        2.02201   0.01312   0.00000   0.00811   0.00811   2.03012
    R8        2.64826  -0.09795   0.00000  -0.01028  -0.01014   2.63812
    R9        3.32592   0.00020   0.00000   0.00013   0.00013   3.32605
   R10        2.64826  -0.01041   0.00000  -0.00611  -0.00611   2.64215
   R11        2.02201   0.01312   0.00000   0.00811   0.00811   2.03012
   R12        3.32592   0.00230   0.00000   0.06971   0.06990   3.39582
   R13        2.64826   0.21746   0.00000   0.01885   0.01850   2.66676
   R14        2.64826   0.21746   0.00000   0.01885   0.01850   2.66676
   R15        2.64826  -0.01248   0.00000  -0.00733  -0.00733   2.64093
   R16        3.32592   0.01279   0.00000   0.07657   0.07674   3.40266
   R17        2.64826  -0.09954   0.00000  -0.01121  -0.01106   2.63720
   R18        3.32592   0.00506   0.00000   0.00329   0.00329   3.32921
   R19        2.64826  -0.09954   0.00000  -0.01121  -0.01106   2.63720
   R20        2.02201   0.01045   0.00000   0.00646   0.00646   2.02847
   R21        2.64826  -0.01248   0.00000  -0.00733  -0.00733   2.64093
   R22        3.32592   0.00506   0.00000   0.00329   0.00329   3.32921
   R23        3.32592   0.01279   0.00000   0.07657   0.07674   3.40266
   R24        2.23252   3.02578   0.00000   0.16802   0.16840   2.40092
   R25        2.23252   3.02578   0.00000   0.16802   0.16840   2.40092
    A1        2.09440  -0.28345   0.00000  -0.01673  -0.01624   2.07816
    A2        2.09440   0.14172   0.00000   0.00837   0.00812   2.10251
    A3        2.09440   0.14172   0.00000   0.00837   0.00812   2.10251
    A4        2.09440   0.10234   0.00000   0.00377   0.00360   2.09799
    A5        2.09440   0.16296   0.00000   0.02465   0.02443   2.11882
    A6        2.09440  -0.26530   0.00000  -0.02842  -0.02802   2.06637
    A7        2.09440   0.05408   0.00000   0.00342   0.00332   2.09771
    A8        2.09440  -0.02703   0.00000  -0.00170  -0.00165   2.09275
    A9        2.09440  -0.02705   0.00000  -0.00172  -0.00167   2.09273
   A10        2.09440  -0.02938   0.00000   0.00237   0.00241   2.09680
   A11        2.09440   0.01469   0.00000  -0.00118  -0.00120   2.09319
   A12        2.09440   0.01469   0.00000  -0.00118  -0.00120   2.09319
   A13        2.09440   0.05408   0.00000   0.00342   0.00332   2.09771
   A14        2.09440  -0.02705   0.00000  -0.00172  -0.00167   2.09273
   A15        2.09440  -0.02703   0.00000  -0.00170  -0.00165   2.09275
   A16        2.09440   0.10234   0.00000   0.00377   0.00360   2.09799
   A17        2.09440   0.16296   0.00000   0.02465   0.02443   2.11882
   A18        2.09440  -0.26530   0.00000  -0.02842  -0.02802   2.06637
   A19        2.09440   0.13847   0.00000   0.00617   0.00593   2.10033
   A20        2.09440   0.13847   0.00000   0.00617   0.00593   2.10033
   A21        2.09440  -0.27694   0.00000  -0.01235  -0.01186   2.08253
   A22        2.09440   0.09379   0.00000  -0.00194  -0.00211   2.09228
   A23        2.09440   0.16028   0.00000   0.02291   0.02264   2.11704
   A24        2.09440  -0.25407   0.00000  -0.02096  -0.02053   2.07386
   A25        2.09440   0.06518   0.00000   0.01086   0.01076   2.10515
   A26        2.09440  -0.02948   0.00000  -0.00334  -0.00329   2.09110
   A27        2.09440  -0.03570   0.00000  -0.00751  -0.00746   2.08693
   A28        2.09440  -0.04101   0.00000  -0.00548  -0.00543   2.08897
   A29        2.09440   0.02050   0.00000   0.00274   0.00271   2.09711
   A30        2.09440   0.02050   0.00000   0.00274   0.00271   2.09711
   A31        2.09440   0.06518   0.00000   0.01086   0.01076   2.10515
   A32        2.09440  -0.03570   0.00000  -0.00751  -0.00746   2.08693
   A33        2.09440  -0.02948   0.00000  -0.00334  -0.00329   2.09110
   A34        2.09440   0.09379   0.00000  -0.00194  -0.00211   2.09228
   A35        2.09440   0.16028   0.00000   0.02291   0.02264   2.11704
   A36        2.09440  -0.25407   0.00000  -0.02096  -0.02053   2.07386
   A37        2.09440  -0.30062   0.00000  -0.03028  -0.02981   2.06458
   A38        2.09440  -0.30282   0.00000  -0.03181  -0.03131   2.06309
   A39        2.09440  -0.30062   0.00000  -0.03028  -0.02981   2.06458
   A40        2.09440  -0.30282   0.00000  -0.03181  -0.03131   2.06309
    D1        0.00000   0.00000   0.00000   0.00000   0.00000   0.00000
    D2        3.14159   0.00000   0.00000   0.00000   0.00000   3.14159
    D3       -3.14159   0.00000   0.00000   0.00000   0.00000  -3.14159
    D4       -0.00000   0.00000   0.00000   0.00000   0.00000  -0.00000
    D5       -0.00000  -0.00000   0.00000  -0.00000  -0.00000  -0.00000
    D6        3.14159  -0.00000   0.00000  -0.00000  -0.00000   3.14159
    D7        3.14159  -0.00000   0.00000  -0.00000  -0.00000   3.14159
    D8        0.00000  -0.00000   0.00000  -0.00000  -0.00000   0.00000
    D9       -0.00000  -0.00000   0.00000  -0.00000  -0.00000  -0.00000
   D10        3.14159  -0.00000   0.00000  -0.00000  -0.00000   3.14159
   D11        3.14159  -0.00000   0.00000  -0.00000  -0.00000   3.14159
   D12       -0.00000  -0.00000   0.00000  -0.00000  -0.00000  -0.00000
   D13        0.00000  -0.00000   0.00000   0.00000   0.00000   0.00000
   D14        3.14159  -0.00000   0.00000   0.00000   0.00000   3.14159
   D15       -3.14159  -0.00000   0.00000  -0.00000  -0.00000  -3.14159
   D16        0.00000  -0.00000   0.00000  -0.00000  -0.00000   0.00000
   D17        0.00000  -0.00000   0.00000  -0.00000  -0.00000   0.00000
   D18       -3.14159  -0.00000   0.00000  -0.00000  -0.00000  -3.14159
   D19       -0.00000  -0.00000   0.00000  -0.00000  -0.00000  -0.00000
   D20        3.14159   0.00000   0.00000  -0.00000  -0.00000   3.14159
   D21        3.14159  -0.00000   0.00000  -0.00000  -0.00000   3.14159
   D22        0.00000   0.00000   0.00000  -0.00000  -0.00000   0.00000
   D23        0.00000   0.00000   0.00000  -0.00000  -0.00000   0.00000
   D24       -3.14159   0.00000   0.00000   0.00000   0.00000  -3.14159
   D25       -3.14159  -0.00000   0.00000  -0.00000  -0.00000  -3.14159
   D26        0.00000   0.00000   0.00000   0.00000   0.00000   0.00000
   D27       -0.00000   0.00000   0.00000   0.00000   0.00000  -0.00000
   D28        3.14159   0.00000   0.00000   0.00000   0.00000   3.14159
   D29        3.14159   0.00000   0.00000   0.00000   0.00000   3.14159
   D30       -0.00000   0.00000   0.00000   0.00000   0.00000  -0.00000
   D31        0.00001  -0.00000   0.00000  -0.00000  -0.00000   0.00001
   D32       -3.14158  -0.00000   0.00000  -0.00000  -0.00000  -3.14158
   D33        3.14159   0.00000   0.00000   0.00000   0.00000   3.14159
   D34        0.00000   0.00000   0.00000   0.00000   0.00000   0.00000
   D35        0.00000   0.00000   0.00000   0.00000   0.00000   0.00000
   D36       -3.14159   0.00000   0.00000   0.00000   0.00000  -3.14159
   D37       -3.14159  -0.00000   0.00000  -0.00000  -0.00000  -3.14159
   D38        0.00000  -0.00000   0.00000  -0.00000  -0.00000   0.00000
   D39       -0.00000  -0.00000   0.00000  -0.00000  -0.00000  -0.00000
   D40        3.14159  -0.00000   0.00000   0.00000   0.00000   3.14159
   D41       -0.00000  -0.00000   0.00000   0.00000   0.00000  -0.00000
   D42        3.14159  -0.00000   0.00000  -0.00000  -0.00000   3.14159
   D43        3.14159   0.00000   0.00000   0.00000   0.00000   3.14159
   D44       -0.00000   0.00000   0.00000  -0.00000  -0.00000  -0.00000
   D45        0.00000  -0.00000   0.00000  -0.00000  -0.00000   0.00000
   D46       -3.14159  -0.00000   0.00000  -0.00000  -0.00000  -3.14159
   D47       -0.00000  -0.00000   0.00000  -0.00000  -0.00000  -0.00000
   D48       -3.14159   0.00000   0.00000  -0.00000  -0.00000  -3.14159
   D49        3.14159  -0.00000   0.00000  -0.00000  -0.00000   3.14159
   D50        0.00000   0.00000   0.00000  -0.00000  -0.00000   0.00000
   D51        0.00000   0.00000   0.00000   0.00000   0.00000   0.00000
   D52       -3.14159   0.00000   0.00000  -0.00000  -0.00000  -3.14159
   D53        3.14159  -0.00000   0.00000   0.00000   0.00000   3.14159
   D54        0.00000   0.00000   0.00000  -0.00000  -0.00000   0.00000
   D55        0.00000   0.00000   0.00000   0.00000   0.00000   0.00000
   D56       -3.14159   0.00000   0.00000  -0.00000  -0.00000  -3.14159
   D57        3.14159   0.00000   0.00000   0.00000   0.00000   3.14159
   D58       -0.00000   0.00000   0.00000  -0.00000  -0.00000  -0.00000
   D59        0.00001  -0.00000   0.00000  -0.00000  -0.00000   0.00001
   D60       -3.14158  -0.00000   0.00000  -0.00000  -0.00000  -3.14158
   D61       -0.00001   0.00000   0.00000   0.00000   0.00000  -0.00001
   D62       -0.00000  -0.00000   0.00000   0.00000   0.00000  -0.00000
         Item               Value     Threshold  Converged?
 Maximum Force            3.025781     0.000450     NO 
 RMS     Force            0.394522     0.000300     NO 
 Maximum Displacement     0.142330     0.001800     NO 
 RMS     Displacement     0.028181     0.001200     NO 
 Predicted change in Energy=-6.421075D-01
 GradGradGradGradGradGradGradGradGradGradGradGradGradGradGradGradGradGrad

                          Input orientation:                          
 ---------------------------------------------------------------------
 Center     Atomic      Atomic             Coordinates (Angstroms)
 Number     Number       Type             X           Y           Z
 ---------------------------------------------------------------------
      1          6           0        0.854724    0.330518   -0.002857
      2          6           0        2.196546    0.371882   -0.437158
      3          6           0        2.897703    1.581524   -0.440975
      4          6           0        2.274195    2.755714   -0.015033
      5          6           0        0.946972    2.727597    0.416944
      6          6           0        0.235624    1.523943    0.425244
      7          6           0        0.074260   -1.002920    0.003839
      8          6           0        0.696063   -2.194979   -0.424898
      9          6           0       -0.018909   -3.395720   -0.414855
     10          6           0       -1.345849   -3.429210    0.016025
     11          6           0       -1.964541   -2.252642    0.440829
     12          6           0       -1.267692   -1.041254    0.438757
     13          1           0        3.919189    1.607470   -0.772635
     14          1           0        0.470844    3.633406    0.743925
     15          1           0       -1.888067   -4.355603    0.020680
     16         17           0       -2.112990    0.447441    0.996839
     17         17           0       -1.469951    1.543191    0.990767
     18         17           0       -3.639783   -2.298449    0.984152
     19         17           0        3.163263    4.274706   -0.022659
     20         17           0        0.759110   -4.882842   -0.950475
     21         17           0        2.405527   -2.207231   -0.990390
     22         17           0        3.046041   -1.109998   -0.995337
 ---------------------------------------------------------------------
                    Distance matrix (angstroms):
                    1          2          3          4          5
     1  C    0.000000
     2  C    1.410963   0.000000
     3  C    2.435309   1.398166   0.000000
     4  C    2.810093   2.422163   1.396035   0.000000
     5  C    2.435309   2.800057   2.419682   1.396035   0.000000
     6  C    1.410963   2.432324   2.800057   2.422163   1.398166
     7  C    1.545065   2.566838   3.853446   4.355158   3.853446
     8  C    2.565429   2.973277   4.371436   5.212279   5.000341
     9  C    3.849393   4.370762   5.768905   6.577106   6.254584
    10  C    4.356424   5.215576   6.582100   7.166517   6.582100
    11  C    3.849393   4.997363   6.254584   6.577106   5.768905
    12  C    2.565429   3.842542   5.000341   5.212279   4.371436
    13  H    3.407949   2.146327   1.074293   2.144396   3.391734
    14  H    3.407949   3.874345   3.391734   2.144396   1.074293
    15  H    5.429842   6.264407   7.639777   8.239935   7.639777
    16  Cl   3.133749   4.542484   5.334838   5.059585   3.859891
    17  Cl   2.803921   4.105379   4.596494   4.062077   2.752019
    18  Cl   5.299646   6.573700   7.734592   7.843346   6.827972
    19  Cl   4.570160   4.042077   2.738383   1.760067   2.738383
    20  Cl   5.299646   5.471914   6.827972   7.843346   7.734592
    21  Cl   3.133749   2.646047   3.859891   5.059585   5.334838
    22  Cl   2.803921   1.796990   2.752019   4.062077   4.596494
                    6          7          8          9         10
     6  C    0.000000
     7  C    2.566838   0.000000
     8  C    3.842542   1.411190   0.000000
     9  C    4.997363   2.430941   1.397521   0.000000
    10  C    5.215576   2.811359   2.426344   1.395546   0.000000
    11  C    4.370762   2.430941   2.798504   2.413360   1.395546
    12  C    2.973277   1.411190   2.435840   2.798504   2.426344
    13  H    3.874345   4.711744   4.996807   6.377188   7.328762
    14  H    2.146327   4.711744   5.948693   7.140815   7.328762
    15  H    6.264407   3.884777   3.397730   2.145884   1.073418
    16  Cl   2.646047   2.806004   4.110292   4.598689   4.071722
    17  Cl   1.796990   3.137085   4.546388   5.336117   5.068559
    18  Cl   5.471914   4.053828   4.560229   4.033851   2.734597
    19  Cl   4.042077   6.115225   6.935827   8.313571   8.926584
    20  Cl   6.573700   4.053828   2.739491   1.761742   2.734597
    21  Cl   4.542484   2.806004   1.800610   2.760730   4.071722
    22  Cl   4.105379   3.137085   2.650468   3.867221   5.068559
                   11         12         13         14         15
    11  C    0.000000
    12  C    1.397521   0.000000
    13  H    7.140815   5.948693   0.000000
    14  H    6.377188   4.996807   4.277320   0.000000
    15  H    2.145884   3.397730   8.361328   8.361328   0.000000
    16  Cl   2.760730   1.800610   6.392487   4.109810   4.906395
    17  Cl   3.867221   2.650468   5.670675   2.862973   5.992634
    18  Cl   1.761742   2.739491   8.687956   7.220933   2.868566
    19  Cl   8.313571   6.935827   2.871940   2.871940  10.000002
    20  Cl   4.033851   4.560229   7.220933   8.687956   2.868566
    21  Cl   4.598689   4.110292   4.109810   6.392487   4.906395
    22  Cl   5.336117   4.546388   2.862973   5.670675   5.992634
                   16         17         18         19         20
    16  Cl   0.000000
    17  Cl   1.270513   0.000000
    18  Cl   3.141842   4.412076   0.000000
    19  Cl   6.597437   5.473105   9.513226   0.000000
    20  Cl   6.360260   7.073262   5.456384   9.513226   0.000000
    21  Cl   5.604762   5.745431   6.360260   6.597437   3.141842
    22  Cl   5.745431   5.601625   7.073262   5.473105   4.412076
                   21         22
    21  Cl   0.000000
    22  Cl   1.270513   0.000000
 Stoichiometry    C12H3Cl7
 Framework group  C1[X(C12H3Cl7)]
 Deg. of freedom    60
 Full point group                 C1      NOp   1
 Largest Abelian subgroup         C1      NOp   1
 Largest concise Abelian subgroup C1      NOp   1
                         Standard orientation:                         
 ---------------------------------------------------------------------
 Center     Atomic      Atomic             Coordinates (Angstroms)
 Number     Number       Type             X           Y           Z
 ---------------------------------------------------------------------
      1          6           0        0.951768    0.000000    0.000002
      2          6           0        1.667147    1.216162    0.000000
      3          6           0        3.065299    1.209841   -0.000001
      4          6           0        3.761861    0.000000   -0.000001
      5          6           0        3.065299   -1.209841    0.000003
      6          6           0        1.667147   -1.216162    0.000004
      7          6           0       -0.593297    0.000000    0.000003
      8          6           0       -1.306129    1.217920    0.000003
      9          6           0       -2.703605    1.206680    0.000002
     10          6           0       -3.404656    0.000000    0.000001
     11          6           0       -2.703605   -1.206680   -0.000000
     12          6           0       -1.306129   -1.217920    0.000000
     13          1           0        3.605115    2.138660   -0.000003
     14          1           0        3.605115   -2.138660    0.000005
     15          1           0       -4.478074    0.000000   -0.000002
     16         17           0       -0.450746   -2.802381   -0.000003
     17         17           0        0.819766   -2.800813    0.000008
     18         17           0       -3.591713   -2.728192   -0.000007
     19         17           0        5.521928    0.000000   -0.000003
     20         17           0       -3.591713    2.728192    0.000003
     21         17           0       -0.450746    2.802381    0.000000
     22         17           0        0.819766    2.800813   -0.000003
 ---------------------------------------------------------------------
 Rotational constants (GHZ):           0.2857162           0.1737497           0.1080452
 Standard basis: 6-311+G(d,p) (5D, 7F)
 There are   511 symmetry adapted cartesian basis functions of A   symmetry.
 There are   492 symmetry adapted basis functions of A   symmetry.
   492 basis functions,   827 primitive gaussians,   511 cartesian basis functions
    97 alpha electrons       97 beta electrons
       nuclear repulsion energy      2545.3190201089 Hartrees.
 NAtoms=   22 NActive=   22 NUniq=   22 SFac= 1.00D+00 NAtFMM=   60 NAOKFM=F Big=F
 Integral buffers will be    131072 words long.
 Raffenetti 2 integral format.
 Two-electron integral symmetry is turned on.
 One-electron integrals computed using PRISM.
 NBasis=   492 RedAO= T EigKep=  1.41D-06  NBF=   492
 NBsUse=   485 1.00D-06 EigRej=  5.64D-07 NBFU=   485
 Initial guess from the checkpoint file:  "./Gau-385626.chk"
 B after Tr=     0.000000   -0.000000    0.000000
         Rot=    1.000000   -0.000000   -0.000000   -0.000000 Ang=  -0.00 deg.
 ExpMin= 4.38D-02 ExpMax= 1.06D+05 ExpMxC= 3.62D+03 IAcc=3 IRadAn=         5 AccDes= 0.00D+00
 Harris functional with IExCor=  402 and IRadAn=       5 diagonalized for initial guess.
 HarFok:  IExCor=  402 AccDes= 0.00D+00 IRadAn=         5 IDoV= 1 UseB2=F ITyADJ=14
 ICtDFT=  3500011 ScaDFX=  1.000000  1.000000  1.000000  1.000000
 FoFCou: FMM=F IPFlag=           0 FMFlag=      100000 FMFlg1=           0
         NFxFlg=           0 DoJE=T BraDBF=F KetDBF=T FulRan=T
         wScrn=  0.000000 ICntrl=       500 IOpCl=  0 I1Cent=   200000004 NGrid=           0
         NMat0=    1 NMatS0=      1 NMatT0=    0 NMatD0=    1 NMtDS0=    0 NMtDT0=    0
 Petite list used in FoFCou.
 Requested convergence on RMS density matrix=1.00D-08 within  32 cycles.
 Requested convergence on MAX density matrix=1.00D-06.
 Requested convergence on             energy=1.00D-06.
 No special actions if energy rises.
 SCF Done:  E(RB3LYP) =  -3678.45437070     A.U. after   17 cycles
            NFock= 17  Conv=0.60D-08     -V/T= 1.9995
 QCSCF skips out because SCF is already converged.
 Calling FoFJK, ICntrl=      2127 FMM=F ISym2X=0 I1Cent= 0 IOpClX= 0 NMat=1 NMatS=1 NMatT=0.
 ***** Axes restored to original set *****
 -------------------------------------------------------------------
 Center     Atomic                   Forces (Hartrees/Bohr)
 Number     Number              X              Y              Z
 -------------------------------------------------------------------
      1        6          -0.008889950   -0.015188688    0.000076290
      2        6          -0.061803448    0.077589174    0.034933460
      3        6          -0.009658147   -0.005773964    0.002097629
      4        6          -0.005863135   -0.010017191    0.000050152
      5        6          -0.000313975   -0.011263764   -0.002011886
      6        6           0.097760172   -0.016155999   -0.035242382
      7        6           0.004600440    0.007859920   -0.000039420
      8        6          -0.095514564    0.005179387    0.032440101
      9        6          -0.005093835    0.029056589    0.007135262
     10        6          -0.000924669   -0.001579854    0.000007989
     11        6           0.027797268    0.009732745   -0.007330079
     12        6           0.051145517   -0.080984826   -0.032059515
     13        1           0.009987578    0.000277638   -0.003238324
     14        1          -0.004634481    0.008868242    0.003192412
     15        1          -0.004038962   -0.006900624    0.000034611
     16       17          -1.138725955   -1.737449611    0.048868714
     17       17           0.970591865    1.847487993    0.027190342
     18       17          -0.006630574   -0.001767130    0.001852588
     19       17           0.000570158    0.000974121   -0.000004884
     20       17           0.001698014   -0.006660256   -0.001810272
     21       17          -0.957463018   -1.843943471   -0.030873555
     22       17           1.135403701    1.750659569   -0.045269233
 -------------------------------------------------------------------
 Cartesian Forces:  Max     1.847487993 RMS     0.513354659

 GradGradGradGradGradGradGradGradGradGradGradGradGradGradGradGradGradGrad
 Berny optimization.
 Using GEDIIS/GDIIS optimizer.
 FormGI is forming the generalized inverse of G from B-inverse, IUseBI=4.
 Internal  Forces:  Max     1.972296293 RMS     0.257270241
 Search for a local minimum.
 Step number   2 out of a maximum of  132
 All quantities printed in internal units (Hartrees-Bohrs-Radians)
 Mixed Optimization -- RFO/linear search
 Update second derivatives using D2CorX and points    1    2
 DE= -9.35D-01 DEPred=-6.42D-01 R= 1.46D+00
 TightC=F SS=  1.41D+00  RLast= 3.00D-01 DXNew= 5.0454D-01 8.9994D-01
 Trust test= 1.46D+00 RLast= 3.00D-01 DXMaxT set to 5.05D-01
 ITU=  1  0
 Use linear search instead of GDIIS.
 Linear search step of   0.600 exceeds DXMaxT=   0.505 but not scaled.
 Quartic linear search produced a step of  2.00000.
 Iteration  1 RMS(Cart)=  0.04531210 RMS(Int)=  0.01692898
 Iteration  2 RMS(Cart)=  0.01440190 RMS(Int)=  0.00104913
 Iteration  3 RMS(Cart)=  0.00006460 RMS(Int)=  0.00104780
 Iteration  4 RMS(Cart)=  0.00000009 RMS(Int)=  0.00104780
 Variable       Old X    -DE/DX   Delta X   Delta X   Delta X     New X
                                 (Linear)    (Quad)   (Total)
    R1        2.66633   0.13723   0.03614   0.00000   0.03433   2.70066
    R2        2.66633   0.13723   0.03614   0.00000   0.03433   2.70066
    R3        2.91975   0.25857   0.01914   0.00000   0.01494   2.93470
    R4        2.64215  -0.01014  -0.01222   0.00000  -0.01221   2.62994
    R5        3.39582   0.03857   0.13980   0.00000   0.14074   3.53656
    R6        2.63812  -0.06318  -0.02028   0.00000  -0.01948   2.61864
    R7        2.03012   0.01050   0.01622   0.00000   0.01622   2.04634
    R8        2.63812  -0.06318  -0.02028   0.00000  -0.01948   2.61864
    R9        3.32605   0.00113   0.00025   0.00000   0.00025   3.32630
   R10        2.64215  -0.01014  -0.01222   0.00000  -0.01221   2.62994
   R11        2.03012   0.01050   0.01622   0.00000   0.01622   2.04634
   R12        3.39582   0.03857   0.13980   0.00000   0.14074   3.53656
   R13        2.66676   0.13789   0.03700   0.00000   0.03501   2.70177
   R14        2.66676   0.13789   0.03700   0.00000   0.03501   2.70177
   R15        2.64093  -0.01317  -0.01466   0.00000  -0.01464   2.62629
   R16        3.40266   0.04880   0.15348   0.00000   0.15432   3.55698
   R17        2.63720  -0.06393  -0.02212   0.00000  -0.02126   2.61594
   R18        3.32921   0.00692   0.00658   0.00000   0.00658   3.33579
   R19        2.63720  -0.06393  -0.02212   0.00000  -0.02126   2.61594
   R20        2.02847   0.00800   0.01292   0.00000   0.01292   2.04139
   R21        2.64093  -0.01317  -0.01466   0.00000  -0.01464   2.62629
   R22        3.32921   0.00692   0.00658   0.00000   0.00658   3.33579
   R23        3.40266   0.04880   0.15348   0.00000   0.15432   3.55698
   R24        2.40092   1.97230   0.33680   0.00000   0.33890   2.73982
   R25        2.40092   1.97230   0.33680   0.00000   0.33890   2.73982
    A1        2.07816  -0.17713  -0.03248   0.00000  -0.02973   2.04842
    A2        2.10251   0.08857   0.01624   0.00000   0.01487   2.11738
    A3        2.10251   0.08857   0.01624   0.00000   0.01487   2.11738
    A4        2.09799   0.06365   0.00720   0.00000   0.00627   2.10426
    A5        2.11882   0.11744   0.04885   0.00000   0.04745   2.16627
    A6        2.06637  -0.18109  -0.05605   0.00000  -0.05372   2.01265
    A7        2.09771   0.03439   0.00663   0.00000   0.00607   2.10379
    A8        2.09275  -0.01717  -0.00330   0.00000  -0.00302   2.08973
    A9        2.09273  -0.01722  -0.00333   0.00000  -0.00305   2.08967
   A10        2.09680  -0.01894   0.00482   0.00000   0.00505   2.10186
   A11        2.09319   0.00947  -0.00241   0.00000  -0.00253   2.09066
   A12        2.09319   0.00947  -0.00241   0.00000  -0.00253   2.09066
   A13        2.09771   0.03439   0.00663   0.00000   0.00607   2.10379
   A14        2.09273  -0.01722  -0.00333   0.00000  -0.00305   2.08967
   A15        2.09275  -0.01717  -0.00330   0.00000  -0.00302   2.08973
   A16        2.09799   0.06365   0.00720   0.00000   0.00627   2.10426
   A17        2.11882   0.11744   0.04885   0.00000   0.04745   2.16627
   A18        2.06637  -0.18109  -0.05605   0.00000  -0.05372   2.01265
   A19        2.10033   0.08558   0.01186   0.00000   0.01052   2.11085
   A20        2.10033   0.08558   0.01186   0.00000   0.01052   2.11085
   A21        2.08253  -0.17116  -0.02373   0.00000  -0.02104   2.06149
   A22        2.09228   0.05588  -0.00422   0.00000  -0.00516   2.08712
   A23        2.11704   0.11429   0.04529   0.00000   0.04371   2.16075
   A24        2.07386  -0.17017  -0.04107   0.00000  -0.03855   2.03531
   A25        2.10515   0.04430   0.02151   0.00000   0.02095   2.12611
   A26        2.09110  -0.01947  -0.00659   0.00000  -0.00631   2.08480
   A27        2.08693  -0.02484  -0.01493   0.00000  -0.01465   2.07228
   A28        2.08897  -0.02919  -0.01086   0.00000  -0.01054   2.07843
   A29        2.09711   0.01460   0.00543   0.00000   0.00527   2.10238
   A30        2.09711   0.01460   0.00543   0.00000   0.00527   2.10238
   A31        2.10515   0.04430   0.02151   0.00000   0.02095   2.12611
   A32        2.08693  -0.02484  -0.01493   0.00000  -0.01465   2.07228
   A33        2.09110  -0.01947  -0.00659   0.00000  -0.00631   2.08480
   A34        2.09228   0.05588  -0.00422   0.00000  -0.00516   2.08712
   A35        2.11704   0.11429   0.04529   0.00000   0.04371   2.16075
   A36        2.07386  -0.17017  -0.04107   0.00000  -0.03855   2.03531
   A37        2.06458  -0.20191  -0.05962   0.00000  -0.05686   2.00772
   A38        2.06309  -0.20397  -0.06262   0.00000  -0.05969   2.00339
   A39        2.06458  -0.20191  -0.05962   0.00000  -0.05686   2.00772
   A40        2.06309  -0.20397  -0.06262   0.00000  -0.05969   2.00339
    D1        0.00000   0.00000   0.00000   0.00000   0.00000   0.00000
    D2        3.14159   0.00000   0.00000   0.00000   0.00000   3.14159
    D3       -3.14159   0.00000   0.00000   0.00000   0.00000  -3.14159
    D4       -0.00000   0.00000   0.00000   0.00000   0.00000  -0.00000
    D5       -0.00000  -0.00000  -0.00000   0.00000  -0.00000  -0.00000
    D6        3.14159  -0.00000  -0.00000   0.00000   0.00000   3.14159
    D7        3.14159  -0.00000  -0.00000   0.00000  -0.00000   3.14159
    D8        0.00000  -0.00000  -0.00000   0.00000   0.00000   0.00000
    D9       -0.00000  -0.00000  -0.00000   0.00000  -0.00000  -0.00000
   D10        3.14159  -0.00000  -0.00000   0.00000  -0.00000   3.14159
   D11        3.14159  -0.00000  -0.00000   0.00000  -0.00000   3.14159
   D12       -0.00000  -0.00000  -0.00000   0.00000  -0.00000  -0.00000
   D13        0.00000  -0.00000   0.00000   0.00000   0.00000   0.00000
   D14        3.14159  -0.00000   0.00000   0.00000   0.00000   3.14159
   D15       -3.14159  -0.00000  -0.00000   0.00000  -0.00000  -3.14159
   D16        0.00000  -0.00000  -0.00000   0.00000  -0.00000   0.00000
   D17        0.00000  -0.00000  -0.00000   0.00000  -0.00000   0.00000
   D18       -3.14159  -0.00000  -0.00000   0.00000  -0.00000  -3.14159
   D19       -0.00000  -0.00000  -0.00000   0.00000  -0.00000  -0.00000
   D20        3.14159   0.00000  -0.00000   0.00000  -0.00000   3.14159
   D21        3.14159  -0.00000  -0.00000   0.00000  -0.00000   3.14159
   D22        0.00000  -0.00000  -0.00000   0.00000  -0.00000   0.00000
   D23        0.00000   0.00000  -0.00000   0.00000  -0.00000   0.00000
   D24       -3.14159   0.00000   0.00000   0.00000   0.00000  -3.14159
   D25       -3.14159  -0.00000  -0.00000   0.00000  -0.00000  -3.14159
   D26        0.00000   0.00000   0.00000   0.00000   0.00000   0.00000
   D27       -0.00000   0.00000   0.00000   0.00000   0.00000  -0.00000
[...]
                 (A) (A) (A) (A) (A) (A) (A) (A) (A) (A) (A) (A)
                 (A) (A) (A) (A) (A) (A) (A) (A) (A) (A) (A) (A)
                 (A) (A) (A) (A) (A) (A) (A) (A) (A) (A) (A) (A)
                 (A) (A) (A) (A) (A) (A) (A) (A) (A) (A) (A) (A)
                 (A) (A) (A) (A) (A) (A) (A) (A) (A) (A) (A) (A)
                 (A) (A) (A) (A) (A) (A) (A) (A) (A) (A) (A) (A)
                 (A) (A) (A) (A) (A) (A) (A) (A) (A) (A) (A) (A)
                 (A) (A) (A) (A) (A) (A) (A) (A) (A) (A) (A) (A)
                 (A) (A) (A) (A) (A) (A) (A) (A) (A) (A) (A) (A)
                 (A) (A) (A) (A) (A) (A) (A) (A) (A) (A) (A) (A)
                 (A) (A) (A) (A) (A) (A) (A) (A) (A) (A) (A) (A)
                 (A) (A) (A) (A) (A) (A) (A) (A) (A) (A) (A) (A)
                 (A) (A) (A) (A) (A) (A) (A) (A) (A) (A) (A) (A)
                 (A) (A) (A) (A) (A) (A) (A) (A) (A) (A) (A) (A)
                 (A) (A) (A) (A) (A) (A) (A) (A) (A) (A) (A) (A)
                 (A) (A) (A) (A) (A) (A) (A) (A) (A) (A) (A) (A)
                 (A) (A) (A) (A) (A) (A) (A) (A) (A) (A) (A) (A)
                 (A) (A) (A) (A) (A) (A) (A) (A) (A) (A) (A) (A)
                 (A) (A) (A) (A) (A) (A) (A) (A) (A) (A) (A) (A)
                 (A) (A) (A) (A) (A) (A) (A) (A) (A) (A) (A) (A)
                 (A) (A) (A) (A) (A) (A)
 The electronic state is 1-A.
 Alpha  occ. eigenvalues -- -101.57969-101.57968-101.57962-101.57961-101.57787
 Alpha  occ. eigenvalues -- -101.57786-101.57767 -10.27921 -10.27918 -10.27693
 Alpha  occ. eigenvalues --  -10.27693 -10.27654 -10.27652 -10.27381 -10.24616
 Alpha  occ. eigenvalues --  -10.23932 -10.22758 -10.22031 -10.22030  -9.49437
 Alpha  occ. eigenvalues --   -9.49436  -9.49425  -9.49425  -9.49259  -9.49258
 Alpha  occ. eigenvalues --   -9.49220  -7.25926  -7.25926  -7.25918  -7.25917
 Alpha  occ. eigenvalues --   -7.25734  -7.25733  -7.25696  -7.24915  -7.24914
 Alpha  occ. eigenvalues --   -7.24901  -7.24900  -7.24847  -7.24846  -7.24843
 Alpha  occ. eigenvalues --   -7.24842  -7.24737  -7.24736  -7.24698  -7.24689
 Alpha  occ. eigenvalues --   -7.24688  -7.24657  -0.96470  -0.94422  -0.92213
 Alpha  occ. eigenvalues --   -0.90433  -0.90137  -0.88914  -0.87895  -0.84428
 Alpha  occ. eigenvalues --   -0.83724  -0.80238  -0.76937  -0.75435  -0.74386
 Alpha  occ. eigenvalues --   -0.67209  -0.64138  -0.62586  -0.62330  -0.55687
 Alpha  occ. eigenvalues --   -0.55157  -0.53883  -0.53183  -0.49824  -0.48645
 Alpha  occ. eigenvalues --   -0.47163  -0.47137  -0.46924  -0.45947  -0.45011
 Alpha  occ. eigenvalues --   -0.43942  -0.42575  -0.41649  -0.41476  -0.41119
 Alpha  occ. eigenvalues --   -0.38818  -0.38697  -0.37778  -0.36099  -0.35763
 Alpha  occ. eigenvalues --   -0.34776  -0.34546  -0.34517  -0.33484  -0.33406
 Alpha  occ. eigenvalues --   -0.33248  -0.32909  -0.32679  -0.28389  -0.27811
 Alpha  occ. eigenvalues --   -0.27679  -0.26594
 Alpha virt. eigenvalues --   -0.06499  -0.06118  -0.05915  -0.05390  -0.04546
 Alpha virt. eigenvalues --   -0.03045  -0.00922  -0.00534   0.00384   0.01024
 Alpha virt. eigenvalues --    0.01101   0.01385   0.01992   0.02709   0.03034
 Alpha virt. eigenvalues --    0.03517   0.04155   0.04650   0.04823   0.05370
 Alpha virt. eigenvalues --    0.06050   0.06067   0.06203   0.07369   0.08175
 Alpha virt. eigenvalues --    0.08211   0.08272   0.08628   0.09001   0.09444
 Alpha virt. eigenvalues --    0.09518   0.09830   0.10352   0.10585   0.10961
 Alpha virt. eigenvalues --    0.11329   0.11565   0.11644   0.11805   0.11816
 Alpha virt. eigenvalues --    0.12222   0.12944   0.13572   0.13701   0.14063
 Alpha virt. eigenvalues --    0.14628   0.14735   0.14998   0.15557   0.15927
 Alpha virt. eigenvalues --    0.15999   0.16434   0.17210   0.17377   0.17809
 Alpha virt. eigenvalues --    0.18287   0.18623   0.19056   0.19357   0.19840
 Alpha virt. eigenvalues --    0.20540   0.20737   0.20737   0.21059   0.21389
 Alpha virt. eigenvalues --    0.21406   0.21887   0.22080   0.22473   0.22760
 Alpha virt. eigenvalues --    0.23079   0.23573   0.23814   0.23965   0.25139
 Alpha virt. eigenvalues --    0.25677   0.25911   0.26234   0.26486   0.27065
 Alpha virt. eigenvalues --    0.27462   0.27665   0.28361   0.28538   0.28827
 Alpha virt. eigenvalues --    0.28984   0.29157   0.29623   0.30136   0.30146
 Alpha virt. eigenvalues --    0.31386   0.32193   0.32317   0.33404   0.33495
 Alpha virt. eigenvalues --    0.36406   0.39148   0.39515   0.40140   0.42858
 Alpha virt. eigenvalues --    0.43562   0.43860   0.44243   0.44334   0.45430
 Alpha virt. eigenvalues --    0.45467   0.46307   0.46696   0.46954   0.47138
 Alpha virt. eigenvalues --    0.47250   0.47512   0.48723   0.49457   0.50198
 Alpha virt. eigenvalues --    0.50704   0.51051   0.51249   0.51777   0.53487
 Alpha virt. eigenvalues --    0.53501   0.54920   0.55855   0.57105   0.57216
 Alpha virt. eigenvalues --    0.57420   0.58172   0.58252   0.59422   0.59630
 Alpha virt. eigenvalues --    0.60792   0.61209   0.61375   0.62420   0.62655
 Alpha virt. eigenvalues --    0.63122   0.63674   0.63781   0.65427   0.65469
 Alpha virt. eigenvalues --    0.66261   0.67027   0.67687   0.68344   0.68746
 Alpha virt. eigenvalues --    0.69025   0.69462   0.69892   0.75817   0.78504
 Alpha virt. eigenvalues --    0.79222   0.79496   0.79917   0.82091   0.82690
 Alpha virt. eigenvalues --    0.82720   0.83148   0.83387   0.83502   0.83940
 Alpha virt. eigenvalues --    0.83965   0.83992   0.84288   0.84848   0.85353
 Alpha virt. eigenvalues --    0.85504   0.85759   0.86222   0.86863   0.87327
 Alpha virt. eigenvalues --    0.87578   0.89108   0.89508   0.89945   0.90064
 Alpha virt. eigenvalues --    0.90385   0.90671   0.91128   0.91991   0.93634
 Alpha virt. eigenvalues --    0.93890   0.94589   0.94821   0.95065   0.95804
 Alpha virt. eigenvalues --    0.96808   0.96883   0.96895   0.97509   0.98245
 Alpha virt. eigenvalues --    0.98265   0.98941   1.00366   1.01220   1.01941
 Alpha virt. eigenvalues --    1.03111   1.05838   1.06116   1.06987   1.07159
 Alpha virt. eigenvalues --    1.10003   1.14062   1.16515   1.17274   1.18150
 Alpha virt. eigenvalues --    1.18428   1.20786   1.20952   1.22646   1.23926
 Alpha virt. eigenvalues --    1.24016   1.24417   1.27417   1.27436   1.28072
 Alpha virt. eigenvalues --    1.29185   1.29800   1.30225   1.31290   1.31778
 Alpha virt. eigenvalues --    1.32895   1.36639   1.37636   1.37765   1.43248
 Alpha virt. eigenvalues --    1.44606   1.48075   1.48135   1.50023   1.54041
 Alpha virt. eigenvalues --    1.54693   1.55776   1.57847   1.57955   1.59781
 Alpha virt. eigenvalues --    1.60396   1.62245   1.64794   1.68698   1.71612
 Alpha virt. eigenvalues --    1.74267   1.74991   1.75751   1.76507   1.80535
 Alpha virt. eigenvalues --    1.81125   1.81213   1.83179   1.85326   1.86677
 Alpha virt. eigenvalues --    1.88216   1.91991   1.92794   1.94605   1.95310
 Alpha virt. eigenvalues --    1.95365   1.97639   1.98532   2.02664   2.02783
 Alpha virt. eigenvalues --    2.04481   2.05245   2.08299   2.12059   2.14038
 Alpha virt. eigenvalues --    2.21655   2.22870   2.22990   2.23527   2.24181
 Alpha virt. eigenvalues --    2.25009   2.26041   2.26135   2.29152   2.30124
 Alpha virt. eigenvalues --    2.31456   2.32284   2.33674   2.33982   2.37870
 Alpha virt. eigenvalues --    2.38503   2.40623   2.41625   2.42980   2.45029
 Alpha virt. eigenvalues --    2.46698   2.46759   2.47103   2.49973   2.52338
 Alpha virt. eigenvalues --    2.53083   2.53941   2.56009   2.56159   2.57896
 Alpha virt. eigenvalues --    2.60653   2.62801   2.65436   2.65546   2.68294
 Alpha virt. eigenvalues --    2.68605   2.69510   2.69735   2.72502   2.73626
 Alpha virt. eigenvalues --    2.74294   2.74755   2.76495   2.79838   2.81210
 Alpha virt. eigenvalues --    2.81458   2.82596   2.88226   2.94873   2.96391
 Alpha virt. eigenvalues --    3.04908   3.08473   3.08960   3.10088   3.11529
 Alpha virt. eigenvalues --    3.12542   3.12608   3.18051   3.21940   3.24444
 Alpha virt. eigenvalues --    3.25414   3.27833   3.32355   3.36974   3.46659
 Alpha virt. eigenvalues --    3.51998   3.56940   3.66741   3.69805   3.77770
 Alpha virt. eigenvalues --    3.78784   3.89378   3.94078   4.02243   4.07160
 Alpha virt. eigenvalues --    4.33131   4.80094   4.80351   9.76491   9.76678
 Alpha virt. eigenvalues --    9.78384   9.80155   9.81249   9.85736   9.86488
 Alpha virt. eigenvalues --   23.32936  23.49742  23.78911  23.84681  23.85925
 Alpha virt. eigenvalues --   23.87245  23.93452  23.93817  24.03252  24.05697
 Alpha virt. eigenvalues --   24.08032  24.10927  25.77123  25.80204  25.81528
 Alpha virt. eigenvalues --   25.82993  25.94381  25.95764  26.00561  26.09626
 Alpha virt. eigenvalues --   26.10929  26.17245  26.22162  26.30862  26.36463
 Alpha virt. eigenvalues --   26.38906  26.54378  26.58823  26.62908  26.68525
 Alpha virt. eigenvalues --   26.75231  26.79927  27.12647 215.75604 215.75972
 Alpha virt. eigenvalues --  215.77852 215.80004 215.81297 215.86978 215.87852
          Condensed to atoms (all electrons):
               1          2          3          4          5          6
     1  C   25.620665  -0.719630  -7.821106  -1.762783  -7.852689  -0.740384
     2  C   -0.719630  19.883812  -4.530915  -2.962427   6.358007  -0.676651
     3  C   -7.821106  -4.530915  30.767857  -0.643045  -9.480287   6.340098
     4  C   -1.762783  -2.962427  -0.643045  16.738485  -0.624484  -2.965916
     5  C   -7.852689   6.358007  -9.480287  -0.624484  30.811564  -4.535699
     6  C   -0.740384  -0.676651   6.340098  -2.965916  -4.535699  19.890210
     7  C   13.415585  -2.340247  -5.015071  -0.787133  -5.035611  -2.348106
     8  C   -0.183318  -2.745993  -1.474552  -0.143913  -1.481407  -2.742214
     9  C   -5.918466  -1.318979  -0.263492   0.036857  -0.264392  -1.304093
    10  C   -3.399296   1.285561   0.260919   0.103916   0.265434   1.303803
    11  C   -5.920965  -1.311444  -0.266531   0.038275  -0.267480  -1.296045
    12  C   -0.176674  -2.755974  -1.473621  -0.145767  -1.479335  -2.753046
    13  H    0.104642   0.064044   0.086432   0.054726   0.056108  -0.027200
    14  H    0.104864  -0.027244   0.056269   0.054625   0.085794   0.064385
    15  H    0.015045   0.000285  -0.000008   0.000030  -0.000011   0.000241
    16  Cl   0.958515  -0.076111  -0.169253  -0.006289  -0.170925  -0.077747
    17  Cl  -0.013108  -0.652343   0.552331  -0.313651  -0.816781  -0.391973
    18  Cl  -0.165590  -0.041008  -0.003378   0.000842  -0.003422  -0.041190
    19  Cl  -0.107698  -0.144897   0.369474  -1.062252   0.370759  -0.145983
    20  Cl  -0.165951  -0.040753  -0.003272   0.000865  -0.003358  -0.040956
    21  Cl   0.960618  -0.079885  -0.174149  -0.006454  -0.174916  -0.081742
    22  Cl  -0.012931  -0.388812  -0.812085  -0.315814   0.551833  -0.651581
               7          8          9         10         11         12
     1  C   13.415585  -0.183318  -5.918466  -3.399296  -5.920965  -0.176674
     2  C   -2.340247  -2.745993  -1.318979   1.285561  -1.311444  -2.755974
     3  C   -5.015071  -1.474552  -0.263492   0.260919  -0.266531  -1.473621
     4  C   -0.787133  -0.143913   0.036857   0.103916   0.038275  -0.145767
     5  C   -5.035611  -1.481407  -0.264392   0.265434  -0.267480  -1.479335
     6  C   -2.348106  -2.742214  -1.304093   1.303803  -1.296045  -2.753046
     7  C   24.305930   0.016658  -7.970524  -0.071298  -7.959852   0.000424
     8  C    0.016658  42.319525 -12.978182 -13.104638   9.169034  -8.866683
     9  C   -7.970524 -12.978182  33.117304   1.517449  -7.067081   9.169777
    10  C   -0.071298 -13.104638   1.517449  30.293168   1.487531 -13.068004
    11  C   -7.959852   9.169034  -7.067081   1.487531  33.086718 -12.937311
    12  C    0.000424  -8.866683   9.169777 -13.068004 -12.937311  42.265713
    13  H    0.023458   0.001497  -0.000580   0.000033  -0.000581   0.001495
    14  H    0.023501   0.001488  -0.000582   0.000030  -0.000581   0.001486
    15  H    0.065999   0.114615  -0.023165   0.083767  -0.023113   0.114654
    16  Cl   0.478149  -1.519683   0.939041   0.113010  -2.138253  -0.062316
    17  Cl   0.168998   0.333044  -0.057413  -0.324128  -0.056192   0.332807
    18  Cl  -0.608116   0.463916  -0.166405  -0.095375   0.037082   0.015569
    19  Cl   0.004566  -0.044835  -0.004474  -0.001213  -0.004468  -0.044847
    20  Cl  -0.608396   0.012667   0.038810  -0.092677  -0.166843   0.463143
    21  Cl   0.484163  -0.057057  -2.141583   0.108926   0.941151  -1.517593
    22  Cl   0.170399   0.327272  -0.059521  -0.322277  -0.057663   0.327443
              13         14         15         16         17         18
     1  C    0.104642   0.104864   0.015045   0.958515  -0.013108  -0.165590
     2  C    0.064044  -0.027244   0.000285  -0.076111  -0.652343  -0.041008
     3  C    0.086432   0.056269  -0.000008  -0.169253   0.552331  -0.003378
     4  C    0.054726   0.054625   0.000030  -0.006289  -0.313651   0.000842
     5  C    0.056108   0.085794  -0.000011  -0.170925  -0.816781  -0.003422
     6  C   -0.027200   0.064385   0.000241  -0.077747  -0.391973  -0.041190
     7  C    0.023458   0.023501   0.065999   0.478149   0.168998  -0.608116
     8  C    0.001497   0.001488   0.114615  -1.519683   0.333044   0.463916
     9  C   -0.000580  -0.000582  -0.023165   0.939041  -0.057413  -0.166405
    10  C    0.000033   0.000030   0.083767   0.113010  -0.324128  -0.095375
    11  C   -0.000581  -0.000581  -0.023113  -2.138253  -0.056192   0.037082
    12  C    0.001495   0.001486   0.114654  -0.062316   0.332807   0.015569
    13  H    0.492190  -0.000228  -0.000000  -0.000516   0.000274  -0.000004
    14  H   -0.000228   0.492202  -0.000000  -0.000514  -0.010495  -0.000004
    15  H   -0.000000  -0.000000   0.487171  -0.001168  -0.000258  -0.003324
    16  Cl  -0.000516  -0.000514  -0.001168  18.459206   0.072105  -0.294102
    17  Cl   0.000274  -0.010495  -0.000258   0.072105  17.839286  -0.001604
    18  Cl  -0.000004  -0.000004  -0.003324  -0.294102  -0.001604  17.420295
    19  Cl  -0.013468  -0.013485   0.000000   0.007778  -0.027531   0.000028
    20  Cl  -0.000004  -0.000004  -0.003324   0.005775  -0.001667  -0.023914
    21  Cl  -0.000518  -0.000515  -0.001170  -0.150755   0.073002   0.005835
    22  Cl  -0.010504   0.000279  -0.000258   0.073324  -0.074159  -0.001724
              19         20         21         22
     1  C   -0.107698  -0.165951   0.960618  -0.012931
     2  C   -0.144897  -0.040753  -0.079885  -0.388812
     3  C    0.369474  -0.003272  -0.174149  -0.812085
     4  C   -1.062252   0.000865  -0.006454  -0.315814
     5  C    0.370759  -0.003358  -0.174916   0.551833
     6  C   -0.145983  -0.040956  -0.081742  -0.651581
     7  C    0.004566  -0.608396   0.484163   0.170399
     8  C   -0.044835   0.012667  -0.057057   0.327272
     9  C   -0.004474   0.038810  -2.141583  -0.059521
    10  C   -0.001213  -0.092677   0.108926  -0.322277
    11  C   -0.004468  -0.166843   0.941151  -0.057663
    12  C   -0.044847   0.463143  -1.517593   0.327443
    13  H   -0.013468  -0.000004  -0.000518  -0.010504
    14  H   -0.013485  -0.000004  -0.000515   0.000279
    15  H    0.000000  -0.003324  -0.001170  -0.000258
    16  Cl   0.007778   0.005775  -0.150755   0.073324
    17  Cl  -0.027531  -0.001667   0.073002  -0.074159
    18  Cl   0.000028  -0.023914   0.005835  -0.001724
    19  Cl  17.437913   0.000028   0.007787  -0.027415
    20  Cl   0.000028  17.420412  -0.294212  -0.001846
    21  Cl   0.007787  -0.294212  18.463104   0.074990
    22  Cl  -0.027415  -0.001846   0.074990  17.840596
 Mulliken charges:
               1
     1  C   -0.219346
     2  C   -0.778394
     3  C   -0.302613
     4  C    0.711306
     5  C   -0.308700
     6  C   -0.778209
     7  C   -0.413476
     8  C   -1.417241
     9  C    0.719694
    10  C   -0.344642
    11  C    0.714613
    12  C   -1.411341
    13  H    0.168707
    14  H    0.168730
    15  H    0.173993
    16  Cl   0.560730
    17  Cl   0.369456
    18  Cl   0.505594
    19  Cl   0.444233
    20  Cl   0.505478
    21  Cl   0.560973
    22  Cl   0.370454
 Sum of Mulliken charges =  -0.00000
 Mulliken charges with hydrogens summed into heavy atoms:
               1
     1  C   -0.219346
     2  C   -0.778394
     3  C   -0.133906
     4  C    0.711306
     5  C   -0.139970
     6  C   -0.778209
     7  C   -0.413476
     8  C   -1.417241
     9  C    0.719694
    10  C   -0.170648
    11  C    0.714613
    12  C   -1.411341
    16  Cl   0.560730
    17  Cl   0.369456
    18  Cl   0.505594
    19  Cl   0.444233
    20  Cl   0.505478
    21  Cl   0.560973
    22  Cl   0.370454
 Electronic spatial extent (au):  <R**2>=           8415.8214
 Charge=             -0.0000 electrons
 Dipole moment (field-independent basis, Debye):
    X=              0.1443    Y=              0.0003    Z=              0.0001  Tot=              0.1443
 Quadrupole moment (field-independent basis, Debye-Ang):
   XX=           -150.5512   YY=           -161.0842   ZZ=           -156.1154
   XY=             -0.0016   XZ=             -0.0038   YZ=             -0.0021
 Traceless Quadrupole moment (field-independent basis, Debye-Ang):
   XX=              5.3657   YY=             -5.1672   ZZ=             -0.1985
   XY=             -0.0016   XZ=             -0.0038   YZ=             -0.0021
 Octapole moment (field-independent basis, Debye-Ang**2):
  XXX=            -34.4146  YYY=              0.0050  ZZZ=             -0.0211  XYY=              2.4165
  XXY=              0.0187  XXZ=              0.0101  XZZ=              9.9119  YZZ=              0.0117
  YYZ=             -0.0244  XYZ=             -0.0039
 Hexadecapole moment (field-independent basis, Debye-Ang**3):
 XXXX=          -6827.3163 YYYY=          -2503.9219 ZZZZ=          -1487.3709 XXXY=             -0.0096
 XXXZ=             -0.0111 YYYX=              0.0181 YYYZ=              0.0373 ZZZX=              0.0076
 ZZZY=             -0.0430 XXYY=          -1597.5820 XXZZ=          -1375.7698 YYZZ=           -701.8020
 XXYZ=             -0.0249 YYXZ=             -0.0164 ZZXY=             -0.0179
 N-N= 2.404420837342D+03 E-N=-1.353016685687D+04  KE= 3.671260769260D+03
 1\1\GINC-CN066\FOpt\RB3LYP\6-311+G(d,p)\C12H3Cl7\20CY91R06\25-Mar-2022
 \0\\# opt b3lyp/6-311+g(d,p) scf=xqc\\Title Card Required\\0,1\C,0.838
 9924499,0.3026725979,-0.0031118949\C,2.1288235571,0.3997914403,0.53451
 43005\C,2.8478667941,1.5895736165,0.5373984106\C,2.2583190696,2.719385
 8775,-0.0157070923\C,0.9820805565,2.679530807,-0.5631639478\C,0.293301
 401,1.4720843537,-0.5481328573\C,0.0839689098,-0.9831709056,0.00416821
 26\C,0.1953875192,-1.8783705634,-1.069478426\C,-0.514303799,-3.0828281
 079,-1.0591854015\C,-1.3337529396,-3.3980486152,0.0169139101\C,-1.4523
 451997,-2.5207591595,1.0869748481\C,-0.7461696438,-1.314110918,1.08481
 11253\H,3.8413543265,1.6297680367,0.9606901032\H,0.5315712745,3.563431
 2761,-0.9916134178\H,-1.8812989411,-4.3302534415,0.0217256857\Cl,-0.88
 77970904,-0.2089902244,2.4230871728\Cl,-1.3138543273,1.4369158445,-1.2
 425805436\Cl,-2.4941041981,-2.9671891202,2.4113160591\Cl,3.1449351475,
 4.2294618365,-0.0233465094\Cl,-0.4020999424,-4.2206820032,-2.374884262
 6\Cl,1.22652123,-1.4752754165,-2.4134653663\Cl,2.8848836118,-1.0163929
 89,1.233798923\\Version=EM64L-G16RevB.01\State=1-A\HF=-3680.7520861\RM
 SD=3.910e-09\RMSF=2.041e-05\Dipole=0.0287552,0.0489344,-0.0003935\Quad
 rupole=0.3547443,2.7258697,-3.0806139,2.1427385,1.2724148,-0.7835053\P
 G=C01 [X(C12H3Cl7)]\\@


 THE WORLD IS NOT A HAMBURGER - YOU CAN'T HAVE IT YOUR WAY.
 Job cpu time:       0 days 21 hours 13 minutes 33.2 seconds.
 Elapsed time:       0 days 21 hours 13 minutes 33.9 seconds.
 File lengths (MBytes):  RWF=    148 Int=      0 D2E=      0 Chk=     25 Scr=      1
 Normal termination of Gaussian 16 at Fri Mar 25 21:49:06 2022.
