 Entering Gaussian System, Link 0=g16
 Input=2,2prime,3,5,5prime,6-Hexachlorobiphenyl.gjf
 Output=2,2prime,3,5,5prime,6-Hexachlorobiphenyl.log
 Initial command:
 /home/apps/g16/l1.exe "./Gau-84140.inp" -scrdir="./"
 Entering Link 1 = /home/apps/g16/l1.exe PID=     84141.
  
 Copyright (c) 1988-2017, Gaussian, Inc.  All Rights Reserved.
  
 This is part of the Gaussian(R) 16 program.  It is based on
 the Gaussian(R) 09 system (copyright 2009, Gaussian, Inc.),
 the Gaussian(R) 03 system (copyright 2003, Gaussian, Inc.),
 the Gaussian(R) 98 system (copyright 1998, Gaussian, Inc.),
 the Gaussian(R) 94 system (copyright 1995, Gaussian, Inc.),
 the Gaussian 92(TM) system (copyright 1992, Gaussian, Inc.),
 the Gaussian 90(TM) system (copyright 1990, Gaussian, Inc.),
 the Gaussian 88(TM) system (copyright 1988, Gaussian, Inc.),
 the Gaussian 86(TM) system (copyright 1986, Carnegie Mellon
 University), and the Gaussian 82(TM) system (copyright 1983,
 Carnegie Mellon University). Gaussian is a federally registered
 trademark of Gaussian, Inc.
  
 This software contains proprietary and confidential information,
 including trade secrets, belonging to Gaussian, Inc.
  
 This software is provided under written license and may be
 used, copied, transmitted, or stored only in accord with that
 written license.
  
 The following legend is applicable only to US Government
 contracts under FAR:
  
                    RESTRICTED RIGHTS LEGEND
  
 Use, reproduction and disclosure by the US Government is
 subject to restrictions as set forth in subparagraphs (a)
 and (c) of the Commercial Computer Software - Restricted
 Rights clause in FAR 52.227-19.
  
 Gaussian, Inc.
 340 Quinnipiac St., Bldg. 40, Wallingford CT 06492
  
  
 ---------------------------------------------------------------
 Warning -- This program may not be used in any manner that
 competes with the business of Gaussian, Inc. or will provide
 assistance to any competitor of Gaussian, Inc.  The licensee
 of this program is prohibited from giving any competitor of
 Gaussian, Inc. access to this program.  By using this program,
 the user acknowledges that Gaussian, Inc. is engaged in the
 business of creating and licensing software in the field of
 computational chemistry and represents and warrants to the
 licensee that it is not a competitor of Gaussian, Inc. and that
 it will not use this program in any manner prohibited above.
 ---------------------------------------------------------------
  

 Cite this work as:
 Gaussian 16, Revision B.01,
 M. J. Frisch, G. W. Trucks, H. B. Schlegel, G. E. Scuseria, 
 M. A. Robb, J. R. Cheeseman, G. Scalmani, V. Barone, 
 G. A. Petersson, H. Nakatsuji, X. Li, M. Caricato, A. V. Marenich, 
 J. Bloino, B. G. Janesko, R. Gomperts, B. Mennucci, H. P. Hratchian, 
 J. V. Ortiz, A. F. Izmaylov, J. L. Sonnenberg, D. Williams-Young, 
 F. Ding, F. Lipparini, F. Egidi, J. Goings, B. Peng, A. Petrone, 
 T. Henderson, D. Ranasinghe, V. G. Zakrzewski, J. Gao, N. Rega, 
 G. Zheng, W. Liang, M. Hada, M. Ehara, K. Toyota, R. Fukuda, 
 J. Hasegawa, M. Ishida, T. Nakajima, Y. Honda, O. Kitao, H. Nakai, 
 T. Vreven, K. Throssell, J. A. Montgomery, Jr., J. E. Peralta, 
 F. Ogliaro, M. J. Bearpark, J. J. Heyd, E. N. Brothers, K. N. Kudin, 
 V. N. Staroverov, T. A. Keith, R. Kobayashi, J. Normand, 
 K. Raghavachari, A. P. Rendell, J. C. Burant, S. S. Iyengar, 
 J. Tomasi, M. Cossi, J. M. Millam, M. Klene, C. Adamo, R. Cammi, 
 J. W. Ochterski, R. L. Martin, K. Morokuma, O. Farkas, 
 J. B. Foresman, and D. J. Fox, Gaussian, Inc., Wallingford CT, 2016.
 
 ******************************************
 Gaussian 16:  EM64L-G16RevB.01 20-Dec-2017
                 3-Apr-2022 
 ******************************************
 %mem=32GB
 %nprocshared=16
 Will use up to   16 processors via shared memory.
 --------------------------------
 # opt b3lyp/6-311+g(d,p) scf=xqc
 --------------------------------
 1/18=20,19=15,26=3,38=1/1,3;
 2/9=110,12=2,17=6,18=5,40=1/2;
 3/5=4,6=6,7=111,11=2,25=1,30=1,71=1,74=-5/1,2,3;
 4//1;
 5/5=2,8=3,13=1,38=5/2,8;
 6/7=2,8=2,9=2,10=2,28=1/1;
 7//1,2,3,16;
 1/18=20,19=15,26=3/3(2);
 2/9=110/2;
 99//99;
 2/9=110/2;
 3/5=4,6=6,7=111,11=2,25=1,30=1,71=1,74=-5/1,2,3;
 4/5=5,16=3,69=1/1;
 5/5=2,8=3,13=1,38=5/2,8;
 7//1,2,3,16;
 1/18=20,19=15,26=3/3(-5);
 2/9=110/2;
 6/7=2,8=2,9=2,10=2,19=2,28=1/1;
 99/9=1/99;
 -------------------
 Title Card Required
 -------------------
 Symbolic Z-matrix:
 Charge =  0 Multiplicity = 1
 C                     0.62193   0.01326   0.02376 
 C                     1.95431   0.04314  -0.40959 
 C                     2.6622    1.25259  -0.41566 
 C                     2.03772   2.43216   0.01161 
 C                     0.70533   2.40227   0.44496 
 C                    -0.00256   1.19282   0.45103 
 C                    -0.38061  -1.6996    0.03236 
 C                     0.24388  -2.87917  -0.39492 
 C                    -0.46401  -4.08862  -0.38884 
 C                    -1.79639  -4.1185    0.04451 
 C                    -2.42088  -2.93894   0.47178 
 C                    -1.71299  -1.72949   0.46571 
 H                     2.43112  -0.85748  -0.73582 
 H                     2.57821   3.3556    0.00698 
 H                     0.22852   3.3029    0.77119 
 H                    -2.33689  -5.04195   0.04915 
 Cl                   -2.49727  -0.24809   1.00232 
 Cl                   -1.67588   1.15529   0.99527 
 Cl                   -4.0942   -2.97647   1.01603 
 Cl                    0.32027  -5.57002  -0.92545 
 Cl                    4.33552   1.29013  -0.95989 
 Cl                    1.9172   -2.84163  -0.93915 
 

 GradGradGradGradGradGradGradGradGradGradGradGradGradGradGradGradGradGrad
 Berny optimization.
 Initialization pass.
                           ----------------------------
                           !    Initial Parameters    !
                           ! (Angstroms and Degrees)  !
 --------------------------                            --------------------------
 ! Name  Definition              Value          Derivative Info.                !
 --------------------------------------------------------------------------------
 ! R1    R(1,2)                  1.4014         estimate D2E/DX2                !
 ! R2    R(1,6)                  1.4014         estimate D2E/DX2                !
 ! R3    R(2,3)                  1.4014         estimate D2E/DX2                !
 ! R4    R(2,13)                 1.07           estimate D2E/DX2                !
 ! R5    R(3,4)                  1.4014         estimate D2E/DX2                !
 ! R6    R(3,21)                 1.76           estimate D2E/DX2                !
 ! R7    R(4,5)                  1.4014         estimate D2E/DX2                !
 ! R8    R(4,14)                 1.07           estimate D2E/DX2                !
 ! R9    R(5,6)                  1.4014         estimate D2E/DX2                !
 ! R10   R(5,15)                 1.07           estimate D2E/DX2                !
 ! R11   R(6,18)                 1.76           estimate D2E/DX2                !
 ! R12   R(7,8)                  1.4014         estimate D2E/DX2                !
 ! R13   R(7,12)                 1.4014         estimate D2E/DX2                !
 ! R14   R(8,9)                  1.4014         estimate D2E/DX2                !
 ! R15   R(8,22)                 1.76           estimate D2E/DX2                !
 ! R16   R(9,10)                 1.4014         estimate D2E/DX2                !
 ! R17   R(9,20)                 1.76           estimate D2E/DX2                !
 ! R18   R(10,11)                1.4014         estimate D2E/DX2                !
 ! R19   R(10,16)                1.07           estimate D2E/DX2                !
 ! R20   R(11,12)                1.4014         estimate D2E/DX2                !
 ! R21   R(11,19)                1.76           estimate D2E/DX2                !
 ! R22   R(12,17)                1.76           estimate D2E/DX2                !
 ! R23   R(17,18)                1.6261         estimate D2E/DX2                !
 ! A1    A(2,1,6)              120.0            estimate D2E/DX2                !
 ! A2    A(1,2,3)              120.0            estimate D2E/DX2                !
 ! A3    A(1,2,13)             120.0            estimate D2E/DX2                !
 ! A4    A(3,2,13)             120.0            estimate D2E/DX2                !
 ! A5    A(2,3,4)              120.0            estimate D2E/DX2                !
 ! A6    A(2,3,21)             120.0            estimate D2E/DX2                !
 ! A7    A(4,3,21)             120.0            estimate D2E/DX2                !
 ! A8    A(3,4,5)              120.0            estimate D2E/DX2                !
 ! A9    A(3,4,14)             120.0            estimate D2E/DX2                !
 ! A10   A(5,4,14)             120.0            estimate D2E/DX2                !
 ! A11   A(4,5,6)              120.0            estimate D2E/DX2                !
 ! A12   A(4,5,15)             120.0            estimate D2E/DX2                !
 ! A13   A(6,5,15)             120.0            estimate D2E/DX2                !
 ! A14   A(1,6,5)              120.0            estimate D2E/DX2                !
 ! A15   A(1,6,18)             120.0            estimate D2E/DX2                !
 ! A16   A(5,6,18)             120.0            estimate D2E/DX2                !
 ! A17   A(8,7,12)             120.0            estimate D2E/DX2                !
 ! A18   A(7,8,9)              120.0            estimate D2E/DX2                !
 ! A19   A(7,8,22)             120.0            estimate D2E/DX2                !
 ! A20   A(9,8,22)             120.0            estimate D2E/DX2                !
 ! A21   A(8,9,10)             120.0            estimate D2E/DX2                !
 ! A22   A(8,9,20)             120.0            estimate D2E/DX2                !
 ! A23   A(10,9,20)            120.0            estimate D2E/DX2                !
 ! A24   A(9,10,11)            120.0            estimate D2E/DX2                !
 ! A25   A(9,10,16)            120.0            estimate D2E/DX2                !
 ! A26   A(11,10,16)           120.0            estimate D2E/DX2                !
 ! A27   A(10,11,12)           120.0            estimate D2E/DX2                !
 ! A28   A(10,11,19)           120.0            estimate D2E/DX2                !
 ! A29   A(12,11,19)           120.0            estimate D2E/DX2                !
 ! A30   A(7,12,11)            120.0            estimate D2E/DX2                !
 ! A31   A(7,12,17)            120.0            estimate D2E/DX2                !
 ! A32   A(11,12,17)           120.0            estimate D2E/DX2                !
 ! A33   A(12,17,18)           120.0            estimate D2E/DX2                !
 ! A34   A(6,18,17)            120.0            estimate D2E/DX2                !
 ! D1    D(6,1,2,3)              0.0001         estimate D2E/DX2                !
 ! D2    D(6,1,2,13)           180.0            estimate D2E/DX2                !
 ! D3    D(2,1,6,5)             -0.0001         estimate D2E/DX2                !
 ! D4    D(2,1,6,18)           180.0            estimate D2E/DX2                !
 ! D5    D(1,2,3,4)              0.0            estimate D2E/DX2                !
 ! D6    D(1,2,3,21)           180.0            estimate D2E/DX2                !
 ! D7    D(13,2,3,4)          -179.9999         estimate D2E/DX2                !
 ! D8    D(13,2,3,21)            0.0001         estimate D2E/DX2                !
 ! D9    D(2,3,4,5)             -0.0001         estimate D2E/DX2                !
 ! D10   D(2,3,4,14)           180.0            estimate D2E/DX2                !
 ! D11   D(21,3,4,5)           179.9999         estimate D2E/DX2                !
 ! D12   D(21,3,4,14)            0.0            estimate D2E/DX2                !
 ! D13   D(3,4,5,6)              0.0001         estimate D2E/DX2                !
 ! D14   D(3,4,5,15)          -179.9999         estimate D2E/DX2                !
 ! D15   D(14,4,5,6)          -180.0            estimate D2E/DX2                !
 ! D16   D(14,4,5,15)            0.0            estimate D2E/DX2                !
 ! D17   D(4,5,6,1)              0.0            estimate D2E/DX2                !
 ! D18   D(4,5,6,18)           179.9999         estimate D2E/DX2                !
 ! D19   D(15,5,6,1)           180.0            estimate D2E/DX2                !
 ! D20   D(15,5,6,18)           -0.0001         estimate D2E/DX2                !
 ! D21   D(1,6,18,17)            0.0004         estimate D2E/DX2                !
 ! D22   D(5,6,18,17)         -179.9996         estimate D2E/DX2                !
 ! D23   D(12,7,8,9)             0.0001         estimate D2E/DX2                !
 ! D24   D(12,7,8,22)         -179.9998         estimate D2E/DX2                !
 ! D25   D(8,7,12,11)           -0.0001         estimate D2E/DX2                !
 ! D26   D(8,7,12,17)          179.9999         estimate D2E/DX2                !
 ! D27   D(7,8,9,10)             0.0            estimate D2E/DX2                !
 ! D28   D(7,8,9,20)           180.0            estimate D2E/DX2                !
 ! D29   D(22,8,9,10)          179.9998         estimate D2E/DX2                !
 ! D30   D(22,8,9,20)           -0.0002         estimate D2E/DX2                !
 ! D31   D(8,9,10,11)            0.0            estimate D2E/DX2                !
 ! D32   D(8,9,10,16)         -179.9999         estimate D2E/DX2                !
 ! D33   D(20,9,10,11)         180.0            estimate D2E/DX2                !
 ! D34   D(20,9,10,16)           0.0001         estimate D2E/DX2                !
 ! D35   D(9,10,11,12)           0.0            estimate D2E/DX2                !
 ! D36   D(9,10,11,19)        -179.9998         estimate D2E/DX2                !
 ! D37   D(16,10,11,12)        179.9999         estimate D2E/DX2                !
 ! D38   D(16,10,11,19)          0.0001         estimate D2E/DX2                !
 ! D39   D(10,11,12,7)           0.0            estimate D2E/DX2                !
 ! D40   D(10,11,12,17)       -179.9999         estimate D2E/DX2                !
 ! D41   D(19,11,12,7)         179.9999         estimate D2E/DX2                !
 ! D42   D(19,11,12,17)         -0.0001         estimate D2E/DX2                !
 ! D43   D(7,12,17,18)           0.0004         estimate D2E/DX2                !
 ! D44   D(11,12,17,18)       -179.9997         estimate D2E/DX2                !
 ! D45   D(12,17,18,6)          -0.0006         estimate D2E/DX2                !
 --------------------------------------------------------------------------------
 Trust Radius=3.00D-01 FncErr=1.00D-07 GrdErr=1.00D-06 EigMax=2.50D+02 EigMin=1.00D-04
 Number of steps in this run=    112 maximum allowed number of steps=    132.
 GradGradGradGradGradGradGradGradGradGradGradGradGradGradGradGradGradGrad

                          Input orientation:                          
 ---------------------------------------------------------------------
 Center     Atomic      Atomic             Coordinates (Angstroms)
 Number     Number       Type             X           Y           Z
 ---------------------------------------------------------------------
      1          6           0        0.621929    0.013255    0.023759
      2          6           0        1.954310    0.043141   -0.409588
      3          6           0        2.662204    1.252592   -0.415660
      4          6           0        2.037716    2.432157    0.011614
      5          6           0        0.705335    2.402272    0.444959
      6          6           0       -0.002559    1.192821    0.451032
      7          6           0       -0.380608   -1.699601    0.032360
      8          6           0        0.243879   -2.879167   -0.394915
      9          6           0       -0.464014   -4.088618   -0.388841
     10          6           0       -1.796394   -4.118504    0.044509
     11          6           0       -2.420881   -2.938939    0.471784
     12          6           0       -1.712988   -1.729488    0.465710
     13          1           0        2.431121   -0.857483   -0.735820
     14          1           0        2.578209    3.355600    0.006978
     15          1           0        0.228524    3.302896    0.771191
     16          1           0       -2.336886   -5.041948    0.049148
     17         17           0       -2.497273   -0.248088    1.002321
     18         17           0       -1.675879    1.155288    0.995265
     19         17           0       -4.094199   -2.976474    1.016027
     20         17           0        0.320271   -5.570018   -0.925450
     21         17           0        4.335524    1.290125   -0.959894
     22         17           0        1.917199   -2.841633   -0.939150
 ---------------------------------------------------------------------
                    Distance matrix (angstroms):
                    1          2          3          4          5
     1  C    0.000000
     2  C    1.401400   0.000000
     3  C    2.427296   1.401400   0.000000
     4  C    2.802800   2.427296   1.401400   0.000000
     5  C    2.427296   2.802800   2.427296   1.401400   0.000000
     6  C    1.401400   2.427296   2.802800   2.427296   1.401400
     7  C    1.984700   2.946916   4.263200   4.787500   4.263200
     8  C    2.946916   3.386100   4.787500   5.620790   5.367674
     9  C    4.263200   4.787500   6.188900   6.995679   6.647876
    10  C    4.787500   5.620790   6.995679   7.590300   6.995679
    11  C    4.263200   5.367674   6.647876   6.995679   6.188900
    12  C    2.946916   4.166226   5.367674   5.620790   4.787500
    13  H    2.146700   1.070000   2.146700   3.396345   3.872800
    14  H    3.872800   3.396345   2.146700   1.070000   2.146700
    15  H    3.396345   3.872800   3.396345   2.146700   1.070000
    16  H    5.857500   6.669552   8.051594   8.660300   8.051594
    17  Cl   3.279528   4.679198   5.557240   5.360163   4.194253
    18  Cl   2.743718   4.048303   4.562800   4.048303   2.743718
    19  Cl   5.671414   6.909046   8.098377   8.237871   7.231359
    20  Cl   5.671414   5.868880   7.231359   8.237871   8.098377
    21  Cl   4.048303   2.743718   1.760000   2.743718   4.048303
    22  Cl   3.279528   2.933213   4.194253   5.360163   5.557240
                    6          7          8          9         10
     6  C    0.000000
     7  C    2.946916   0.000000
     8  C    4.166226   1.401400   0.000000
     9  C    5.367674   2.427296   1.401400   0.000000
    10  C    5.620790   2.802800   2.427296   1.401400   0.000000
    11  C    4.787500   2.427296   2.802800   2.427296   1.401400
    12  C    3.386100   1.401400   2.427296   2.802800   2.427296
    13  H    3.396345   3.033988   2.997907   4.352290   5.395837
    14  H    3.396345   5.857500   6.669552   8.051594   8.660300
    15  H    2.146700   5.093319   6.291100   7.513971   7.726937
    16  H    6.669552   3.872800   3.396345   2.146700   1.070000
    17  Cl   2.933213   2.743718   4.048303   4.562800   4.048303
    18  Cl   1.760000   3.279528   4.679198   5.557240   5.360163
    19  Cl   5.868880   4.048303   4.562800   4.048303   2.743718
    20  Cl   6.909046   4.048303   2.743718   1.760000   2.743718
    21  Cl   4.562800   5.671414   5.868880   7.231359   8.237871
    22  Cl   4.679198   2.743718   1.760000   2.743718   4.048303
                   11         12         13         14         15
    11  C    0.000000
    12  C    1.401400   0.000000
    13  H    5.415966   4.402012   0.000000
    14  H    8.051594   6.669552   4.280590   0.000000
    15  H    6.787452   5.402562   4.942800   2.471400   0.000000
    16  H    2.146700   3.396345   6.392167   9.730300   8.760085
    17  Cl   2.743718   1.760000   5.261327   6.303792   4.482508
    18  Cl   4.194253   2.933213   4.890332   4.890332   2.879094
    19  Cl   1.760000   2.743718   7.080882   9.253884   7.627344
    20  Cl   4.048303   4.562800   5.167169   9.253884   9.034136
    21  Cl   8.098377   6.909046   2.879094   2.879094   4.890332
    22  Cl   4.562800   4.048303   2.059687   6.303792   6.597889
                   16         17         18         19         20
    16  H    0.000000
    17  Cl   4.890332   0.000000
    18  Cl   6.303792   1.626100   0.000000
    19  Cl   2.879094   3.161400   4.787500   0.000000
    20  Cl   2.879094   6.322800   7.273480   5.475705   0.000000
    21  Cl   9.253884   7.273480   6.322800   9.652376   7.948900
    22  Cl   4.890332   5.475705   5.712053   6.322800   3.161400
                   21         22
    21  Cl   0.000000
    22  Cl   4.787500   0.000000
 Stoichiometry    C12H4Cl6
 Framework group  C1[X(C12H4Cl6)]
 Deg. of freedom    60
 Full point group                 C1      NOp   1
 Largest Abelian subgroup         C1      NOp   1
 Largest concise Abelian subgroup C1      NOp   1
                         Standard orientation:                         
 ---------------------------------------------------------------------
 Center     Atomic      Atomic             Coordinates (Angstroms)
 Number     Number       Type             X           Y           Z
 ---------------------------------------------------------------------
      1          6           0        1.376658   -0.358960    0.000002
      2          6           0        2.360904    0.638628   -0.000000
      3          6           0        3.716964    0.285039   -0.000002
      4          6           0        4.088777   -1.066137   -0.000002
      5          6           0        3.104530   -2.063724    0.000002
      6          6           0        1.748471   -1.710136    0.000004
      7          6           0       -0.543830    0.141802    0.000003
      8          6           0       -0.915643    1.492978    0.000003
      9          6           0       -2.271702    1.846567    0.000002
     10          6           0       -3.255948    0.848979    0.000001
     11          6           0       -2.884135   -0.502197   -0.000000
     12          6           0       -1.528076   -0.855786    0.000000
     13          1           0        2.077017    1.670281   -0.000002
     14          1           0        5.124158   -1.336110   -0.000003
     15          1           0        3.388418   -3.095377    0.000004
     16          1           0       -4.291330    1.118952   -0.000002
     17         17           0       -1.061121   -2.552710   -0.000003
     18         17           0        0.512368   -2.962993    0.000007
     19         17           0       -4.120238   -1.755054   -0.000007
     20         17           0       -2.738657    3.543491    0.000003
     21         17           0        4.953066    1.537897   -0.000005
     22         17           0        0.320460    2.745835    0.000000
 ---------------------------------------------------------------------
 Rotational constants (GHZ):           0.3084240           0.1826948           0.1147329
 Standard basis: 6-311+G(d,p) (5D, 7F)
 There are   486 symmetry adapted cartesian basis functions of A   symmetry.
 There are   468 symmetry adapted basis functions of A   symmetry.
   468 basis functions,   782 primitive gaussians,   486 cartesian basis functions
    89 alpha electrons       89 beta electrons
       nuclear repulsion energy      2060.3729239280 Hartrees.
 NAtoms=   22 NActive=   22 NUniq=   22 SFac= 1.00D+00 NAtFMM=   60 NAOKFM=F Big=F
 Integral buffers will be    131072 words long.
 Raffenetti 2 integral format.
 Two-electron integral symmetry is turned on.
 One-electron integrals computed using PRISM.
 NBasis=   468 RedAO= T EigKep=  1.58D-06  NBF=   468
 NBsUse=   462 1.00D-06 EigRej=  7.16D-07 NBFU=   462
 ExpMin= 4.38D-02 ExpMax= 1.06D+05 ExpMxC= 3.62D+03 IAcc=3 IRadAn=         5 AccDes= 0.00D+00
 Harris functional with IExCor=  402 and IRadAn=       5 diagonalized for initial guess.
 HarFok:  IExCor=  402 AccDes= 0.00D+00 IRadAn=         5 IDoV= 1 UseB2=F ITyADJ=14
 ICtDFT=  3500011 ScaDFX=  1.000000  1.000000  1.000000  1.000000
 FoFCou: FMM=F IPFlag=           0 FMFlag=      100000 FMFlg1=           0
         NFxFlg=           0 DoJE=T BraDBF=F KetDBF=T FulRan=T
         wScrn=  0.000000 ICntrl=       500 IOpCl=  0 I1Cent=   200000004 NGrid=           0
         NMat0=    1 NMatS0=      1 NMatT0=    0 NMatD0=    1 NMtDS0=    0 NMtDT0=    0
 Petite list used in FoFCou.
 Requested convergence on RMS density matrix=1.00D-08 within  32 cycles.
 Requested convergence on MAX density matrix=1.00D-06.
 Requested convergence on             energy=1.00D-06.
 No special actions if energy rises.
 EnCoef did     4 forward-backward iterations
 EnCoef did     2 forward-backward iterations
 EnCoef did   100 forward-backward iterations
 Restarting incremental Fock formation.
 SCF Done:  E(RB3LYP) =  -3220.54268340     A.U. after   25 cycles
            NFock= 25  Conv=0.29D-08     -V/T= 2.0022
 QCSCF skips out because SCF is already converged.

 **********************************************************************

            Population analysis using the SCF Density.

 **********************************************************************

 Orbital symmetries:
       Occupied  (A) (A) (A) (A) (A) (A) (A) (A) (A) (A) (A) (A)
                 (A) (A) (A) (A) (A) (A) (A) (A) (A) (A) (A) (A)
                 (A) (A) (A) (A) (A) (A) (A) (A) (A) (A) (A) (A)
                 (A) (A) (A) (A) (A) (A) (A) (A) (A) (A) (A) (A)
                 (A) (A) (A) (A) (A) (A) (A) (A) (A) (A) (A) (A)
                 (A) (A) (A) (A) (A) (A) (A) (A) (A) (A) (A) (A)
                 (A) (A) (A) (A) (A) (A) (A) (A) (A) (A) (A) (A)
                 (A) (A) (A) (A) (A)
       Virtual   (A) (A) (A) (A) (A) (A) (A) (A) (A) (A) (A) (A)
                 (A) (A) (A) (A) (A) (A) (A) (A) (A) (A) (A) (A)
                 (A) (A) (A) (A) (A) (A) (A) (A) (A) (A) (A) (A)
                 (A) (A) (A) (A) (A) (A) (A) (A) (A) (A) (A) (A)
                 (A) (A) (A) (A) (A) (A) (A) (A) (A) (A) (A) (A)
                 (A) (A) (A) (A) (A) (A) (A) (A) (A) (A) (A) (A)
                 (A) (A) (A) (A) (A) (A) (A) (A) (A) (A) (A) (A)
                 (A) (A) (A) (A) (A) (A) (A) (A) (A) (A) (A) (A)
                 (A) (A) (A) (A) (A) (A) (A) (A) (A) (A) (A) (A)
                 (A) (A) (A) (A) (A) (A) (A) (A) (A) (A) (A) (A)
                 (A) (A) (A) (A) (A) (A) (A) (A) (A) (A) (A) (A)
                 (A) (A) (A) (A) (A) (A) (A) (A) (A) (A) (A) (A)
                 (A) (A) (A) (A) (A) (A) (A) (A) (A) (A) (A) (A)
                 (A) (A) (A) (A) (A) (A) (A) (A) (A) (A) (A) (A)
                 (A) (A) (A) (A) (A) (A) (A) (A) (A) (A) (A) (A)
                 (A) (A) (A) (A) (A) (A) (A) (A) (A) (A) (A) (A)
                 (A) (A) (A) (A) (A) (A) (A) (A) (A) (A) (A) (A)
                 (A) (A) (A) (A) (A) (A) (A) (A) (A) (A) (A) (A)
                 (A) (A) (A) (A) (A) (A) (A) (A) (A) (A) (A) (A)
                 (A) (A) (A) (A) (A) (A) (A) (A) (A) (A) (A) (A)
                 (A) (A) (A) (A) (A) (A) (A) (A) (A) (A) (A) (A)
                 (A) (A) (A) (A) (A) (A) (A) (A) (A) (A) (A) (A)
                 (A) (A) (A) (A) (A) (A) (A) (A) (A) (A) (A) (A)
                 (A) (A) (A) (A) (A) (A) (A) (A) (A) (A) (A) (A)
                 (A) (A) (A) (A) (A) (A) (A) (A) (A) (A) (A) (A)
                 (A) (A) (A) (A) (A) (A) (A) (A) (A) (A) (A) (A)
                 (A) (A) (A) (A) (A) (A) (A) (A) (A) (A) (A) (A)
                 (A) (A) (A) (A) (A) (A) (A) (A) (A) (A) (A) (A)
                 (A) (A) (A) (A) (A) (A) (A) (A) (A) (A) (A) (A)
                 (A) (A) (A) (A) (A) (A) (A) (A) (A) (A) (A) (A)
                 (A) (A) (A) (A) (A) (A) (A) (A) (A) (A) (A) (A)
                 (A)
 The electronic state is 1-A.
 Alpha  occ. eigenvalues -- -101.69116-101.68046-101.56851-101.56763-101.56724
 Alpha  occ. eigenvalues -- -101.56601 -10.26624 -10.26435 -10.25915 -10.25718
 Alpha  occ. eigenvalues --  -10.24956 -10.24368 -10.21793 -10.21680 -10.21298
 Alpha  occ. eigenvalues --  -10.21289 -10.20095 -10.18594  -9.60521  -9.59580
 Alpha  occ. eigenvalues --   -9.48329  -9.48187  -9.48170  -9.48157  -7.36978
 Alpha  occ. eigenvalues --   -7.36236  -7.36216  -7.35647  -7.35164  -7.34582
 Alpha  occ. eigenvalues --   -7.24751  -7.24681  -7.24629  -7.24619  -7.23812
 Alpha  occ. eigenvalues --   -7.23809  -7.23662  -7.23652  -7.23637  -7.23612
 Alpha  occ. eigenvalues --   -7.23603  -7.23594  -1.16253  -0.93306  -0.91569
 Alpha  occ. eigenvalues --   -0.90003  -0.87937  -0.86926  -0.84722  -0.82743
 Alpha  occ. eigenvalues --   -0.78247  -0.77502  -0.74631  -0.72532  -0.66816
 Alpha  occ. eigenvalues --   -0.65001  -0.62495  -0.60006  -0.58744  -0.56205
 Alpha  occ. eigenvalues --   -0.55191  -0.52253  -0.50901  -0.50559  -0.49409
 Alpha  occ. eigenvalues --   -0.48063  -0.46425  -0.44640  -0.44395  -0.43705
 Alpha  occ. eigenvalues --   -0.42319  -0.42057  -0.41487  -0.39940  -0.39007
 Alpha  occ. eigenvalues --   -0.37009  -0.36357  -0.35995  -0.34128  -0.33650
 Alpha  occ. eigenvalues --   -0.33327  -0.32539  -0.32165  -0.31100  -0.29280
 Alpha  occ. eigenvalues --   -0.27434  -0.26045  -0.24876  -0.12799
 Alpha virt. eigenvalues --   -0.07582  -0.06296  -0.05009  -0.04804  -0.03878
 Alpha virt. eigenvalues --   -0.02534  -0.01623  -0.00375   0.00178   0.00695
 Alpha virt. eigenvalues --    0.01375   0.01646   0.02407   0.03032   0.03457
 Alpha virt. eigenvalues --    0.03855   0.04221   0.04609   0.05560   0.05639
 Alpha virt. eigenvalues --    0.05764   0.06793   0.07231   0.07428   0.07726
 Alpha virt. eigenvalues --    0.07843   0.08169   0.08937   0.09599   0.09706
 Alpha virt. eigenvalues --    0.10229   0.10611   0.10748   0.11010   0.11051
 Alpha virt. eigenvalues --    0.11460   0.12386   0.12484   0.12931   0.13337
 Alpha virt. eigenvalues --    0.13641   0.14087   0.14332   0.14404   0.14834
 Alpha virt. eigenvalues --    0.15394   0.15825   0.15834   0.16034   0.16737
 Alpha virt. eigenvalues --    0.16764   0.17405   0.17697   0.17739   0.18711
 Alpha virt. eigenvalues --    0.19548   0.19956   0.20121   0.20185   0.21022
 Alpha virt. eigenvalues --    0.21308   0.21468   0.22069   0.22234   0.22709
 Alpha virt. eigenvalues --    0.23332   0.24026   0.24298   0.24744   0.24753
 Alpha virt. eigenvalues --    0.25194   0.25830   0.26196   0.26200   0.26604
 Alpha virt. eigenvalues --    0.26852   0.27661   0.27914   0.28265   0.29045
 Alpha virt. eigenvalues --    0.29217   0.30146   0.31212   0.32024   0.32633
 Alpha virt. eigenvalues --    0.33547   0.34108   0.34538   0.35593   0.36168
 Alpha virt. eigenvalues --    0.37381   0.38814   0.39124   0.40472   0.42494
 Alpha virt. eigenvalues --    0.43040   0.43412   0.43472   0.43571   0.43828
 Alpha virt. eigenvalues --    0.44380   0.45670   0.45676   0.45827   0.46822
 Alpha virt. eigenvalues --    0.47309   0.47977   0.48275   0.49273   0.49395
 Alpha virt. eigenvalues --    0.50409   0.50826   0.51886   0.52427   0.52818
 Alpha virt. eigenvalues --    0.53334   0.54633   0.55923   0.56332   0.57141
 Alpha virt. eigenvalues --    0.57853   0.58344   0.58915   0.59261   0.59758
 Alpha virt. eigenvalues --    0.60243   0.60988   0.61836   0.61995   0.63406
 Alpha virt. eigenvalues --    0.64092   0.64394   0.65069   0.65667   0.66174
 Alpha virt. eigenvalues --    0.66592   0.68452   0.69574   0.70056   0.71066
 Alpha virt. eigenvalues --    0.72644   0.75181   0.76700   0.78585   0.79079
 Alpha virt. eigenvalues --    0.80362   0.80650   0.81816   0.82043   0.83606
 Alpha virt. eigenvalues --    0.84164   0.84249   0.84629   0.84805   0.84997
 Alpha virt. eigenvalues --    0.85211   0.85625   0.85793   0.86481   0.86548
 Alpha virt. eigenvalues --    0.87138   0.88325   0.88818   0.88943   0.89374
 Alpha virt. eigenvalues --    0.90204   0.90844   0.91352   0.92900   0.94012
 Alpha virt. eigenvalues --    0.94061   0.94889   0.95351   0.95496   0.96090
 Alpha virt. eigenvalues --    0.96313   0.96896   0.97141   0.97469   0.98024
 Alpha virt. eigenvalues --    1.00302   1.01283   1.01788   1.02386   1.03129
 Alpha virt. eigenvalues --    1.05750   1.06109   1.07062   1.09353   1.09740
 Alpha virt. eigenvalues --    1.10145   1.13097   1.15384   1.17609   1.19745
 Alpha virt. eigenvalues --    1.19756   1.22010   1.23070   1.23641   1.23799
 Alpha virt. eigenvalues --    1.25906   1.26797   1.27246   1.27405   1.28327
 Alpha virt. eigenvalues --    1.29629   1.30610   1.31128   1.32604   1.32953
 Alpha virt. eigenvalues --    1.34851   1.38877   1.44990   1.46555   1.49353
 Alpha virt. eigenvalues --    1.49852   1.50920   1.51818   1.55112   1.56320
 Alpha virt. eigenvalues --    1.58272   1.60357   1.61047   1.61723   1.65497
 Alpha virt. eigenvalues --    1.68137   1.68662   1.70494   1.70633   1.74587
 Alpha virt. eigenvalues --    1.76904   1.77425   1.79298   1.80342   1.83563
 Alpha virt. eigenvalues --    1.85444   1.86792   1.87168   1.87421   1.87887
 Alpha virt. eigenvalues --    1.89144   1.89998   1.91140   1.95275   1.96996
 Alpha virt. eigenvalues --    1.98036   2.01072   2.01771   2.03140   2.05149
 Alpha virt. eigenvalues --    2.06662   2.09407   2.13027   2.14143   2.17010
 Alpha virt. eigenvalues --    2.19449   2.21766   2.23533   2.23831   2.24377
 Alpha virt. eigenvalues --    2.27442   2.27564   2.28458   2.28702   2.30269
 Alpha virt. eigenvalues --    2.30729   2.30975   2.31953   2.33124   2.38273
 Alpha virt. eigenvalues --    2.40188   2.42511   2.42893   2.44937   2.46165
 Alpha virt. eigenvalues --    2.49328   2.53093   2.54081   2.56120   2.57082
 Alpha virt. eigenvalues --    2.58289   2.60173   2.60755   2.61111   2.62635
 Alpha virt. eigenvalues --    2.63113   2.66470   2.67629   2.69623   2.71266
 Alpha virt. eigenvalues --    2.73440   2.74158   2.74847   2.75527   2.75978
 Alpha virt. eigenvalues --    2.77929   2.78027   2.78992   2.84278   2.85625
 Alpha virt. eigenvalues --    2.86176   2.87349   2.89421   2.96917   3.05645
 Alpha virt. eigenvalues --    3.07483   3.08447   3.10048   3.10853   3.14592
 Alpha virt. eigenvalues --    3.17963   3.22191   3.24710   3.29640   3.32172
 Alpha virt. eigenvalues --    3.35030   3.39809   3.43057   3.53377   3.53842
 Alpha virt. eigenvalues --    3.62263   3.70268   3.77644   3.80886   3.89212
 Alpha virt. eigenvalues --    3.92415   4.03596   4.09752   4.17164   4.81003
 Alpha virt. eigenvalues --    4.81380   9.64321   9.76374   9.77316   9.79323
 Alpha virt. eigenvalues --    9.85927   9.98431  23.31270  23.45394  23.80650
 Alpha virt. eigenvalues --   23.83716  23.85034  23.91781  23.95475  23.98191
 Alpha virt. eigenvalues --   24.00758  24.04070  24.06129  24.10945  25.71564
 Alpha virt. eigenvalues --   25.78670  25.80889  25.81853  25.88294  25.94426
 Alpha virt. eigenvalues --   26.08708  26.10342  26.15878  26.21218  26.35744
 Alpha virt. eigenvalues --   26.54534  26.60425  26.64465  26.75796  26.77978
 Alpha virt. eigenvalues --   26.91050  27.07297 215.64247 215.75740 215.76471
 Alpha virt. eigenvalues --  215.79098 215.86788 216.03357
          Condensed to atoms (all electrons):
               1          2          3          4          5          6
     1  C   21.954316   2.699981  -2.826650  -1.960887  -3.785955   1.707990
     2  C    2.699981  17.300443  -3.003506  -4.892979   1.964631  -5.663444
     3  C   -2.826650  -3.003506  24.907187  -7.530967  -5.036576   6.398096
     4  C   -1.960887  -4.892979  -7.530967  24.231857   3.895698 -10.926752
     5  C   -3.785955   1.964631  -5.036576   3.895698  20.961660 -17.653753
     6  C    1.707990  -5.663444   6.398096 -10.926752 -17.653753  46.559958
     7  C    3.787605  -0.593158  -2.321996   0.222961  -1.183272  -0.748019
     8  C   -1.392532  -0.260720  -1.355628  -0.104605   0.406556  -0.019972
     9  C   -3.727373  -0.454772   0.318987   0.187383  -0.268785  -0.168330
    10  C   -1.795218   0.478978  -0.231287   0.152202   0.577407   0.105783
    11  C   -4.207845  -0.236981  -0.382741   0.087584   1.106226  -0.971053
    12  C    3.373904  -0.986968   0.177384  -1.197036  -5.766216   8.052308
    13  H    0.002788   0.308554  -0.260404   0.167070  -0.003342  -0.025293
    14  H    0.045914   0.105033   0.035225   0.393325  -0.116554  -0.121172
    15  H    0.083272  -0.046115  -0.025139  -0.045729   0.264936   0.174824
    16  H    0.002606  -0.001266  -0.000342   0.000046   0.000453   0.000792
    17  Cl  -4.451507   0.421295  -1.901157   1.515011   4.595080  -8.034636
    18  Cl  -2.979815   0.449738  -1.516970   2.776346   6.617903 -13.367463
    19  Cl   0.378539  -0.007053   0.040005  -0.030312  -0.160212   0.111230
    20  Cl  -0.080183  -0.042776  -0.006837   0.006271  -0.000183  -0.011180
    21  Cl  -0.604400   0.111168  -0.557615  -0.223645   0.278323   0.437836
    22  Cl   0.122848  -0.452834  -0.183233  -0.072385  -0.043658  -0.020444
               7          8          9         10         11         12
     1  C    3.787605  -1.392532  -3.727373  -1.795218  -4.207845   3.373904
     2  C   -0.593158  -0.260720  -0.454772   0.478978  -0.236981  -0.986968
     3  C   -2.321996  -1.355628   0.318987  -0.231287  -0.382741   0.177384
     4  C    0.222961  -0.104605   0.187383   0.152202   0.087584  -1.197036
     5  C   -1.183272   0.406556  -0.268785   0.577407   1.106226  -5.766216
     6  C   -0.748019  -0.019972  -0.168330   0.105783  -0.971053   8.052308
     7  C   19.835482  -1.871164  -5.633231   2.164680  -3.454417   1.373957
     8  C   -1.871164  13.749062   0.066333  -6.425355   3.690647   2.801033
     9  C   -5.633231   0.066333  22.467278  -4.145385  -6.501404   2.851416
    10  C    2.164680  -6.425355  -4.145385  28.749700  -5.358789 -12.424858
    11  C   -3.454417   3.690647  -6.501404  -5.358789  28.963705 -11.777146
    12  C    1.373957   2.801033   2.851416 -12.424858 -11.777146  58.474541
    13  H    0.056533   0.055251  -0.004290  -0.001393  -0.016900   0.054465
    14  H    0.005578   0.000578  -0.000081   0.000014   0.000187  -0.000214
    15  H    0.018106   0.000934   0.000410  -0.000191  -0.000409   0.016051
    16  H    0.028400   0.017157   0.034613   0.415982  -0.200353   0.031995
    17  Cl  -3.819757  -2.687381   1.613919   7.157822   4.817551 -36.223417
    18  Cl  -0.840202  -0.104001  -0.128648   0.785954   0.967772  -7.049799
    19  Cl   0.143695   0.562694  -0.670374  -2.942606  -1.037277   5.412233
    20  Cl  -0.519368   0.673463  -0.305397  -0.358350  -0.517153   0.447188
    21  Cl  -0.187385  -0.028989  -0.010759  -0.000384  -0.006124  -0.041613
    22  Cl   0.082204  -1.032036   0.041112   0.080582   0.964265  -0.341634
              13         14         15         16         17         18
     1  C    0.002788   0.045914   0.083272   0.002606  -4.451507  -2.979815
     2  C    0.308554   0.105033  -0.046115  -0.001266   0.421295   0.449738
     3  C   -0.260404   0.035225  -0.025139  -0.000342  -1.901157  -1.516970
     4  C    0.167070   0.393325  -0.045729   0.000046   1.515011   2.776346
     5  C   -0.003342  -0.116554   0.264936   0.000453   4.595080   6.617903
     6  C   -0.025293  -0.121172   0.174824   0.000792  -8.034636 -13.367463
     7  C    0.056533   0.005578   0.018106   0.028400  -3.819757  -0.840202
     8  C    0.055251   0.000578   0.000934   0.017157  -2.687381  -0.104001
     9  C   -0.004290  -0.000081   0.000410   0.034613   1.613919  -0.128648
    10  C   -0.001393   0.000014  -0.000191   0.415982   7.157822   0.785954
    11  C   -0.016900   0.000187  -0.000409  -0.200353   4.817551   0.967772
    12  C    0.054465  -0.000214   0.016051   0.031995 -36.223417  -7.049799
    13  H    0.583887  -0.000356   0.000006   0.000005   0.030716   0.015814
    14  H   -0.000356   0.511184  -0.008860   0.000000   0.001016   0.007238
    15  H    0.000006  -0.008860   0.516088  -0.000000  -0.012111  -0.088240
    16  H    0.000005   0.000000  -0.000000   0.506721   0.034525   0.001963
    17  Cl   0.030716   0.001016  -0.012111   0.034525  51.096579   5.740966
    18  Cl   0.015814   0.007238  -0.088240   0.001963   5.740966  25.544079
    19  Cl  -0.000422  -0.000002   0.000080  -0.034687  -3.619039  -0.508860
    20  Cl   0.003976   0.000001  -0.000001   0.006572   0.091215   0.009603
    21  Cl  -0.038111  -0.010474   0.001845  -0.000001  -0.013901  -0.038721
    22  Cl  -0.081665  -0.000021   0.000082  -0.002709  -0.387082  -0.054957
              19         20         21         22
     1  C    0.378539  -0.080183  -0.604400   0.122848
     2  C   -0.007053  -0.042776   0.111168  -0.452834
     3  C    0.040005  -0.006837  -0.557615  -0.183233
     4  C   -0.030312   0.006271  -0.223645  -0.072385
     5  C   -0.160212  -0.000183   0.278323  -0.043658
     6  C    0.111230  -0.011180   0.437836  -0.020444
     7  C    0.143695  -0.519368  -0.187385   0.082204
     8  C    0.562694   0.673463  -0.028989  -1.032036
     9  C   -0.670374  -0.305397  -0.010759   0.041112
    10  C   -2.942606  -0.358350  -0.000384   0.080582
    11  C   -1.037277  -0.517153  -0.006124   0.964265
    12  C    5.412233   0.447188  -0.041613  -0.341634
    13  H   -0.000422   0.003976  -0.038111  -0.081665
    14  H   -0.000002   0.000001  -0.010474  -0.000021
    15  H    0.000080  -0.000001   0.001845   0.000082
    16  H   -0.034687   0.006572  -0.000001  -0.002709
    17  Cl  -3.619039   0.091215  -0.013901  -0.387082
    18  Cl  -0.508860   0.009603  -0.038721  -0.054957
    19  Cl  18.959502  -0.061842   0.000112   0.036648
    20  Cl  -0.061842  17.441627  -0.000209  -0.287206
    21  Cl   0.000112  -0.000209  17.536735  -0.018845
    22  Cl   0.036648  -0.287206  -0.018845  17.990684
 Mulliken charges:
               1
     1  C   -0.347398
     2  C   -1.197249
     3  C    1.264162
     4  C   -0.650458
     5  C   -0.650367
     6  C    0.182694
     7  C   -0.547232
     8  C   -0.741326
     9  C    0.437377
    10  C   -0.985289
    11  C    0.070656
    12  C   -1.257573
    13  H    0.153112
    14  H    0.152443
    15  H    0.150159
    16  H    0.157531
    17  Cl   1.034293
    18  Cl   0.760301
    19  Cl   0.427949
    20  Cl   0.510772
    21  Cl   0.415155
    22  Cl   0.660286
 Sum of Mulliken charges =  -0.00000
 Mulliken charges with hydrogens summed into heavy atoms:
               1
     1  C   -0.347398
     2  C   -1.044137
     3  C    1.264162
     4  C   -0.498015
     5  C   -0.500208
     6  C    0.182694
     7  C   -0.547232
     8  C   -0.741326
     9  C    0.437377
    10  C   -0.827758
    11  C    0.070656
    12  C   -1.257573
    17  Cl   1.034293
    18  Cl   0.760301
    19  Cl   0.427949
    20  Cl   0.510772
    21  Cl   0.415155
    22  Cl   0.660286
 Electronic spatial extent (au):  <R**2>=           8165.7531
 Charge=             -0.0000 electrons
 Dipole moment (field-independent basis, Debye):
    X=              1.0853    Y=             -3.6212    Z=              0.0000  Tot=              3.7804
 Quadrupole moment (field-independent basis, Debye-Ang):
   XX=           -146.7432   YY=           -141.5692   ZZ=           -147.4795
   XY=             -6.5525   XZ=              0.0000   YZ=             -0.0000
 Traceless Quadrupole moment (field-independent basis, Debye-Ang):
   XX=             -1.4792   YY=              3.6948   ZZ=             -2.2156
   XY=             -6.5525   XZ=              0.0000   YZ=             -0.0000
 Octapole moment (field-independent basis, Debye-Ang**2):
  XXX=              1.2387  YYY=            -28.9431  ZZZ=             -0.0000  XYY=             16.7859
  XXY=            -18.9443  XXZ=             -0.0000  XZZ=             -7.4455  YZZ=             -2.5969
  YYZ=             -0.0000  XYZ=             -0.0000
 Hexadecapole moment (field-independent basis, Debye-Ang**3):
 XXXX=          -6768.4794 YYYY=          -3786.7625 ZZZZ=           -174.3106 XXXY=           -135.2651
 XXXZ=              0.0001 YYYX=             45.7394 YYYZ=             -0.0002 ZZZX=              0.0000
 ZZZY=             -0.0000 XXYY=          -1729.2710 XXZZ=          -1210.4610 YYZZ=           -680.2060
 XXYZ=             -0.0001 YYXZ=              0.0001 ZZXY=             22.0861
 N-N= 2.060372923928D+03 E-N=-1.174800347638D+04  KE= 3.213627977439D+03
 Calling FoFJK, ICntrl=      2127 FMM=F ISym2X=0 I1Cent= 0 IOpClX= 0 NMat=1 NMatS=1 NMatT=0.
 ***** Axes restored to original set *****
 -------------------------------------------------------------------
 Center     Atomic                   Forces (Hartrees/Bohr)
 Number     Number              X              Y              Z
 -------------------------------------------------------------------
      1        6          -0.016336407   -0.063423247   -0.006529340
      2        6           0.000066489    0.012974752    0.002415056
      3        6          -0.015769713    0.002389685    0.005644331
      4        6          -0.004478831   -0.011107848   -0.000610824
      5        6           0.001562551   -0.018560991   -0.004000580
      6        6           0.088658439   -0.028870757   -0.034631345
      7        6           0.019479218    0.042357068    0.001537565
      8        6           0.002406077    0.014471013    0.001925110
      9        6          -0.004606980    0.001762555    0.001848794
     10        6          -0.000901254    0.009948060    0.002165268
     11        6           0.046797374    0.007741161   -0.013963961
     12        6           0.071858019   -0.145319331   -0.050966078
     13        1           0.002552489    0.007806563    0.000625148
     14        1           0.004537752    0.008477542    0.000097191
     15        1          -0.005605045    0.010378323    0.003795798
     16        1          -0.003953842   -0.010800163   -0.000725786
     17       17          -0.204122359   -0.150782151    0.038932772
     18       17           0.042161080    0.334674605    0.048962834
     19       17          -0.012010229    0.000551111    0.004060392
     20       17          -0.006217410    0.003212201    0.002651652
     21       17          -0.003893211   -0.000098398    0.001264147
     22       17          -0.002184207   -0.027781752   -0.004498145
 -------------------------------------------------------------------
 Cartesian Forces:  Max     0.334674605 RMS     0.059367810

 GradGradGradGradGradGradGradGradGradGradGradGradGradGradGradGradGradGrad
 Berny optimization.
 FormGI is forming the generalized inverse of G from B-inverse, IUseBI=4.
 Internal  Forces:  Max     0.290261166 RMS     0.046244866
 Search for a local minimum.
 Step number   1 out of a maximum of  112
 All quantities printed in internal units (Hartrees-Bohrs-Radians)
 Mixed Optimization -- RFO/linear search
 Second derivative matrix not updated -- first step.
 ITU=  0
     Eigenvalues ---    0.00238   0.00238   0.01655   0.01655   0.02070
     Eigenvalues ---    0.02070   0.02070   0.02070   0.02070   0.02070
     Eigenvalues ---    0.02070   0.02070   0.02070   0.02070   0.02070
     Eigenvalues ---    0.02070   0.02070   0.02070   0.04920   0.16000
     Eigenvalues ---    0.16000   0.16000   0.16000   0.22319   0.23430
     Eigenvalues ---    0.23454   0.24560   0.25000   0.25000   0.25000
     Eigenvalues ---    0.25000   0.25000   0.25000   0.25000   0.25000
     Eigenvalues ---    0.25000   0.25000   0.29539   0.29539   0.29539
     Eigenvalues ---    0.29539   0.29539   0.29539   0.37230   0.37230
     Eigenvalues ---    0.37230   0.37230   0.41511   0.41797   0.42020
     Eigenvalues ---    0.42057   0.45389   0.45389   0.45389   0.45389
     Eigenvalues ---    0.45389   0.45389   0.45389   0.45389   1.70884
 RFO step:  Lambda=-2.97310744D-01 EMin= 2.37799124D-03
 Linear search not attempted -- first point.
 Maximum step size (   0.300) exceeded in Quadratic search.
    -- Step size scaled by   0.430
 Iteration  1 RMS(Cart)=  0.33501394 RMS(Int)=  0.01099030
 Iteration  2 RMS(Cart)=  0.14974100 RMS(Int)=  0.00135001
 Iteration  3 RMS(Cart)=  0.00231956 RMS(Int)=  0.00002554
 Iteration  4 RMS(Cart)=  0.00000047 RMS(Int)=  0.00002554
 Variable       Old X    -DE/DX   Delta X   Delta X   Delta X     New X
                                 (Linear)    (Quad)   (Total)
    R1        2.64826  -0.00040   0.00000   0.00007   0.00011   2.64837
    R2        2.64826   0.03131   0.00000   0.01830   0.01833   2.66659
    R3        2.64826  -0.00286   0.00000  -0.00170  -0.00169   2.64657
    R4        2.02201  -0.00562   0.00000  -0.00361  -0.00361   2.01839
    R5        2.64826  -0.01326   0.00000  -0.00796  -0.00799   2.64027
    R6        3.32592  -0.00409   0.00000  -0.00297  -0.00297   3.32294
    R7        2.64826  -0.01823   0.00000  -0.01074  -0.01078   2.63748
    R8        2.02201   0.00961   0.00000   0.00618   0.00618   2.02818
    R9        2.64826  -0.01647   0.00000  -0.00937  -0.00938   2.63888
   R10        2.02201   0.01239   0.00000   0.00796   0.00796   2.02997
   R11        3.32592   0.05694   0.00000   0.04135   0.04135   3.36726
   R12        2.64826   0.02744   0.00000   0.01649   0.01653   2.66479
   R13        2.64826   0.03128   0.00000   0.01842   0.01846   2.66672
   R14        2.64826   0.00374   0.00000   0.00242   0.00241   2.65067
   R15        3.32592  -0.00128   0.00000  -0.00093  -0.00093   3.32499
   R16        2.64826  -0.02319   0.00000  -0.01379  -0.01382   2.63444
   R17        3.32592  -0.00628   0.00000  -0.00456  -0.00456   3.32136
   R18        2.64826  -0.02762   0.00000  -0.01660  -0.01663   2.63163
   R19        2.02201   0.01131   0.00000   0.00727   0.00727   2.02928
   R20        2.64826  -0.02413   0.00000  -0.01409  -0.01409   2.63417
   R21        3.32592   0.01266   0.00000   0.00920   0.00920   3.33511
   R22        3.32592   0.15380   0.00000   0.11168   0.11168   3.43760
   R23        3.07288   0.26690   0.00000   0.05726   0.05726   3.13014
    A1        2.09440  -0.04240   0.00000  -0.03204  -0.03194   2.06246
    A2        2.09440   0.00960   0.00000   0.00828   0.00833   2.10273
    A3        2.09440   0.00128   0.00000   0.00159   0.00156   2.09596
    A4        2.09440  -0.01089   0.00000  -0.00987  -0.00989   2.08450
    A5        2.09440   0.01560   0.00000   0.01163   0.01161   2.10601
    A6        2.09440  -0.00782   0.00000  -0.00583  -0.00582   2.08857
    A7        2.09440  -0.00778   0.00000  -0.00580  -0.00579   2.08860
    A8        2.09440  -0.00812   0.00000  -0.00776  -0.00784   2.08655
    A9        2.09440   0.00445   0.00000   0.00425   0.00429   2.09869
   A10        2.09440   0.00366   0.00000   0.00351   0.00355   2.09794
   A11        2.09440  -0.00422   0.00000  -0.00389  -0.00395   2.09044
   A12        2.09440   0.00221   0.00000   0.00204   0.00207   2.09647
   A13        2.09440   0.00201   0.00000   0.00185   0.00188   2.09628
   A14        2.09440   0.02953   0.00000   0.02378   0.02378   2.11818
   A15        2.09440  -0.02262   0.00000  -0.01806  -0.01807   2.07633
   A16        2.09440  -0.00691   0.00000  -0.00571  -0.00572   2.08868
   A17        2.09440  -0.04195   0.00000  -0.03039  -0.03029   2.06411
   A18        2.09440   0.00612   0.00000   0.00623   0.00625   2.10065
   A19        2.09440   0.04383   0.00000   0.03376   0.03375   2.12815
   A20        2.09440  -0.04996   0.00000  -0.03999  -0.04000   2.05439
   A21        2.09440   0.01441   0.00000   0.01097   0.01092   2.10532
   A22        2.09440  -0.00044   0.00000  -0.00017  -0.00014   2.09425
   A23        2.09440  -0.01396   0.00000  -0.01080  -0.01078   2.08362
   A24        2.09440  -0.01139   0.00000  -0.01140  -0.01148   2.08292
   A25        2.09440   0.00349   0.00000   0.00362   0.00366   2.09805
   A26        2.09440   0.00791   0.00000   0.00778   0.00782   2.10221
   A27        2.09440   0.01753   0.00000   0.01229   0.01225   2.10665
   A28        2.09440  -0.00738   0.00000  -0.00505  -0.00504   2.08936
   A29        2.09440  -0.01015   0.00000  -0.00724  -0.00722   2.08718
   A30        2.09440   0.01528   0.00000   0.01230   0.01233   2.10673
   A31        2.09440   0.00941   0.00000   0.00726   0.00724   2.10164
   A32        2.09440  -0.02469   0.00000  -0.01956  -0.01957   2.07482
   A33        2.09440  -0.13261   0.00000  -0.10428  -0.10428   1.99011
   A34        2.09440  -0.29026   0.00000  -0.22826  -0.22826   1.86613
    D1        0.00000  -0.00000   0.00000  -0.00000  -0.00000   0.00000
    D2        3.14159   0.00000   0.00000   0.00000   0.00000   3.14159
    D3       -0.00000   0.00000   0.00000   0.00000   0.00000  -0.00000
    D4        3.14159   0.00000   0.00000   0.00000   0.00000   3.14159
    D5        0.00000   0.00000   0.00000   0.00000   0.00000   0.00000
    D6        3.14159   0.00000   0.00000   0.00000   0.00000   3.14159
    D7       -3.14159  -0.00000   0.00000  -0.00000  -0.00000  -3.14159
    D8        0.00000  -0.00000   0.00000  -0.00000  -0.00000   0.00000
    D9       -0.00000   0.00000   0.00000   0.00000   0.00000  -0.00000
   D10        3.14159  -0.00000   0.00000  -0.00000  -0.00000   3.14159
   D11        3.14159   0.00000   0.00000   0.00000   0.00000   3.14159
   D12        0.00000  -0.00000   0.00000  -0.00000  -0.00000   0.00000
   D13        0.00000  -0.00000   0.00000  -0.00000  -0.00000   0.00000
   D14       -3.14159  -0.00000   0.00000  -0.00000  -0.00000  -3.14159
   D15       -3.14159  -0.00000   0.00000  -0.00000  -0.00000  -3.14159
   D16        0.00000  -0.00000   0.00000  -0.00000  -0.00000   0.00000
   D17       -0.00000   0.00000   0.00000   0.00000   0.00000  -0.00000
   D18        3.14159  -0.00000   0.00000  -0.00000  -0.00000   3.14159
   D19        3.14159   0.00000   0.00000   0.00000   0.00000   3.14159
   D20       -0.00000  -0.00000   0.00000  -0.00000  -0.00000  -0.00000
   D21        0.00001  -0.00000   0.00000  -0.00000  -0.00000   0.00001
   D22       -3.14158  -0.00000   0.00000  -0.00000  -0.00000  -3.14158
   D23        0.00000  -0.00000   0.00000  -0.00000  -0.00000   0.00000
   D24       -3.14159  -0.00000   0.00000  -0.00000  -0.00000  -3.14159
   D25       -0.00000   0.00000   0.00000   0.00000   0.00000  -0.00000
   D26        3.14159   0.00000   0.00000   0.00000   0.00000   3.14159
   D27       -0.00000  -0.00000   0.00000  -0.00000  -0.00000  -0.00000
   D28        3.14159  -0.00000   0.00000  -0.00000  -0.00000   3.14159
   D29        3.14159   0.00000   0.00000   0.00000   0.00000   3.14159
   D30       -0.00000   0.00000   0.00000   0.00000   0.00000  -0.00000
   D31       -0.00000   0.00000   0.00000   0.00000   0.00000  -0.00000
   D32       -3.14159  -0.00000   0.00000  -0.00000  -0.00000  -3.14159
   D33        3.14159   0.00000   0.00000   0.00000   0.00000   3.14159
   D34        0.00000  -0.00000   0.00000  -0.00000  -0.00000   0.00000
   D35        0.00000  -0.00000   0.00000  -0.00000  -0.00000   0.00000
   D36       -3.14159  -0.00000   0.00000  -0.00000  -0.00000  -3.14159
   D37        3.14159   0.00000   0.00000   0.00000   0.00000   3.14159
   D38        0.00000  -0.00000   0.00000  -0.00000  -0.00000   0.00000
   D39        0.00000  -0.00000   0.00000  -0.00000  -0.00000   0.00000
   D40       -3.14159  -0.00000   0.00000  -0.00000  -0.00000  -3.14159
   D41        3.14159   0.00000   0.00000   0.00000   0.00000   3.14159
   D42       -0.00000  -0.00000   0.00000  -0.00000  -0.00000  -0.00000
   D43        0.00001   0.00000   0.00000   0.00000   0.00000   0.00001
   D44       -3.14159   0.00000   0.00000   0.00000   0.00000  -3.14159
   D45       -0.00001   0.00000   0.00000   0.00000   0.00000  -0.00001
         Item               Value     Threshold  Converged?
 Maximum Force            0.290261     0.000450     NO 
 RMS     Force            0.046245     0.000300     NO 
 Maximum Displacement     1.690066     0.001800     NO 
 RMS     Displacement     0.483231     0.001200     NO 
 Predicted change in Energy=-1.138038D-01
 GradGradGradGradGradGradGradGradGradGradGradGradGradGradGradGradGradGrad

                          Input orientation:                          
 ---------------------------------------------------------------------
 Center     Atomic      Atomic             Coordinates (Angstroms)
 Number     Number       Type             X           Y           Z
 ---------------------------------------------------------------------
      1          6           0        0.148558   -0.204996    0.138723
      2          6           0        1.454525   -0.404435   -0.328990
      3          6           0        2.347802    0.670238   -0.421450
      4          6           0        1.953971    1.958210   -0.049807
      5          6           0        0.656706    2.173271    0.417971
      6          6           0       -0.233796    1.101566    0.510075
      7          6           0       -0.294131   -1.228945    0.092263
      8          6           0        0.465466   -2.325910   -0.364012
      9          6           0       -0.101791   -3.607636   -0.417844
     10          6           0       -1.422044   -3.817150   -0.022226
     11          6           0       -2.178407   -2.738643    0.429517
     12          6           0       -1.628767   -1.459008    0.488762
     13          1           0        1.776395   -1.380879   -0.618415
     14          1           0        2.644055    2.776912   -0.123398
     15          1           0        0.344250    3.159799    0.706189
     16          1           0       -1.849590   -4.801235   -0.066186
     17         17           0       -2.661492   -0.086093    1.086849
     18         17           0       -1.889369    1.379191    1.107650
     19         17           0       -3.850796   -2.992820    0.932767
     20         17           0        0.853762   -4.968065   -0.988159
     21         17           0        3.981482    0.395781   -1.011218
     22         17           0        2.137752   -2.148966   -0.881722
 ---------------------------------------------------------------------
                    Distance matrix (angstroms):
                    1          2          3          4          5
     1  C    0.000000
     2  C    1.401457   0.000000
     3  C    2.432386   1.400506   0.000000
     4  C    2.823919   2.430943   1.397173   0.000000
     5  C    2.447927   2.799828   2.413201   1.395694   0.000000
     6  C    1.411098   2.412985   2.778206   2.415292   1.396435
     7  C    1.116515   1.978653   3.294026   3.902833   3.547570
     8  C    2.202601   2.161372   3.538840   4.546214   4.570634
     9  C    3.456936   3.562374   4.929577   5.944767   5.890059
    10  C    3.942126   4.473854   5.874332   6.689770   6.356109
    11  C    3.452346   4.384296   5.729850   6.274291   5.671410
    12  C    2.203171   3.359693   4.601661   4.980307   4.292069
    13  H    2.146116   1.068087   2.138314   3.391809   3.867788
    14  H    3.897177   3.402679   2.148180   1.073268   2.146397
    15  H    3.417917   3.874026   3.388761   2.146287   1.074214
    16  H    5.015974   5.506186   6.905167   7.756123   7.426955
    17  Cl   2.968073   4.364348   5.285832   5.174327   4.069713
    18  Cl   2.757102   4.053009   4.560085   4.055395   2.754763
    19  Cl   4.939362   6.036406   7.326289   7.692430   6.875397
    20  Cl   4.945099   4.649961   5.860357   7.075610   7.281120
    21  Cl   4.046555   2.737023   1.758427   2.734282   4.031896
    22  Cl   2.962638   1.953381   2.864242   4.194610   4.750203
                    6          7          8          9         10
     6  C    0.000000
     7  C    2.368435   0.000000
     8  C    3.605632   1.410145   0.000000
     9  C    4.801566   2.440364   1.402676   0.000000
    10  C    5.088127   2.825615   2.429673   1.394086   0.000000
    11  C    4.305253   2.437913   2.791076   2.405307   1.392600
    12  C    2.915980   1.411167   2.421685   2.787506   2.421709
    13  H    3.387756   2.194363   1.635951   2.919975   4.064587
    14  H    3.389705   4.972559   5.553642   6.956208   7.747584
    15  H    2.146840   4.477221   5.590441   6.874633   7.233823
    16  H    6.147025   3.899463   3.402267   2.145493   1.073849
    17  Cl   2.763495   2.810641   4.110917   4.606238   4.084980
    18  Cl   1.781879   3.221516   4.630206   5.512804   5.338255
    19  Cl   5.479539   4.058025   4.555933   4.032020   2.736854
    20  Cl   6.345699   4.057831   2.742502   1.757586   2.727072
    21  Cl   4.536632   4.705133   4.493200   5.749136   6.922787
    22  Cl   4.257616   2.776534   1.759509   2.712647   4.024142
                   11         12         13         14         15
    11  C    0.000000
    12  C    1.393943   0.000000
    13  H    4.310701   3.581491   0.000000
    14  H    7.347326   6.047709   4.276109   0.000000
    15  H    6.421212   5.027271   4.942001   2.474656   0.000000
    16  H    2.146655   3.395174   5.015132   8.810473   8.293826
    17  Cl   2.775153   1.819099   4.927396   6.149010   4.440180
    18  Cl   4.183295   2.916558   4.902562   4.901126   2.884577
    19  Cl   1.764866   2.736262   6.055559   8.751479   7.450132
    20  Cl   4.021713   4.545077   3.722346   7.996101   8.318208
    21  Cl   7.060068   6.096317   2.858885   2.871710   4.880445
    22  Cl   4.549318   4.067055   0.888744   5.009558   5.824182
                   16         17         18         19         20
    16  H    0.000000
    17  Cl   4.921507   0.000000
    18  Cl   6.291036   1.656401   0.000000
    19  Cl   2.876299   3.144399   4.795024   0.000000
    20  Cl   2.861114   6.363671   7.225291   5.452010   0.000000
    21  Cl   7.867875   6.983064   6.318511   8.752501   6.209188
    22  Cl   4.857831   5.582423   5.711671   6.314045   3.099561
                   21         22
    21  Cl   0.000000
    22  Cl   3.145131   0.000000
 Stoichiometry    C12H4Cl6
 Framework group  C1[X(C12H4Cl6)]
 Deg. of freedom    60
 Full point group                 C1      NOp   1
 Largest Abelian subgroup         C1      NOp   1
 Largest concise Abelian subgroup C1      NOp   1
                         Standard orientation:                         
 ---------------------------------------------------------------------
 Center     Atomic      Atomic             Coordinates (Angstroms)
 Number     Number       Type             X           Y           Z
 ---------------------------------------------------------------------
      1          6           0        0.580885   -0.772689    0.000002
      2          6           0        1.741064    0.013483    0.000000
      3          6           0        3.006191   -0.587242   -0.000002
      4          6           0        3.134411   -1.978519   -0.000002
      5          6           0        1.988562   -2.775385    0.000002
      6          6           0        0.727221   -2.176179    0.000004
      7          6           0       -0.237411   -0.013086    0.000002
      8          6           0        0.055429    1.366317    0.000003
      9          6           0       -0.981308    2.311133    0.000002
     10          6           0       -2.314265    1.902841    0.000001
     11          6           0       -2.611226    0.542272   -0.000000
     12          6           0       -1.592002   -0.408654   -0.000000
     13          1           0        1.665939    1.078924   -0.000001
     14          1           0        4.107276   -2.431771   -0.000004
     15          1           0        2.076536   -3.845991    0.000003
     16          1           0       -3.102685    2.631912   -0.000001
     17         17           0       -2.036273   -2.172669   -0.000003
     18         17           0       -0.733882   -3.196116    0.000007
     19         17           0       -4.295341    0.014534   -0.000007
     20         17           0       -0.605322    4.028032    0.000004
     21         17           0        4.447778    0.419681   -0.000005
     22         17           0        1.709371    1.966607    0.000000
 ---------------------------------------------------------------------
 Rotational constants (GHZ):           0.3156505           0.2338795           0.1343406
 Standard basis: 6-311+G(d,p) (5D, 7F)
 There are   486 symmetry adapted cartesian basis functions of A   symmetry.
 There are   468 symmetry adapted basis functions of A   symmetry.
   468 basis functions,   782 primitive gaussians,   486 cartesian basis functions
    89 alpha electrons       89 beta electrons
       nuclear repulsion energy      2185.1503686141 Hartrees.
 NAtoms=   22 NActive=   22 NUniq=   22 SFac= 1.00D+00 NAtFMM=   60 NAOKFM=F Big=F
 Integral buffers will be    131072 words long.
 Raffenetti 2 integral format.
 Two-electron integral symmetry is turned on.
 One-electron integrals computed using PRISM.
 NBasis=   468 RedAO= T EigKep=  1.51D-06  NBF=   468
 NBsUse=   460 1.00D-06 EigRej=  8.87D-07 NBFU=   460
 Initial guess from the checkpoint file:  "./Gau-84141.chk"
 B after Tr=    -0.000000    0.000000    0.000000
         Rot=    0.982081   -0.000000   -0.000000    0.188458 Ang= -21.73 deg.
 ExpMin= 4.38D-02 ExpMax= 1.06D+05 ExpMxC= 3.62D+03 IAcc=3 IRadAn=         5 AccDes= 0.00D+00
 Harris functional with IExCor=  402 and IRadAn=       5 diagonalized for initial guess.
 HarFok:  IExCor=  402 AccDes= 0.00D+00 IRadAn=         5 IDoV= 1 UseB2=F ITyADJ=14
 ICtDFT=  3500011 ScaDFX=  1.000000  1.000000  1.000000  1.000000
 FoFCou: FMM=F IPFlag=           0 FMFlag=      100000 FMFlg1=           0
         NFxFlg=           0 DoJE=T BraDBF=F KetDBF=T FulRan=T
         wScrn=  0.000000 ICntrl=       500 IOpCl=  0 I1Cent=   200000004 NGrid=           0
         NMat0=    1 NMatS0=      1 NMatT0=    0 NMatD0=    1 NMtDS0=    0 NMtDT0=    0
 Petite list used in FoFCou.
 Requested convergence on RMS density matrix=1.00D-08 within  32 cycles.
 Requested convergence on MAX density matrix=1.00D-06.
 Requested convergence on             energy=1.00D-06.
 No special actions if energy rises.
 EnCoef did     4 forward-backward iterations
 EnCoef did     3 forward-backward iterations
 Restarting incremental Fock formation.
 SCF Done:  E(RB3LYP) =  -3219.89243336     A.U. after   24 cycles
            NFock= 24  Conv=0.64D-08     -V/T= 2.0007
 QCSCF skips out because SCF is already converged.
 Calling FoFJK, ICntrl=      2127 FMM=F ISym2X=0 I1Cent= 0 IOpClX= 0 NMat=1 NMatS=1 NMatT=0.
 ***** Axes restored to original set *****
 -------------------------------------------------------------------
 Center     Atomic                   Forces (Hartrees/Bohr)
 Number     Number              X              Y              Z
 -------------------------------------------------------------------
      1        6           0.283859747    0.510076249    0.002277361
      2        6          -0.023799553    0.350278835    0.073626714
      3        6          -0.036884895   -0.011163259    0.010055334
      4        6           0.004548373   -0.006007444   -0.002626947
      5        6          -0.015402796   -0.020119736    0.001295986
      6        6           0.074717496   -0.036444996   -0.031460881
      7        6          -0.262849697   -0.502024929   -0.007687215
      8        6          -0.071917125   -0.100737400    0.004773918
      9        6           0.002038579    0.008653096    0.000953567
     10        6          -0.001693956   -0.004159650   -0.000223094
     11        6           0.029140152    0.020522143   -0.005746040
     12        6           0.043832747   -0.147834601   -0.042205801
     13        1          -0.300572049    0.758347429    0.241452423
     14        1           0.005234558    0.007564149   -0.000303887
     15        1          -0.003006113    0.008447167    0.002576878
     16        1          -0.001611745   -0.008825840   -0.001126708
     17       17          -0.194194777   -0.159697795    0.033988061
     18       17           0.034498888    0.322158433    0.049136255
     19       17          -0.007696205   -0.001475743    0.002258423
     20       17          -0.006263020   -0.003072912    0.001486259
     21       17           0.012996123    0.000537969   -0.004180596
     22       17           0.435025269   -0.985021162   -0.328320010
 -------------------------------------------------------------------
 Cartesian Forces:  Max     0.985021162 RMS     0.213430782

 GradGradGradGradGradGradGradGradGradGradGradGradGradGradGradGradGradGrad
 Berny optimization.
 Using GEDIIS/GDIIS optimizer.
 FormGI is forming the generalized inverse of G from B-inverse, IUseBI=4.
 Internal  Forces:  Max    11.841546471 RMS     1.681218749
 Search for a local minimum.
 Step number   2 out of a maximum of  112
 All quantities printed in internal units (Hartrees-Bohrs-Radians)
 Mixed Optimization -- RFO/linear search
 Update second derivatives using D2CorX and points    2    1
 DE=  6.50D-01 DEPred=-1.14D-01 R=-5.71D+00
 Trust test=-5.71D+00 RLast= 3.00D-01 DXMaxT set to 1.50D-01
 ITU= -1  0
 Use linear search instead of GDIIS.
     Eigenvalues ---    0.00238   0.00238   0.01659   0.01668   0.02070
     Eigenvalues ---    0.02070   0.02070   0.02070   0.02070   0.02070
     Eigenvalues ---    0.02070   0.02070   0.02070   0.02070   0.02070
     Eigenvalues ---    0.02070   0.02070   0.02070   0.04920   0.08206
     Eigenvalues ---    0.16000   0.16000   0.16000   0.16009   0.22348
     Eigenvalues ---    0.23435   0.23517   0.24581   0.25000   0.25000
     Eigenvalues ---    0.25000   0.25000   0.25000   0.25000   0.25000
     Eigenvalues ---    0.25000   0.27889   0.29527   0.29539   0.29539
     Eigenvalues ---    0.29539   0.29539   0.37139   0.37214   0.37230
     Eigenvalues ---    0.37230   0.40877   0.41461   0.41724   0.42026
     Eigenvalues ---    0.45221   0.45274   0.45389   0.45389   0.45389
     Eigenvalues ---    0.45389   0.45389   0.45389   1.38239 103.75372
 RFO step:  Lambda=-2.37640314D+00 EMin= 2.37799124D-03
 Quartic linear search produced a step of -0.70417.
 Maximum step size (   0.150) exceeded in Quadratic search.
    -- Step size scaled by   0.157
 Iteration  1 RMS(Cart)=  0.24885465 RMS(Int)=  0.00482686
 Iteration  2 RMS(Cart)=  0.05967210 RMS(Int)=  0.00026721
 Iteration  3 RMS(Cart)=  0.00057642 RMS(Int)=  0.00001748
 Iteration  4 RMS(Cart)=  0.00000003 RMS(Int)=  0.00001748
 Variable       Old X    -DE/DX   Delta X   Delta X   Delta X     New X
                                 (Linear)    (Quad)   (Total)
    R1        2.64837  -0.24735  -0.00008  -0.00133  -0.00143   2.64694
    R2        2.66659  -1.04725  -0.01291   0.00519  -0.00774   2.65885
    R3        2.64657  -0.22592   0.00119  -0.00228  -0.00110   2.64547
    R4        2.01839  -0.84929   0.00255  -0.00708  -0.00453   2.01386
    R5        2.64027  -0.54531   0.00562  -0.00788  -0.00224   2.63804
    R6        3.32294   0.01339   0.00209  -0.00168   0.00041   3.32336
    R7        2.63748  -0.33595   0.00759  -0.00840  -0.00078   2.63670
    R8        2.02818   0.00916  -0.00435   0.00375  -0.00060   2.02758
    R9        2.63888   0.18891   0.00661  -0.00462   0.00200   2.64088
   R10        2.02997   0.00932  -0.00561   0.00482  -0.00079   2.02918
   R11        3.36726  -0.33988  -0.02911   0.02248  -0.00664   3.36063
   R12        2.66479   1.64563  -0.01164   0.01926   0.00760   2.67239
   R13        2.66672   0.70536  -0.01300   0.01517   0.00215   2.66887
   R14        2.65067  -0.27519  -0.00170  -0.00011  -0.00181   2.64887
   R15        3.32499   0.41101   0.00065   0.00190   0.00255   3.32754
   R16        2.63444  -0.78210   0.00973  -0.01280  -0.00304   2.63140
   R17        3.32136  -0.00151   0.00321  -0.00271   0.00050   3.32186
   R18        2.63163  -0.50292   0.01171  -0.01291  -0.00118   2.63046
   R19        2.02928   0.00878  -0.00512   0.00440  -0.00072   2.02856
   R20        2.63417   0.25042   0.00992  -0.00709   0.00283   2.63700
   R21        3.33511   0.00815  -0.00647   0.00550  -0.00098   3.33414
   R22        3.43760   1.51439  -0.07864   0.07519  -0.00346   3.43414
   R23        3.13014   1.68750  -0.04032   0.04478   0.00446   3.13460
    A1        2.06246  -0.51689   0.02249  -0.02197   0.00045   2.06291
    A2        2.10273   0.69263  -0.00587   0.00912   0.00322   2.10595
    A3        2.09596  -0.39624  -0.00110  -0.00155  -0.00263   2.09333
    A4        2.08450  -0.29639   0.00697  -0.00757  -0.00059   2.08391
    A5        2.10601  -0.22294  -0.00818   0.00550  -0.00266   2.10335
    A6        2.08857   0.11596   0.00410  -0.00273   0.00136   2.08993
    A7        2.08860   0.10698   0.00408  -0.00277   0.00130   2.08991
    A8        2.08655  -0.37479   0.00552  -0.00688  -0.00131   2.08525
    A9        2.09869   0.18834  -0.00302   0.00366   0.00061   2.09930
   A10        2.09794   0.18645  -0.00250   0.00322   0.00069   2.09864
   A11        2.09044   0.38912   0.00278   0.00005   0.00288   2.09332
   A12        2.09647  -0.19423  -0.00146   0.00003  -0.00145   2.09502
   A13        2.09628  -0.19489  -0.00132  -0.00008  -0.00143   2.09485
   A14        2.11818   0.03287  -0.01675   0.01418  -0.00258   2.11560
   A15        2.07633   1.87531   0.01272   0.00073   0.01345   2.08978
   A16        2.08868  -1.90818   0.00403  -0.01490  -0.01087   2.07780
   A17        2.06411  -0.57484   0.02133  -0.02119   0.00007   2.06418
   A18        2.10065   0.26530  -0.00440   0.00529   0.00086   2.10151
   A19        2.12815   1.60971  -0.02377   0.02962   0.00586   2.13401
   A20        2.05439  -1.87501   0.02817  -0.03490  -0.00672   2.04767
   A21        2.10532   0.12430  -0.00769   0.00709  -0.00057   2.10475
   A22        2.09425  -0.05057   0.00010  -0.00035  -0.00026   2.09399
   A23        2.08362  -0.07373   0.00759  -0.00675   0.00083   2.08444
   A24        2.08292  -0.12809   0.00808  -0.00761   0.00052   2.08344
   A25        2.09805   0.06183  -0.00258   0.00259  -0.00002   2.09804
   A26        2.10221   0.06625  -0.00550   0.00503  -0.00050   2.10171
   A27        2.10665   0.95762  -0.00863   0.01299   0.00439   2.11104
   A28        2.08936  -0.47933   0.00355  -0.00586  -0.00232   2.08704
   A29        2.08718  -0.47829   0.00508  -0.00714  -0.00207   2.08511
   A30        2.10673  -0.64429  -0.00868   0.00343  -0.00527   2.10145
   A31        2.10164   4.66300  -0.00510   0.03245   0.02736   2.12900
   A32        2.07482  -4.01870   0.01378  -0.03588  -0.02209   2.05273
   A33        1.99011  11.84155   0.07343   0.01027   0.08370   2.07382
   A34        1.86613   9.00925   0.16073  -0.07987   0.08086   1.94700
    D1        0.00000  -0.00000   0.00000  -0.00000   0.00000   0.00000
    D2        3.14159  -0.00000  -0.00000  -0.00000  -0.00000   3.14159
    D3       -0.00000   0.00000  -0.00000   0.00000   0.00000  -0.00000
    D4        3.14159   0.00001  -0.00000   0.00000   0.00000   3.14159
    D5        0.00000   0.00000  -0.00000   0.00000   0.00000   0.00000
    D6        3.14159   0.00000  -0.00000   0.00000  -0.00000   3.14159
    D7       -3.14159   0.00000   0.00000  -0.00000   0.00000  -3.14159
    D8        0.00000   0.00000   0.00000  -0.00000   0.00000   0.00000
    D9       -0.00000   0.00000  -0.00000   0.00000  -0.00000  -0.00000
   D10        3.14159  -0.00000   0.00000  -0.00000   0.00000   3.14159
   D11        3.14159   0.00000  -0.00000   0.00000   0.00000   3.14159
   D12        0.00000   0.00000   0.00000  -0.00000   0.00000   0.00000
   D13        0.00000  -0.00000   0.00000  -0.00000   0.00000   0.00000
   D14       -3.14159  -0.00000   0.00000  -0.00000   0.00000  -3.14159
   D15       -3.14159   0.00000   0.00000  -0.00000   0.00000  -3.14159
   D16        0.00000  -0.00000   0.00000  -0.00000   0.00000   0.00000
   D17       -0.00000   0.00000  -0.00000   0.00000  -0.00000  -0.00000
   D18        3.14159  -0.00000   0.00000  -0.00000  -0.00000   3.14159
   D19        3.14159   0.00000  -0.00000   0.00000  -0.00000   3.14159
   D20       -0.00000  -0.00000   0.00000  -0.00000  -0.00000  -0.00000
   D21        0.00001  -0.00001   0.00000  -0.00000  -0.00000   0.00001
   D22       -3.14158  -0.00000   0.00000  -0.00000  -0.00000  -3.14158
   D23        0.00000  -0.00000   0.00000  -0.00000  -0.00000   0.00000
   D24       -3.14159  -0.00000   0.00000  -0.00000   0.00000  -3.14159
   D25       -0.00000   0.00000  -0.00000   0.00000   0.00000  -0.00000
   D26        3.14159   0.00001  -0.00000   0.00000  -0.00000   3.14159
   D27       -0.00000  -0.00000   0.00000  -0.00000   0.00000  -0.00000
   D28        3.14159  -0.00000   0.00000  -0.00000   0.00000   3.14159
   D29        3.14159   0.00000  -0.00000   0.00000   0.00000   3.14159
   D30       -0.00000   0.00000  -0.00000   0.00000   0.00000  -0.00000
   D31       -0.00000   0.00000  -0.00000   0.00000  -0.00000  -0.00000
   D32       -3.14159  -0.00000   0.00000  -0.00000   0.00000  -3.14159
   D33        3.14159   0.00000  -0.00000   0.00000   0.00000   3.14159
   D34        0.00000   0.00000   0.00000  -0.00000   0.00000   0.00000
   D35        0.00000  -0.00000   0.00000  -0.00000  -0.00000   0.00000
   D36       -3.14159  -0.00000   0.00000  -0.00000  -0.00000  -3.14159
   D37        3.14159   0.00000  -0.00000   0.00000  -0.00000   3.14159
   D38        0.00000  -0.00000   0.00000  -0.00000  -0.00000   0.00000
   D39        0.00000  -0.00000   0.00000  -0.00000   0.00000   0.00000
   D40       -3.14159  -0.00001   0.00000  -0.00000   0.00000  -3.14159
   D41        3.14159   0.00000  -0.00000   0.00000  -0.00000   3.14159
   D42       -0.00000  -0.00000   0.00000  -0.00000   0.00000  -0.00000
   D43        0.00001  -0.00000  -0.00000   0.00000  -0.00000   0.00001
   D44       -3.14159   0.00000  -0.00000   0.00000  -0.00000  -3.14159
   D45       -0.00001  -0.00009  -0.00000   0.00000  -0.00000  -0.00001
         Item               Value     Threshold  Converged?
 Maximum Force            ********     0.000450     NO 
 RMS     Force            1.681219     0.000300     NO 
 Maximum Displacement     1.076159     0.001800     NO 
 RMS     Displacement     0.307473     0.001200     NO 
 Predicted change in Energy=-6.384697D-01
 GradGradGradGradGradGradGradGradGradGradGradGradGradGradGradGradGradGrad

                          Input orientation:                          
 ---------------------------------------------------------------------
 Center     Atomic      Atomic             Coordinates (Angstroms)
 Number     Number       Type             X           Y           Z
 ---------------------------------------------------------------------
      1          6           0        0.399501   -0.061174    0.083060
      2          6           0        1.725663   -0.116891   -0.364315
      3          6           0        2.513919    1.039232   -0.406878
      4          6           0        1.990755    2.269034   -0.003550
      5          6           0        0.671283    2.340113    0.444504
      6          6           0       -0.114245    1.185047    0.486367
      7          6           0       -0.279814   -1.532016    0.030627
      8          6           0        0.367181   -2.711954   -0.404134
      9          6           0       -0.316621   -3.935561   -0.408655
     10          6           0       -1.641367   -4.008646    0.014067
     11          6           0       -2.285761   -2.851986    0.443599
     12          6           0       -1.623393   -1.623830    0.456036
     13          1           0        2.143078   -1.046437   -0.676410
     14          1           0        2.598226    3.152797   -0.037704
     15          1           0        0.259709    3.281425    0.756884
     16          1           0       -2.159141   -4.948970    0.008051
     17         17           0       -2.551260   -0.172248    1.034351
     18         17           0       -1.792914    1.302763    1.061519
     19         17           0       -3.964254   -2.938350    0.980376
     20         17           0        0.498617   -5.395307   -0.951395
     21         17           0        4.176141    0.941589   -0.972842
     22         17           0        2.039239   -2.718445   -0.956220
 ---------------------------------------------------------------------
                    Distance matrix (angstroms):
[...]
                 (A) (A) (A) (A) (A) (A) (A) (A) (A) (A) (A) (A)
                 (A) (A) (A) (A) (A) (A) (A) (A) (A) (A) (A) (A)
                 (A) (A) (A) (A) (A) (A) (A) (A) (A) (A) (A) (A)
                 (A) (A) (A) (A) (A) (A) (A) (A) (A) (A) (A) (A)
                 (A) (A) (A) (A) (A) (A) (A) (A) (A) (A) (A) (A)
                 (A) (A) (A) (A) (A) (A) (A) (A) (A) (A) (A) (A)
                 (A) (A) (A) (A) (A) (A) (A) (A) (A) (A) (A) (A)
                 (A) (A) (A) (A) (A) (A) (A) (A) (A) (A) (A) (A)
                 (A) (A) (A) (A) (A) (A) (A) (A) (A) (A) (A) (A)
                 (A) (A) (A) (A) (A) (A) (A) (A) (A) (A) (A) (A)
                 (A) (A) (A) (A) (A) (A) (A) (A) (A) (A) (A) (A)
                 (A) (A) (A) (A) (A) (A) (A) (A) (A) (A) (A) (A)
                 (A) (A) (A) (A) (A) (A) (A) (A) (A) (A) (A) (A)
                 (A) (A) (A) (A) (A) (A) (A) (A) (A) (A) (A) (A)
                 (A) (A) (A) (A) (A) (A) (A) (A) (A) (A) (A) (A)
                 (A) (A) (A) (A) (A) (A) (A) (A) (A) (A) (A) (A)
                 (A) (A) (A) (A) (A) (A) (A) (A) (A) (A) (A) (A)
                 (A) (A) (A) (A) (A) (A) (A) (A) (A) (A) (A) (A)
                 (A) (A) (A) (A) (A) (A) (A) (A) (A) (A) (A) (A)
                 (A) (A) (A) (A) (A) (A) (A) (A) (A) (A) (A) (A)
                 (A) (A) (A) (A) (A) (A) (A) (A) (A) (A) (A) (A)
                 (A) (A) (A) (A) (A) (A) (A) (A) (A) (A) (A) (A)
                 (A) (A) (A) (A) (A) (A) (A) (A) (A) (A) (A) (A)
                 (A) (A) (A) (A) (A) (A) (A) (A) (A) (A) (A) (A)
                 (A) (A) (A) (A) (A) (A) (A) (A) (A) (A) (A) (A)
                 (A) (A) (A) (A) (A) (A) (A) (A) (A) (A) (A) (A)
                 (A) (A) (A)
 The electronic state is 1-A.
 Alpha  occ. eigenvalues -- -101.57933-101.57933-101.57835-101.57835-101.57034
 Alpha  occ. eigenvalues -- -101.56917 -10.27840 -10.27839 -10.27650 -10.27649
 Alpha  occ. eigenvalues --  -10.26300 -10.26056 -10.24395 -10.23159 -10.22686
 Alpha  occ. eigenvalues --  -10.21500 -10.21382 -10.21324  -9.49390  -9.49389
 Alpha  occ. eigenvalues --   -9.49309  -9.49308  -9.48505  -9.48372  -7.25882
 Alpha  occ. eigenvalues --   -7.25882  -7.25799  -7.25799  -7.24970  -7.24866
 Alpha  occ. eigenvalues --   -7.24866  -7.24839  -7.24807  -7.24807  -7.24789
 Alpha  occ. eigenvalues --   -7.24789  -7.24716  -7.24716  -7.23984  -7.23945
 Alpha  occ. eigenvalues --   -7.23850  -7.23817  -0.96122  -0.92898  -0.92125
 Alpha  occ. eigenvalues --   -0.89713  -0.88881  -0.87803  -0.84625  -0.83997
 Alpha  occ. eigenvalues --   -0.80885  -0.76741  -0.74301  -0.74226  -0.68003
 Alpha  occ. eigenvalues --   -0.64314  -0.62469  -0.61259  -0.55006  -0.54700
 Alpha  occ. eigenvalues --   -0.53239  -0.51973  -0.50056  -0.48211  -0.47044
 Alpha  occ. eigenvalues --   -0.46746  -0.45861  -0.45658  -0.43715  -0.43507
 Alpha  occ. eigenvalues --   -0.42085  -0.40926  -0.40287  -0.40201  -0.38372
 Alpha  occ. eigenvalues --   -0.37626  -0.36190  -0.35652  -0.34732  -0.33604
 Alpha  occ. eigenvalues --   -0.33494  -0.33300  -0.33118  -0.32937  -0.32740
 Alpha  occ. eigenvalues --   -0.29044  -0.28344  -0.26570  -0.26225
 Alpha virt. eigenvalues --   -0.06354  -0.05952  -0.05260  -0.04543  -0.04270
 Alpha virt. eigenvalues --   -0.01000  -0.00834  -0.00354   0.00444   0.00720
 Alpha virt. eigenvalues --    0.01309   0.02037   0.02681   0.03076   0.03123
 Alpha virt. eigenvalues --    0.04183   0.04604   0.05040   0.05660   0.05772
 Alpha virt. eigenvalues --    0.05795   0.06271   0.07317   0.07753   0.07785
 Alpha virt. eigenvalues --    0.08138   0.08500   0.09604   0.09649   0.09951
 Alpha virt. eigenvalues --    0.10447   0.10643   0.10790   0.10949   0.11187
 Alpha virt. eigenvalues --    0.11948   0.12244   0.12409   0.12473   0.12994
 Alpha virt. eigenvalues --    0.13662   0.13772   0.14370   0.14392   0.14777
 Alpha virt. eigenvalues --    0.15000   0.15773   0.15870   0.16226   0.16777
 Alpha virt. eigenvalues --    0.17005   0.17584   0.18132   0.18818   0.19322
 Alpha virt. eigenvalues --    0.19516   0.19566   0.19745   0.19890   0.20745
 Alpha virt. eigenvalues --    0.20771   0.20831   0.21274   0.21473   0.22204
 Alpha virt. eigenvalues --    0.22369   0.22433   0.23098   0.23208   0.23311
 Alpha virt. eigenvalues --    0.24585   0.25202   0.25375   0.25724   0.25762
 Alpha virt. eigenvalues --    0.26098   0.26783   0.27172   0.27706   0.28365
 Alpha virt. eigenvalues --    0.28743   0.28767   0.28867   0.29181   0.29678
 Alpha virt. eigenvalues --    0.29947   0.30435   0.31963   0.32042   0.32348
 Alpha virt. eigenvalues --    0.33387   0.33843   0.34965   0.39664   0.41148
 Alpha virt. eigenvalues --    0.42310   0.43356   0.43813   0.44139   0.44269
 Alpha virt. eigenvalues --    0.45187   0.45426   0.45935   0.46333   0.46475
 Alpha virt. eigenvalues --    0.46732   0.48221   0.48569   0.49750   0.49786
 Alpha virt. eigenvalues --    0.50525   0.51063   0.51561   0.52102   0.53190
 Alpha virt. eigenvalues --    0.53788   0.54394   0.56638   0.57211   0.57703
 Alpha virt. eigenvalues --    0.57919   0.58387   0.58502   0.58953   0.59873
 Alpha virt. eigenvalues --    0.60391   0.61034   0.61703   0.62376   0.63217
 Alpha virt. eigenvalues --    0.63391   0.64476   0.65084   0.65891   0.66566
 Alpha virt. eigenvalues --    0.67448   0.68301   0.68530   0.69109   0.69193
 Alpha virt. eigenvalues --    0.69484   0.70230   0.72487   0.74635   0.78753
 Alpha virt. eigenvalues --    0.79615   0.80305   0.81661   0.82552   0.82943
 Alpha virt. eigenvalues --    0.83235   0.83354   0.83717   0.84091   0.84215
 Alpha virt. eigenvalues --    0.84625   0.84708   0.85171   0.85513   0.86153
 Alpha virt. eigenvalues --    0.86251   0.86253   0.86755   0.87750   0.88502
 Alpha virt. eigenvalues --    0.89296   0.89702   0.90072   0.90226   0.90309
 Alpha virt. eigenvalues --    0.92632   0.93099   0.93719   0.94385   0.94924
 Alpha virt. eigenvalues --    0.95032   0.95496   0.96059   0.96695   0.96846
 Alpha virt. eigenvalues --    0.97747   0.98467   0.98482   1.00237   1.00618
 Alpha virt. eigenvalues --    1.01294   1.02579   1.04241   1.04254   1.06203
 Alpha virt. eigenvalues --    1.06262   1.10434   1.11816   1.14378   1.16350
 Alpha virt. eigenvalues --    1.17268   1.18535   1.21794   1.22561   1.22761
 Alpha virt. eigenvalues --    1.23541   1.25946   1.26030   1.27394   1.27523
 Alpha virt. eigenvalues --    1.28331   1.29850   1.30453   1.30892   1.31855
 Alpha virt. eigenvalues --    1.35734   1.36535   1.38267   1.40479   1.43520
 Alpha virt. eigenvalues --    1.47137   1.47725   1.48653   1.49574   1.55111
 Alpha virt. eigenvalues --    1.56250   1.57260   1.57977   1.59156   1.60556
 Alpha virt. eigenvalues --    1.63349   1.64264   1.67576   1.69059   1.69164
 Alpha virt. eigenvalues --    1.70679   1.73418   1.74979   1.75907   1.79069
 Alpha virt. eigenvalues --    1.80486   1.81316   1.81797   1.84410   1.87450
 Alpha virt. eigenvalues --    1.88650   1.92413   1.92755   1.94040   1.94597
 Alpha virt. eigenvalues --    1.95878   1.95905   1.97969   2.02334   2.03121
 Alpha virt. eigenvalues --    2.03225   2.03788   2.07474   2.12055   2.13306
 Alpha virt. eigenvalues --    2.13623   2.19120   2.23254   2.23287   2.24778
 Alpha virt. eigenvalues --    2.24865   2.26599   2.27082   2.27473   2.31121
 Alpha virt. eigenvalues --    2.31566   2.32145   2.33865   2.34760   2.36430
 Alpha virt. eigenvalues --    2.37449   2.39737   2.41929   2.44223   2.45414
 Alpha virt. eigenvalues --    2.46548   2.46908   2.50172   2.52709   2.53082
 Alpha virt. eigenvalues --    2.54090   2.55223   2.57794   2.60278   2.60816
 Alpha virt. eigenvalues --    2.61862   2.64884   2.67435   2.68028   2.68636
 Alpha virt. eigenvalues --    2.70133   2.70531   2.73593   2.74117   2.74314
 Alpha virt. eigenvalues --    2.75094   2.77752   2.80187   2.82440   2.83326
 Alpha virt. eigenvalues --    2.83677   2.85900   2.89491   2.96733   2.97933
 Alpha virt. eigenvalues --    3.05468   3.07888   3.08249   3.09759   3.11989
 Alpha virt. eigenvalues --    3.12425   3.13912   3.21152   3.25189   3.25431
 Alpha virt. eigenvalues --    3.28864   3.34547   3.37179   3.41973   3.51883
 Alpha virt. eigenvalues --    3.54348   3.57091   3.66403   3.77482   3.78674
 Alpha virt. eigenvalues --    3.86931   3.89360   3.99368   4.04443   4.12064
 Alpha virt. eigenvalues --    4.32882   4.80289   4.81730   9.76376   9.77816
 Alpha virt. eigenvalues --    9.78220   9.81126   9.83575   9.85536  23.34033
 Alpha virt. eigenvalues --   23.53537  23.78754  23.85169  23.86234  23.92341
 Alpha virt. eigenvalues --   23.93607  23.97702  24.02425  24.06739  24.09124
 Alpha virt. eigenvalues --   24.14118  25.78676  25.80162  25.82425  25.85179
 Alpha virt. eigenvalues --   25.94809  25.97598  26.10107  26.12241  26.15855
 Alpha virt. eigenvalues --   26.24253  26.31596  26.36907  26.53144  26.60559
 Alpha virt. eigenvalues --   26.62681  26.73070  26.76641  27.03333 215.75616
 Alpha virt. eigenvalues --  215.77081 215.77636 215.81093 215.84192 215.86616
          Condensed to atoms (all electrons):
               1          2          3          4          5          6
     1  C   30.455057   1.059502  -7.681490  -2.430834  -3.500192  -4.732770
     2  C    1.059502  33.540977  -7.382179 -13.323541   0.667812   4.163747
     3  C   -7.681490  -7.382179  25.000716   0.211634  -2.645589  -5.860763
     4  C   -2.430834 -13.323541   0.211634  20.128527   2.386149  -1.792066
     5  C   -3.500192   0.667812  -2.645589   2.386149  22.280113  -8.756746
     6  C   -4.732770   4.163747  -5.860763  -1.792066  -8.756746  41.918129
     7  C    6.143572  -6.249203   3.238985   0.477119  -3.701436  -5.828742
     8  C    0.222521  -1.647844   0.600557   0.353383  -0.403455  -6.560512
     9  C   -5.245734  -1.740238   0.217217   0.050189   0.677336  -1.267774
    10  C   -3.100272  -1.213258  -0.491691   0.082942   0.905990   2.638109
    11  C   -5.242742  -1.752159   0.219845   0.050155   0.679046  -1.256493
    12  C    0.217812  -1.630891   0.598748   0.353867  -0.408923  -6.580340
    13  H   -0.007466   0.065916   0.039768   0.094689  -0.024744  -0.143808
    14  H    0.044144   0.047866   0.044787   0.302414  -0.037281  -0.055881
    15  H    0.099544  -0.038264  -0.031820  -0.030576   0.316191   0.031183
    16  H    0.016522   0.001549  -0.000174  -0.000001  -0.000220  -0.001973
    17  Cl   0.157194   0.133257   0.386297  -0.087846  -0.377721  -0.006188
    18  Cl   0.465455   0.467565   0.052783  -0.033056  -1.179159   0.376243
    19  Cl  -0.155961   0.002442   0.021261  -0.000517  -0.005420  -0.090194
    20  Cl  -0.156113   0.002539   0.021304  -0.000512  -0.005446  -0.090360
    21  Cl  -0.367204   1.103398  -1.576998  -0.169505   0.163839   0.327983
    22  Cl   0.160117   0.133808   0.384932  -0.088353  -0.376739  -0.000663
               7          8          9         10         11         12
     1  C    6.143572   0.222521  -5.245734  -3.100272  -5.242742   0.217812
     2  C   -6.249203  -1.647844  -1.740238  -1.213258  -1.752159  -1.630891
     3  C    3.238985   0.600557   0.217217  -0.491691   0.219845   0.598748
     4  C    0.477119   0.353383   0.050189   0.082942   0.050155   0.353867
     5  C   -3.701436  -0.403455   0.677336   0.905990   0.679046  -0.408923
     6  C   -5.828742  -6.560512  -1.267774   2.638109  -1.256493  -6.580340
     7  C   20.308733  -1.120772  -4.116802   3.416771  -4.110834  -1.136017
     8  C   -1.120772  45.562507 -13.644618 -13.397258   9.536684 -12.031013
     9  C   -4.116802 -13.644618  29.822196   0.630091  -8.220932   9.547923
    10  C    3.416771 -13.397258   0.630091  30.636088   0.632989 -13.395997
    11  C   -4.110834   9.536684  -8.220932   0.632989  29.814136 -13.637390
    12  C   -1.136017 -12.031013   9.547923 -13.395997 -13.637390  45.563871
    13  H    0.121459   0.086611   0.024468   0.011457   0.024452   0.086712
    14  H    0.006157   0.001553   0.000192   0.000005   0.000191   0.001550
    15  H    0.014545   0.001139  -0.000647   0.000042  -0.000649   0.001144
    16  H    0.040734   0.089209  -0.020470   0.151410  -0.020608   0.089175
    17  Cl  -0.028490  -1.204509   0.924660   0.140547  -1.406926  -0.050712
    18  Cl  -0.071328   0.025746  -0.461032  -0.666119  -0.462059   0.028577
    19  Cl  -0.526174   0.440242  -0.224978  -0.191126  -0.087241   0.202239
    20  Cl  -0.525910   0.203081  -0.088102  -0.190876  -0.225184   0.440175
    21  Cl  -0.189782  -0.061357   0.000079   0.000372   0.000086  -0.061463
    22  Cl  -0.029741  -0.055704  -1.406204   0.139612   0.923257  -1.204278
              13         14         15         16         17         18
     1  C   -0.007466   0.044144   0.099544   0.016522   0.157194   0.465455
     2  C    0.065916   0.047866  -0.038264   0.001549   0.133257   0.467565
     3  C    0.039768   0.044787  -0.031820  -0.000174   0.386297   0.052783
     4  C    0.094689   0.302414  -0.030576  -0.000001  -0.087846  -0.033056
     5  C   -0.024744  -0.037281   0.316191  -0.000220  -0.377721  -1.179159
     6  C   -0.143808  -0.055881   0.031183  -0.001973  -0.006188   0.376243
     7  C    0.121459   0.006157   0.014545   0.040734  -0.028490  -0.071328
     8  C    0.086611   0.001553   0.001139   0.089209  -1.204509   0.025746
     9  C    0.024468   0.000192  -0.000647  -0.020470   0.924660  -0.461032
    10  C    0.011457   0.000005   0.000042   0.151410   0.140547  -0.666119
    11  C    0.024452   0.000191  -0.000649  -0.020608  -1.406926  -0.462059
    12  C    0.086712   0.001550   0.001144   0.089175  -0.050712   0.028577
    13  H    0.518098  -0.000279   0.000046  -0.000003  -0.009943  -0.003761
    14  H   -0.000279   0.504962  -0.007727  -0.000000  -0.000308  -0.000037
    15  H    0.000046  -0.007727   0.506381   0.000000  -0.000827  -0.014470
    16  H   -0.000003  -0.000000   0.000000   0.486101  -0.001226   0.000130
    17  Cl  -0.009943  -0.000308  -0.000827  -0.001226  18.104207   0.138250
    18  Cl  -0.003761  -0.000037  -0.014470   0.000130   0.138250  17.818881
    19  Cl   0.000426   0.000000  -0.000003  -0.002120  -0.251313  -0.003913
    20  Cl   0.000426   0.000000  -0.000003  -0.002135   0.007619  -0.003945
    21  Cl  -0.019690  -0.008386   0.000762   0.000000  -0.001550  -0.011673
    22  Cl  -0.010010  -0.000309  -0.000831  -0.001227  -0.130034   0.138802
              19         20         21         22
     1  C   -0.155961  -0.156113  -0.367204   0.160117
     2  C    0.002442   0.002539   1.103398   0.133808
     3  C    0.021261   0.021304  -1.576998   0.384932
     4  C   -0.000517  -0.000512  -0.169505  -0.088353
     5  C   -0.005420  -0.005446   0.163839  -0.376739
     6  C   -0.090194  -0.090360   0.327983  -0.000663
     7  C   -0.526174  -0.525910  -0.189782  -0.029741
     8  C    0.440242   0.203081  -0.061357  -0.055704
     9  C   -0.224978  -0.088102   0.000079  -1.406204
    10  C   -0.191126  -0.190876   0.000372   0.139612
    11  C   -0.087241  -0.225184   0.000086   0.923257
    12  C    0.202239   0.440175  -0.061463  -1.204278
    13  H    0.000426   0.000426  -0.019690  -0.010010
    14  H    0.000000   0.000000  -0.008386  -0.000309
    15  H   -0.000003  -0.000003   0.000762  -0.000831
    16  H   -0.002120  -0.002135   0.000000  -0.001227
    17  Cl  -0.251313   0.007619  -0.001550  -0.130034
    18  Cl  -0.003913  -0.003945  -0.011673   0.138802
    19  Cl  17.389778  -0.027566   0.000118   0.007611
    20  Cl  -0.027566  17.389971   0.000119  -0.251535
    21  Cl   0.000118   0.000119  17.440275  -0.001553
    22  Cl   0.007611  -0.251535  -0.001553  18.103997
 Mulliken charges:
               1
     1  C   -0.420662
     2  C   -0.412798
     3  C    0.631868
     4  C   -0.534260
     5  C   -0.653404
     6  C   -0.430119
     7  C   -0.132846
     8  C   -0.996191
     9  C    0.543179
    10  C   -0.739825
    11  C    0.542377
    12  C   -0.994769
    13  H    0.145177
    14  H    0.156385
    15  H    0.154840
    16  H    0.175326
    17  Cl   0.565564
    18  Cl   0.398121
    19  Cl   0.502410
    20  Cl   0.502453
    21  Cl   0.432130
    22  Cl   0.565045
 Sum of Mulliken charges =  -0.00000
 Mulliken charges with hydrogens summed into heavy atoms:
               1
     1  C   -0.420662
     2  C   -0.267621
     3  C    0.631868
     4  C   -0.377875
     5  C   -0.498565
     6  C   -0.430119
     7  C   -0.132846
     8  C   -0.996191
     9  C    0.543179
    10  C   -0.564500
    11  C    0.542377
    12  C   -0.994769
    17  Cl   0.565564
    18  Cl   0.398121
    19  Cl   0.502410
    20  Cl   0.502453
    21  Cl   0.432130
    22  Cl   0.565045
 Electronic spatial extent (au):  <R**2>=           7455.1075
 Charge=             -0.0000 electrons
 Dipole moment (field-independent basis, Debye):
    X=              0.3934    Y=              0.0005    Z=             -0.2434  Tot=              0.4626
 Quadrupole moment (field-independent basis, Debye-Ang):
   XX=           -135.7498   YY=           -149.7538   ZZ=           -144.8234
   XY=              0.0049   XZ=             -6.8129   YZ=             -0.0040
 Traceless Quadrupole moment (field-independent basis, Debye-Ang):
   XX=              7.6926   YY=             -6.3115   ZZ=             -1.3810
   XY=              0.0049   XZ=             -6.8129   YZ=             -0.0040
 Octapole moment (field-independent basis, Debye-Ang**2):
  XXX=             -5.7867  YYY=              0.0010  ZZZ=             -0.4930  XYY=             -1.5792
  XXY=              0.0292  XXZ=            -28.1507  XZZ=              2.6402  YZZ=             -0.0013
  YYZ=             -0.5700  XYZ=             -0.0128
 Hexadecapole moment (field-independent basis, Debye-Ang**3):
 XXXX=          -5561.5472 YYYY=          -2494.5861 ZZZZ=          -1435.7304 XXXY=              0.1195
 XXXZ=           -134.9283 YYYX=             -0.0292 YYYZ=              0.0466 ZZZX=             19.8618
 ZZZY=             -0.0286 XXYY=          -1410.5481 XXZZ=          -1188.1369 YYZZ=           -688.4816
 XXYZ=             -0.0390 YYXZ=              4.5303 ZZXY=              0.0030
 N-N= 2.058852496551D+03 E-N=-1.174680717019D+04  KE= 3.212688409318D+03
 1\1\GINC-CN365\FOpt\RB3LYP\6-311+G(d,p)\C12H4Cl6\20CY91R06\03-Apr-2022
 \0\\# opt b3lyp/6-311+g(d,p) scf=xqc\\Title Card Required\\0,1\C,0.478
 9440034,-0.1833505635,0.0211794216\C,1.1712302265,0.1677502352,-1.1414
 582984\C,1.8524176255,1.3759343215,-1.2106362803\C,1.8613588216,2.2567
 893757,-0.1339609271\C,1.1752409542,1.9155273572,1.0261555048\C,0.4911
 603557,0.7057998103,1.1000037426\C,-0.2477182737,-1.4868906369,0.07720
 51547\C,0.4021386687,-2.6460296667,0.5273691456\C,-0.2782207969,-3.867
 4265129,0.5666299258\C,-1.6033880329,-3.9394698231,0.1577917157\C,-2.2
 590037938,-2.8006786198,-0.2914584791\C,-1.5862490075,-1.5753188028,-0
 .3340382553\H,1.1741746708,-0.5063273799,-1.9882845553\H,2.3956201494,
 3.1956936616,-0.1990625554\H,1.1699579835,2.5873021978,1.8746901501\H,
 -2.1264545343,-4.8850706511,0.1894777491\Cl,-2.405469383,-0.1430754564
 ,-0.8931607834\Cl,-0.3632788466,0.3105426045,2.5795487159\Cl,-3.921977
 357,-2.9486448083,-0.7936917835\Cl,0.4962571594,-5.3280317779,1.120005
 2826\Cl,2.7144959445,1.7950784878,-2.6807684308\Cl,2.0633035102,-2.549
 9169011,1.0438022533\\Version=EM64L-G16RevB.01\State=1-A\HF=-3221.1336
 266\RMSD=5.179e-09\RMSF=2.494e-05\Dipole=0.0605508,0.1606495,0.0604249
 \Quadrupole=-2.8042506,5.7334289,-2.9291783,4.2548001,0.9338056,3.1487
 269\PG=C01 [X(C12H4Cl6)]\\@


 HAPPINESS IS NOT HAVING WHAT YOU WANT --
 HAPPINESS IS WANTING WHAT YOU HAVE!

              -- FROM MRS. SEVERN'S DESK
 Job cpu time:       1 days  7 hours 15 minutes  1.3 seconds.
 Elapsed time:       0 days  1 hours 59 minutes 31.3 seconds.
 File lengths (MBytes):  RWF=    134 Int=      0 D2E=      0 Chk=     21 Scr=      1
 Normal termination of Gaussian 16 at Sun Apr  3 13:29:24 2022.
