 Entering Gaussian System, Link 0=g16
 Input=2,2prime,3,4-Tetrachlorobiphenyl.gjf
 Output=2,2prime,3,4-Tetrachlorobiphenyl.log
 Initial command:
 /usr/local/g16/l1.exe "/scratch/pkc/Gau-34374.inp" -scrdir="/scratch/pkc/"
 Entering Link 1 = /usr/local/g16/l1.exe PID=     34375.
  
 Copyright (c) 1988-2017, Gaussian, Inc.  All Rights Reserved.
  
 This is part of the Gaussian(R) 16 program.  It is based on
 the Gaussian(R) 09 system (copyright 2009, Gaussian, Inc.),
 the Gaussian(R) 03 system (copyright 2003, Gaussian, Inc.),
 the Gaussian(R) 98 system (copyright 1998, Gaussian, Inc.),
 the Gaussian(R) 94 system (copyright 1995, Gaussian, Inc.),
 the Gaussian 92(TM) system (copyright 1992, Gaussian, Inc.),
 the Gaussian 90(TM) system (copyright 1990, Gaussian, Inc.),
 the Gaussian 88(TM) system (copyright 1988, Gaussian, Inc.),
 the Gaussian 86(TM) system (copyright 1986, Carnegie Mellon
 University), and the Gaussian 82(TM) system (copyright 1983,
 Carnegie Mellon University). Gaussian is a federally registered
 trademark of Gaussian, Inc.
  
 This software contains proprietary and confidential information,
 including trade secrets, belonging to Gaussian, Inc.
  
 This software is provided under written license and may be
 used, copied, transmitted, or stored only in accord with that
 written license.
  
 The following legend is applicable only to US Government
 contracts under FAR:
  
                    RESTRICTED RIGHTS LEGEND
  
 Use, reproduction and disclosure by the US Government is
 subject to restrictions as set forth in subparagraphs (a)
 and (c) of the Commercial Computer Software - Restricted
 Rights clause in FAR 52.227-19.
  
 Gaussian, Inc.
 340 Quinnipiac St., Bldg. 40, Wallingford CT 06492
  
  
 ---------------------------------------------------------------
 Warning -- This program may not be used in any manner that
 competes with the business of Gaussian, Inc. or will provide
 assistance to any competitor of Gaussian, Inc.  The licensee
 of this program is prohibited from giving any competitor of
 Gaussian, Inc. access to this program.  By using this program,
 the user acknowledges that Gaussian, Inc. is engaged in the
 business of creating and licensing software in the field of
 computational chemistry and represents and warrants to the
 licensee that it is not a competitor of Gaussian, Inc. and that
 it will not use this program in any manner prohibited above.
 ---------------------------------------------------------------
  

 Cite this work as:
 Gaussian 16, Revision B.01,
 M. J. Frisch, G. W. Trucks, H. B. Schlegel, G. E. Scuseria, 
 M. A. Robb, J. R. Cheeseman, G. Scalmani, V. Barone, 
 G. A. Petersson, H. Nakatsuji, X. Li, M. Caricato, A. V. Marenich, 
 J. Bloino, B. G. Janesko, R. Gomperts, B. Mennucci, H. P. Hratchian, 
 J. V. Ortiz, A. F. Izmaylov, J. L. Sonnenberg, D. Williams-Young, 
 F. Ding, F. Lipparini, F. Egidi, J. Goings, B. Peng, A. Petrone, 
 T. Henderson, D. Ranasinghe, V. G. Zakrzewski, J. Gao, N. Rega, 
 G. Zheng, W. Liang, M. Hada, M. Ehara, K. Toyota, R. Fukuda, 
 J. Hasegawa, M. Ishida, T. Nakajima, Y. Honda, O. Kitao, H. Nakai, 
 T. Vreven, K. Throssell, J. A. Montgomery, Jr., J. E. Peralta, 
 F. Ogliaro, M. J. Bearpark, J. J. Heyd, E. N. Brothers, K. N. Kudin, 
 V. N. Staroverov, T. A. Keith, R. Kobayashi, J. Normand, 
 K. Raghavachari, A. P. Rendell, J. C. Burant, S. S. Iyengar, 
 J. Tomasi, M. Cossi, J. M. Millam, M. Klene, C. Adamo, R. Cammi, 
 J. W. Ochterski, R. L. Martin, K. Morokuma, O. Farkas, 
 J. B. Foresman, and D. J. Fox, Gaussian, Inc., Wallingford CT, 2016.
 
 ******************************************
 Gaussian 16:  EM64L-G16RevB.01 20-Dec-2017
                15-Mar-2022 
 ******************************************
 %mem=10GB
 %nprocshared=4
 Will use up to    4 processors via shared memory.
 --------------------------------
 # opt b3lyp/6-311+g(d,p) scf=xqc
 --------------------------------
 1/18=20,19=15,26=3,38=1/1,3;
 2/9=110,12=2,17=6,18=5,40=1/2;
 3/5=4,6=6,7=111,11=2,25=1,30=1,71=1,74=-5/1,2,3;
 4//1;
 5/5=2,8=3,13=1,38=5/2,8;
 6/7=2,8=2,9=2,10=2,28=1/1;
 7//1,2,3,16;
 1/18=20,19=15,26=3/3(2);
 2/9=110/2;
 99//99;
 2/9=110/2;
 3/5=4,6=6,7=111,11=2,25=1,30=1,71=1,74=-5/1,2,3;
 4/5=5,16=3,69=1/1;
 5/5=2,8=3,13=1,38=5/2,8;
 7//1,2,3,16;
 1/18=20,19=15,26=3/3(-5);
 2/9=110/2;
 6/7=2,8=2,9=2,10=2,19=2,28=1/1;
 99/9=1/99;
 -------------------
 Title Card Required
 -------------------
 Symbolic Z-matrix:
 Charge =  0 Multiplicity = 1
 C                    -2.56038   0.8216    0.99136 
 C                    -3.26828  -0.38785   0.99744 
 C                    -1.228     0.85149   0.55801 
 C                    -2.64379  -1.56742   0.57016 
 Cl                   -4.94159  -0.42539   1.54168 
 Cl                   -3.34467   2.303     1.52798 
 C                    -0.60352  -0.32808   0.13074 
 C                    -0.4501    2.18055   0.55134 
 C                    -1.31141  -1.53753   0.13681 
 Cl                   -3.53282  -3.08635   0.57779 
 H                     0.41379  -0.30526  -0.20013 
 C                    -1.07459   3.36012   0.97861 
 C                     0.88228   2.21044   0.11799 
 H                    -0.8346   -2.43815  -0.18942 
 C                    -0.36669   4.56957   0.97254 
 Cl                   -2.74791   3.32259   1.52285 
 C                     1.59017   3.41989   0.11192 
 H                     1.35909   1.30982  -0.20824 
 C                     0.96569   4.59946   0.5392 
 H                    -0.8435    5.47019   1.29877 
 H                     2.60748   3.44271  -0.21895 
 H                     1.50618   5.5229    0.53456 
 

 GradGradGradGradGradGradGradGradGradGradGradGradGradGradGradGradGradGrad
 Berny optimization.
 Initialization pass.
                           ----------------------------
                           !    Initial Parameters    !
                           ! (Angstroms and Degrees)  !
 --------------------------                            --------------------------
 ! Name  Definition              Value          Derivative Info.                !
 --------------------------------------------------------------------------------
 ! R1    R(1,2)                  1.4014         estimate D2E/DX2                !
 ! R2    R(1,3)                  1.4014         estimate D2E/DX2                !
 ! R3    R(1,6)                  1.76           estimate D2E/DX2                !
 ! R4    R(2,4)                  1.4014         estimate D2E/DX2                !
 ! R5    R(2,5)                  1.76           estimate D2E/DX2                !
 ! R6    R(3,7)                  1.4014         estimate D2E/DX2                !
 ! R7    R(3,8)                  1.54           estimate D2E/DX2                !
 ! R8    R(4,9)                  1.4014         estimate D2E/DX2                !
 ! R9    R(4,10)                 1.76           estimate D2E/DX2                !
 ! R10   R(6,16)                 1.1814         estimate D2E/DX2                !
 ! R11   R(7,9)                  1.4014         estimate D2E/DX2                !
 ! R12   R(7,11)                 1.07           estimate D2E/DX2                !
 ! R13   R(8,12)                 1.4014         estimate D2E/DX2                !
 ! R14   R(8,13)                 1.4014         estimate D2E/DX2                !
 ! R15   R(9,14)                 1.07           estimate D2E/DX2                !
 ! R16   R(12,15)                1.4014         estimate D2E/DX2                !
 ! R17   R(12,16)                1.76           estimate D2E/DX2                !
 ! R18   R(13,17)                1.4014         estimate D2E/DX2                !
 ! R19   R(13,18)                1.07           estimate D2E/DX2                !
 ! R20   R(15,19)                1.4014         estimate D2E/DX2                !
 ! R21   R(15,20)                1.07           estimate D2E/DX2                !
 ! R22   R(17,19)                1.4014         estimate D2E/DX2                !
 ! R23   R(17,21)                1.07           estimate D2E/DX2                !
 ! R24   R(19,22)                1.07           estimate D2E/DX2                !
 ! A1    A(2,1,3)              120.0            estimate D2E/DX2                !
 ! A2    A(2,1,6)              120.0            estimate D2E/DX2                !
 ! A3    A(3,1,6)              120.0            estimate D2E/DX2                !
 ! A4    A(1,2,4)              120.0            estimate D2E/DX2                !
 ! A5    A(1,2,5)              120.0            estimate D2E/DX2                !
 ! A6    A(4,2,5)              120.0            estimate D2E/DX2                !
 ! A7    A(1,3,7)              120.0            estimate D2E/DX2                !
 ! A8    A(1,3,8)              120.0            estimate D2E/DX2                !
 ! A9    A(7,3,8)              120.0            estimate D2E/DX2                !
 ! A10   A(2,4,9)              120.0            estimate D2E/DX2                !
 ! A11   A(2,4,10)             120.0            estimate D2E/DX2                !
 ! A12   A(9,4,10)             120.0            estimate D2E/DX2                !
 ! A13   A(1,6,16)             120.0            estimate D2E/DX2                !
 ! A14   A(3,7,9)              120.0            estimate D2E/DX2                !
 ! A15   A(3,7,11)             120.0            estimate D2E/DX2                !
 ! A16   A(9,7,11)             120.0            estimate D2E/DX2                !
 ! A17   A(3,8,12)             120.0            estimate D2E/DX2                !
 ! A18   A(3,8,13)             120.0            estimate D2E/DX2                !
 ! A19   A(12,8,13)            120.0            estimate D2E/DX2                !
 ! A20   A(4,9,7)              120.0            estimate D2E/DX2                !
 ! A21   A(4,9,14)             120.0            estimate D2E/DX2                !
 ! A22   A(7,9,14)             120.0            estimate D2E/DX2                !
 ! A23   A(8,12,15)            120.0            estimate D2E/DX2                !
 ! A24   A(8,12,16)            120.0            estimate D2E/DX2                !
 ! A25   A(15,12,16)           120.0            estimate D2E/DX2                !
 ! A26   A(8,13,17)            120.0            estimate D2E/DX2                !
 ! A27   A(8,13,18)            120.0            estimate D2E/DX2                !
 ! A28   A(17,13,18)           120.0            estimate D2E/DX2                !
 ! A29   A(12,15,19)           120.0            estimate D2E/DX2                !
 ! A30   A(12,15,20)           120.0            estimate D2E/DX2                !
 ! A31   A(19,15,20)           120.0            estimate D2E/DX2                !
 ! A32   A(6,16,12)            120.0            estimate D2E/DX2                !
 ! A33   A(13,17,19)           120.0            estimate D2E/DX2                !
 ! A34   A(13,17,21)           120.0            estimate D2E/DX2                !
 ! A35   A(19,17,21)           120.0            estimate D2E/DX2                !
 ! A36   A(15,19,17)           120.0            estimate D2E/DX2                !
 ! A37   A(15,19,22)           120.0            estimate D2E/DX2                !
 ! A38   A(17,19,22)           120.0            estimate D2E/DX2                !
 ! D1    D(3,1,2,4)              0.0            estimate D2E/DX2                !
 ! D2    D(3,1,2,5)            179.9999         estimate D2E/DX2                !
 ! D3    D(6,1,2,4)           -179.9999         estimate D2E/DX2                !
 ! D4    D(6,1,2,5)             -0.0001         estimate D2E/DX2                !
 ! D5    D(2,1,3,7)             -0.0001         estimate D2E/DX2                !
 ! D6    D(2,1,3,8)           -179.9999         estimate D2E/DX2                !
 ! D7    D(6,1,3,7)            179.9999         estimate D2E/DX2                !
 ! D8    D(6,1,3,8)              0.0            estimate D2E/DX2                !
 ! D9    D(2,1,6,16)          -179.9995         estimate D2E/DX2                !
 ! D10   D(3,1,6,16)             0.0005         estimate D2E/DX2                !
 ! D11   D(1,2,4,9)              0.0            estimate D2E/DX2                !
 ! D12   D(1,2,4,10)           179.9999         estimate D2E/DX2                !
 ! D13   D(5,2,4,9)           -179.9998         estimate D2E/DX2                !
 ! D14   D(5,2,4,10)             0.0001         estimate D2E/DX2                !
 ! D15   D(1,3,7,9)              0.0001         estimate D2E/DX2                !
 ! D16   D(1,3,7,11)          -179.9998         estimate D2E/DX2                !
 ! D17   D(8,3,7,9)            179.9999         estimate D2E/DX2                !
 ! D18   D(8,3,7,11)             0.0001         estimate D2E/DX2                !
 ! D19   D(1,3,8,12)            -0.0002         estimate D2E/DX2                !
 ! D20   D(1,3,8,13)           179.9998         estimate D2E/DX2                !
 ! D21   D(7,3,8,12)           179.9999         estimate D2E/DX2                !
 ! D22   D(7,3,8,13)            -0.0001         estimate D2E/DX2                !
 ! D23   D(2,4,9,7)              0.0            estimate D2E/DX2                !
 ! D24   D(2,4,9,14)           180.0            estimate D2E/DX2                !
 ! D25   D(10,4,9,7)          -179.9999         estimate D2E/DX2                !
 ! D26   D(10,4,9,14)            0.0001         estimate D2E/DX2                !
 ! D27   D(1,6,16,12)           -0.0008         estimate D2E/DX2                !
 ! D28   D(3,7,9,4)              0.0            estimate D2E/DX2                !
 ! D29   D(3,7,9,14)           180.0            estimate D2E/DX2                !
 ! D30   D(11,7,9,4)           179.9998         estimate D2E/DX2                !
 ! D31   D(11,7,9,14)           -0.0002         estimate D2E/DX2                !
 ! D32   D(3,8,12,15)          180.0            estimate D2E/DX2                !
 ! D33   D(3,8,12,16)            0.0            estimate D2E/DX2                !
 ! D34   D(13,8,12,15)          -0.0001         estimate D2E/DX2                !
 ! D35   D(13,8,12,16)         180.0            estimate D2E/DX2                !
 ! D36   D(3,8,13,17)         -180.0            estimate D2E/DX2                !
 ! D37   D(3,8,13,18)           -0.0001         estimate D2E/DX2                !
 ! D38   D(12,8,13,17)           0.0001         estimate D2E/DX2                !
 ! D39   D(12,8,13,18)         180.0            estimate D2E/DX2                !
 ! D40   D(8,12,15,19)           0.0            estimate D2E/DX2                !
 ! D41   D(8,12,15,20)         180.0            estimate D2E/DX2                !
 ! D42   D(16,12,15,19)        179.9999         estimate D2E/DX2                !
 ! D43   D(16,12,15,20)         -0.0001         estimate D2E/DX2                !
 ! D44   D(8,12,16,6)            0.0006         estimate D2E/DX2                !
 ! D45   D(15,12,16,6)        -179.9994         estimate D2E/DX2                !
 ! D46   D(8,13,17,19)           0.0            estimate D2E/DX2                !
 ! D47   D(8,13,17,21)         180.0            estimate D2E/DX2                !
 ! D48   D(18,13,17,19)       -179.9999         estimate D2E/DX2                !
 ! D49   D(18,13,17,21)          0.0001         estimate D2E/DX2                !
 ! D50   D(12,15,19,17)          0.0001         estimate D2E/DX2                !
 ! D51   D(12,15,19,22)       -180.0            estimate D2E/DX2                !
 ! D52   D(20,15,19,17)       -179.9999         estimate D2E/DX2                !
 ! D53   D(20,15,19,22)          0.0            estimate D2E/DX2                !
 ! D54   D(13,17,19,15)         -0.0001         estimate D2E/DX2                !
 ! D55   D(13,17,19,22)        180.0            estimate D2E/DX2                !
 ! D56   D(21,17,19,15)        179.9999         estimate D2E/DX2                !
 ! D57   D(21,17,19,22)          0.0            estimate D2E/DX2                !
 --------------------------------------------------------------------------------
 Trust Radius=3.00D-01 FncErr=1.00D-07 GrdErr=1.00D-06 EigMax=2.50D+02 EigMin=1.00D-04
 Number of steps in this run=    129 maximum allowed number of steps=    132.
 GradGradGradGradGradGradGradGradGradGradGradGradGradGradGradGradGradGrad

                          Input orientation:                          
 ---------------------------------------------------------------------
 Center     Atomic      Atomic             Coordinates (Angstroms)
 Number     Number       Type             X           Y           Z
 ---------------------------------------------------------------------
      1          6           0       -2.560385    0.821600    0.991364
      2          6           0       -3.268277   -0.387851    0.997439
      3          6           0       -1.228005    0.851487    0.558014
      4          6           0       -2.643790   -1.567416    0.570163
      5         17           0       -4.941595   -0.425386    1.541681
      6         17           0       -3.344669    2.303000    1.527976
      7          6           0       -0.603517   -0.328078    0.130739
      8          6           0       -0.450100    2.180554    0.551340
      9          6           0       -1.311410   -1.537530    0.136814
     10         17           0       -3.532823   -3.086351    0.577795
     11          1           0        0.413785   -0.305260   -0.200131
     12          6           0       -1.074588    3.360119    0.978613
     13          6           0        0.882281    2.210440    0.117994
     14          1           0       -0.834600   -2.438154   -0.189421
     15          6           0       -0.366694    4.569570    0.972541
     16         17           0       -2.747908    3.322586    1.522847
     17          6           0        1.590175    3.419891    0.111921
     18          1           0        1.359092    1.309815   -0.208238
     19          6           0        0.965688    4.599456    0.539196
     20          1           0       -0.843505    5.470195    1.298772
     21          1           0        2.607478    3.442709   -0.218948
     22          1           0        1.506180    5.522898    0.534560
 ---------------------------------------------------------------------
                    Distance matrix (angstroms):
                    1          2          3          4          5
     1  C    0.000000
     2  C    1.401400   0.000000
     3  C    1.401400   2.427296   0.000000
     4  C    2.427296   1.401400   2.802800   0.000000
     5  Cl   2.743718   1.760000   4.048303   2.743718   0.000000
     6  Cl   1.760000   2.743718   2.743718   4.048303   3.161400
     7  C    2.427296   2.802800   1.401400   2.427296   4.562800
     8  C    2.548270   3.838989   1.540000   4.342800   5.286324
     9  C    2.802800   2.427296   2.427296   1.401400   4.048303
    10  Cl   4.048303   2.743718   4.562800   1.760000   3.161400
    11  H    3.396345   3.872800   2.146700   3.396345   5.632800
    12  C    2.941400   4.342800   2.548270   5.187469   5.440665
    13  C    3.813607   4.975106   2.548270   5.187469   6.549198
    14  H    3.872800   3.396345   3.396345   2.146700   4.890332
    15  C    4.342800   5.744200   3.838989   6.558176   6.797295
    16  Cl   2.563702   3.783409   3.057342   4.983028   4.342800
    17  C    4.975106   6.235992   3.838989   6.558176   7.713260
    18  H    4.127917   5.074276   2.736837   4.990735   6.765486
    19  C    5.187469   6.558176   4.342800   7.145600   7.819846
    20  H    4.965039   6.347206   4.693509   7.300676   7.184095
    21  H    5.919617   7.118798   4.693509   7.300676   8.663168
    22  H    6.232802   7.612271   5.412800   8.215600   8.830073
                    6          7          8          9         10
     6  Cl   0.000000
     7  C    4.048303   0.000000
     8  C    3.057342   2.548270   0.000000
     9  C    4.562800   1.401400   3.838989   0.000000
    10  Cl   5.475705   4.048303   6.102800   2.743718   0.000000
    11  H    4.890332   1.070000   2.736837   2.146700   4.890332
    12  C    2.563702   3.813607   1.401400   4.975106   6.910901
    13  C    4.456874   2.941400   1.401400   4.342800   6.910901
    14  H    5.632800   2.146700   4.693509   1.070000   2.879094
    15  C    3.783409   4.975106   2.427296   6.235992   8.294174
    16  Cl   1.181400   4.456874   2.743718   5.254079   6.525618
    17  C    5.254079   4.342800   2.427296   5.744200   8.294174
    18  H    5.111382   2.578650   2.146700   3.918930   6.623817
    19  C    4.983028   5.187469   2.802800   6.558176   8.905600
    20  H    4.042212   5.919617   3.396345   7.118798   8.998151
    21  H    6.307038   4.965039   3.396345   6.347206   8.998151
    22  H    5.906383   6.232802   3.872800   7.612271   9.975600
                   11         12         13         14         15
    11  H    0.000000
    12  C    4.127917   0.000000
    13  C    2.578650   2.427296   0.000000
    14  H    2.471400   5.919617   4.965039   0.000000
    15  C    5.074276   1.401400   2.802800   7.118798   0.000000
    16  Cl   5.111382   1.760000   4.048303   6.307038   2.743718
    17  C    3.918930   2.802800   1.401400   6.347206   2.427296
    18  H    1.871400   3.396345   1.070000   4.342800   3.872800
    19  C    4.990735   2.427296   2.427296   7.300676   1.401400
    20  H    6.097816   2.146700   3.872800   8.047159   1.070000
    21  H    4.342800   3.872800   2.146700   6.814200   3.396345
    22  H    5.974992   3.396345   3.396345   8.329571   2.146700
                   16         17         18         19         20
    16  Cl   0.000000
    17  C    4.562800   0.000000
    18  H    4.890332   2.146700   0.000000
    19  C    4.048303   1.401400   3.396345   0.000000
    20  H    2.879094   3.396345   4.942800   2.146700   0.000000
    21  H    5.632800   1.070000   2.471400   2.146700   4.280590
    22  H    4.890332   2.146700   4.280590   1.070000   2.471400
                   21         22
    21  H    0.000000
    22  H    2.471400   0.000000
 Stoichiometry    C12H6Cl4
 Framework group  C1[X(C12H6Cl4)]
 Deg. of freedom    60
 Full point group                 C1      NOp   1
 Largest Abelian subgroup         C1      NOp   1
 Largest concise Abelian subgroup C1      NOp   1
                         Standard orientation:                         
 ---------------------------------------------------------------------
 Center     Atomic      Atomic             Coordinates (Angstroms)
 Number     Number       Type             X           Y           Z
 ---------------------------------------------------------------------
      1          6           0        0.481915   -0.278462   -0.000001
      2          6           0        1.881702   -0.211253   -0.000001
      3          6           0       -0.276184    0.900185   -0.000002
      4          6           0        2.523391    1.034604   -0.000002
      5         17           0        2.833788   -1.691500    0.000004
      6         17           0       -0.323974   -1.843116    0.000003
      7          6           0        0.365505    2.146041   -0.000003
      8          6           0       -1.814412    0.826329   -0.000001
      9          6           0        1.765292    2.213250   -0.000003
     10         17           0        4.281366    1.119011    0.000000
     11          1           0       -0.213320    3.045964   -0.000001
     12          6           0       -2.456101   -0.419528   -0.000002
     13          6           0       -2.572511    2.004975    0.000002
     14          1           0        2.255236    3.164489   -0.000004
     15          6           0       -3.855888   -0.486737    0.000000
     16         17           0       -1.504014   -1.899775   -0.000006
     17          6           0       -3.972298    1.937766    0.000004
     18          1           0       -2.082567    2.956214    0.000003
     19          6           0       -4.613987    0.691910    0.000005
     20          1           0       -4.345832   -1.437976   -0.000002
     21          1           0       -4.551123    2.837689    0.000007
     22          1           0       -5.682756    0.640594    0.000007
 ---------------------------------------------------------------------
 Rotational constants (GHZ):           0.7464733           0.2451485           0.1845430
 Standard basis: 6-311+G(d,p) (5D, 7F)
 There are   436 symmetry adapted cartesian basis functions of A   symmetry.
 There are   420 symmetry adapted basis functions of A   symmetry.
   420 basis functions,   692 primitive gaussians,   436 cartesian basis functions
    73 alpha electrons       73 beta electrons
       nuclear repulsion energy      1595.5216857337 Hartrees.
 NAtoms=   22 NActive=   22 NUniq=   22 SFac= 1.00D+00 NAtFMM=   60 NAOKFM=F Big=F
 Integral buffers will be    131072 words long.
 Raffenetti 2 integral format.
 Two-electron integral symmetry is turned on.
 One-electron integrals computed using PRISM.
 NBasis=   420 RedAO= T EigKep=  1.12D-06  NBF=   420
 NBsUse=   414 1.00D-06 EigRej=  8.60D-07 NBFU=   414
 ExpMin= 4.38D-02 ExpMax= 1.06D+05 ExpMxC= 3.62D+03 IAcc=3 IRadAn=         5 AccDes= 0.00D+00
 Harris functional with IExCor=  402 and IRadAn=       5 diagonalized for initial guess.
 HarFok:  IExCor=  402 AccDes= 0.00D+00 IRadAn=         5 IDoV= 1 UseB2=F ITyADJ=14
 ICtDFT=  3500011 ScaDFX=  1.000000  1.000000  1.000000  1.000000
 FoFCou: FMM=F IPFlag=           0 FMFlag=      100000 FMFlg1=           0
         NFxFlg=           0 DoJE=T BraDBF=F KetDBF=T FulRan=T
         wScrn=  0.000000 ICntrl=       500 IOpCl=  0 I1Cent=   200000004 NGrid=           0
         NMat0=    1 NMatS0=      1 NMatT0=    0 NMatD0=    1 NMtDS0=    0 NMtDT0=    0
 Petite list used in FoFCou.
 Requested convergence on RMS density matrix=1.00D-08 within  32 cycles.
 Requested convergence on MAX density matrix=1.00D-06.
 Requested convergence on             energy=1.00D-06.
 No special actions if energy rises.
 SCF Done:  E(RB3LYP) =  -2300.27616778     A.U. after   20 cycles
            NFock= 20  Conv=0.68D-08     -V/T= 1.9993
 QCSCF skips out because SCF is already converged.

 **********************************************************************

            Population analysis using the SCF Density.

 **********************************************************************

 Orbital symmetries:
       Occupied  (A) (A) (A) (A) (A) (A) (A) (A) (A) (A) (A) (A)
                 (A) (A) (A) (A) (A) (A) (A) (A) (A) (A) (A) (A)
                 (A) (A) (A) (A) (A) (A) (A) (A) (A) (A) (A) (A)
                 (A) (A) (A) (A) (A) (A) (A) (A) (A) (A) (A) (A)
                 (A) (A) (A) (A) (A) (A) (A) (A) (A) (A) (A) (A)
                 (A) (A) (A) (A) (A) (A) (A) (A) (A) (A) (A) (A)
                 (A)
       Virtual   (A) (A) (A) (A) (A) (A) (A) (A) (A) (A) (A) (A)
                 (A) (A) (A) (A) (A) (A) (A) (A) (A) (A) (A) (A)
                 (A) (A) (A) (A) (A) (A) (A) (A) (A) (A) (A) (A)
                 (A) (A) (A) (A) (A) (A) (A) (A) (A) (A) (A) (A)
                 (A) (A) (A) (A) (A) (A) (A) (A) (A) (A) (A) (A)
                 (A) (A) (A) (A) (A) (A) (A) (A) (A) (A) (A) (A)
                 (A) (A) (A) (A) (A) (A) (A) (A) (A) (A) (A) (A)
                 (A) (A) (A) (A) (A) (A) (A) (A) (A) (A) (A) (A)
                 (A) (A) (A) (A) (A) (A) (A) (A) (A) (A) (A) (A)
                 (A) (A) (A) (A) (A) (A) (A) (A) (A) (A) (A) (A)
                 (A) (A) (A) (A) (A) (A) (A) (A) (A) (A) (A) (A)
                 (A) (A) (A) (A) (A) (A) (A) (A) (A) (A) (A) (A)
                 (A) (A) (A) (A) (A) (A) (A) (A) (A) (A) (A) (A)
                 (A) (A) (A) (A) (A) (A) (A) (A) (A) (A) (A) (A)
                 (A) (A) (A) (A) (A) (A) (A) (A) (A) (A) (A) (A)
                 (A) (A) (A) (A) (A) (A) (A) (A) (A) (A) (A) (A)
                 (A) (A) (A) (A) (A) (A) (A) (A) (A) (A) (A) (A)
                 (A) (A) (A) (A) (A) (A) (A) (A) (A) (A) (A) (A)
                 (A) (A) (A) (A) (A) (A) (A) (A) (A) (A) (A) (A)
                 (A) (A) (A) (A) (A) (A) (A) (A) (A) (A) (A) (A)
                 (A) (A) (A) (A) (A) (A) (A) (A) (A) (A) (A) (A)
                 (A) (A) (A) (A) (A) (A) (A) (A) (A) (A) (A) (A)
                 (A) (A) (A) (A) (A) (A) (A) (A) (A) (A) (A) (A)
                 (A) (A) (A) (A) (A) (A) (A) (A) (A) (A) (A) (A)
                 (A) (A) (A) (A) (A) (A) (A) (A) (A) (A) (A) (A)
                 (A) (A) (A) (A) (A) (A) (A) (A) (A) (A) (A) (A)
                 (A) (A) (A) (A) (A) (A) (A) (A) (A) (A) (A) (A)
                 (A) (A) (A) (A) (A) (A) (A) (A) (A) (A) (A) (A)
                 (A) (A) (A) (A) (A)
 The electronic state is 1-A.
 Alpha  occ. eigenvalues -- -101.65851-101.65376-101.55771-101.55422 -10.24915
 Alpha  occ. eigenvalues --  -10.24809 -10.20475 -10.20043 -10.19443 -10.18959
 Alpha  occ. eigenvalues --  -10.18823 -10.18685 -10.18488 -10.18421 -10.17359
 Alpha  occ. eigenvalues --  -10.16999  -9.64456  -9.62298  -9.47242  -9.46870
 Alpha  occ. eigenvalues --   -7.42845  -7.37927  -7.37827  -7.37458  -7.37195
 Alpha  occ. eigenvalues --   -7.36741  -7.23688  -7.23337  -7.22739  -7.22687
 Alpha  occ. eigenvalues --   -7.22362  -7.22305  -1.38878  -0.91730  -0.88206
 Alpha  occ. eigenvalues --   -0.86111  -0.84786  -0.81236  -0.80356  -0.77239
 Alpha  occ. eigenvalues --   -0.73059  -0.72262  -0.72074  -0.70841  -0.65242
 Alpha  occ. eigenvalues --   -0.62638  -0.59606  -0.58524  -0.57650  -0.52020
 Alpha  occ. eigenvalues --   -0.49601  -0.49372  -0.47120  -0.45679  -0.44707
 Alpha  occ. eigenvalues --   -0.43876  -0.42134  -0.41440  -0.39926  -0.39055
 Alpha  occ. eigenvalues --   -0.38875  -0.35928  -0.34990  -0.34858  -0.34462
 Alpha  occ. eigenvalues --   -0.32896  -0.30789  -0.30018  -0.28523  -0.26968
 Alpha  occ. eigenvalues --   -0.24185  -0.20751  -0.15750
 Alpha virt. eigenvalues --   -0.06021  -0.04717  -0.02225  -0.01241  -0.00900
 Alpha virt. eigenvalues --    0.00210   0.00897   0.00914   0.02242   0.02327
 Alpha virt. eigenvalues --    0.02401   0.03045   0.03607   0.04756   0.05514
 Alpha virt. eigenvalues --    0.05727   0.06541   0.06680   0.06815   0.07359
 Alpha virt. eigenvalues --    0.07756   0.07941   0.08813   0.09751   0.09969
 Alpha virt. eigenvalues --    0.10277   0.10794   0.11167   0.11735   0.11914
 Alpha virt. eigenvalues --    0.12233   0.12298   0.13385   0.14134   0.14244
 Alpha virt. eigenvalues --    0.14785   0.15241   0.15741   0.15894   0.16005
 Alpha virt. eigenvalues --    0.16637   0.16914   0.16954   0.17334   0.17888
 Alpha virt. eigenvalues --    0.18471   0.18749   0.19441   0.19555   0.19626
 Alpha virt. eigenvalues --    0.19834   0.20409   0.20784   0.21090   0.21493
 Alpha virt. eigenvalues --    0.21959   0.22025   0.22288   0.22773   0.23175
 Alpha virt. eigenvalues --    0.23605   0.24281   0.25553   0.25855   0.26201
 Alpha virt. eigenvalues --    0.26306   0.26592   0.27256   0.28090   0.28643
 Alpha virt. eigenvalues --    0.28808   0.28901   0.29778   0.29900   0.30405
 Alpha virt. eigenvalues --    0.31749   0.32446   0.33187   0.33572   0.34168
 Alpha virt. eigenvalues --    0.34678   0.36160   0.37151   0.38426   0.40515
 Alpha virt. eigenvalues --    0.41770   0.43806   0.44408   0.44963   0.45423
 Alpha virt. eigenvalues --    0.45729   0.46629   0.47570   0.48720   0.49618
 Alpha virt. eigenvalues --    0.49887   0.50313   0.51127   0.52325   0.52634
 Alpha virt. eigenvalues --    0.53429   0.54423   0.54821   0.55154   0.55287
 Alpha virt. eigenvalues --    0.56015   0.57335   0.57486   0.59197   0.59366
 Alpha virt. eigenvalues --    0.59582   0.61677   0.61924   0.62371   0.62881
 Alpha virt. eigenvalues --    0.63384   0.63965   0.65648   0.66295   0.67473
 Alpha virt. eigenvalues --    0.67524   0.67698   0.68715   0.69644   0.71325
 Alpha virt. eigenvalues --    0.71477   0.72554   0.73111   0.73941   0.76033
 Alpha virt. eigenvalues --    0.78341   0.79456   0.80359   0.80495   0.81049
 Alpha virt. eigenvalues --    0.82165   0.82665   0.84517   0.85063   0.86069
 Alpha virt. eigenvalues --    0.86288   0.86805   0.87609   0.87819   0.88705
 Alpha virt. eigenvalues --    0.88743   0.90578   0.91254   0.92127   0.93780
 Alpha virt. eigenvalues --    0.93889   0.95015   0.95714   0.95937   0.96595
 Alpha virt. eigenvalues --    0.96626   0.96908   0.98042   0.98235   1.00551
 Alpha virt. eigenvalues --    1.01359   1.02875   1.03485   1.05554   1.06208
 Alpha virt. eigenvalues --    1.07538   1.09065   1.09591   1.09899   1.12423
 Alpha virt. eigenvalues --    1.13145   1.14282   1.18164   1.20762   1.21505
 Alpha virt. eigenvalues --    1.25276   1.27361   1.27791   1.28134   1.28711
 Alpha virt. eigenvalues --    1.31517   1.32701   1.34420   1.36647   1.38114
 Alpha virt. eigenvalues --    1.40896   1.43873   1.44692   1.47637   1.50605
 Alpha virt. eigenvalues --    1.51086   1.51174   1.51943   1.54556   1.55201
 Alpha virt. eigenvalues --    1.55777   1.56219   1.59031   1.61112   1.64079
 Alpha virt. eigenvalues --    1.64600   1.65607   1.68156   1.69807   1.72753
 Alpha virt. eigenvalues --    1.73810   1.74538   1.75598   1.80526   1.80914
 Alpha virt. eigenvalues --    1.83996   1.84040   1.85110   1.86902   1.88054
 Alpha virt. eigenvalues --    1.89485   1.90231   1.91253   1.92758   1.95045
 Alpha virt. eigenvalues --    1.95664   1.96483   1.97963   1.99263   2.00041
 Alpha virt. eigenvalues --    2.00804   2.03688   2.05204   2.07674   2.09470
 Alpha virt. eigenvalues --    2.09795   2.16390   2.18433   2.20621   2.22167
 Alpha virt. eigenvalues --    2.25374   2.25962   2.27351   2.28077   2.29422
 Alpha virt. eigenvalues --    2.31069   2.32202   2.34311   2.35749   2.36651
 Alpha virt. eigenvalues --    2.37271   2.40865   2.42265   2.43110   2.44602
 Alpha virt. eigenvalues --    2.45460   2.49262   2.51401   2.52636   2.56151
 Alpha virt. eigenvalues --    2.60213   2.62708   2.64088   2.65372   2.65473
 Alpha virt. eigenvalues --    2.67469   2.69504   2.72227   2.73601   2.73892
 Alpha virt. eigenvalues --    2.74705   2.74751   2.76738   2.77309   2.79534
 Alpha virt. eigenvalues --    2.81143   2.81182   2.83260   2.84391   2.86061
 Alpha virt. eigenvalues --    2.87069   2.87163   2.93150   2.93769   2.95869
 Alpha virt. eigenvalues --    3.02996   3.07970   3.09487   3.11081   3.15671
 Alpha virt. eigenvalues --    3.16971   3.19597   3.22156   3.23692   3.35043
 Alpha virt. eigenvalues --    3.36536   3.39630   3.41907   3.46466   3.53141
 Alpha virt. eigenvalues --    3.56339   3.58811   3.66654   3.70899   3.83312
 Alpha virt. eigenvalues --    3.89269   4.04763   4.06084   4.09580   4.11341
 Alpha virt. eigenvalues --    4.21289   4.48750   4.81952   4.85117   9.75105
 Alpha virt. eigenvalues --    9.80482   9.83046  10.55589  23.40557  23.60921
 Alpha virt. eigenvalues --   23.85815  23.90077  23.92683  23.95588  23.99906
 Alpha virt. eigenvalues --   24.02943  24.05210  24.07158  24.12365  24.15950
 Alpha virt. eigenvalues --   25.41568  25.79460  25.87882  25.98259  26.15354
 Alpha virt. eigenvalues --   26.20670  26.21454  26.53734  26.77525  27.11098
 Alpha virt. eigenvalues --   27.41201  28.45744 215.75241 215.81051 215.91662
 Alpha virt. eigenvalues --  216.87554
          Condensed to atoms (all electrons):
               1          2          3          4          5          6
     1  C   30.435248   1.935159   0.871552  -1.616705   1.463434  -3.752888
     2  C    1.935159  22.059882   0.145873  -7.610822  -4.615342   2.073795
     3  C    0.871552   0.145873  12.408591  -0.658972  -0.389848  -0.582026
     4  C   -1.616705  -7.610822  -0.658972  20.251543   2.077283  -0.672430
     5  Cl   1.463434  -4.615342  -0.389848   2.077283  20.714154  -2.087983
     6  Cl  -3.752888   2.073795  -0.582026  -0.672430  -2.087983  28.807839
     7  C   -8.836106  -1.315599  -2.643718  -3.225066   1.836684  -0.488913
     8  C    2.645198   1.060508   3.367266   0.582574   1.073603   2.207921
     9  C   -1.498301  -4.677745  -1.752559   1.789269   1.174529  -0.363474
    10  Cl   0.459461   1.818770  -0.247013  -1.196570  -0.806411   0.263974
    11  H    0.079693  -0.060178   0.077214   0.031044  -0.003583   0.012661
    12  C   10.540060  -0.240375   0.591527  -0.763286  -0.423748   5.572596
    13  C   -3.231053   0.589497  -1.700698  -0.344517   0.287036   0.481278
    14  H   -0.002193  -0.015313   0.020631   0.012781   0.000389   0.001008
    15  C   -5.867391  -2.000430  -1.150739  -0.280007  -0.576809  -6.006402
    16  Cl -14.545220  -2.396328  -0.811544  -2.525950  -3.464073  -8.302678
    17  C   -0.674677   0.520349  -0.952542  -0.501909   0.076296  -0.036911
    18  H    0.040933  -0.017018   0.061304   0.016823  -0.000685  -0.000520
    19  C   -1.379787  -0.499676  -0.501869  -0.037072  -0.065393  -1.582165
    20  H    0.018546   0.001839   0.008277  -0.000228   0.000182   0.021202
    21  H    0.000076   0.000473  -0.002735  -0.000131   0.000005   0.000258
    22  H   -0.000880  -0.000561   0.003814   0.000101  -0.000009  -0.004269
               7          8          9         10         11         12
     1  C   -8.836106   2.645198  -1.498301   0.459461   0.079693  10.540060
     2  C   -1.315599   1.060508  -4.677745   1.818770  -0.060178  -0.240375
     3  C   -2.643718   3.367266  -1.752559  -0.247013   0.077214   0.591527
     4  C   -3.225066   0.582574   1.789269  -1.196570   0.031044  -0.763286
     5  Cl   1.836684   1.073603   1.174529  -0.806411  -0.003583  -0.423748
     6  Cl  -0.488913   2.207921  -0.363474   0.263974   0.012661   5.572596
     7  C   24.507176   1.345288   3.249393  -0.879795   0.191993  -6.947296
     8  C    1.345288  23.900308  -0.819466  -0.188542   0.087136  10.099043
     9  C    3.249393  -0.819466  11.397029  -0.665007  -0.127523  -0.268641
    10  Cl  -0.879795  -0.188542  -0.665007  17.784862   0.001543   0.069594
    11  H    0.191993   0.087136  -0.127523   0.001543   0.579626   0.082235
    12  C   -6.947296  10.099043  -0.268641   0.069594   0.082235  47.657163
    13  C    5.845161   2.869187  -0.780402  -0.100901  -0.068059  -5.440240
    14  H   -0.028429  -0.001621   0.357684  -0.008952  -0.007628  -0.000414
    15  C   -1.923915 -15.422379   0.244568   0.033718   0.018797 -20.587091
    16  Cl  -4.658278 -21.666518  -0.013264   0.201617   0.027325 -21.352437
    17  C    0.530604   0.266525  -0.736462  -0.019646  -0.046336  -0.080044
    18  H   -0.029540   0.096005   0.025424   0.000259   0.005046   0.064060
    19  C   -0.379785  -5.952153   0.035491   0.002337   0.002326 -12.441148
    20  H    0.000548   0.116662  -0.000311  -0.000005  -0.000002   0.099915
    21  H    0.009520   0.022671   0.000534  -0.000001  -0.000021  -0.004576
    22  H    0.001994  -0.000912   0.000387   0.000000   0.000002  -0.089869
              13         14         15         16         17         18
     1  C   -3.231053  -0.002193  -5.867391 -14.545220  -0.674677   0.040933
     2  C    0.589497  -0.015313  -2.000430  -2.396328   0.520349  -0.017018
     3  C   -1.700698   0.020631  -1.150739  -0.811544  -0.952542   0.061304
     4  C   -0.344517   0.012781  -0.280007  -2.525950  -0.501909   0.016823
     5  Cl   0.287036   0.000389  -0.576809  -3.464073   0.076296  -0.000685
     6  Cl   0.481278   0.001008  -6.006402  -8.302678  -0.036911  -0.000520
     7  C    5.845161  -0.028429  -1.923915  -4.658278   0.530604  -0.029540
     8  C    2.869187  -0.001621 -15.422379 -21.666518   0.266525   0.096005
     9  C   -0.780402   0.357684   0.244568  -0.013264  -0.736462   0.025424
    10  Cl  -0.100901  -0.008952   0.033718   0.201617  -0.019646   0.000259
    11  H   -0.068059  -0.007628   0.018797   0.027325  -0.046336   0.005046
    12  C   -5.440240  -0.000414 -20.587091 -21.352437  -0.080044   0.064060
    13  C   15.451107   0.012055  -2.778980  -4.803398  -0.372111   0.309747
    14  H    0.012055   0.515270  -0.000247  -0.001705   0.000992   0.000025
    15  C   -2.778980  -0.000247  31.127084  26.927511  -3.166068   0.020705
    16  Cl  -4.803398  -0.001705  26.927511  70.352319  -2.315853   0.029659
    17  C   -0.372111   0.000992  -3.166068  -2.315853  13.206475  -0.314578
    18  H    0.309747   0.000025   0.020705   0.029659  -0.314578   0.585848
    19  C   -0.034185   0.000102   7.658699   6.664892   0.440109   0.002669
    20  H   -0.013462   0.000000   0.299830  -0.117191  -0.028003   0.000060
    21  H   -0.104634   0.000000   0.009375  -0.000146   0.434545  -0.007877
    22  H    0.052993  -0.000000  -0.140818   0.014623  -0.014280  -0.000199
              19         20         21         22
     1  C   -1.379787   0.018546   0.000076  -0.000880
     2  C   -0.499676   0.001839   0.000473  -0.000561
     3  C   -0.501869   0.008277  -0.002735   0.003814
     4  C   -0.037072  -0.000228  -0.000131   0.000101
     5  Cl  -0.065393   0.000182   0.000005  -0.000009
     6  Cl  -1.582165   0.021202   0.000258  -0.004269
     7  C   -0.379785   0.000548   0.009520   0.001994
     8  C   -5.952153   0.116662   0.022671  -0.000912
     9  C    0.035491  -0.000311   0.000534   0.000387
    10  Cl   0.002337  -0.000005  -0.000001   0.000000
    11  H    0.002326  -0.000002  -0.000021   0.000002
    12  C  -12.441148   0.099915  -0.004576  -0.089869
    13  C   -0.034185  -0.013462  -0.104634   0.052993
    14  H    0.000102   0.000000   0.000000  -0.000000
    15  C    7.658699   0.299830   0.009375  -0.140818
    16  Cl   6.664892  -0.117191  -0.000146   0.014623
    17  C    0.440109  -0.028003   0.434545  -0.014280
    18  H    0.002669   0.000060  -0.007877  -0.000199
    19  C   14.105197  -0.062058  -0.015646   0.523204
    20  H   -0.062058   0.537516  -0.000277  -0.008738
    21  H   -0.015646  -0.000277   0.539546  -0.007599
    22  H    0.523204  -0.008738  -0.007599   0.545357
 Mulliken charges:
               1
     1  C   -1.084157
     2  C   -0.756758
     3  C   -0.161787
     4  C    0.672247
     5  Cl   0.730290
     6  Cl   1.438126
     7  C   -0.161920
     8  C    0.311696
     9  C   -0.571155
    10  Cl   0.476706
    11  H    0.116690
    12  C   -0.137027
    13  C   -0.125423
    14  H    0.145564
    15  C   -0.439012
    16  Cl  -0.243362
    17  C   -0.216474
    18  H    0.111850
    19  C   -0.484090
    20  H    0.125700
    21  H    0.126640
    22  H    0.125659
 Sum of Mulliken charges =  -0.00000
 Mulliken charges with hydrogens summed into heavy atoms:
               1
     1  C   -1.084157
     2  C   -0.756758
     3  C   -0.161787
     4  C    0.672247
     5  Cl   0.730290
     6  Cl   1.438126
     7  C   -0.045231
     8  C    0.311696
     9  C   -0.425591
    10  Cl   0.476706
    12  C   -0.137027
    13  C   -0.013573
    15  C   -0.313312
    16  Cl  -0.243362
    17  C   -0.089835
    19  C   -0.358431
 Electronic spatial extent (au):  <R**2>=           5300.0958
 Charge=             -0.0000 electrons
 Dipole moment (field-independent basis, Debye):
    X=             -3.4619    Y=             -0.7181    Z=             -0.0000  Tot=              3.5356
 Quadrupole moment (field-independent basis, Debye-Ang):
   XX=           -124.3820   YY=           -106.1694   ZZ=           -123.1969
   XY=              1.6099   XZ=             -0.0000   YZ=              0.0000
 Traceless Quadrupole moment (field-independent basis, Debye-Ang):
   XX=             -6.4659   YY=             11.7467   ZZ=             -5.2808
   XY=              1.6099   XZ=             -0.0000   YZ=              0.0000
 Octapole moment (field-independent basis, Debye-Ang**2):
  XXX=            -44.3799  YYY=            -21.4921  ZZZ=             -0.0000  XYY=             -6.6491
  XXY=             -4.4118  XXZ=              0.0001  XZZ=             15.1993  YZZ=            -18.2502
  YYZ=              0.0000  XYZ=             -0.0001
 Hexadecapole moment (field-independent basis, Debye-Ang**3):
 XXXX=          -5090.7334 YYYY=          -1623.5063 ZZZZ=           -148.4809 XXXY=            -38.2854
 XXXZ=             -0.0003 YYYX=              8.3322 YYYZ=              0.0001 ZZZX=              0.0002
 ZZZY=              0.0000 XXYY=          -1130.9442 XXZZ=           -966.8884 YYZZ=           -337.6007
 XXYZ=              0.0003 YYXZ=             -0.0000 ZZXY=             15.7346
 N-N= 1.595521685734D+03 E-N=-8.635630017056D+03  KE= 2.301812511112D+03
 Calling FoFJK, ICntrl=      2127 FMM=F ISym2X=0 I1Cent= 0 IOpClX= 0 NMat=1 NMatS=1 NMatT=0.
 ***** Axes restored to original set *****
 -------------------------------------------------------------------
 Center     Atomic                   Forces (Hartrees/Bohr)
 Number     Number              X              Y              Z
 -------------------------------------------------------------------
      1        6           0.053225021   -0.105784554   -0.037402198
      2        6           0.019750476    0.007239962   -0.005147164
      3        6           0.024884709    0.010940205   -0.006143781
      4        6           0.001512512    0.002906425    0.000047557
      5       17          -0.004490222    0.003109779    0.002063374
      6       17          -1.719393264   -2.707319852    0.058032329
      7        6          -0.019655226   -0.004823386    0.005569661
      8        6           0.001571986   -0.029432634   -0.006045589
      9        6          -0.005399855    0.012379612    0.004103991
     10       17           0.004138410   -0.001064117   -0.001563342
     11        1           0.007236147   -0.004430561   -0.003216190
     12        6           0.101449741   -0.005894170   -0.034530722
     13        6          -0.003387539    0.018441269    0.004579692
     14        1           0.002378155   -0.008159057   -0.002315816
     15        6           0.005620953   -0.019800694   -0.005570474
     16       17           1.538760113    2.829884134    0.024497086
     17        6          -0.014643040   -0.000682050    0.004696231
     18        1           0.006571899   -0.005026012   -0.003109143
     19        6          -0.007968542   -0.012727924    0.000234637
     20        1          -0.006662951    0.011068168    0.004273876
     21        1           0.009211001    0.000208380   -0.002995468
     22        1           0.005289514    0.008967079   -0.000058544
 -------------------------------------------------------------------
 Cartesian Forces:  Max     2.829884134 RMS     0.560000022

 GradGradGradGradGradGradGradGradGradGradGradGradGradGradGradGradGradGrad
 Berny optimization.
 FormGI is forming the generalized inverse of G from B-inverse, IUseBI=4.
 Internal  Forces:  Max     3.118805818 RMS     0.292681650
 Search for a local minimum.
 Step number   1 out of a maximum of  129
 All quantities printed in internal units (Hartrees-Bohrs-Radians)
 Mixed Optimization -- RFO/linear search
 Second derivative matrix not updated -- first step.
 ITU=  0
     Eigenvalues ---    0.01035   0.01214   0.01489   0.01712   0.01738
     Eigenvalues ---    0.01829   0.02070   0.02070   0.02070   0.02070
     Eigenvalues ---    0.02070   0.02070   0.02070   0.02070   0.02070
     Eigenvalues ---    0.02070   0.02070   0.02070   0.03966   0.16000
     Eigenvalues ---    0.16000   0.16000   0.16000   0.16000   0.16000
     Eigenvalues ---    0.22000   0.22528   0.22597   0.24492   0.24513
     Eigenvalues ---    0.25000   0.25000   0.25000   0.25000   0.25000
     Eigenvalues ---    0.25000   0.28335   0.29043   0.29447   0.29539
     Eigenvalues ---    0.29539   0.37230   0.37230   0.37230   0.37230
     Eigenvalues ---    0.37230   0.37230   0.39944   0.40806   0.41371
     Eigenvalues ---    0.41581   0.44573   0.45130   0.45389   0.45389
     Eigenvalues ---    0.45389   0.45389   0.45389   0.45389  16.61567
 RFO step:  Lambda=-6.28207458D-01 EMin= 1.03510889D-02
 Linear search not attempted -- first point.
 Iteration  1 RMS(Cart)=  0.03266676 RMS(Int)=  0.00051175
 Iteration  2 RMS(Cart)=  0.00122642 RMS(Int)=  0.00023222
 Iteration  3 RMS(Cart)=  0.00000061 RMS(Int)=  0.00023222
 Variable       Old X    -DE/DX   Delta X   Delta X   Delta X     New X
                                 (Linear)    (Quad)   (Total)
    R1        2.64826  -0.01095   0.00000  -0.01236  -0.01237   2.63589
    R2        2.64826   0.10130   0.00000   0.01619   0.01584   2.66410
    R3        3.32592   0.06454   0.00000   0.14092   0.14114   3.46706
    R4        2.64826  -0.02019   0.00000  -0.00403  -0.00396   2.64430
    R5        3.32592   0.00484   0.00000   0.00524   0.00524   3.33116
    R6        2.64826   0.01771   0.00000   0.00174   0.00167   2.64993
    R7        2.91018   0.11973   0.00000  -0.01249  -0.01300   2.89718
    R8        2.64826  -0.03177   0.00000  -0.01249  -0.01242   2.63585
    R9        3.32592  -0.00118   0.00000  -0.00128  -0.00128   3.32464
   R10        2.23252   3.11881   0.00000   0.18087   0.18138   2.41390
   R11        2.64826  -0.01226   0.00000  -0.00909  -0.00908   2.63918
   R12        2.02201   0.00778   0.00000   0.00778   0.00778   2.02978
   R13        2.64826   0.10235   0.00000   0.01707   0.01676   2.66502
   R14        2.64826   0.01885   0.00000   0.00284   0.00278   2.65104
   R15        2.02201   0.00863   0.00000   0.00863   0.00863   2.03064
   R16        2.64826  -0.00638   0.00000  -0.00820  -0.00821   2.64005
   R17        3.32592   0.04364   0.00000   0.11820   0.11845   3.44436
   R18        2.64826  -0.00944   0.00000  -0.00642  -0.00641   2.64185
   R19        2.02201   0.00811   0.00000   0.00810   0.00810   2.03011
   R20        2.64826  -0.02437   0.00000  -0.00794  -0.00788   2.64038
   R21        2.02201   0.01359   0.00000   0.01358   0.01358   2.03559
   R22        2.64826  -0.02796   0.00000  -0.00896  -0.00890   2.63937
   R23        2.02201   0.00969   0.00000   0.00968   0.00968   2.03169
   R24        2.02201   0.01041   0.00000   0.01041   0.01041   2.03241
    A1        2.09440   0.01101   0.00000  -0.00530  -0.00535   2.08905
    A2        2.09440  -0.07590   0.00000  -0.02073  -0.02047   2.07392
    A3        2.09440   0.06489   0.00000   0.02604   0.02582   2.12022
    A4        2.09440   0.02235   0.00000   0.00931   0.00925   2.10365
    A5        2.09440  -0.01660   0.00000  -0.01084  -0.01081   2.08359
    A6        2.09440  -0.00574   0.00000   0.00153   0.00156   2.09595
    A7        2.09440  -0.07943   0.00000  -0.00966  -0.00939   2.08501
    A8        2.09440   0.24695   0.00000   0.01275   0.01181   2.10621
    A9        2.09440  -0.16752   0.00000  -0.00309  -0.00242   2.09197
   A10        2.09440  -0.00861   0.00000  -0.00193  -0.00190   2.09249
   A11        2.09440   0.01161   0.00000   0.00929   0.00927   2.10367
   A12        2.09440  -0.00300   0.00000  -0.00735  -0.00737   2.08703
   A13        2.09440  -0.31520   0.00000  -0.04244  -0.04134   2.05306
   A14        2.09440   0.04791   0.00000   0.00757   0.00740   2.10179
   A15        2.09440  -0.01924   0.00000   0.00221   0.00229   2.09669
   A16        2.09440  -0.02868   0.00000  -0.00977  -0.00969   2.08471
   A17        2.09440   0.24813   0.00000   0.01399   0.01307   2.10747
   A18        2.09440  -0.16654   0.00000  -0.00192  -0.00128   2.09311
   A19        2.09440  -0.08159   0.00000  -0.01207  -0.01179   2.08261
   A20        2.09440   0.00677   0.00000   0.00002  -0.00001   2.09439
   A21        2.09440  -0.00515   0.00000  -0.00225  -0.00224   2.09216
   A22        2.09440  -0.00162   0.00000   0.00223   0.00225   2.09664
   A23        2.09440   0.01413   0.00000  -0.00180  -0.00186   2.09253
   A24        2.09440   0.07047   0.00000   0.03226   0.03210   2.12650
   A25        2.09440  -0.08460   0.00000  -0.03046  -0.03024   2.06416
   A26        2.09440   0.04743   0.00000   0.00708   0.00692   2.10132
   A27        2.09440  -0.02016   0.00000   0.00098   0.00105   2.09545
   A28        2.09440  -0.02728   0.00000  -0.00806  -0.00798   2.08642
   A29        2.09440   0.02058   0.00000   0.00735   0.00729   2.10168
   A30        2.09440  -0.01102   0.00000  -0.00460  -0.00457   2.08982
   A31        2.09440  -0.00956   0.00000  -0.00275  -0.00272   2.09168
   A32        2.09440  -0.31524   0.00000  -0.04260  -0.04146   2.05293
   A33        2.09440   0.00759   0.00000   0.00102   0.00099   2.09538
   A34        2.09440  -0.00379   0.00000  -0.00051  -0.00049   2.09390
   A35        2.09440  -0.00380   0.00000  -0.00051  -0.00050   2.09390
   A36        2.09440  -0.00814   0.00000  -0.00157  -0.00155   2.09285
   A37        2.09440   0.00411   0.00000   0.00083   0.00082   2.09522
   A38        2.09440   0.00403   0.00000   0.00074   0.00073   2.09512
    D1        0.00000   0.00000   0.00000   0.00000   0.00000   0.00000
    D2        3.14159   0.00000   0.00000   0.00000   0.00000   3.14159
    D3       -3.14159   0.00000   0.00000  -0.00000  -0.00000  -3.14159
    D4       -0.00000   0.00000   0.00000  -0.00000  -0.00000  -0.00000
    D5       -0.00000  -0.00000   0.00000  -0.00000  -0.00000  -0.00000
    D6       -3.14159  -0.00000   0.00000  -0.00000  -0.00000  -3.14159
    D7        3.14159  -0.00000   0.00000   0.00000   0.00000   3.14159
    D8        0.00000  -0.00000   0.00000   0.00000   0.00000   0.00000
    D9       -3.14158  -0.00000   0.00000  -0.00000  -0.00000  -3.14158
   D10        0.00001  -0.00000   0.00000  -0.00000  -0.00000   0.00001
   D11        0.00000   0.00000   0.00000   0.00000   0.00000   0.00000
   D12        3.14159  -0.00000   0.00000   0.00000   0.00000   3.14159
   D13       -3.14159   0.00000   0.00000  -0.00000  -0.00000  -3.14159
   D14        0.00000   0.00000   0.00000   0.00000   0.00000   0.00000
   D15        0.00000   0.00000   0.00000   0.00000   0.00000   0.00000
   D16       -3.14159   0.00000   0.00000  -0.00000  -0.00000  -3.14159
   D17        3.14159   0.00000   0.00000   0.00000   0.00000   3.14159
   D18        0.00000   0.00000   0.00000   0.00000   0.00000   0.00000
   D19       -0.00000  -0.00000   0.00000  -0.00000  -0.00000  -0.00000
   D20        3.14159  -0.00000   0.00000  -0.00000  -0.00000   3.14159
   D21        3.14159  -0.00000   0.00000  -0.00000  -0.00000   3.14159
   D22       -0.00000  -0.00000   0.00000  -0.00000  -0.00000  -0.00000
   D23       -0.00000  -0.00000   0.00000  -0.00000  -0.00000  -0.00000
   D24        3.14159  -0.00000   0.00000   0.00000   0.00000   3.14159
   D25       -3.14159  -0.00000   0.00000  -0.00000  -0.00000  -3.14159
   D26        0.00000   0.00000   0.00000  -0.00000  -0.00000   0.00000
   D27       -0.00001   0.00000   0.00000   0.00000   0.00000  -0.00001
   D28       -0.00000  -0.00000   0.00000   0.00000   0.00000  -0.00000
   D29        3.14159  -0.00000   0.00000  -0.00000  -0.00000   3.14159
   D30        3.14159   0.00000   0.00000   0.00000   0.00000   3.14159
   D31       -0.00000   0.00000   0.00000   0.00000   0.00000  -0.00000
   D32        3.14159  -0.00000   0.00000  -0.00000  -0.00000   3.14159
   D33        0.00000  -0.00000   0.00000   0.00000   0.00000   0.00000
   D34       -0.00000  -0.00000   0.00000  -0.00000  -0.00000  -0.00000
   D35        3.14159  -0.00000   0.00000   0.00000   0.00000   3.14159
   D36       -3.14159   0.00000   0.00000   0.00000   0.00000  -3.14159
   D37       -0.00000   0.00000   0.00000   0.00000   0.00000  -0.00000
   D38        0.00000   0.00000   0.00000   0.00000   0.00000   0.00000
   D39        3.14159   0.00000   0.00000   0.00000   0.00000   3.14159
   D40       -0.00000   0.00000   0.00000   0.00000   0.00000  -0.00000
   D41        3.14159  -0.00000   0.00000   0.00000   0.00000   3.14159
   D42        3.14159   0.00000   0.00000   0.00000   0.00000   3.14159
   D43       -0.00000   0.00000   0.00000  -0.00000  -0.00000  -0.00000
   D44        0.00001  -0.00000   0.00000  -0.00000  -0.00000   0.00001
   D45       -3.14158  -0.00000   0.00000  -0.00000  -0.00000  -3.14158
   D46        0.00000  -0.00000   0.00000   0.00000   0.00000   0.00000
   D47        3.14159  -0.00000   0.00000   0.00000   0.00000   3.14159
   D48       -3.14159   0.00000   0.00000  -0.00000  -0.00000  -3.14159
   D49        0.00000   0.00000   0.00000  -0.00000  -0.00000   0.00000
   D50        0.00000   0.00000   0.00000  -0.00000  -0.00000   0.00000
   D51       -3.14159  -0.00000   0.00000  -0.00000  -0.00000  -3.14159
   D52       -3.14159   0.00000   0.00000  -0.00000  -0.00000  -3.14159
   D53        0.00000   0.00000   0.00000  -0.00000  -0.00000   0.00000
   D54       -0.00000  -0.00000   0.00000   0.00000   0.00000  -0.00000
   D55        3.14159   0.00000   0.00000  -0.00000  -0.00000   3.14159
   D56        3.14159  -0.00000   0.00000   0.00000   0.00000   3.14159
   D57        0.00000   0.00000   0.00000  -0.00000  -0.00000   0.00000
         Item               Value     Threshold  Converged?
 Maximum Force            3.118806     0.000450     NO 
 RMS     Force            0.292682     0.000300     NO 
 Maximum Displacement     0.195474     0.001800     NO 
 RMS     Displacement     0.031975     0.001200     NO 
 Predicted change in Energy=-3.365398D-01
 GradGradGradGradGradGradGradGradGradGradGradGradGradGradGradGradGradGrad

                          Input orientation:                          
 ---------------------------------------------------------------------
 Center     Atomic      Atomic             Coordinates (Angstroms)
 Number     Number       Type             X           Y           Z
 ---------------------------------------------------------------------
      1          6           0       -2.574255    0.810412    0.993833
      2          6           0       -3.260309   -0.404060    0.991769
      3          6           0       -1.233453    0.855804    0.560620
      4          6           0       -2.628371   -1.576726    0.563335
      5         17           0       -4.936576   -0.451347    1.535152
      6         17           0       -3.448110    2.319098    1.565078
      7          6           0       -0.606616   -0.323317    0.132654
      8          6           0       -0.458079    2.178381    0.553561
      9          6           0       -1.301858   -1.534561    0.134224
     10         17           0       -3.493661   -3.108552    0.560723
     11          1           0        0.414575   -0.301080   -0.199606
     12          6           0       -1.070060    3.375257    0.979964
     13          6           0        0.875601    2.205473    0.119262
     14          1           0       -0.816875   -2.435272   -0.194719
     15          6           0       -0.346769    4.570425    0.966137
     16         17           0       -2.798269    3.418803    1.557508
     17          6           0        1.591862    3.406009    0.108758
     18          1           0        1.353426    1.300696   -0.208084
     19          6           0        0.981195    4.588656    0.532059
     20          1           0       -0.816679    5.483162    1.292370
     21          1           0        2.613641    3.418923   -0.225446
     22          1           0        1.532452    5.512107    0.523878
 ---------------------------------------------------------------------
                    Distance matrix (angstroms):
                    1          2          3          4          5
     1  C    0.000000
     2  C    1.394854   0.000000
     3  C    1.409782   2.425138   0.000000
     4  C    2.426249   1.399303   2.804105   0.000000
     5  Cl   2.732329   1.762774   4.046168   2.745673   0.000000
     6  Cl   1.834687   2.789182   2.838110   4.105229   3.145122
     7  C    2.428698   2.790463   1.402285   2.417439   4.553234
     8  C    2.558003   3.835821   1.533122   4.337175   5.285444
     9  C    2.803002   2.418460   2.429061   1.394830   4.043158
    10  Cl   4.048601   2.748551   4.563404   1.759325   3.176831
    11  H    3.404822   3.864551   2.152282   3.386572   5.627324
    12  C    2.973420   4.368131   2.559334   5.208076   5.468187
    13  C    3.822639   4.967563   2.542540   5.174944   6.545596
    14  H    3.877565   3.391747   3.402242   2.143190   4.888799
    15  C    4.370373   5.764969   3.840451   6.569279   6.827027
    16  Cl   2.677987   3.892020   3.164080   5.096328   4.421642
    17  C    4.987686   6.232166   3.832771   6.545583   7.715847
    18  H    4.136624   5.062844   2.735101   4.972861   6.758154
    19  C    5.208607   6.567260   4.340468   7.144360   7.837591
    20  H    5.001279   6.381306   4.703361   7.325008   7.228478
    21  H    5.933400   7.113375   4.689095   7.284049   8.665130
    22  H    6.260338   7.628271   5.415971   8.219827   8.856285
                    6          7          8          9         10
     6  Cl   0.000000
     7  C    4.136215   0.000000
     8  C    3.159629   2.541203   0.000000
     9  C    4.637287   1.396595   3.830632   0.000000
    10  Cl   5.519980   4.034328   6.096430   2.731913   0.000000
    11  H    4.989967   1.074115   2.734321   2.139874   4.871786
    12  C    2.667011   3.822586   1.410268   4.987517   6.934651
    13  C    4.560457   2.931198   1.402872   4.327748   6.893779
    14  H    5.711770   2.147496   4.687691   1.074566   2.861675
    15  C    3.878855   4.971008   2.429915   6.234992   8.308668
    16  Cl   1.277381   4.564758   2.832499   5.366638   6.639542
    17  C    5.357570   4.329174   2.430469   5.725688   8.276854
    18  H    5.218811   2.568128   2.152204   3.899537   6.597482
    19  C    5.082987   5.177658   2.807383   6.547090   8.903491
    20  H    4.124330   5.924885   3.405292   7.129175   9.028792
    21  H    6.415638   4.950015   3.403125   6.324358   8.973579
    22  H    6.007113   6.227427   3.882889   7.605306   9.978924
                   11         12         13         14         15
    11  H    0.000000
    12  C    4.136542   0.000000
    13  C    2.568468   2.427921   0.000000
    14  H    2.463994   5.933484   4.949704   0.000000
    15  C    5.066573   1.397057   2.793633   7.116767   0.000000
    16  Cl   5.219899   1.822679   4.127716   6.423895   2.772328
    17  C    3.901744   2.801031   1.398009   6.325715   2.418523
    18  H    1.856663   3.404196   1.074288   4.320629   3.867892
    19  C    4.976536   2.424995   2.420973   7.286757   1.397228
    20  H    6.099134   2.145941   3.870819   8.056862   1.077187
    21  H    4.321456   3.876155   2.147573   6.785350   3.392618
    22  H    5.963743   3.398119   3.395438   8.318447   2.147983
                   16         17         18         19         20
    16  Cl   0.000000
    17  C    4.623018   0.000000
    18  H    4.984001   2.142332   0.000000
    19  C    4.087108   1.396693   3.390730   0.000000
    20  H    2.873774   3.393607   4.945072   2.147223   0.000000
    21  H    5.698044   1.075124   2.464819   2.146385   4.281582
    22  H    4.919904   2.147441   4.278295   1.075506   2.471808
                   21         22
    21  H    0.000000
    22  H    2.472221   0.000000
 Stoichiometry    C12H6Cl4
 Framework group  C1[X(C12H6Cl4)]
 Deg. of freedom    60
 Full point group                 C1      NOp   1
 Largest Abelian subgroup         C1      NOp   1
 Largest concise Abelian subgroup C1      NOp   1
                         Standard orientation:                         
 ---------------------------------------------------------------------
 Center     Atomic      Atomic             Coordinates (Angstroms)
 Number     Number       Type             X           Y           Z
 ---------------------------------------------------------------------
      1          6           0        0.495029   -0.276349   -0.000001
      2          6           0        1.887803   -0.200212   -0.000001
      3          6           0       -0.269126    0.908366   -0.000002
      4          6           0        2.531788    1.042097   -0.000002
      5         17           0        2.835192   -1.686761    0.000005
      6         17           0       -0.300543   -1.929570    0.000003
      7          6           0        0.383048    2.149765   -0.000003
      8          6           0       -1.801174    0.850962   -0.000001
      9          6           0        1.778083    2.215757   -0.000003
     10         17           0        4.288488    1.138161    0.000000
     11          1           0       -0.188580    3.059141   -0.000001
     12          6           0       -2.476324   -0.387193   -0.000002
     13          6           0       -2.546084    2.039726    0.000002
     14          1           0        2.272937    3.169598   -0.000004
     15          6           0       -3.873026   -0.418649    0.000000
     16         17           0       -1.577197   -1.972667   -0.000006
     17          6           0       -3.943495    1.998847    0.000004
     18          1           0       -2.043934    2.989431    0.000004
     19          6           0       -4.607389    0.770029    0.000005
     20          1           0       -4.386155   -1.365766   -0.000002
     21          1           0       -4.507601    2.914093    0.000007
     22          1           0       -5.682444    0.738864    0.000007
 ---------------------------------------------------------------------
 Rotational constants (GHZ):           0.7159651           0.2441522           0.1820657
 Standard basis: 6-311+G(d,p) (5D, 7F)
 There are   436 symmetry adapted cartesian basis functions of A   symmetry.
 There are   420 symmetry adapted basis functions of A   symmetry.
   420 basis functions,   692 primitive gaussians,   436 cartesian basis functions
    73 alpha electrons       73 beta electrons
       nuclear repulsion energy      1574.1865523716 Hartrees.
 NAtoms=   22 NActive=   22 NUniq=   22 SFac= 1.00D+00 NAtFMM=   60 NAOKFM=F Big=F
 Integral buffers will be    131072 words long.
 Raffenetti 2 integral format.
 Two-electron integral symmetry is turned on.
 One-electron integrals computed using PRISM.
 NBasis=   420 RedAO= T EigKep=  1.47D-06  NBF=   420
 NBsUse=   414 1.00D-06 EigRej=  8.76D-07 NBFU=   414
 Initial guess from the checkpoint file:  "/scratch/pkc/Gau-34375.chk"
 B after Tr=     0.000000    0.000000    0.000000
         Rot=    0.999997    0.000000   -0.000000    0.002459 Ang=   0.28 deg.
 ExpMin= 4.38D-02 ExpMax= 1.06D+05 ExpMxC= 3.62D+03 IAcc=3 IRadAn=         5 AccDes= 0.00D+00
 Harris functional with IExCor=  402 and IRadAn=       5 diagonalized for initial guess.
 HarFok:  IExCor=  402 AccDes= 0.00D+00 IRadAn=         5 IDoV= 1 UseB2=F ITyADJ=14
 ICtDFT=  3500011 ScaDFX=  1.000000  1.000000  1.000000  1.000000
 FoFCou: FMM=F IPFlag=           0 FMFlag=      100000 FMFlg1=           0
         NFxFlg=           0 DoJE=T BraDBF=F KetDBF=T FulRan=T
         wScrn=  0.000000 ICntrl=       500 IOpCl=  0 I1Cent=   200000004 NGrid=           0
         NMat0=    1 NMatS0=      1 NMatT0=    0 NMatD0=    1 NMtDS0=    0 NMtDT0=    0
 Petite list used in FoFCou.
 Requested convergence on RMS density matrix=1.00D-08 within  32 cycles.
 Requested convergence on MAX density matrix=1.00D-06.
 Requested convergence on             energy=1.00D-06.
 No special actions if energy rises.
 SCF Done:  E(RB3LYP) =  -2300.78554868     A.U. after   17 cycles
            NFock= 17  Conv=0.46D-08     -V/T= 2.0004
 QCSCF skips out because SCF is already converged.
 Calling FoFJK, ICntrl=      2127 FMM=F ISym2X=0 I1Cent= 0 IOpClX= 0 NMat=1 NMatS=1 NMatT=0.
 ***** Axes restored to original set *****
 -------------------------------------------------------------------
 Center     Atomic                   Forces (Hartrees/Bohr)
 Number     Number              X              Y              Z
 -------------------------------------------------------------------
      1        6           0.055529135   -0.083779774   -0.034028795
      2        6           0.017027796    0.008797384   -0.003957638
      3        6           0.018281665    0.011686806   -0.003828089
      4        6          -0.001568289    0.000691251    0.000646531
      5       17          -0.005783131    0.001828908    0.002248765
      6       17          -1.111589998   -1.683982082    0.049969803
      7        6          -0.013383814   -0.003087407    0.003829565
      8        6          -0.002180274   -0.024100106   -0.003807934
      9        6          -0.001799401    0.008050543    0.002104746
     10       17           0.002641756   -0.001180085   -0.001092034
     11        1           0.004617402   -0.003881127   -0.002250249
     12        6           0.083597448   -0.017485651   -0.030826005
     13        6          -0.002073599    0.013672667    0.003251188
     14        1           0.001317360   -0.005205042   -0.001411536
     15        6          -0.001075520   -0.013653471   -0.002209802
     16       17           0.959528906    1.789055268    0.019861396
     17        6          -0.009087416   -0.001303059    0.002749274
     18        1           0.004761564   -0.002758090   -0.002086778
     19        6          -0.003658455   -0.006343837    0.000013651
     20        1          -0.004168812    0.007387410    0.002760899
     21        1           0.005782792   -0.000039099   -0.001912506
     22        1           0.003282885    0.005628594   -0.000024453
 -------------------------------------------------------------------
 Cartesian Forces:  Max     1.789055268 RMS     0.352863691

 GradGradGradGradGradGradGradGradGradGradGradGradGradGradGradGradGradGrad
 Berny optimization.
 Using GEDIIS/GDIIS optimizer.
 FormGI is forming the generalized inverse of G from B-inverse, IUseBI=4.
 Internal  Forces:  Max     1.971015608 RMS     0.184968196
 Search for a local minimum.
 Step number   2 out of a maximum of  129
 All quantities printed in internal units (Hartrees-Bohrs-Radians)
 Mixed Optimization -- RFO/linear search
 Update second derivatives using D2CorX and points    1    2
 DE= -5.09D-01 DEPred=-3.37D-01 R= 1.51D+00
 TightC=F SS=  1.41D+00  RLast= 2.77D-01 DXNew= 5.0454D-01 8.3018D-01
 Trust test= 1.51D+00 RLast= 2.77D-01 DXMaxT set to 5.05D-01
 ITU=  1  0
 Use linear search instead of GDIIS.
 Linear search step of   0.553 exceeds DXMaxT=   0.505 but not scaled.
 Quartic linear search produced a step of  2.00000.
 Iteration  1 RMS(Cart)=  0.04080958 RMS(Int)=  0.01667183
 Iteration  2 RMS(Cart)=  0.02375362 RMS(Int)=  0.00128815
 Iteration  3 RMS(Cart)=  0.00024415 RMS(Int)=  0.00128058
 Iteration  4 RMS(Cart)=  0.00000020 RMS(Int)=  0.00128058
 Variable       Old X    -DE/DX   Delta X   Delta X   Delta X     New X
                                 (Linear)    (Quad)   (Total)
    R1        2.63589  -0.00927  -0.02474   0.00000  -0.02481   2.61108
    R2        2.66410   0.06021   0.03168   0.00000   0.02978   2.69388
    R3        3.46706   0.07377   0.28227   0.00000   0.28326   3.75031
    R4        2.64430  -0.01236  -0.00793   0.00000  -0.00756   2.63674
    R5        3.33116   0.00614   0.01048   0.00000   0.01048   3.34164
    R6        2.64993   0.01195   0.00335   0.00000   0.00299   2.65292
    R7        2.89718   0.06208  -0.02599   0.00000  -0.02862   2.86856
    R8        2.63585  -0.01917  -0.02483   0.00000  -0.02439   2.61146
    R9        3.32464  -0.00027  -0.00255   0.00000  -0.00255   3.32209
   R10        2.41390   1.97102   0.36276   0.00000   0.36538   2.77928
   R11        2.63918  -0.00798  -0.01816   0.00000  -0.01809   2.62110
   R12        2.02978   0.00501   0.01555   0.00000   0.01555   2.04533
   R13        2.66502   0.06063   0.03351   0.00000   0.03181   2.69683
   R14        2.65104   0.01266   0.00556   0.00000   0.00525   2.65629
   R15        2.03064   0.00539   0.01726   0.00000   0.01726   2.04789
   R16        2.64005  -0.00546  -0.01642   0.00000  -0.01648   2.62357
   R17        3.44436   0.05374   0.23689   0.00000   0.23799   3.68235
   R18        2.64185  -0.00640  -0.01282   0.00000  -0.01274   2.62911
   R19        2.03011   0.00508   0.01621   0.00000   0.01621   2.04632
   R20        2.64038  -0.01412  -0.01577   0.00000  -0.01545   2.62493
   R21        2.03559   0.00891   0.02716   0.00000   0.02716   2.06275
   R22        2.63937  -0.01731  -0.01779   0.00000  -0.01739   2.62197
   R23        2.03169   0.00609   0.01937   0.00000   0.01937   2.05106
   R24        2.03241   0.00652   0.02081   0.00000   0.02081   2.05322
    A1        2.08905   0.00533  -0.01070   0.00000  -0.01090   2.07815
    A2        2.07392  -0.05593  -0.04094   0.00000  -0.03938   2.03454
    A3        2.12022   0.05060   0.05164   0.00000   0.05028   2.17049
    A4        2.10365   0.01624   0.01851   0.00000   0.01814   2.12179
    A5        2.08359  -0.01149  -0.02162   0.00000  -0.02144   2.06215
    A6        2.09595  -0.00474   0.00311   0.00000   0.00329   2.09924
    A7        2.08501  -0.04795  -0.01878   0.00000  -0.01732   2.06769
    A8        2.10621   0.14726   0.02362   0.00000   0.01848   2.12469
    A9        2.09197  -0.09931  -0.00485   0.00000  -0.00117   2.09081
   A10        2.09249  -0.00673  -0.00381   0.00000  -0.00364   2.08885
   A11        2.10367   0.00849   0.01854   0.00000   0.01846   2.12213
   A12        2.08703  -0.00175  -0.01474   0.00000  -0.01482   2.07221
   A13        2.05306  -0.20161  -0.08268   0.00000  -0.07646   1.97660
   A14        2.10179   0.02956   0.01479   0.00000   0.01385   2.11564
   A15        2.09669  -0.01067   0.00459   0.00000   0.00505   2.10174
   A16        2.08471  -0.01889  -0.01938   0.00000  -0.01891   2.06580
   A17        2.10747   0.14822   0.02614   0.00000   0.02111   2.12858
   A18        2.09311  -0.09814  -0.00257   0.00000   0.00096   2.09408
   A19        2.08261  -0.05007  -0.02358   0.00000  -0.02208   2.06053
   A20        2.09439   0.00355  -0.00002   0.00000  -0.00014   2.09425
   A21        2.09216  -0.00313  -0.00448   0.00000  -0.00441   2.08774
   A22        2.09664  -0.00042   0.00449   0.00000   0.00455   2.10120
   A23        2.09253   0.00830  -0.00373   0.00000  -0.00400   2.08853
   A24        2.12650   0.05551   0.06420   0.00000   0.06313   2.18963
   A25        2.06416  -0.06381  -0.06048   0.00000  -0.05913   2.00503
   A26        2.10132   0.02982   0.01385   0.00000   0.01299   2.11431
   A27        2.09545  -0.01189   0.00211   0.00000   0.00254   2.09799
   A28        2.08642  -0.01793  -0.01596   0.00000  -0.01553   2.07089
   A29        2.10168   0.01399   0.01457   0.00000   0.01422   2.11590
   A30        2.08982  -0.00733  -0.00914   0.00000  -0.00896   2.08086
   A31        2.09168  -0.00666  -0.00543   0.00000  -0.00526   2.08642
   A32        2.05293  -0.19998  -0.08293   0.00000  -0.07654   1.97639
   A33        2.09538   0.00420   0.00198   0.00000   0.00185   2.09723
   A34        2.09390  -0.00222  -0.00099   0.00000  -0.00092   2.09298
   A35        2.09390  -0.00198  -0.00099   0.00000  -0.00093   2.09297
   A36        2.09285  -0.00624  -0.00310   0.00000  -0.00298   2.08987
   A37        2.09522   0.00305   0.00165   0.00000   0.00159   2.09681
   A38        2.09512   0.00319   0.00145   0.00000   0.00139   2.09651
    D1        0.00000   0.00000   0.00000   0.00000   0.00000   0.00000
    D2        3.14159   0.00000   0.00000   0.00000   0.00000   3.14159
    D3       -3.14159   0.00000  -0.00000   0.00000  -0.00000  -3.14159
    D4       -0.00000   0.00000  -0.00000   0.00000  -0.00000  -0.00000
    D5       -0.00000  -0.00000  -0.00000   0.00000  -0.00000  -0.00000
    D6       -3.14159  -0.00000  -0.00000   0.00000  -0.00000  -3.14159
    D7        3.14159  -0.00000   0.00000   0.00000   0.00000   3.14159
    D8        0.00000  -0.00000   0.00000   0.00000   0.00000   0.00000
    D9       -3.14158  -0.00000  -0.00000   0.00000  -0.00000  -3.14158
   D10        0.00001  -0.00000  -0.00000   0.00000  -0.00000   0.00001
   D11        0.00000   0.00000   0.00000   0.00000  -0.00000   0.00000
   D12        3.14159  -0.00000   0.00000   0.00000   0.00000   3.14159
   D13       -3.14159   0.00000  -0.00000   0.00000  -0.00000  -3.14159
   D14        0.00000   0.00000   0.00000   0.00000  -0.00000   0.00000
   D15        0.00000   0.00000   0.00000   0.00000   0.00000   0.00000
   D16       -3.14159   0.00000  -0.00000   0.00000  -0.00000  -3.14159
   D17        3.14159   0.00000   0.00000   0.00000   0.00000   3.14159
   D18        0.00000   0.00000   0.00000   0.00000   0.00000   0.00000
   D19       -0.00000  -0.00000  -0.00000   0.00000  -0.00000  -0.00000
   D20        3.14159  -0.00000  -0.00000   0.00000  -0.00000   3.14159
   D21        3.14159  -0.00000  -0.00000   0.00000  -0.00000   3.14159
   D22       -0.00000  -0.00000  -0.00000   0.00000  -0.00000  -0.00000
   D23       -0.00000  -0.00000  -0.00000   0.00000  -0.00000  -0.00000
   D24        3.14159  -0.00000   0.00000   0.00000   0.00000   3.14159
   D25       -3.14159  -0.00000  -0.00000   0.00000  -0.00000  -3.14159
   D26        0.00000   0.00000  -0.00000   0.00000  -0.00000   0.00000
   D27       -0.00001   0.00000   0.00000   0.00000   0.00000  -0.00001
   D28       -0.00000  -0.00000   0.00000   0.00000   0.00000  -0.00000
   D29        3.14159  -0.00000  -0.00000   0.00000  -0.00000   3.14159
   D30        3.14159   0.00000   0.00000   0.00000   0.00000   3.14159
   D31       -0.00000   0.00000   0.00000   0.00000   0.00000  -0.00000
   D32        3.14159  -0.00000  -0.00000   0.00000  -0.00000   3.14159
   D33        0.00000  -0.00000   0.00000   0.00000   0.00000   0.00000
   D34       -0.00000  -0.00000  -0.00000   0.00000  -0.00000  -0.00000
   D35        3.14159  -0.00000   0.00000   0.00000   0.00000   3.14159
   D36       -3.14159   0.00000   0.00000   0.00000   0.00000  -3.14159
   D37       -0.00000   0.00000   0.00000   0.00000   0.00000  -0.00000
   D38        0.00000   0.00000   0.00000   0.00000  -0.00000   0.00000
   D39        3.14159   0.00000   0.00000   0.00000   0.00000   3.14159
   D40       -0.00000   0.00000   0.00000   0.00000   0.00000  -0.00000
   D41        3.14159  -0.00000   0.00000   0.00000   0.00000   3.14159
   D42        3.14159   0.00000   0.00000   0.00000   0.00000   3.14159
   D43       -0.00000   0.00000  -0.00000   0.00000  -0.00000  -0.00000
   D44        0.00001  -0.00000  -0.00000   0.00000  -0.00000   0.00001
   D45       -3.14158  -0.00000  -0.00000   0.00000  -0.00000  -3.14158
   D46        0.00000  -0.00000   0.00000   0.00000   0.00000   0.00000
   D47        3.14159  -0.00000   0.00000   0.00000   0.00000   3.14159
   D48       -3.14159   0.00000  -0.00000   0.00000  -0.00000  -3.14159
   D49        0.00000   0.00000  -0.00000   0.00000  -0.00000   0.00000
   D50        0.00000   0.00000  -0.00000   0.00000  -0.00000   0.00000
   D51       -3.14159  -0.00000  -0.00000   0.00000  -0.00000  -3.14159
   D52       -3.14159   0.00000  -0.00000   0.00000  -0.00000  -3.14159
   D53        0.00000   0.00000  -0.00000   0.00000  -0.00000   0.00000
   D54       -0.00000  -0.00000   0.00000   0.00000   0.00000  -0.00000
   D55        3.14159   0.00000  -0.00000   0.00000  -0.00000   3.14159
   D56        3.14159  -0.00000   0.00000   0.00000   0.00000   3.14159
   D57        0.00000   0.00000  -0.00000   0.00000  -0.00000   0.00000
         Item               Value     Threshold  Converged?
 Maximum Force            1.971016     0.000450     NO 
 RMS     Force            0.184968     0.000300     NO 
 Maximum Displacement     0.377765     0.001800     NO 
 RMS     Displacement     0.059304     0.001200     NO 
 Predicted change in Energy=-3.676056D-01
 GradGradGradGradGradGradGradGradGradGradGradGradGradGradGradGradGradGrad

                          Input orientation:                          
 ---------------------------------------------------------------------
 Center     Atomic      Atomic             Coordinates (Angstroms)
 Number     Number       Type             X           Y           Z
 ---------------------------------------------------------------------
      1          6           0       -2.594509    0.791161    0.996891
      2          6           0       -3.242076   -0.429319    0.981019
      3          6           0       -1.238334    0.861361    0.563272
[...]
                 (A) (A) (A) (A) (A) (A) (A) (A) (A) (A) (A) (A)
                 (A) (A) (A) (A) (A) (A) (A) (A) (A) (A) (A) (A)
                 (A) (A) (A) (A) (A) (A) (A) (A) (A) (A) (A) (A)
                 (A) (A) (A) (A) (A) (A) (A) (A) (A) (A) (A) (A)
                 (A) (A) (A) (A) (A) (A) (A) (A) (A) (A) (A) (A)
                 (A)
       Virtual   (A) (A) (A) (A) (A) (A) (A) (A) (A) (A) (A) (A)
                 (A) (A) (A) (A) (A) (A) (A) (A) (A) (A) (A) (A)
                 (A) (A) (A) (A) (A) (A) (A) (A) (A) (A) (A) (A)
                 (A) (A) (A) (A) (A) (A) (A) (A) (A) (A) (A) (A)
                 (A) (A) (A) (A) (A) (A) (A) (A) (A) (A) (A) (A)
                 (A) (A) (A) (A) (A) (A) (A) (A) (A) (A) (A) (A)
                 (A) (A) (A) (A) (A) (A) (A) (A) (A) (A) (A) (A)
                 (A) (A) (A) (A) (A) (A) (A) (A) (A) (A) (A) (A)
                 (A) (A) (A) (A) (A) (A) (A) (A) (A) (A) (A) (A)
                 (A) (A) (A) (A) (A) (A) (A) (A) (A) (A) (A) (A)
                 (A) (A) (A) (A) (A) (A) (A) (A) (A) (A) (A) (A)
                 (A) (A) (A) (A) (A) (A) (A) (A) (A) (A) (A) (A)
                 (A) (A) (A) (A) (A) (A) (A) (A) (A) (A) (A) (A)
                 (A) (A) (A) (A) (A) (A) (A) (A) (A) (A) (A) (A)
                 (A) (A) (A) (A) (A) (A) (A) (A) (A) (A) (A) (A)
                 (A) (A) (A) (A) (A) (A) (A) (A) (A) (A) (A) (A)
                 (A) (A) (A) (A) (A) (A) (A) (A) (A) (A) (A) (A)
                 (A) (A) (A) (A) (A) (A) (A) (A) (A) (A) (A) (A)
                 (A) (A) (A) (A) (A) (A) (A) (A) (A) (A) (A) (A)
                 (A) (A) (A) (A) (A) (A) (A) (A) (A) (A) (A) (A)
                 (A) (A) (A) (A) (A) (A) (A) (A) (A) (A) (A) (A)
                 (A) (A) (A) (A) (A) (A) (A) (A) (A) (A) (A) (A)
                 (A) (A) (A) (A) (A) (A) (A) (A) (A) (A) (A) (A)
                 (A) (A) (A) (A) (A) (A) (A) (A) (A) (A) (A) (A)
                 (A) (A) (A) (A) (A) (A) (A) (A) (A) (A) (A) (A)
                 (A) (A) (A) (A) (A) (A) (A) (A) (A) (A) (A) (A)
                 (A) (A) (A) (A) (A) (A) (A) (A) (A) (A) (A) (A)
                 (A) (A) (A) (A) (A) (A) (A) (A) (A) (A) (A) (A)
                 (A) (A) (A) (A) (A) (A) (A) (A)
 The electronic state is 1-A.
 Alpha  occ. eigenvalues -- -101.57066-101.57021-101.56815-101.56149 -10.26971
 Alpha  occ. eigenvalues --  -10.26780 -10.26601 -10.25367 -10.22283 -10.21671
 Alpha  occ. eigenvalues --  -10.20942 -10.20825 -10.20092 -10.20087 -10.19952
 Alpha  occ. eigenvalues --  -10.19634  -9.48532  -9.48480  -9.48292  -9.47622
 Alpha  occ. eigenvalues --   -7.25031  -7.24964  -7.24776  -7.24081  -7.24015
 Alpha  occ. eigenvalues --   -7.23961  -7.23932  -7.23901  -7.23777  -7.23702
 Alpha  occ. eigenvalues --   -7.23108  -7.23064  -0.94558  -0.91270  -0.89259
 Alpha  occ. eigenvalues --   -0.87119  -0.85286  -0.84711  -0.79629  -0.75700
 Alpha  occ. eigenvalues --   -0.75562  -0.73767  -0.65113  -0.63453  -0.62763
 Alpha  occ. eigenvalues --   -0.60550  -0.54915  -0.52637  -0.51934  -0.49534
 Alpha  occ. eigenvalues --   -0.48800  -0.47357  -0.46004  -0.45370  -0.44742
 Alpha  occ. eigenvalues --   -0.44270  -0.41889  -0.41537  -0.39949  -0.38483
 Alpha  occ. eigenvalues --   -0.37980  -0.37726  -0.35721  -0.34904  -0.34607
 Alpha  occ. eigenvalues --   -0.33653  -0.33479  -0.32445  -0.31334  -0.27956
 Alpha  occ. eigenvalues --   -0.26770  -0.26663  -0.26299
 Alpha virt. eigenvalues --   -0.05092  -0.04863  -0.03848  -0.03429  -0.03196
 Alpha virt. eigenvalues --   -0.00688  -0.00033   0.01298   0.01740   0.01921
 Alpha virt. eigenvalues --    0.02367   0.02846   0.03169   0.04362   0.04530
 Alpha virt. eigenvalues --    0.05021   0.05453   0.06255   0.06471   0.06595
 Alpha virt. eigenvalues --    0.07551   0.07921   0.08172   0.08907   0.09270
 Alpha virt. eigenvalues --    0.09718   0.10138   0.10412   0.10575   0.10863
 Alpha virt. eigenvalues --    0.11500   0.11981   0.12625   0.12987   0.13286
 Alpha virt. eigenvalues --    0.13317   0.13729   0.14296   0.14910   0.15034
 Alpha virt. eigenvalues --    0.15936   0.16062   0.16149   0.16836   0.16854
 Alpha virt. eigenvalues --    0.17193   0.17540   0.18214   0.18653   0.19213
 Alpha virt. eigenvalues --    0.19526   0.19734   0.19912   0.20191   0.20611
 Alpha virt. eigenvalues --    0.20848   0.21260   0.21496   0.21816   0.22079
 Alpha virt. eigenvalues --    0.22692   0.23096   0.23544   0.24385   0.24682
 Alpha virt. eigenvalues --    0.24852   0.25007   0.25810   0.26179   0.26458
 Alpha virt. eigenvalues --    0.27334   0.27632   0.27817   0.28321   0.28720
 Alpha virt. eigenvalues --    0.28945   0.29428   0.30027   0.30348   0.31416
 Alpha virt. eigenvalues --    0.31770   0.31897   0.32841   0.33561   0.35629
 Alpha virt. eigenvalues --    0.36520   0.41393   0.42555   0.43596   0.44220
 Alpha virt. eigenvalues --    0.45448   0.45773   0.46089   0.47059   0.47201
 Alpha virt. eigenvalues --    0.47404   0.48637   0.49767   0.50518   0.50972
 Alpha virt. eigenvalues --    0.51302   0.51456   0.52044   0.53610   0.54359
 Alpha virt. eigenvalues --    0.55088   0.56392   0.56790   0.57412   0.58169
 Alpha virt. eigenvalues --    0.58356   0.59144   0.60053   0.61330   0.61635
 Alpha virt. eigenvalues --    0.63000   0.63445   0.64192   0.64328   0.64885
 Alpha virt. eigenvalues --    0.65454   0.66713   0.67412   0.67964   0.68699
 Alpha virt. eigenvalues --    0.68893   0.69823   0.70823   0.70970   0.72122
 Alpha virt. eigenvalues --    0.72740   0.73859   0.75980   0.78804   0.79280
 Alpha virt. eigenvalues --    0.79821   0.81859   0.82149   0.82755   0.83003
 Alpha virt. eigenvalues --    0.83751   0.84201   0.84699   0.84916   0.85225
 Alpha virt. eigenvalues --    0.85726   0.86387   0.87141   0.87926   0.88386
 Alpha virt. eigenvalues --    0.88881   0.90104   0.90458   0.90645   0.91937
 Alpha virt. eigenvalues --    0.93624   0.94496   0.95080   0.95110   0.95831
 Alpha virt. eigenvalues --    0.96481   0.97084   0.97310   0.98215   0.98733
 Alpha virt. eigenvalues --    1.00130   1.00823   1.02081   1.02900   1.03309
 Alpha virt. eigenvalues --    1.04495   1.05849   1.09088   1.11708   1.12813
 Alpha virt. eigenvalues --    1.14437   1.16431   1.17740   1.21871   1.23169
 Alpha virt. eigenvalues --    1.24405   1.26637   1.27113   1.27752   1.28338
 Alpha virt. eigenvalues --    1.30563   1.31274   1.32442   1.35189   1.37244
 Alpha virt. eigenvalues --    1.39319   1.40514   1.43820   1.47971   1.48352
 Alpha virt. eigenvalues --    1.49432   1.51565   1.52784   1.55466   1.56521
 Alpha virt. eigenvalues --    1.57504   1.58486   1.59285   1.62948   1.64606
 Alpha virt. eigenvalues --    1.65673   1.66710   1.67513   1.69674   1.71548
 Alpha virt. eigenvalues --    1.73249   1.75180   1.76436   1.80229   1.81045
 Alpha virt. eigenvalues --    1.82385   1.83505   1.85491   1.85812   1.85983
 Alpha virt. eigenvalues --    1.87980   1.89400   1.93311   1.93704   1.94214
 Alpha virt. eigenvalues --    1.94371   1.96266   1.97879   2.00338   2.00961
 Alpha virt. eigenvalues --    2.03183   2.03960   2.05962   2.10396   2.13459
 Alpha virt. eigenvalues --    2.15246   2.20711   2.21816   2.23831   2.26345
 Alpha virt. eigenvalues --    2.26594   2.27626   2.29502   2.30934   2.32262
 Alpha virt. eigenvalues --    2.33103   2.36037   2.36480   2.38305   2.39065
 Alpha virt. eigenvalues --    2.41493   2.43687   2.44872   2.45731   2.50121
 Alpha virt. eigenvalues --    2.50495   2.53069   2.53364   2.56457   2.58015
 Alpha virt. eigenvalues --    2.60000   2.61622   2.65257   2.67540   2.67911
 Alpha virt. eigenvalues --    2.68426   2.70302   2.71503   2.72646   2.73549
 Alpha virt. eigenvalues --    2.75198   2.76258   2.77701   2.78897   2.79371
 Alpha virt. eigenvalues --    2.81309   2.83839   2.84077   2.84814   2.85474
 Alpha virt. eigenvalues --    2.88453   2.91107   2.98827   2.99629   3.09553
 Alpha virt. eigenvalues --    3.10104   3.12386   3.12951   3.14470   3.17456
 Alpha virt. eigenvalues --    3.20868   3.21999   3.27099   3.33413   3.36159
 Alpha virt. eigenvalues --    3.38857   3.43230   3.51907   3.55661   3.58360
 Alpha virt. eigenvalues --    3.68822   3.69911   3.79624   3.87626   4.00575
 Alpha virt. eigenvalues --    4.02336   4.06833   4.07566   4.13289   4.34208
 Alpha virt. eigenvalues --    4.81222   4.82515   9.75891   9.80119   9.82057
 Alpha virt. eigenvalues --    9.84045  23.38424  23.58282  23.84326  23.87807
 Alpha virt. eigenvalues --   23.90271  23.93341  23.96122  23.99313  24.05931
 Alpha virt. eigenvalues --   24.08517  24.13958  24.17171  25.78230  25.83842
 Alpha virt. eigenvalues --   25.89688  25.96995  26.10112  26.15653  26.23883
 Alpha virt. eigenvalues --   26.33244  26.50341  26.64145  26.74007  26.93738
 Alpha virt. eigenvalues --  215.74967 215.79750 215.82323 215.84280
          Condensed to atoms (all electrons):
               1          2          3          4          5          6
     1  C   17.857561   0.654146   2.160518  -2.934043   0.548796  -1.026974
     2  C    0.654146  14.821716  -2.581581   0.058864  -0.413155   0.101010
     3  C    2.160518  -2.581581  17.903750   0.892414  -0.558778  -0.454471
     4  C   -2.934043   0.058864   0.892414  14.132532  -0.364257  -0.411642
     5  Cl   0.548796  -0.413155  -0.558778  -0.364257  17.377230  -0.207574
     6  Cl  -1.026974   0.101010  -0.454471  -0.411642  -0.207574  17.803067
     7  C   -4.638525   1.192417  -3.501588  -0.646651   0.296342  -0.012283
     8  C   -1.489277  -3.241535   1.682631  -1.019113  -0.159110   0.097846
     9  C    0.451755  -4.052621  -1.342558  -3.160927   0.113914   0.326817
    10  Cl  -0.398667   0.684349  -0.167670  -0.367674  -0.148683  -0.023815
    11  H   -0.035708  -0.036699   0.007249  -0.018220   0.000170  -0.001934
    12  C   -2.771008  -1.327422  -5.697693  -0.130568  -0.075485  -0.058703
    13  C   -1.172589  -0.284282  -1.504532  -0.288860  -0.012095   0.519685
    14  H    0.008213  -0.001403   0.019411   0.014116  -0.000625   0.001593
    15  C    0.437054   0.014597  -0.327652   0.106230   0.001693  -0.295590
    16  Cl  -0.528542  -0.049471  -0.757122  -0.087041  -0.002613   0.142962
    17  C    0.204897   0.156725   0.603806  -0.001102   0.009317   0.059012
    18  H    0.074919   0.013358   0.102161   0.005732   0.000597  -0.009324
    19  C   -0.231995  -0.072425  -0.932855  -0.008581  -0.003114  -0.039900
    20  H    0.003601  -0.000117   0.007783   0.000043  -0.000006  -0.001142
    21  H    0.001922   0.000031   0.001262  -0.000012   0.000001  -0.000592
    22  H    0.001490   0.000146   0.008296   0.000038   0.000000  -0.000306
               7          8          9         10         11         12
     1  C   -4.638525  -1.489277   0.451755  -0.398667  -0.035708  -2.771008
     2  C    1.192417  -3.241535  -4.052621   0.684349  -0.036699  -1.327422
     3  C   -3.501588   1.682631  -1.342558  -0.167670   0.007249  -5.697693
     4  C   -0.646651  -1.019113  -3.160927  -0.367674  -0.018220  -0.130568
     5  Cl   0.296342  -0.159110   0.113914  -0.148683   0.000170  -0.075485
     6  Cl  -0.012283   0.097846   0.326817  -0.023815  -0.001934  -0.058703
     7  C   15.971601  -1.751644   0.320321   0.110782   0.341559  -1.893053
     8  C   -1.751644  29.244872   1.090174  -0.061129   0.072002  -5.484831
     9  C    0.320321   1.090174  12.648467  -0.376491  -0.063497   0.306596
    10  Cl   0.110782  -0.061129  -0.376491  17.305711  -0.001521  -0.072566
    11  H    0.341559   0.072002  -0.063497  -0.001521   0.526127   0.107207
    12  C   -1.893053  -5.484831   0.306596  -0.072566   0.107207  40.015120
    13  C    0.992740  -6.559755   0.423132   0.026591  -0.029021  -3.987870
    14  H   -0.047920  -0.002300   0.356408  -0.005056  -0.006932   0.003298
    15  C   -0.768014  -3.489377  -0.154253  -0.007375   0.020400  -8.110223
    16  Cl   0.369159   0.715008   0.179842   0.007566  -0.008854  -0.505227
    17  C    0.160994  -1.189068   0.003119   0.003769  -0.011728  -3.751911
    18  H    0.003715   0.033346  -0.015102   0.000079  -0.000361  -0.095450
    19  C   -0.044481  -3.624832   0.010562  -0.000603   0.005810   0.002030
    20  H   -0.001312   0.113689  -0.000520  -0.000001   0.000002   0.041788
    21  H   -0.000805  -0.013062  -0.000293  -0.000001   0.000004   0.014090
    22  H   -0.000799   0.041862  -0.000192   0.000000  -0.000004  -0.049037
              13         14         15         16         17         18
     1  C   -1.172589   0.008213   0.437054  -0.528542   0.204897   0.074919
     2  C   -0.284282  -0.001403   0.014597  -0.049471   0.156725   0.013358
     3  C   -1.504532   0.019411  -0.327652  -0.757122   0.603806   0.102161
     4  C   -0.288860   0.014116   0.106230  -0.087041  -0.001102   0.005732
     5  Cl  -0.012095  -0.000625   0.001693  -0.002613   0.009317   0.000597
     6  Cl   0.519685   0.001593  -0.295590   0.142962   0.059012  -0.009324
     7  C    0.992740  -0.047920  -0.768014   0.369159   0.160994   0.003715
     8  C   -6.559755  -0.002300  -3.489377   0.715008  -1.189068   0.033346
     9  C    0.423132   0.356408  -0.154253   0.179842   0.003119  -0.015102
    10  Cl   0.026591  -0.005056  -0.007375   0.007566   0.003769   0.000079
    11  H   -0.029021  -0.006932   0.020400  -0.008854  -0.011728  -0.000361
    12  C   -3.987870   0.003298  -8.110223  -0.505227  -3.751911  -0.095450
    13  C   30.260096  -0.001767 -13.099979   1.491741  -2.731442   0.282019
    14  H   -0.001767   0.506711   0.000425  -0.000843  -0.000381   0.000007
    15  C  -13.099979   0.000425  30.096073  -2.323630   3.400652   0.018190
    16  Cl   1.491741  -0.000843  -2.323630  18.036510  -0.155714  -0.003620
    17  C   -2.731442  -0.000381   3.400652  -0.155714   9.377021  -0.046840
    18  H    0.282019   0.000007   0.018190  -0.003620  -0.046840   0.536642
    19  C    2.352204   0.000049   0.905820   0.099017  -0.237382  -0.021013
    20  H    0.022746   0.000000   0.260874  -0.010814  -0.037893   0.000052
    21  H    0.015910   0.000000  -0.033765   0.001132   0.342266  -0.007241
    22  H   -0.056227  -0.000000   0.025511   0.000036   0.048103  -0.000254
              19         20         21         22
     1  C   -0.231995   0.003601   0.001922   0.001490
     2  C   -0.072425  -0.000117   0.000031   0.000146
     3  C   -0.932855   0.007783   0.001262   0.008296
     4  C   -0.008581   0.000043  -0.000012   0.000038
     5  Cl  -0.003114  -0.000006   0.000001   0.000000
     6  Cl  -0.039900  -0.001142  -0.000592  -0.000306
     7  C   -0.044481  -0.001312  -0.000805  -0.000799
     8  C   -3.624832   0.113689  -0.013062   0.041862
     9  C    0.010562  -0.000520  -0.000293  -0.000192
    10  Cl  -0.000603  -0.000001  -0.000001   0.000000
    11  H    0.005810   0.000002   0.000004  -0.000004
    12  C    0.002030   0.041788   0.014090  -0.049037
    13  C    2.352204   0.022746   0.015910  -0.056227
    14  H    0.000049   0.000000   0.000000  -0.000000
    15  C    0.905820   0.260874  -0.033765   0.025511
    16  Cl   0.099017  -0.010814   0.001132   0.000036
    17  C   -0.237382  -0.037893   0.342266   0.048103
    18  H   -0.021013   0.000052  -0.007241  -0.000254
    19  C    7.660014  -0.053029   0.021543   0.331294
    20  H   -0.053029   0.512633  -0.000204  -0.007818
    21  H    0.021543  -0.000204   0.531496  -0.007661
    22  H    0.331294  -0.007818  -0.007661   0.529706
 Mulliken charges:
               1
     1  C   -1.177544
     2  C    0.363353
     3  C    0.437219
     4  C    0.228723
     5  Cl   0.597436
     6  Cl   0.492255
     7  C   -0.452554
     8  C    0.993604
     9  C   -1.064652
    10  Cl   0.492405
    11  H    0.133948
    12  C   -0.479082
    13  C   -0.658442
    14  H    0.156997
    15  C   -0.677662
    16  Cl   0.390520
    17  C   -0.206218
    18  H    0.128389
    19  C   -0.118132
    20  H    0.149642
    21  H    0.133978
    22  H    0.135817
 Sum of Mulliken charges =  -0.00000
 Mulliken charges with hydrogens summed into heavy atoms:
               1
     1  C   -1.177544
     2  C    0.363353
     3  C    0.437219
     4  C    0.228723
     5  Cl   0.597436
     6  Cl   0.492255
     7  C   -0.318606
     8  C    0.993604
     9  C   -0.907655
    10  Cl   0.492405
    12  C   -0.479082
    13  C   -0.530053
    15  C   -0.528020
    16  Cl   0.390520
    17  C   -0.072240
    19  C    0.017685
 Electronic spatial extent (au):  <R**2>=           5474.2802
 Charge=             -0.0000 electrons
 Dipole moment (field-independent basis, Debye):
    X=             -2.6432    Y=              1.8910    Z=              1.6314  Tot=              3.6365
 Quadrupole moment (field-independent basis, Debye-Ang):
   XX=           -112.4807   YY=           -117.9193   ZZ=           -118.6377
   XY=              1.4167   XZ=             -3.7999   YZ=              1.5062
 Traceless Quadrupole moment (field-independent basis, Debye-Ang):
   XX=              3.8652   YY=             -1.5734   ZZ=             -2.2918
   XY=              1.4167   XZ=             -3.7999   YZ=              1.5062
 Octapole moment (field-independent basis, Debye-Ang**2):
  XXX=            -57.7325  YYY=             -2.5892  ZZZ=              0.9279  XYY=             22.3478
  XXY=             -9.3401  XXZ=              4.9654  XZZ=             -3.4952  YZZ=             -5.3917
  YYZ=             -4.1986  XYZ=             -1.6422
 Hexadecapole moment (field-independent basis, Debye-Ang**3):
 XXXX=          -4888.7866 YYYY=          -1129.9485 ZZZZ=           -829.3796 XXXY=              6.7343
 XXXZ=            -23.8154 YYYX=             15.3725 YYYZ=             -1.5253 ZZZX=            -24.7653
 ZZZY=              0.4627 XXYY=          -1109.0312 XXZZ=           -993.4536 YYZZ=           -365.4442
 XXYZ=              3.9192 YYXZ=             12.3365 ZZXY=             -5.0636
 N-N= 1.490504918778D+03 E-N=-8.425761280798D+03  KE= 2.295551191612D+03
 1\1\GINC-DAMODAR\FOpt\RB3LYP\6-311+G(d,p)\C12H6Cl4\PKC\15-Mar-2022\0\\
 # opt b3lyp/6-311+g(d,p) scf=xqc\\Title Card Required\\0,1\C,-2.177553
 9915,0.5212502572,1.5455896163\C,-2.887949103,-0.6872683205,1.45928272
 88\C,-1.2910918394,0.9137471033,0.5345597469\C,-2.6970945344,-1.506279
 7999,0.3395656628\Cl,-3.9827960944,-1.1634918962,2.7221403051\Cl,-2.39
 24524891,1.5558039725,2.9347816718\C,-1.1240582168,0.0697805776,-0.565
 3103139\C,-0.5104669262,2.1837398783,0.6135054834\C,-1.8170717749,-1.1
 27753287,-0.6681973013\Cl,-3.5512615307,-3.0208568483,0.1743051782\H,-
 0.4438232798,0.36531996,-1.3547640604\C,-1.0254544168,3.4094987264,0.1
 767455714\C,0.7992718191,2.1657315065,1.1082364448\H,-1.6836318068,-1.
 7733966786,-1.5260643047\C,-0.2711302477,4.5782935456,0.2329328364\Cl,
 -2.6584297291,3.5004033575,-0.4685210803\C,1.5644990456,3.3261167096,1
 .1714529777\H,1.2110598974,1.2239673469,1.4526757303\C,1.0265653675,4.
 534206928,0.7336757254\H,-0.7017871439,5.508767098,-0.1141447925\H,2.5
 744684292,3.2861767379,1.5619035944\H,1.6130004941,5.4445367658,0.7786
 786751\\Version=EM64L-G16RevB.01\State=1-A\HF=-2301.8950772\RMSD=7.058
 e-09\RMSF=5.018e-06\Dipole=1.2881754,0.4138059,-0.4650507\Quadrupole=1
 .9965557,0.5097786,-2.5063343,2.6774878,-0.0359155,2.0434101\PG=C01 [X
 (C12H6Cl4)]\\@


 ACTORS ARE SO FORTUNATE.  THEY CAN CHOOSE WHETHER
 THEY WILL APPEAR IN A TRAGEDY OR IN COMEDY,
 WHETHER THEY WILL SUFFER OF MAKE MERRY,
 LAUGH OR SHED TEARS.  BUT IN REAL LIFE IT IS DIFFERENT.
 MOST MEN AND WOMEN ARE FORCED TO PERFORM
 PARTS FOR WHICH THEY HAVE NO QUALIFICATIONS.
 THE WORLD IS A STAGE, BUT THE PLAY IS BADLY CAST.

                                   -- OSCAR WILDE
 Job cpu time:       1 days  3 hours  0 minutes 15.2 seconds.
 Elapsed time:       0 days  6 hours 46 minutes 15.8 seconds.
 File lengths (MBytes):  RWF=    121 Int=      0 D2E=      0 Chk=     19 Scr=      1
 Normal termination of Gaussian 16 at Tue Mar 15 17:52:24 2022.
