 Entering Gaussian System, Link 0=g16
 Input=2,2prime,3,3prime,4,4prime,5,6,6prime-nonachlorobiphenyl.gjf
 Output=2,2prime,3,3prime,4,4prime,5,6,6prime-nonachlorobiphenyl.log
 Initial command:
 /home/apps/g16/l1.exe "./Gau-419985.inp" -scrdir="./"
 Entering Link 1 = /home/apps/g16/l1.exe PID=    419986.
  
 Copyright (c) 1988-2017, Gaussian, Inc.  All Rights Reserved.
  
 This is part of the Gaussian(R) 16 program.  It is based on
 the Gaussian(R) 09 system (copyright 2009, Gaussian, Inc.),
 the Gaussian(R) 03 system (copyright 2003, Gaussian, Inc.),
 the Gaussian(R) 98 system (copyright 1998, Gaussian, Inc.),
 the Gaussian(R) 94 system (copyright 1995, Gaussian, Inc.),
 the Gaussian 92(TM) system (copyright 1992, Gaussian, Inc.),
 the Gaussian 90(TM) system (copyright 1990, Gaussian, Inc.),
 the Gaussian 88(TM) system (copyright 1988, Gaussian, Inc.),
 the Gaussian 86(TM) system (copyright 1986, Carnegie Mellon
 University), and the Gaussian 82(TM) system (copyright 1983,
 Carnegie Mellon University). Gaussian is a federally registered
 trademark of Gaussian, Inc.
  
 This software contains proprietary and confidential information,
 including trade secrets, belonging to Gaussian, Inc.
  
 This software is provided under written license and may be
 used, copied, transmitted, or stored only in accord with that
 written license.
  
 The following legend is applicable only to US Government
 contracts under FAR:
  
                    RESTRICTED RIGHTS LEGEND
  
 Use, reproduction and disclosure by the US Government is
 subject to restrictions as set forth in subparagraphs (a)
 and (c) of the Commercial Computer Software - Restricted
 Rights clause in FAR 52.227-19.
  
 Gaussian, Inc.
 340 Quinnipiac St., Bldg. 40, Wallingford CT 06492
  
  
 ---------------------------------------------------------------
 Warning -- This program may not be used in any manner that
 competes with the business of Gaussian, Inc. or will provide
 assistance to any competitor of Gaussian, Inc.  The licensee
 of this program is prohibited from giving any competitor of
 Gaussian, Inc. access to this program.  By using this program,
 the user acknowledges that Gaussian, Inc. is engaged in the
 business of creating and licensing software in the field of
 computational chemistry and represents and warrants to the
 licensee that it is not a competitor of Gaussian, Inc. and that
 it will not use this program in any manner prohibited above.
 ---------------------------------------------------------------
  

 Cite this work as:
 Gaussian 16, Revision B.01,
 M. J. Frisch, G. W. Trucks, H. B. Schlegel, G. E. Scuseria, 
 M. A. Robb, J. R. Cheeseman, G. Scalmani, V. Barone, 
 G. A. Petersson, H. Nakatsuji, X. Li, M. Caricato, A. V. Marenich, 
 J. Bloino, B. G. Janesko, R. Gomperts, B. Mennucci, H. P. Hratchian, 
 J. V. Ortiz, A. F. Izmaylov, J. L. Sonnenberg, D. Williams-Young, 
 F. Ding, F. Lipparini, F. Egidi, J. Goings, B. Peng, A. Petrone, 
 T. Henderson, D. Ranasinghe, V. G. Zakrzewski, J. Gao, N. Rega, 
 G. Zheng, W. Liang, M. Hada, M. Ehara, K. Toyota, R. Fukuda, 
 J. Hasegawa, M. Ishida, T. Nakajima, Y. Honda, O. Kitao, H. Nakai, 
 T. Vreven, K. Throssell, J. A. Montgomery, Jr., J. E. Peralta, 
 F. Ogliaro, M. J. Bearpark, J. J. Heyd, E. N. Brothers, K. N. Kudin, 
 V. N. Staroverov, T. A. Keith, R. Kobayashi, J. Normand, 
 K. Raghavachari, A. P. Rendell, J. C. Burant, S. S. Iyengar, 
 J. Tomasi, M. Cossi, J. M. Millam, M. Klene, C. Adamo, R. Cammi, 
 J. W. Ochterski, R. L. Martin, K. Morokuma, O. Farkas, 
 J. B. Foresman, and D. J. Fox, Gaussian, Inc., Wallingford CT, 2016.
 
 ******************************************
 Gaussian 16:  EM64L-G16RevB.01 20-Dec-2017
                 2-Apr-2022 
 ******************************************
 %mem=32GB
 %nprocshared=16
 Will use up to   16 processors via shared memory.
 --------------------------------
 # opt b3lyp/6-311+g(d,p) scf=xqc
 --------------------------------
 1/18=20,19=15,26=3,38=1/1,3;
 2/9=110,12=2,17=6,18=5,40=1/2;
 3/5=4,6=6,7=111,11=2,25=1,30=1,71=1,74=-5/1,2,3;
 4//1;
 5/5=2,8=3,13=1,38=5/2,8;
 6/7=2,8=2,9=2,10=2,28=1/1;
 7//1,2,3,16;
 1/18=20,19=15,26=3/3(2);
 2/9=110/2;
 99//99;
 2/9=110/2;
 3/5=4,6=6,7=111,11=2,25=1,30=1,71=1,74=-5/1,2,3;
 4/5=5,16=3,69=1/1;
 5/5=2,8=3,13=1,38=5/2,8;
 7//1,2,3,16;
 1/18=20,19=15,26=3/3(-5);
 2/9=110/2;
 6/7=2,8=2,9=2,10=2,19=2,28=1/1;
 99/9=1/99;
 -------------------
 Title Card Required
 -------------------
 Symbolic Z-matrix:
 Charge =  0 Multiplicity = 1
 C                     1.05692  -1.07883  -0.26273 
 C                     2.3893   -1.04894  -0.69608 
 C                     3.09719   0.16051  -0.70215 
 C                     2.4727    1.34008  -0.27487 
 C                     1.14032   1.31019   0.15847 
 C                     0.43243   0.10074   0.16454 
 C                    -0.02311  -2.92407  -0.25346 
 C                     0.60138  -4.10364  -0.68074 
 C                    -0.10651  -5.31309  -0.67467 
 C                    -1.43889  -5.34297  -0.24132 
 C                    -2.06338  -4.16341   0.18596 
 C                    -1.35549  -2.95396   0.17989 
 H                     4.11449   0.18333  -1.03302 
 Cl                   -2.13977  -1.47256   0.7165 
 Cl                   -1.24089   0.06321   0.70878 
 Cl                   -3.7367   -4.20094   0.7302 
 Cl                    0.35603   2.79159   0.69508 
 Cl                   -2.32793  -6.86191  -0.23368 
 Cl                    3.36174   2.85901  -0.2825 
 Cl                    0.67777  -6.79449  -1.21127 
 Cl                    2.2747   -4.0661   -1.22497 
 Cl                    3.17358  -2.53034  -1.23268 
 

 GradGradGradGradGradGradGradGradGradGradGradGradGradGradGradGradGradGrad
 Berny optimization.
 Initialization pass.
                           ----------------------------
                           !    Initial Parameters    !
                           ! (Angstroms and Degrees)  !
 --------------------------                            --------------------------
 ! Name  Definition              Value          Derivative Info.                !
 --------------------------------------------------------------------------------
 ! R1    R(1,2)                  1.4014         estimate D2E/DX2                !
 ! R2    R(1,6)                  1.4014         estimate D2E/DX2                !
 ! R3    R(2,3)                  1.4014         estimate D2E/DX2                !
 ! R4    R(2,22)                 1.76           estimate D2E/DX2                !
 ! R5    R(3,4)                  1.4014         estimate D2E/DX2                !
 ! R6    R(3,13)                 1.07           estimate D2E/DX2                !
 ! R7    R(4,5)                  1.4014         estimate D2E/DX2                !
 ! R8    R(4,19)                 1.76           estimate D2E/DX2                !
 ! R9    R(5,6)                  1.4014         estimate D2E/DX2                !
 ! R10   R(5,17)                 1.76           estimate D2E/DX2                !
 ! R11   R(6,15)                 1.76           estimate D2E/DX2                !
 ! R12   R(7,8)                  1.4014         estimate D2E/DX2                !
 ! R13   R(7,12)                 1.4014         estimate D2E/DX2                !
 ! R14   R(8,9)                  1.4014         estimate D2E/DX2                !
 ! R15   R(8,21)                 1.76           estimate D2E/DX2                !
 ! R16   R(9,10)                 1.4014         estimate D2E/DX2                !
 ! R17   R(9,20)                 1.76           estimate D2E/DX2                !
 ! R18   R(10,11)                1.4014         estimate D2E/DX2                !
 ! R19   R(10,18)                1.76           estimate D2E/DX2                !
 ! R20   R(11,12)                1.4014         estimate D2E/DX2                !
 ! R21   R(11,16)                1.76           estimate D2E/DX2                !
 ! R22   R(12,14)                1.76           estimate D2E/DX2                !
 ! R23   R(14,15)                1.7795         estimate D2E/DX2                !
 ! R24   R(21,22)                1.7795         estimate D2E/DX2                !
 ! A1    A(2,1,6)              120.0            estimate D2E/DX2                !
 ! A2    A(1,2,3)              120.0            estimate D2E/DX2                !
 ! A3    A(1,2,22)             120.0            estimate D2E/DX2                !
 ! A4    A(3,2,22)             120.0            estimate D2E/DX2                !
 ! A5    A(2,3,4)              120.0            estimate D2E/DX2                !
 ! A6    A(2,3,13)             120.0            estimate D2E/DX2                !
 ! A7    A(4,3,13)             120.0            estimate D2E/DX2                !
 ! A8    A(3,4,5)              120.0            estimate D2E/DX2                !
 ! A9    A(3,4,19)             120.0            estimate D2E/DX2                !
 ! A10   A(5,4,19)             120.0            estimate D2E/DX2                !
 ! A11   A(4,5,6)              120.0            estimate D2E/DX2                !
 ! A12   A(4,5,17)             120.0            estimate D2E/DX2                !
 ! A13   A(6,5,17)             120.0            estimate D2E/DX2                !
 ! A14   A(1,6,5)              120.0            estimate D2E/DX2                !
 ! A15   A(1,6,15)             120.0            estimate D2E/DX2                !
 ! A16   A(5,6,15)             120.0            estimate D2E/DX2                !
 ! A17   A(8,7,12)             120.0            estimate D2E/DX2                !
 ! A18   A(7,8,9)              120.0            estimate D2E/DX2                !
 ! A19   A(7,8,21)             120.0            estimate D2E/DX2                !
 ! A20   A(9,8,21)             120.0            estimate D2E/DX2                !
 ! A21   A(8,9,10)             120.0            estimate D2E/DX2                !
 ! A22   A(8,9,20)             120.0            estimate D2E/DX2                !
 ! A23   A(10,9,20)            120.0            estimate D2E/DX2                !
 ! A24   A(9,10,11)            120.0            estimate D2E/DX2                !
 ! A25   A(9,10,18)            120.0            estimate D2E/DX2                !
 ! A26   A(11,10,18)           120.0            estimate D2E/DX2                !
 ! A27   A(10,11,12)           120.0            estimate D2E/DX2                !
 ! A28   A(10,11,16)           120.0            estimate D2E/DX2                !
 ! A29   A(12,11,16)           120.0            estimate D2E/DX2                !
 ! A30   A(7,12,11)            120.0            estimate D2E/DX2                !
 ! A31   A(7,12,14)            120.0            estimate D2E/DX2                !
 ! A32   A(11,12,14)           120.0            estimate D2E/DX2                !
 ! A33   A(12,14,15)           120.0            estimate D2E/DX2                !
 ! A34   A(6,15,14)            120.0            estimate D2E/DX2                !
 ! A35   A(8,21,22)            120.0            estimate D2E/DX2                !
 ! A36   A(2,22,21)            120.0            estimate D2E/DX2                !
 ! D1    D(6,1,2,3)              0.0001         estimate D2E/DX2                !
 ! D2    D(6,1,2,22)           180.0            estimate D2E/DX2                !
 ! D3    D(2,1,6,5)             -0.0001         estimate D2E/DX2                !
 ! D4    D(2,1,6,15)           180.0            estimate D2E/DX2                !
 ! D5    D(1,2,3,4)              0.0            estimate D2E/DX2                !
 ! D6    D(1,2,3,13)           180.0            estimate D2E/DX2                !
 ! D7    D(22,2,3,4)          -179.9999         estimate D2E/DX2                !
 ! D8    D(22,2,3,13)            0.0001         estimate D2E/DX2                !
 ! D9    D(1,2,22,21)            0.0002         estimate D2E/DX2                !
 ! D10   D(3,2,22,21)         -179.9999         estimate D2E/DX2                !
 ! D11   D(2,3,4,5)             -0.0001         estimate D2E/DX2                !
 ! D12   D(2,3,4,19)           180.0            estimate D2E/DX2                !
 ! D13   D(13,3,4,5)           179.9999         estimate D2E/DX2                !
 ! D14   D(13,3,4,19)            0.0            estimate D2E/DX2                !
 ! D15   D(3,4,5,6)              0.0001         estimate D2E/DX2                !
 ! D16   D(3,4,5,17)          -179.9999         estimate D2E/DX2                !
 ! D17   D(19,4,5,6)          -180.0            estimate D2E/DX2                !
 ! D18   D(19,4,5,17)            0.0            estimate D2E/DX2                !
 ! D19   D(4,5,6,1)              0.0            estimate D2E/DX2                !
 ! D20   D(4,5,6,15)           179.9999         estimate D2E/DX2                !
 ! D21   D(17,5,6,1)           180.0            estimate D2E/DX2                !
 ! D22   D(17,5,6,15)           -0.0001         estimate D2E/DX2                !
 ! D23   D(1,6,15,14)            0.0004         estimate D2E/DX2                !
 ! D24   D(5,6,15,14)         -179.9996         estimate D2E/DX2                !
 ! D25   D(12,7,8,9)             0.0001         estimate D2E/DX2                !
 ! D26   D(12,7,8,21)         -179.9998         estimate D2E/DX2                !
 ! D27   D(8,7,12,11)           -0.0001         estimate D2E/DX2                !
 ! D28   D(8,7,12,14)          179.9999         estimate D2E/DX2                !
 ! D29   D(7,8,9,10)             0.0            estimate D2E/DX2                !
 ! D30   D(7,8,9,20)           180.0            estimate D2E/DX2                !
 ! D31   D(21,8,9,10)          179.9998         estimate D2E/DX2                !
 ! D32   D(21,8,9,20)           -0.0002         estimate D2E/DX2                !
 ! D33   D(7,8,21,22)            0.0            estimate D2E/DX2                !
 ! D34   D(9,8,21,22)         -179.9998         estimate D2E/DX2                !
 ! D35   D(8,9,10,11)            0.0            estimate D2E/DX2                !
 ! D36   D(8,9,10,18)         -179.9999         estimate D2E/DX2                !
 ! D37   D(20,9,10,11)         180.0            estimate D2E/DX2                !
 ! D38   D(20,9,10,18)           0.0001         estimate D2E/DX2                !
 ! D39   D(9,10,11,12)           0.0            estimate D2E/DX2                !
 ! D40   D(9,10,11,16)        -179.9998         estimate D2E/DX2                !
 ! D41   D(18,10,11,12)        179.9999         estimate D2E/DX2                !
 ! D42   D(18,10,11,16)          0.0001         estimate D2E/DX2                !
 ! D43   D(10,11,12,7)           0.0            estimate D2E/DX2                !
 ! D44   D(10,11,12,14)       -179.9999         estimate D2E/DX2                !
 ! D45   D(16,11,12,7)         179.9999         estimate D2E/DX2                !
 ! D46   D(16,11,12,14)         -0.0001         estimate D2E/DX2                !
 ! D47   D(7,12,14,15)           0.0004         estimate D2E/DX2                !
 ! D48   D(11,12,14,15)       -179.9997         estimate D2E/DX2                !
 ! D49   D(12,14,15,6)          -0.0006         estimate D2E/DX2                !
 ! D50   D(8,21,22,2)           -0.0002         estimate D2E/DX2                !
 --------------------------------------------------------------------------------
 Trust Radius=3.00D-01 FncErr=1.00D-07 GrdErr=1.00D-06 EigMax=2.50D+02 EigMin=1.00D-04
 Number of steps in this run=    120 maximum allowed number of steps=    132.
 GradGradGradGradGradGradGradGradGradGradGradGradGradGradGradGradGradGrad

                          Input orientation:                          
 ---------------------------------------------------------------------
 Center     Atomic      Atomic             Coordinates (Angstroms)
 Number     Number       Type             X           Y           Z
 ---------------------------------------------------------------------
      1          6           0        1.056916   -1.078825   -0.262730
      2          6           0        2.389297   -1.048939   -0.696077
      3          6           0        3.097191    0.160512   -0.702149
      4          6           0        2.472703    1.340077   -0.274875
      5          6           0        1.140322    1.310191    0.158470
      6          6           0        0.432428    0.100740    0.164542
      7          6           0       -0.023109   -2.924071   -0.253465
      8          6           0        0.601379   -4.103636   -0.680740
      9          6           0       -0.106514   -5.313087   -0.674665
     10          6           0       -1.438895   -5.342974   -0.241316
     11          6           0       -2.063382   -4.163409    0.185960
     12          6           0       -1.355489   -2.953957    0.179886
     13          1           0        4.114493    0.183330   -1.033019
     14         17           0       -2.139773   -1.472558    0.716497
     15         17           0       -1.240892    0.063207    0.708776
     16         17           0       -3.736699   -4.200944    0.730202
     17         17           0        0.356035    2.791592    0.695075
     18         17           0       -2.327927   -6.861909   -0.233684
     19         17           0        3.361738    2.859010   -0.282500
     20         17           0        0.677771   -6.794488   -1.211275
     21         17           0        2.274699   -4.066103   -1.224974
     22         17           0        3.173584   -2.530340   -1.232683
 ---------------------------------------------------------------------
                    Distance matrix (angstroms):
                    1          2          3          4          5
     1  C    0.000000
     2  C    1.401400   0.000000
     3  C    2.427296   1.401400   0.000000
     4  C    2.802800   2.427296   1.401400   0.000000
     5  C    2.427296   2.802800   2.427296   1.401400   0.000000
     6  C    1.401400   2.427296   2.802800   2.427296   1.401400
     7  C    2.138100   3.087350   4.410469   4.940900   4.410469
     8  C    3.087349   3.539500   4.940900   5.770667   5.504930
     9  C    4.410469   4.940900   6.342300   7.146803   6.790916
    10  C    4.940900   5.770667   7.146803   7.743700   7.146803
    11  C    4.410469   5.504930   6.790916   7.146803   6.342300
    12  C    3.087349   4.291832   5.504930   5.770667   4.940900
    13  H    3.396345   2.146700   1.070000   2.146700   3.396345
    14  Cl   3.366413   4.763119   5.666151   5.492602   4.337523
    15  Cl   2.743718   4.048303   4.562800   4.048303   2.743718
    16  Cl   5.806228   7.035427   8.232617   8.382706   7.381383
    17  Cl   4.048303   4.562800   4.048303   2.743718   1.760000
    18  Cl   6.700900   7.500442   8.886268   9.503700   8.886268
    19  Cl   4.562800   4.048303   2.743718   1.760000   2.743718
    20  Cl   5.806228   6.017149   7.381383   8.382706   8.232617
    21  Cl   3.366413   3.065312   4.337523   5.492602   5.666151
    22  Cl   2.743718   1.760000   2.743718   4.048303   4.562800
                    6          7          8          9         10
     6  C    0.000000
     7  C    3.087349   0.000000
     8  C    4.291832   1.401400   0.000000
     9  C    5.504930   2.427296   1.401400   0.000000
    10  C    5.770667   2.802800   2.427296   1.401400   0.000000
    11  C    4.940900   2.427296   2.802800   2.427296   1.401400
    12  C    3.539500   1.401400   2.427296   2.802800   2.427296
    13  H    3.872800   5.232915   5.553752   6.939447   7.874449
    14  Cl   3.065312   2.743718   4.048303   4.562800   4.048303
    15  Cl   1.760000   3.366413   4.763119   5.666151   5.492602
    16  Cl   6.017149   4.048303   4.562800   4.048303   2.743718
    17  Cl   2.743718   5.806228   7.035427   8.232617   8.382706
    18  Cl   7.500442   4.562800   4.048303   2.743718   1.760000
    19  Cl   4.048303   6.700900   7.500442   8.886268   9.503700
    20  Cl   7.035427   4.048303   2.743718   1.760000   2.743718
    21  Cl   4.763119   2.743718   1.760000   2.743718   4.048303
    22  Cl   4.048303   3.366413   3.065312   4.337523   5.492602
                   11         12         13         14         15
    11  C    0.000000
    12  C    1.401400   0.000000
    13  H    7.651548   6.421403   0.000000
    14  Cl   2.743718   1.760000   6.702136   0.000000
    15  Cl   4.337523   3.065312   5.632800   1.779500   0.000000
    16  Cl   1.760000   2.743718   9.163625   3.161400   4.940900
    17  Cl   7.381383   6.017149   4.890332   4.940900   3.161400
    18  Cl   2.743718   4.048303   9.580141   5.475705   7.072984
    19  Cl   8.886268   7.500442   2.879094   7.072984   5.475705
    20  Cl   4.048303   4.562800   7.780281   6.322800   7.375354
    21  Cl   4.562800   4.048303   4.634584   5.475705   5.757601
    22  Cl   5.666151   4.763119   2.879094   5.757601   5.475705
                   16         17         18         19         20
    16  Cl   0.000000
    17  Cl   8.102300   0.000000
    18  Cl   3.161400  10.062620   0.000000
    19  Cl  10.062620   3.161400  11.263700   0.000000
    20  Cl   5.475705   9.779091   3.161400  10.062620   0.000000
    21  Cl   6.322800   7.375354   5.475705   7.072984   3.161400
    22  Cl   7.375354   6.322800   7.072984   5.475705   4.940900
                   21         22
    21  Cl   0.000000
    22  Cl   1.779500   0.000000
 Stoichiometry    C12HCl9
 Framework group  C1[X(C12HCl9)]
 Deg. of freedom    60
 Full point group                 C1      NOp   1
 Largest Abelian subgroup         C1      NOp   1
 Largest concise Abelian subgroup C1      NOp   1
                         Standard orientation:                         
 ---------------------------------------------------------------------
 Center     Atomic      Atomic             Coordinates (Angstroms)
 Number     Number       Type             X           Y           Z
 ---------------------------------------------------------------------
      1          6           0        1.322318    0.364098    0.000001
      2          6           0        1.866313    1.655605   -0.000000
      3          6           0        3.256789    1.830245   -0.000002
      4          6           0        4.103270    0.713378   -0.000003
      5          6           0        3.559275   -0.578129    0.000001
      6          6           0        2.168799   -0.752769    0.000003
      7          6           0       -0.799115    0.097651    0.000003
      8          6           0       -1.645596    1.214518    0.000003
      9          6           0       -3.036071    1.039878    0.000003
     10          6           0       -3.580066   -0.251629    0.000001
     11          6           0       -2.733586   -1.368496    0.000000
     12          6           0       -1.343110   -1.193856    0.000001
     13          1           0        3.672141    2.816340   -0.000004
     14         17           0       -0.280026   -2.596515   -0.000003
     15         17           0        1.485603   -2.374757    0.000006
     16         17           0       -3.416782   -2.990484   -0.000006
     17         17           0        4.622359   -1.980788    0.000004
     18         17           0       -5.326347   -0.470958   -0.000002
     19         17           0        5.849550    0.932707   -0.000005
     20         17           0       -4.099155    2.442537    0.000004
     21         17           0       -0.962399    2.836506    0.000001
     22         17           0        0.803229    3.058264   -0.000003
 ---------------------------------------------------------------------
 Rotational constants (GHZ):           0.2647727           0.0991618           0.0721431
 Standard basis: 6-311+G(d,p) (5D, 7F)
 There are   561 symmetry adapted cartesian basis functions of A   symmetry.
 There are   540 symmetry adapted basis functions of A   symmetry.
   540 basis functions,   917 primitive gaussians,   561 cartesian basis functions
   113 alpha electrons      113 beta electrons
       nuclear repulsion energy      3092.6475992697 Hartrees.
 NAtoms=   22 NActive=   22 NUniq=   22 SFac= 1.00D+00 NAtFMM=   60 NAOKFM=F Big=F
 Integral buffers will be    131072 words long.
 Raffenetti 2 integral format.
 Two-electron integral symmetry is turned on.
 One-electron integrals computed using PRISM.
 NBasis=   540 RedAO= T EigKep=  1.59D-06  NBF=   540
 NBsUse=   532 1.00D-06 EigRej=  9.38D-07 NBFU=   532
 ExpMin= 4.38D-02 ExpMax= 1.06D+05 ExpMxC= 3.62D+03 IAcc=3 IRadAn=         5 AccDes= 0.00D+00
 Harris functional with IExCor=  402 and IRadAn=       5 diagonalized for initial guess.
 HarFok:  IExCor=  402 AccDes= 0.00D+00 IRadAn=         5 IDoV= 1 UseB2=F ITyADJ=14
 ICtDFT=  3500011 ScaDFX=  1.000000  1.000000  1.000000  1.000000
 FoFCou: FMM=F IPFlag=           0 FMFlag=      100000 FMFlg1=           0
         NFxFlg=           0 DoJE=T BraDBF=F KetDBF=T FulRan=T
         wScrn=  0.000000 ICntrl=       500 IOpCl=  0 I1Cent=   200000004 NGrid=           0
         NMat0=    1 NMatS0=      1 NMatT0=    0 NMatD0=    1 NMtDS0=    0 NMtDT0=    0
 Petite list used in FoFCou.
 Requested convergence on RMS density matrix=1.00D-08 within  32 cycles.
 Requested convergence on MAX density matrix=1.00D-06.
 Requested convergence on             energy=1.00D-06.
 No special actions if energy rises.
 EnCoef did   100 forward-backward iterations
 EnCoef did     3 forward-backward iterations
 EnCoef did     1 forward-backward iterations
 Restarting incremental Fock formation.
 SCF Done:  E(RB3LYP) =  -4599.14342559     A.U. after   29 cycles
            NFock= 29  Conv=0.37D-08     -V/T= 2.0018
 QCSCF skips out because SCF is already converged.

 **********************************************************************

            Population analysis using the SCF Density.

 **********************************************************************

 Orbital symmetries:
       Occupied  (A) (A) (A) (A) (A) (A) (A) (A) (A) (A) (A) (A)
                 (A) (A) (A) (A) (A) (A) (A) (A) (A) (A) (A) (A)
                 (A) (A) (A) (A) (A) (A) (A) (A) (A) (A) (A) (A)
                 (A) (A) (A) (A) (A) (A) (A) (A) (A) (A) (A) (A)
                 (A) (A) (A) (A) (A) (A) (A) (A) (A) (A) (A) (A)
                 (A) (A) (A) (A) (A) (A) (A) (A) (A) (A) (A) (A)
                 (A) (A) (A) (A) (A) (A) (A) (A) (A) (A) (A) (A)
                 (A) (A) (A) (A) (A) (A) (A) (A) (A) (A) (A) (A)
                 (A) (A) (A) (A) (A) (A) (A) (A) (A) (A) (A) (A)
                 (A) (A) (A) (A) (A)
       Virtual   (A) (A) (A) (A) (A) (A) (A) (A) (A) (A) (A) (A)
                 (A) (A) (A) (A) (A) (A) (A) (A) (A) (A) (A) (A)
                 (A) (A) (A) (A) (A) (A) (A) (A) (A) (A) (A) (A)
                 (A) (A) (A) (A) (A) (A) (A) (A) (A) (A) (A) (A)
                 (A) (A) (A) (A) (A) (A) (A) (A) (A) (A) (A) (A)
                 (A) (A) (A) (A) (A) (A) (A) (A) (A) (A) (A) (A)
                 (A) (A) (A) (A) (A) (A) (A) (A) (A) (A) (A) (A)
                 (A) (A) (A) (A) (A) (A) (A) (A) (A) (A) (A) (A)
                 (A) (A) (A) (A) (A) (A) (A) (A) (A) (A) (A) (A)
                 (A) (A) (A) (A) (A) (A) (A) (A) (A) (A) (A) (A)
                 (A) (A) (A) (A) (A) (A) (A) (A) (A) (A) (A) (A)
                 (A) (A) (A) (A) (A) (A) (A) (A) (A) (A) (A) (A)
                 (A) (A) (A) (A) (A) (A) (A) (A) (A) (A) (A) (A)
                 (A) (A) (A) (A) (A) (A) (A) (A) (A) (A) (A) (A)
                 (A) (A) (A) (A) (A) (A) (A) (A) (A) (A) (A) (A)
                 (A) (A) (A) (A) (A) (A) (A) (A) (A) (A) (A) (A)
                 (A) (A) (A) (A) (A) (A) (A) (A) (A) (A) (A) (A)
                 (A) (A) (A) (A) (A) (A) (A) (A) (A) (A) (A) (A)
                 (A) (A) (A) (A) (A) (A) (A) (A) (A) (A) (A) (A)
                 (A) (A) (A) (A) (A) (A) (A) (A) (A) (A) (A) (A)
                 (A) (A) (A) (A) (A) (A) (A) (A) (A) (A) (A) (A)
                 (A) (A) (A) (A) (A) (A) (A) (A) (A) (A) (A) (A)
                 (A) (A) (A) (A) (A) (A) (A) (A) (A) (A) (A) (A)
                 (A) (A) (A) (A) (A) (A) (A) (A) (A) (A) (A) (A)
                 (A) (A) (A) (A) (A) (A) (A) (A) (A) (A) (A) (A)
                 (A) (A) (A) (A) (A) (A) (A) (A) (A) (A) (A) (A)
                 (A) (A) (A) (A) (A) (A) (A) (A) (A) (A) (A) (A)
                 (A) (A) (A) (A) (A) (A) (A) (A) (A) (A) (A) (A)
                 (A) (A) (A) (A) (A) (A) (A) (A) (A) (A) (A) (A)
                 (A) (A) (A) (A) (A) (A) (A) (A) (A) (A) (A) (A)
                 (A) (A) (A) (A) (A) (A) (A) (A) (A) (A) (A) (A)
                 (A) (A) (A) (A) (A) (A) (A) (A) (A) (A) (A) (A)
                 (A) (A) (A) (A) (A) (A) (A) (A) (A) (A) (A) (A)
                 (A) (A) (A) (A) (A) (A) (A) (A) (A) (A) (A) (A)
                 (A) (A) (A) (A) (A) (A) (A) (A) (A) (A) (A)
 The electronic state is 1-A.
 Alpha  occ. eigenvalues -- -101.60332-101.60320-101.60214-101.59930-101.57829
 Alpha  occ. eigenvalues -- -101.57519-101.57395-101.57353-101.57260 -10.28593
 Alpha  occ. eigenvalues --  -10.28543 -10.28508 -10.28392 -10.28259 -10.28244
 Alpha  occ. eigenvalues --  -10.28079 -10.27972 -10.27571 -10.24936 -10.24791
 Alpha  occ. eigenvalues --  -10.23335  -9.52795  -9.52772  -9.52693  -9.52424
 Alpha  occ. eigenvalues --   -9.49250  -9.48982  -9.48856  -9.48819  -9.48700
 Alpha  occ. eigenvalues --   -7.29393  -7.29274  -7.29255  -7.29033  -7.28228
 Alpha  occ. eigenvalues --   -7.28167  -7.28082  -7.27888  -7.27878  -7.27792
 Alpha  occ. eigenvalues --   -7.27784  -7.27488  -7.25749  -7.25474  -7.25351
 Alpha  occ. eigenvalues --   -7.25308  -7.25205  -7.24729  -7.24666  -7.24469
 Alpha  occ. eigenvalues --   -7.24384  -7.24342  -7.24306  -7.24256  -7.24223
 Alpha  occ. eigenvalues --   -7.24187  -7.24096  -1.05627  -1.05414  -0.95547
 Alpha  occ. eigenvalues --   -0.94511  -0.90837  -0.89337  -0.88482  -0.87611
 Alpha  occ. eigenvalues --   -0.85980  -0.85555  -0.82312  -0.79215  -0.77153
 Alpha  occ. eigenvalues --   -0.74762  -0.73796  -0.67726  -0.66780  -0.62473
 Alpha  occ. eigenvalues --   -0.61489  -0.60065  -0.57122  -0.54649  -0.53620
 Alpha  occ. eigenvalues --   -0.51772  -0.50859  -0.49593  -0.49345  -0.48467
 Alpha  occ. eigenvalues --   -0.47198  -0.46662  -0.45844  -0.45685  -0.45440
 Alpha  occ. eigenvalues --   -0.44065  -0.43949  -0.43590  -0.40399  -0.39703
 Alpha  occ. eigenvalues --   -0.38238  -0.37240  -0.36792  -0.36406  -0.35397
 Alpha  occ. eigenvalues --   -0.35149  -0.34699  -0.34679  -0.33843  -0.32619
 Alpha  occ. eigenvalues --   -0.31665  -0.31249  -0.29195  -0.28390  -0.26383
 Alpha  occ. eigenvalues --   -0.25878  -0.16135  -0.14512
 Alpha virt. eigenvalues --   -0.09843  -0.08231  -0.07519  -0.07283  -0.06433
 Alpha virt. eigenvalues --   -0.05543  -0.04057  -0.02791  -0.01989  -0.01476
 Alpha virt. eigenvalues --   -0.00181   0.00678   0.01030   0.01872   0.02429
 Alpha virt. eigenvalues --    0.02652   0.03293   0.03403   0.03924   0.04847
 Alpha virt. eigenvalues --    0.05086   0.05439   0.05493   0.06145   0.06252
 Alpha virt. eigenvalues --    0.06971   0.06978   0.07299   0.07515   0.08077
 Alpha virt. eigenvalues --    0.08122   0.08521   0.08793   0.09132   0.09362
 Alpha virt. eigenvalues --    0.09601   0.09871   0.10196   0.10863   0.11333
 Alpha virt. eigenvalues --    0.11508   0.11525   0.11589   0.12751   0.12791
 Alpha virt. eigenvalues --    0.13042   0.13593   0.13793   0.13877   0.14704
 Alpha virt. eigenvalues --    0.14814   0.15010   0.15169   0.15561   0.15821
 Alpha virt. eigenvalues --    0.16240   0.16691   0.16843   0.17353   0.17566
 Alpha virt. eigenvalues --    0.18112   0.19028   0.19090   0.19413   0.19698
 Alpha virt. eigenvalues --    0.20105   0.20429   0.20661   0.20906   0.21792
 Alpha virt. eigenvalues --    0.21993   0.22215   0.22516   0.22934   0.23436
 Alpha virt. eigenvalues --    0.23957   0.24470   0.24881   0.25282   0.25859
 Alpha virt. eigenvalues --    0.26076   0.26233   0.26442   0.27068   0.27640
 Alpha virt. eigenvalues --    0.27914   0.28835   0.29046   0.29250   0.29561
 Alpha virt. eigenvalues --    0.30129   0.30630   0.30753   0.31540   0.31942
 Alpha virt. eigenvalues --    0.32217   0.33402   0.33960   0.34356   0.35449
 Alpha virt. eigenvalues --    0.38295   0.38485   0.39473   0.40636   0.41742
 Alpha virt. eigenvalues --    0.41975   0.42390   0.42468   0.42711   0.43275
 Alpha virt. eigenvalues --    0.43554   0.43954   0.44407   0.44495   0.44643
 Alpha virt. eigenvalues --    0.44656   0.45220   0.46408   0.46654   0.47004
 Alpha virt. eigenvalues --    0.47079   0.47663   0.47832   0.48648   0.49102
 Alpha virt. eigenvalues --    0.49611   0.49927   0.50322   0.50962   0.51755
 Alpha virt. eigenvalues --    0.51944   0.52672   0.54085   0.54578   0.55277
 Alpha virt. eigenvalues --    0.56451   0.57200   0.57973   0.58049   0.58193
 Alpha virt. eigenvalues --    0.58395   0.58999   0.59062   0.60338   0.60673
 Alpha virt. eigenvalues --    0.60955   0.61615   0.61908   0.62950   0.63026
 Alpha virt. eigenvalues --    0.65407   0.65596   0.66036   0.66716   0.66896
 Alpha virt. eigenvalues --    0.70090   0.70935   0.72049   0.74468   0.75429
 Alpha virt. eigenvalues --    0.76527   0.77439   0.77512   0.77653   0.80356
 Alpha virt. eigenvalues --    0.81005   0.81121   0.81850   0.82111   0.82930
 Alpha virt. eigenvalues --    0.82963   0.83371   0.83815   0.83819   0.84571
 Alpha virt. eigenvalues --    0.84671   0.84831   0.84935   0.85334   0.86382
 Alpha virt. eigenvalues --    0.86580   0.87060   0.87683   0.87870   0.87989
 Alpha virt. eigenvalues --    0.88252   0.89154   0.90183   0.90779   0.91056
 Alpha virt. eigenvalues --    0.91714   0.92175   0.93012   0.93168   0.93862
 Alpha virt. eigenvalues --    0.94592   0.94606   0.94859   0.94921   0.95055
 Alpha virt. eigenvalues --    0.95086   0.95760   0.96349   0.97534   0.97900
 Alpha virt. eigenvalues --    0.98214   1.00184   1.01078   1.01764   1.01910
 Alpha virt. eigenvalues --    1.02099   1.02815   1.03265   1.04032   1.05270
 Alpha virt. eigenvalues --    1.09678   1.11769   1.13202   1.13969   1.14988
 Alpha virt. eigenvalues --    1.16717   1.18222   1.19084   1.20800   1.21017
 Alpha virt. eigenvalues --    1.21432   1.22026   1.23137   1.24689   1.25184
 Alpha virt. eigenvalues --    1.25255   1.25982   1.26277   1.27883   1.28004
 Alpha virt. eigenvalues --    1.28096   1.28099   1.28783   1.28801   1.29156
 Alpha virt. eigenvalues --    1.30137   1.33361   1.35831   1.39504   1.45908
 Alpha virt. eigenvalues --    1.47316   1.49034   1.49350   1.50350   1.52593
 Alpha virt. eigenvalues --    1.56032   1.57797   1.58859   1.59653   1.63721
 Alpha virt. eigenvalues --    1.64384   1.68069   1.68398   1.73940   1.73998
 Alpha virt. eigenvalues --    1.74704   1.75952   1.76328   1.79849   1.81776
 Alpha virt. eigenvalues --    1.82534   1.83732   1.83801   1.84997   1.85049
 Alpha virt. eigenvalues --    1.85425   1.85552   1.86854   1.89669   1.94246
 Alpha virt. eigenvalues --    1.95359   2.03185   2.03448   2.04708   2.11846
 Alpha virt. eigenvalues --    2.14548   2.17726   2.18681   2.18804   2.19623
 Alpha virt. eigenvalues --    2.22128   2.22536   2.22928   2.23030   2.24678
 Alpha virt. eigenvalues --    2.25478   2.25626   2.26785   2.27210   2.28960
 Alpha virt. eigenvalues --    2.29203   2.30999   2.31405   2.32668   2.33552
 Alpha virt. eigenvalues --    2.33713   2.37023   2.38556   2.41146   2.41753
 Alpha virt. eigenvalues --    2.42799   2.43610   2.45039   2.45998   2.49488
 Alpha virt. eigenvalues --    2.50585   2.52217   2.52692   2.56637   2.56986
 Alpha virt. eigenvalues --    2.57976   2.58711   2.59635   2.59807   2.61232
 Alpha virt. eigenvalues --    2.63557   2.65301   2.68517   2.71599   2.71989
 Alpha virt. eigenvalues --    2.72568   2.73038   2.75504   2.75511   2.76038
 Alpha virt. eigenvalues --    2.83250   2.85055   2.85949   2.86023   2.87357
 Alpha virt. eigenvalues --    3.03630   3.03895   3.07273   3.08052   3.08217
 Alpha virt. eigenvalues --    3.10645   3.13234   3.13641   3.15476   3.20628
 Alpha virt. eigenvalues --    3.22887   3.25489   3.27635   3.29693   3.36542
 Alpha virt. eigenvalues --    3.45228   3.51152   3.53708   3.65430   3.69592
 Alpha virt. eigenvalues --    3.74808   3.84749   3.90120   3.94722   4.04303
 Alpha virt. eigenvalues --    4.78863   4.80537   9.68231   9.74984   9.76613
 Alpha virt. eigenvalues --    9.78574   9.79976   9.80998   9.81218   9.92735
 Alpha virt. eigenvalues --    9.93524  23.21540  23.28991  23.77078  23.77970
 Alpha virt. eigenvalues --   23.78903  23.82383  23.91932  23.92693  23.93853
 Alpha virt. eigenvalues --   23.96600  23.99962  24.03783  25.73455  25.75065
 Alpha virt. eigenvalues --   25.76630  25.78114  25.81562  25.85259  25.88373
 Alpha virt. eigenvalues --   25.98315  26.01975  26.05412  26.09994  26.11587
 Alpha virt. eigenvalues --   26.14108  26.20464  26.22307  26.35825  26.42301
 Alpha virt. eigenvalues --   26.50253  26.54969  26.58816  26.75317  26.84900
 Alpha virt. eigenvalues --   26.91034  26.92519  27.11432  27.17231  27.18515
 Alpha virt. eigenvalues --  215.67968 215.74383 215.77141 215.79050 215.80113
 Alpha virt. eigenvalues --  215.81710 215.82859 215.97916 215.98907
          Condensed to atoms (all electrons):
               1          2          3          4          5          6
     1  C   38.903145  -7.378140  -5.265648   6.291078 -10.716498  -0.857900
     2  C   -7.378140  28.878731  -1.085635  -8.988718   6.249195  -2.471744
     3  C   -5.265648  -1.085635  16.766522  -5.620251  -1.141713   2.976618
     4  C    6.291078  -8.988718  -5.620251  26.028972  -5.801364  -0.772816
     5  C  -10.716498   6.249195  -1.141713  -5.801364  22.467835  -4.187609
     6  C   -0.857900  -2.471744   2.976618  -0.772816  -4.187609  24.796231
     7  C   10.813895  -5.909344  -2.070325   1.633021  -4.995675  -2.892517
     8  C   -4.073252  -2.492638  -0.423009  -0.575071   0.548783  -1.302324
     9  C   -5.245377   0.308410   0.491283   0.056531  -0.573486   0.266676
    10  C    1.425890   0.413585   0.253832  -0.064714   0.084628  -0.309986
    11  C   -4.075774   0.884712  -0.129475   0.201156   0.261139   0.088440
    12  C   -4.446284  -1.699069   0.331931  -0.541392   0.082398  -3.889492
    13  H   -0.064021  -0.072419   0.396418  -0.030635  -0.002089   0.053608
    14  Cl   2.875226   0.270596  -0.284222   1.012046  -2.240336  10.152702
    15  Cl  -6.498423  -2.626386  -0.757626  -1.329394   6.398545 -14.017377
    16  Cl  -0.320331  -0.008617  -0.003660   0.012120  -0.012755  -0.172484
    17  Cl  -0.926622   1.388542   0.882942  -1.336060  -1.184039   1.268677
    18  Cl  -0.052534   0.006367   0.000524  -0.000112  -0.002387  -0.005538
    19  Cl  -0.077740  -0.519558  -0.415334   0.114916   0.442856  -0.200615
    20  Cl  -0.053057  -0.210050  -0.042124  -0.021138   0.005128  -0.030580
    21  Cl  -0.792826   8.273074  -0.832184   2.534244  -1.112051   0.731440
    22  Cl  -2.543583  -6.261637   2.454286  -6.731537   1.683198  -1.997907
               7          8          9         10         11         12
     1  C   10.813895  -4.073252  -5.245377   1.425890  -4.075774  -4.446284
     2  C   -5.909344  -2.492638   0.308410   0.413585   0.884712  -1.699069
     3  C   -2.070325  -0.423009   0.491283   0.253832  -0.129475   0.331931
     4  C    1.633021  -0.575071   0.056531  -0.064714   0.201156  -0.541392
     5  C   -4.995675   0.548783  -0.573486   0.084628   0.261139   0.082398
     6  C   -2.892517  -1.302324   0.266676  -0.309986   0.088440  -3.889492
     7  C   36.396771  -5.017222  -9.355589  11.637436  -8.670882  -4.351542
     8  C   -5.017222  27.844496  -3.251810  -5.245770   5.085912   0.605157
     9  C   -9.355589  -3.251810  20.460430  -9.315090   1.471749   6.935994
    10  C   11.637436  -5.245770  -9.315090  28.247405  -6.279776  -8.973803
    11  C   -8.670882   5.085912   1.471749  -6.279776  17.399793  -1.852224
    12  C   -4.351542   0.605157   6.935994  -8.973803  -1.852224  26.704889
    13  H   -0.010086   0.009456  -0.000146   0.000324   0.000191   0.000303
    14  Cl  -4.394217  -3.636163   2.000390  -4.920891   3.045162  -9.520807
    15  Cl   0.994248   1.429703  -0.938882   2.010881  -1.008307   9.022793
    16  Cl  -1.274337   1.307533  -0.028301  -0.251808  -0.538784   0.605330
    17  Cl  -0.223165  -0.069743   0.004406  -0.009892  -0.035956  -0.207796
    18  Cl   0.212830  -0.440387   0.036349   0.149812  -0.089209  -0.548855
    19  Cl  -0.055480  -0.008390  -0.002924   0.000368   0.000453  -0.000011
    20  Cl  -0.783803   1.079994  -0.909258  -0.707046  -0.018043   1.379452
    21  Cl  -6.025150 -13.587188   5.886837  -3.103680   1.399429  -3.471014
    22  Cl   1.362758   9.299553  -1.837534   1.285651  -0.682696   0.945362
              13         14         15         16         17         18
     1  C   -0.064021   2.875226  -6.498423  -0.320331  -0.926622  -0.052534
     2  C   -0.072419   0.270596  -2.626386  -0.008617   1.388542   0.006367
     3  C    0.396418  -0.284222  -0.757626  -0.003660   0.882942   0.000524
     4  C   -0.030635   1.012046  -1.329394   0.012120  -1.336060  -0.000112
     5  C   -0.002089  -2.240336   6.398545  -0.012755  -1.184039  -0.002387
     6  C    0.053608  10.152702 -14.017377  -0.172484   1.268677  -0.005538
     7  C   -0.010086  -4.394217   0.994248  -1.274337  -0.223165   0.212830
     8  C    0.009456  -3.636163   1.429703   1.307533  -0.069743  -0.440387
     9  C   -0.000146   2.000390  -0.938882  -0.028301   0.004406   0.036349
    10  C    0.000324  -4.920891   2.010881  -0.251808  -0.009892   0.149812
    11  C    0.000191   3.045162  -1.008307  -0.538784  -0.035956  -0.089209
    12  C    0.000303  -9.520807   9.022793   0.605330  -0.207796  -0.548855
    13  H    0.500964  -0.002605   0.011637  -0.000000  -0.001529  -0.000000
    14  Cl  -0.002605  56.427844 -33.346818  -1.004988  -0.032631   0.002082
    15  Cl   0.011637 -33.346818  58.306240  -0.159996  -1.486370  -0.006703
    16  Cl  -0.000000  -1.004988  -0.159996  18.298359  -0.004894  -0.250221
    17  Cl  -0.001529  -0.032631  -1.486370  -0.004894  18.467347  -0.000062
    18  Cl  -0.000000   0.002082  -0.006703  -0.250221  -0.000062  17.584948
    19  Cl   0.001322  -0.028970   0.189835   0.000027  -0.311859  -0.000002
    20  Cl  -0.000015   0.221015  -0.049438  -0.057928   0.000441  -0.311967
    21  Cl  -0.023907  -1.816660   1.231675   0.212161  -0.058154   0.101145
    22  Cl   0.064624   0.960262  -1.653867  -0.041033   0.200657  -0.017628
              19         20         21         22
     1  C   -0.077740  -0.053057  -0.792826  -2.543583
     2  C   -0.519558  -0.210050   8.273074  -6.261637
     3  C   -0.415334  -0.042124  -0.832184   2.454286
     4  C    0.114916  -0.021138   2.534244  -6.731537
     5  C    0.442856   0.005128  -1.112051   1.683198
     6  C   -0.200615  -0.030580   0.731440  -1.997907
     7  C   -0.055480  -0.783803  -6.025150   1.362758
     8  C   -0.008390   1.079994 -13.587188   9.299553
     9  C   -0.002924  -0.909258   5.886837  -1.837534
    10  C    0.000368  -0.707046  -3.103680   1.285651
    11  C    0.000453  -0.018043   1.399429  -0.682696
    12  C   -0.000011   1.379452  -3.471014   0.945362
    13  H    0.001322  -0.000015  -0.023907   0.064624
    14  Cl  -0.028970   0.221015  -1.816660   0.960262
    15  Cl   0.189835  -0.049438   1.231675  -1.653867
    16  Cl   0.000027  -0.057928   0.212161  -0.041033
    17  Cl  -0.311859   0.000441  -0.058154   0.200657
    18  Cl  -0.000002  -0.311967   0.101145  -0.017628
    19  Cl  17.421064  -0.000106   0.005722  -0.092745
    20  Cl  -0.000106  18.305730  -1.505383   0.068754
    21  Cl   0.005722  -1.505383  57.605224 -29.861622
    22  Cl  -0.092745   0.068754 -29.861622  49.129378
 Mulliken charges:
               1
     1  C   -0.921225
     2  C   -0.949257
     3  C   -0.483151
     4  C   -0.070884
     5  C   -0.253704
     6  C   -1.225501
     7  C   -1.021623
     8  C   -1.087618
     9  C   -0.460657
    10  C   -0.327355
    11  C   -0.457011
    12  C   -1.111320
    13  H    0.168606
    14  Cl   1.261983
    15  Cl   1.284033
    16  Cl   0.694608
    17  Cl   0.675761
    18  Cl   0.631548
    19  Cl   0.537170
    20  Cl   0.639423
    21  Cl   1.208867
    22  Cl   1.267307
 Sum of Mulliken charges =  -0.00000
 Mulliken charges with hydrogens summed into heavy atoms:
               1
     1  C   -0.921225
     2  C   -0.949257
     3  C   -0.314545
     4  C   -0.070884
     5  C   -0.253704
     6  C   -1.225501
     7  C   -1.021623
     8  C   -1.087618
     9  C   -0.460657
    10  C   -0.327355
    11  C   -0.457011
    12  C   -1.111320
    14  Cl   1.261983
    15  Cl   1.284033
    16  Cl   0.694608
    17  Cl   0.675761
    18  Cl   0.631548
    19  Cl   0.537170
    20  Cl   0.639423
    21  Cl   1.208867
    22  Cl   1.267307
 Electronic spatial extent (au):  <R**2>=          12673.8868
 Charge=             -0.0000 electrons
 Dipole moment (field-independent basis, Debye):
    X=              1.2452    Y=              0.9288    Z=             -0.0000  Tot=              1.5534
 Quadrupole moment (field-independent basis, Debye-Ang):
   XX=           -200.0585   YY=           -175.9999   ZZ=           -181.9596
   XY=              1.6869   XZ=             -0.0000   YZ=             -0.0000
 Traceless Quadrupole moment (field-independent basis, Debye-Ang):
   XX=            -14.0525   YY=             10.0061   ZZ=              4.0464
   XY=              1.6869   XZ=             -0.0000   YZ=             -0.0000
 Octapole moment (field-independent basis, Debye-Ang**2):
  XXX=             -7.4757  YYY=             -3.1660  ZZZ=             -0.0000  XYY=             10.5570
  XXY=              9.4514  XXZ=             -0.0001  XZZ=             -3.5645  YZZ=             -3.1778
  YYZ=             -0.0000  XYZ=              0.0001
 Hexadecapole moment (field-independent basis, Debye-Ang**3):
 XXXX=         -12175.5439 YYYY=          -4294.5721 ZZZZ=           -211.4124 XXXY=             15.3736
 XXXZ=              0.0002 YYYX=            -53.3736 YYYZ=              0.0001 ZZZX=              0.0001
 ZZZY=             -0.0000 XXYY=          -2726.0347 XXZZ=          -2059.4177 YYZZ=           -781.7470
 XXYZ=              0.0001 YYXZ=              0.0001 ZZXY=            -13.7228
 N-N= 3.092647599270D+03 E-N=-1.709123077624D+04  KE= 4.590802850754D+03
 Calling FoFJK, ICntrl=      2127 FMM=F ISym2X=0 I1Cent= 0 IOpClX= 0 NMat=1 NMatS=1 NMatT=0.
 ***** Axes restored to original set *****
 -------------------------------------------------------------------
 Center     Atomic                   Forces (Hartrees/Bohr)
 Number     Number              X              Y              Z
 -------------------------------------------------------------------
      1        6          -0.009329828   -0.009331978    0.001321087
      2        6          -0.019444926    0.035422011    0.013058845
      3        6          -0.006171823    0.000799757    0.002183599
      4        6          -0.002112304   -0.002643175    0.000199336
      5        6          -0.004311036    0.002123315    0.001819268
      6        6           0.050704773    0.011091542   -0.014621882
      7        6           0.003505927    0.002423239   -0.000699966
      8        6          -0.057050871   -0.017581042    0.015493908
      9        6           0.000445781    0.003795686    0.000566022
     10        6          -0.002391357   -0.006311761   -0.000397494
     11        6          -0.001384796    0.004112446    0.001228637
     12        6           0.018128570   -0.043280384   -0.014101120
     13        1           0.007196270    0.002712742   -0.001861358
     14       17          -0.233545682   -0.366639708    0.008087715
     15       17           0.207781036    0.375356273    0.002037632
     16       17           0.003002618   -0.004039366   -0.001747946
     17       17           0.004745817   -0.000696752   -0.001694363
     18       17           0.001575257    0.003423637    0.000123969
     19       17           0.001598583   -0.007158666   -0.001871132
     20       17          -0.004464498    0.000290794    0.001525451
     21       17          -0.212930710   -0.364214638    0.001747256
     22       17           0.254453196    0.380346029   -0.012397463
 -------------------------------------------------------------------
 Cartesian Forces:  Max     0.380346029 RMS     0.108162659

 GradGradGradGradGradGradGradGradGradGradGradGradGradGradGradGradGradGrad
 Berny optimization.
 FormGI is forming the generalized inverse of G from B-inverse, IUseBI=4.
 Internal  Forces:  Max     0.465010263 RMS     0.063239415
 Search for a local minimum.
 Step number   1 out of a maximum of  120
 All quantities printed in internal units (Hartrees-Bohrs-Radians)
 Mixed Optimization -- RFO/linear search
 Second derivative matrix not updated -- first step.
 ITU=  0
     Eigenvalues ---    0.00238   0.00578   0.01187   0.01569   0.01638
     Eigenvalues ---    0.01710   0.01772   0.01884   0.02070   0.02070
     Eigenvalues ---    0.02070   0.02070   0.02070   0.02070   0.02070
     Eigenvalues ---    0.02070   0.02070   0.02090   0.02242   0.16000
     Eigenvalues ---    0.23498   0.25000   0.25000   0.25000   0.25000
     Eigenvalues ---    0.25000   0.25000   0.25000   0.25000   0.25000
     Eigenvalues ---    0.25000   0.25000   0.25000   0.25000   0.25000
     Eigenvalues ---    0.25000   0.29153   0.29501   0.29539   0.29539
     Eigenvalues ---    0.29539   0.29539   0.29539   0.29539   0.29539
     Eigenvalues ---    0.37230   0.40120   0.41613   0.41708   0.41794
     Eigenvalues ---    0.44969   0.45248   0.45389   0.45389   0.45389
     Eigenvalues ---    0.45389   0.45389   0.45389   0.79000   0.79887
 RFO step:  Lambda=-3.80781303D-01 EMin= 2.37799089D-03
 Linear search not attempted -- first point.
 Maximum step size (   0.300) exceeded in Quadratic search.
    -- Step size scaled by   0.518
 Iteration  1 RMS(Cart)=  0.06570804 RMS(Int)=  0.00048873
 Iteration  2 RMS(Cart)=  0.00080641 RMS(Int)=  0.00000637
 Iteration  3 RMS(Cart)=  0.00000028 RMS(Int)=  0.00000637
 Variable       Old X    -DE/DX   Delta X   Delta X   Delta X     New X
                                 (Linear)    (Quad)   (Total)
    R1        2.64826  -0.01214   0.00000  -0.00763  -0.00762   2.64064
    R2        2.64826  -0.01505   0.00000  -0.00933  -0.00932   2.63894
    R3        2.64826  -0.00632   0.00000  -0.00402  -0.00402   2.64424
    R4        3.32592   0.01459   0.00000   0.01126   0.01127   3.33718
    R5        2.64826  -0.01213   0.00000  -0.00749  -0.00749   2.64077
    R6        2.02201   0.00748   0.00000   0.00515   0.00515   2.02715
    R7        2.64826  -0.00244   0.00000  -0.00138  -0.00138   2.64688
    R8        3.32592  -0.00536   0.00000  -0.00411  -0.00411   3.32181
    R9        2.64826   0.00260   0.00000   0.00171   0.00171   2.64997
   R10        3.32592  -0.00322   0.00000  -0.00247  -0.00247   3.32345
   R11        3.32592   0.02931   0.00000   0.02254   0.02254   3.34846
   R12        2.64826  -0.02261   0.00000  -0.01438  -0.01439   2.63387
   R13        2.64826  -0.02053   0.00000  -0.01307  -0.01308   2.63518
   R14        2.64826   0.00058   0.00000   0.00036   0.00036   2.64862
   R15        3.32592   0.03670   0.00000   0.02808   0.02807   3.35399
   R16        2.64826  -0.00296   0.00000  -0.00157  -0.00156   2.64670
   R17        3.32592  -0.00270   0.00000  -0.00207  -0.00207   3.32385
   R18        2.64826  -0.00288   0.00000  -0.00151  -0.00151   2.64676
   R19        3.32592  -0.00375   0.00000  -0.00288  -0.00288   3.32304
   R20        2.64826  -0.00004   0.00000  -0.00002  -0.00002   2.64824
   R21        3.32592  -0.00331   0.00000  -0.00254  -0.00254   3.32338
   R22        3.32592   0.02388   0.00000   0.01823   0.01823   3.34414
   R23        3.36277   0.46017   0.00000   0.20224   0.20224   3.56501
   R24        3.36277   0.46501   0.00000   0.20438   0.20438   3.56715
    A1        2.09440  -0.01152   0.00000  -0.00973  -0.00973   2.08467
    A2        2.09440   0.01238   0.00000   0.00987   0.00987   2.10427
    A3        2.09440  -0.01362   0.00000  -0.01101  -0.01099   2.08340
    A4        2.09440   0.00124   0.00000   0.00114   0.00112   2.09551
    A5        2.09440  -0.00382   0.00000  -0.00332  -0.00332   2.09108
    A6        2.09440   0.00453   0.00000   0.00418   0.00417   2.09857
    A7        2.09440  -0.00071   0.00000  -0.00085  -0.00085   2.09354
    A8        2.09440  -0.00025   0.00000   0.00009   0.00009   2.09448
    A9        2.09440  -0.00876   0.00000  -0.00735  -0.00735   2.08705
   A10        2.09440   0.00901   0.00000   0.00726   0.00726   2.10166
   A11        2.09440  -0.00570   0.00000  -0.00432  -0.00433   2.09007
   A12        2.09440  -0.00370   0.00000  -0.00322  -0.00322   2.09117
   A13        2.09440   0.00940   0.00000   0.00755   0.00755   2.10194
   A14        2.09440   0.00890   0.00000   0.00741   0.00741   2.10180
   A15        2.09440  -0.02268   0.00000  -0.01868  -0.01867   2.07573
   A16        2.09440   0.01379   0.00000   0.01127   0.01126   2.10566
   A17        2.09440  -0.00424   0.00000  -0.00428  -0.00428   2.09011
   A18        2.09440   0.00713   0.00000   0.00559   0.00559   2.09998
   A19        2.09440  -0.02784   0.00000  -0.02300  -0.02301   2.07139
   A20        2.09440   0.02071   0.00000   0.01740   0.01742   2.11181
   A21        2.09440  -0.00244   0.00000  -0.00170  -0.00170   2.09269
   A22        2.09440   0.00768   0.00000   0.00615   0.00616   2.10055
   A23        2.09440  -0.00523   0.00000  -0.00445  -0.00445   2.08994
   A24        2.09440  -0.00493   0.00000  -0.00337  -0.00337   2.09103
   A25        2.09440   0.00312   0.00000   0.00223   0.00222   2.09662
   A26        2.09440   0.00181   0.00000   0.00114   0.00114   2.09554
   A27        2.09440  -0.00448   0.00000  -0.00336  -0.00336   2.09103
   A28        2.09440  -0.00470   0.00000  -0.00403  -0.00403   2.09037
   A29        2.09440   0.00918   0.00000   0.00739   0.00739   2.10178
   A30        2.09440   0.00896   0.00000   0.00712   0.00712   2.10152
   A31        2.09440  -0.02535   0.00000  -0.02098  -0.02100   2.07339
   A32        2.09440   0.01639   0.00000   0.01386   0.01388   2.10827
   A33        2.09440   0.01128   0.00000   0.00885   0.00882   2.10321
   A34        2.09440   0.02738   0.00000   0.02236   0.02236   2.11675
   A35        2.09440   0.04656   0.00000   0.03794   0.03794   2.13233
   A36        2.09440  -0.01148   0.00000  -0.00948  -0.00945   2.08494
    D1        0.00000  -0.00000   0.00000  -0.00000  -0.00000   0.00000
    D2        3.14159   0.00000   0.00000   0.00000   0.00000   3.14159
    D3       -0.00000  -0.00000   0.00000  -0.00000  -0.00000  -0.00000
    D4        3.14159   0.00000   0.00000   0.00000   0.00000   3.14159
    D5        0.00000   0.00000   0.00000  -0.00000  -0.00000   0.00000
    D6        3.14159   0.00000   0.00000   0.00000   0.00000   3.14159
    D7       -3.14159  -0.00000   0.00000  -0.00000  -0.00000  -3.14159
    D8        0.00000  -0.00000   0.00000  -0.00000  -0.00000   0.00000
    D9        0.00000  -0.00000   0.00000  -0.00000  -0.00000   0.00000
   D10       -3.14159  -0.00000   0.00000   0.00000   0.00000  -3.14159
   D11       -0.00000   0.00000   0.00000   0.00000   0.00000  -0.00000
   D12        3.14159  -0.00000   0.00000  -0.00000  -0.00000   3.14159
   D13        3.14159   0.00000   0.00000   0.00000   0.00000   3.14159
   D14        0.00000  -0.00000   0.00000  -0.00000  -0.00000   0.00000
   D15        0.00000  -0.00000   0.00000  -0.00000  -0.00000   0.00000
   D16       -3.14159  -0.00000   0.00000  -0.00000  -0.00000  -3.14159
   D17       -3.14159  -0.00000   0.00000  -0.00000  -0.00000  -3.14159
   D18        0.00000  -0.00000   0.00000  -0.00000  -0.00000   0.00000
   D19       -0.00000   0.00000   0.00000   0.00000   0.00000  -0.00000
   D20        3.14159  -0.00000   0.00000  -0.00000  -0.00000   3.14159
   D21        3.14159   0.00000   0.00000   0.00000   0.00000   3.14159
   D22       -0.00000  -0.00000   0.00000  -0.00000  -0.00000  -0.00000
   D23        0.00001   0.00000   0.00000   0.00000   0.00000   0.00001
   D24       -3.14159   0.00000   0.00000   0.00000   0.00000  -3.14159
   D25        0.00000   0.00000   0.00000   0.00000   0.00000   0.00000
   D26       -3.14159  -0.00000   0.00000  -0.00000  -0.00000  -3.14159
   D27       -0.00000  -0.00000   0.00000  -0.00000  -0.00000  -0.00000
   D28        3.14159   0.00000   0.00000   0.00000   0.00000   3.14159
   D29       -0.00000   0.00000   0.00000  -0.00000  -0.00000  -0.00000
   D30        3.14159  -0.00000   0.00000  -0.00000  -0.00000   3.14159
   D31        3.14159  -0.00000   0.00000  -0.00000  -0.00000   3.14159
   D32       -0.00000  -0.00000   0.00000  -0.00000  -0.00000  -0.00000
   D33        0.00000   0.00000   0.00000   0.00000   0.00000   0.00000
   D34       -3.14159  -0.00000   0.00000   0.00000   0.00000  -3.14159
   D35       -0.00000  -0.00000   0.00000  -0.00000  -0.00000  -0.00000
   D36       -3.14159  -0.00000   0.00000  -0.00000  -0.00000  -3.14159
   D37        3.14159   0.00000   0.00000   0.00000   0.00000   3.14159
   D38        0.00000  -0.00000   0.00000  -0.00000  -0.00000   0.00000
   D39        0.00000  -0.00000   0.00000   0.00000   0.00000   0.00000
   D40       -3.14159  -0.00000   0.00000  -0.00000  -0.00000  -3.14159
   D41        3.14159   0.00000   0.00000   0.00000   0.00000   3.14159
   D42        0.00000  -0.00000   0.00000  -0.00000  -0.00000   0.00000
   D43        0.00000   0.00000   0.00000   0.00000   0.00000   0.00000
   D44       -3.14159  -0.00000   0.00000  -0.00000  -0.00000  -3.14159
   D45        3.14159   0.00000   0.00000   0.00000   0.00000   3.14159
   D46       -0.00000  -0.00000   0.00000   0.00000   0.00000  -0.00000
   D47        0.00001  -0.00000   0.00000   0.00000   0.00000   0.00001
   D48       -3.14159   0.00000   0.00000   0.00000   0.00000  -3.14159
   D49       -0.00001  -0.00000   0.00000  -0.00000  -0.00000  -0.00001
   D50       -0.00000  -0.00000   0.00000  -0.00000  -0.00000  -0.00000
         Item               Value     Threshold  Converged?
 Maximum Force            0.465010     0.000450     NO 
 RMS     Force            0.063239     0.000300     NO 
 Maximum Displacement     0.162730     0.001800     NO 
 RMS     Displacement     0.066461     0.001200     NO 
 Predicted change in Energy=-1.633769D-01
 GradGradGradGradGradGradGradGradGradGradGradGradGradGradGradGradGradGrad

                          Input orientation:                          
 ---------------------------------------------------------------------
 Center     Atomic      Atomic             Coordinates (Angstroms)
 Number     Number       Type             X           Y           Z
 ---------------------------------------------------------------------
      1          6           0        1.100079   -1.014444   -0.264859
      2          6           0        2.428948   -0.974336   -0.695129
      3          6           0        3.138447    0.231702   -0.702371
      4          6           0        2.514621    1.407259   -0.276067
      5          6           0        1.182893    1.376212    0.156844
      6          6           0        0.480408    0.162556    0.160345
      7          6           0       -0.074303   -2.991036   -0.249175
      8          6           0        0.549115   -4.162777   -0.674628
      9          6           0       -0.150295   -5.377384   -0.672317
     10          6           0       -1.482149   -5.415345   -0.240657
     11          6           0       -2.109229   -4.238247    0.187010
     12          6           0       -1.400374   -3.029376    0.180510
     13          1           0        4.158404    0.256474   -1.033748
     14         17           0       -2.166953   -1.526705    0.715283
     15         17           0       -1.205027    0.096104    0.703138
     16         17           0       -3.781629   -4.287057    0.728832
     17         17           0        0.402693    2.858638    0.692295
     18         17           0       -2.365238   -6.935994   -0.235306
     19         17           0        3.411617    2.918949   -0.287676
     20         17           0        0.635597   -6.856588   -1.209043
     21         17           0        2.237555   -4.081287   -1.215589
     22         17           0        3.210696   -2.463899   -1.232431
 ---------------------------------------------------------------------
                    Distance matrix (angstroms):
                    1          2          3          4          5
     1  C    0.000000
     2  C    1.397367   0.000000
     3  C    2.428835   1.399274   0.000000
     4  C    2.804585   2.419699   1.397436   0.000000
     5  C    2.428977   2.793490   2.423292   1.400669   0.000000
     6  C    1.396467   2.412709   2.795395   2.424410   1.402305
     7  C    2.299203   3.245338   4.573094   5.103748   4.562702
     8  C    3.222340   3.701398   5.100672   5.920081   5.636792
     9  C    4.556830   5.102925   6.502197   7.300011   6.933683
    10  C    5.102589   5.935132   7.311103   7.907170   7.306552
    11  C    4.571296   5.659181   6.950506   7.312055   6.508542
    12  C    3.242001   4.433243   5.658180   5.934591   5.107155
    13  H    3.399967   2.149552   1.072723   2.144856   3.394847
    14  Cl   3.449142   4.839078   5.766195   5.613203   4.467689
    15  Cl   2.735662   4.038164   4.567232   4.063711   2.763924
    16  Cl   5.960577   7.181438   8.387787   8.548556   7.552898
    17  Cl   4.050093   4.552180   4.041069   2.739428   1.758694
    18  Cl   6.861053   7.664008   9.049009   9.665637   9.046313
    19  Cl   4.562380   4.036004   2.732745   1.757824   2.746788
    20  Cl   5.936149   6.170989   7.534243   8.525979   8.363263
    21  Cl   3.406357   3.156051   4.435862   5.575267   5.725398
    22  Cl   2.737119   1.765962   2.748171   4.047840   4.559443
                    6          7          8          9         10
     6  C    0.000000
     7  C    3.228088   0.000000
     8  C    4.405724   1.393785   0.000000
     9  C    5.637557   2.424764   1.401588   0.000000
    10  C    5.926669   2.803458   2.425549   1.400573   0.000000
    11  C    5.106270   2.426255   2.795515   2.423530   1.400603
    12  C    3.704885   1.394476   2.411714   2.793413   2.424236
    13  H    3.868117   5.392373   5.717142   7.101822   8.038306
    14  Cl   3.189056   2.730133   4.032090   4.562901   4.062548
    15  Cl   1.771928   3.422845   4.807631   5.741376   5.598537
    16  Cl   6.187664   4.047275   4.554172   4.042105   2.738713
    17  Cl   2.749158   5.944121   7.154732   8.366601   8.537085
    18  Cl   7.657914   4.561937   4.046874   2.743395   1.758479
    19  Cl   4.048508   6.861563   7.648170   9.036831   9.664969
    20  Cl   7.153159   4.045713   2.747671   1.758905   2.738577
    21  Cl   4.794889   2.732634   1.774855   2.770711   4.070184
    22  Cl   4.036405   3.469277   3.206454   4.483123   5.631825
                   11         12         13         14         15
    11  C    0.000000
    12  C    1.401387   0.000000
    13  H    7.808712   6.570483   0.000000
    14  Cl   2.763125   1.769645   6.800659   0.000000
    15  Cl   4.457641   3.174889   5.639936   1.886520   0.000000
    16  Cl   1.758657   2.748234   9.316355   3.197953   5.084450
    17  Cl   7.545252   6.179133   4.884244   5.082799   3.196323
    18  Cl   2.742577   4.045433   9.743049   5.495756   7.188683
    19  Cl   9.051548   7.665313   2.864103   7.203486   5.501234
    20  Cl   4.042121   4.552317   7.939556   6.321785   7.442060
    21  Cl   4.570169   4.036104   4.747516   5.445534   5.743124
    22  Cl   5.784870   4.855732   2.887569   5.795777   5.458814
                   16         17         18         19         20
    16  Cl   0.000000
    17  Cl   8.280751   0.000000
    18  Cl   3.154773  10.220406   0.000000
    19  Cl  10.232428   3.165059  11.423427   0.000000
    20  Cl   5.465321   9.902269   3.155865  10.203741   0.000000
    21  Cl   6.328798   7.427604   5.504180   7.158405   3.204466
    22  Cl   7.487527   6.318136   7.216989   5.468819   5.091895
                   21         22
    21  Cl   0.000000
    22  Cl   1.887653   0.000000
 Stoichiometry    C12HCl9
 Framework group  C1[X(C12HCl9)]
 Deg. of freedom    60
 Full point group                 C1      NOp   1
 Largest Abelian subgroup         C1      NOp   1
 Largest concise Abelian subgroup C1      NOp   1
                         Standard orientation:                         
 ---------------------------------------------------------------------
 Center     Atomic      Atomic             Coordinates (Angstroms)
 Number     Number       Type             X           Y           Z
 ---------------------------------------------------------------------
      1          6           0        1.407202    0.365050    0.000001
      2          6           0        1.971592    1.643369   -0.000000
      3          6           0        3.361185    1.807684   -0.000002
      4          6           0        4.193463    0.685124   -0.000003
      5          6           0        3.636263   -0.599945    0.000001
      6          6           0        2.242456   -0.754088    0.000003
      7          6           0       -0.874816    0.084465    0.000003
      8          6           0       -1.703751    1.204958    0.000003
      9          6           0       -3.097211    1.054229    0.000003
     10          6           0       -3.660813   -0.227941    0.000001
     11          6           0       -2.828410   -1.354348    0.000000
     12          6           0       -1.436470   -1.191900    0.000000
     13          1           0        3.788853    2.791471   -0.000004
     14         17           0       -0.360359   -2.596758   -0.000003
     15         17           0        1.512312   -2.368592    0.000006
     16         17           0       -3.537171   -2.963862   -0.000006
     17         17           0        4.688369   -2.009228    0.000005
     18         17           0       -5.408337   -0.423915   -0.000002
     19         17           0        5.938280    0.898576   -0.000005
     20         17           0       -4.144097    2.467655    0.000004
     21         17           0       -0.958601    2.815814    0.000001
     22         17           0        0.913544    3.057284   -0.000003
 ---------------------------------------------------------------------
 Rotational constants (GHZ):           0.2659626           0.0953602           0.0701928
 Standard basis: 6-311+G(d,p) (5D, 7F)
 There are   561 symmetry adapted cartesian basis functions of A   symmetry.
 There are   540 symmetry adapted basis functions of A   symmetry.
   540 basis functions,   917 primitive gaussians,   561 cartesian basis functions
   113 alpha electrons      113 beta electrons
       nuclear repulsion energy      3057.8681485996 Hartrees.
 NAtoms=   22 NActive=   22 NUniq=   22 SFac= 1.00D+00 NAtFMM=   60 NAOKFM=F Big=F
 Integral buffers will be    131072 words long.
 Raffenetti 2 integral format.
 Two-electron integral symmetry is turned on.
 One-electron integrals computed using PRISM.
 NBasis=   540 RedAO= T EigKep=  1.63D-06  NBF=   540
 NBsUse=   532 1.00D-06 EigRej=  9.83D-07 NBFU=   532
 Initial guess from the checkpoint file:  "./Gau-419986.chk"
 B after Tr=     0.000000    0.000000    0.000000
         Rot=    0.999990   -0.000000   -0.000000    0.004468 Ang=   0.51 deg.
 ExpMin= 4.38D-02 ExpMax= 1.06D+05 ExpMxC= 3.62D+03 IAcc=3 IRadAn=         5 AccDes= 0.00D+00
 Harris functional with IExCor=  402 and IRadAn=       5 diagonalized for initial guess.
 HarFok:  IExCor=  402 AccDes= 0.00D+00 IRadAn=         5 IDoV= 1 UseB2=F ITyADJ=14
 ICtDFT=  3500011 ScaDFX=  1.000000  1.000000  1.000000  1.000000
 FoFCou: FMM=F IPFlag=           0 FMFlag=      100000 FMFlg1=           0
         NFxFlg=           0 DoJE=T BraDBF=F KetDBF=T FulRan=T
         wScrn=  0.000000 ICntrl=       500 IOpCl=  0 I1Cent=   200000004 NGrid=           0
         NMat0=    1 NMatS0=      1 NMatT0=    0 NMatD0=    1 NMtDS0=    0 NMtDT0=    0
 Petite list used in FoFCou.
 Requested convergence on RMS density matrix=1.00D-08 within  32 cycles.
 Requested convergence on MAX density matrix=1.00D-06.
 Requested convergence on             energy=1.00D-06.
 No special actions if energy rises.
 SCF Done:  E(RB3LYP) =  -4599.31322839     A.U. after   18 cycles
            NFock= 18  Conv=0.54D-08     -V/T= 2.0020
 QCSCF skips out because SCF is already converged.
 Calling FoFJK, ICntrl=      2127 FMM=F ISym2X=0 I1Cent= 0 IOpClX= 0 NMat=1 NMatS=1 NMatT=0.
 ***** Axes restored to original set *****
 -------------------------------------------------------------------
 Center     Atomic                   Forces (Hartrees/Bohr)
 Number     Number              X              Y              Z
 -------------------------------------------------------------------
      1        6          -0.009232178   -0.010094766    0.001145661
      2        6          -0.016477916    0.012983307    0.007867164
      3        6          -0.003604445    0.000106653    0.001207612
      4        6          -0.000690986   -0.001605423   -0.000074053
      5        6          -0.004553648    0.005877982    0.002604279
      6        6           0.025892032    0.004057271   -0.007768248
      7        6           0.006048879    0.004778252   -0.001095443
      8        6          -0.029921895   -0.011415517    0.007714087
      9        6           0.002006684   -0.001410988   -0.000926136
     10        6          -0.003270680   -0.007152722   -0.000265726
     11        6          -0.005791170    0.002289374    0.002338015
     12        6           0.010825382   -0.017095536   -0.006777290
     13        1           0.005180736    0.001439478   -0.001436454
     14       17          -0.180515532   -0.287862907    0.005410875
     15       17           0.169535117    0.286841429   -0.001985174
     16       17           0.005917322   -0.001336957   -0.002200685
     17       17           0.003906244   -0.004241516   -0.002083498
     18       17           0.003172687    0.005904250    0.000063555
     19       17           0.000076945   -0.007283400   -0.001393237
     20       17          -0.003644834    0.004300320    0.002008446
     21       17          -0.175709493   -0.270957969    0.006999213
     22       17           0.200850749    0.291879383   -0.011352964
 -------------------------------------------------------------------
 Cartesian Forces:  Max     0.291879383 RMS     0.083483457

 GradGradGradGradGradGradGradGradGradGradGradGradGradGradGradGradGradGrad
 Berny optimization.
 Using GEDIIS/GDIIS optimizer.
 FormGI is forming the generalized inverse of G from B-inverse, IUseBI=4.
 Internal  Forces:  Max     0.344195920 RMS     0.046812641
 Search for a local minimum.
 Step number   2 out of a maximum of  120
 All quantities printed in internal units (Hartrees-Bohrs-Radians)
 Mixed Optimization -- RFO/linear search
 Update second derivatives using D2CorX and points    1    2
 DE= -1.70D-01 DEPred=-1.63D-01 R= 1.04D+00
 TightC=F SS=  1.41D+00  RLast= 3.00D-01 DXNew= 5.0454D-01 9.0000D-01
 Trust test= 1.04D+00 RLast= 3.00D-01 DXMaxT set to 5.05D-01
 ITU=  1  0
 Use linear search instead of GDIIS.
 Linear search step of   0.600 exceeds DXMaxT=   0.505 but not scaled.
 Quartic linear search produced a step of  2.00000.
 Iteration  1 RMS(Cart)=  0.08806698 RMS(Int)=  0.02785143
 Iteration  2 RMS(Cart)=  0.04482846 RMS(Int)=  0.00090511
 Iteration  3 RMS(Cart)=  0.00148541 RMS(Int)=  0.00003569
 Iteration  4 RMS(Cart)=  0.00000004 RMS(Int)=  0.00003569
 Variable       Old X    -DE/DX   Delta X   Delta X   Delta X     New X
                                 (Linear)    (Quad)   (Total)
    R1        2.64064  -0.00254  -0.01524   0.00000  -0.01519   2.62545
    R2        2.63894  -0.00509  -0.01865   0.00000  -0.01859   2.62035
    R3        2.64424  -0.00574  -0.00803   0.00000  -0.00802   2.63623
    R4        3.33718   0.00082   0.02253   0.00000   0.02258   3.35976
    R5        2.64077  -0.01119  -0.01498   0.00000  -0.01499   2.62578
    R6        2.02715   0.00540   0.01029   0.00000   0.01029   2.03745
    R7        2.64688  -0.00362  -0.00276   0.00000  -0.00279   2.64409
    R8        3.32181  -0.00622  -0.00822   0.00000  -0.00822   3.31358
    R9        2.64997   0.00103   0.00342   0.00000   0.00341   2.65338
   R10        3.32345  -0.00594  -0.00494   0.00000  -0.00494   3.31852
   R11        3.34846   0.01089   0.04508   0.00000   0.04511   3.39357
   R12        2.63387  -0.01158  -0.02878   0.00000  -0.02884   2.60503
   R13        2.63518  -0.00834  -0.02617   0.00000  -0.02621   2.60897
   R14        2.64862  -0.00064   0.00071   0.00000   0.00071   2.64933
   R15        3.35399   0.01577   0.05614   0.00000   0.05612   3.41011
   R16        2.64670  -0.00292  -0.00312   0.00000  -0.00310   2.64360
   R17        3.32385  -0.00586  -0.00414   0.00000  -0.00414   3.31971
   R18        2.64676  -0.00288  -0.00301   0.00000  -0.00299   2.64376
   R19        3.32304  -0.00670  -0.00575   0.00000  -0.00575   3.31729
   R20        2.64824  -0.00077  -0.00005   0.00000  -0.00005   2.64819
   R21        3.32338  -0.00627  -0.00507   0.00000  -0.00507   3.31831
   R22        3.34414   0.00509   0.03645   0.00000   0.03641   3.38055
   R23        3.56501   0.34402   0.40448   0.00000   0.40446   3.96946
   R24        3.56715   0.34420   0.40876   0.00000   0.40878   3.97592
    A1        2.08467  -0.01361  -0.01945   0.00000  -0.01944   2.06522
    A2        2.10427   0.01028   0.01975   0.00000   0.01975   2.12402
    A3        2.08340  -0.00009  -0.02198   0.00000  -0.02189   2.06151
    A4        2.09551  -0.01018   0.00224   0.00000   0.00214   2.09765
    A5        2.09108  -0.00133  -0.00664   0.00000  -0.00661   2.08447
    A6        2.09857   0.00202   0.00835   0.00000   0.00833   2.10690
    A7        2.09354  -0.00069  -0.00171   0.00000  -0.00172   2.09182
    A8        2.09448  -0.00022   0.00018   0.00000   0.00016   2.09464
    A9        2.08705  -0.00661  -0.01470   0.00000  -0.01469   2.07236
   A10        2.10166   0.00683   0.01452   0.00000   0.01453   2.11618
   A11        2.09007  -0.00284  -0.00865   0.00000  -0.00867   2.08140
   A12        2.09117  -0.00109  -0.00645   0.00000  -0.00644   2.08473
   A13        2.10194   0.00393   0.01510   0.00000   0.01511   2.11705
   A14        2.10180   0.00772   0.01482   0.00000   0.01481   2.11661
   A15        2.07573  -0.00734  -0.03734   0.00000  -0.03728   2.03845
   A16        2.10566  -0.00038   0.02252   0.00000   0.02247   2.12813
   A17        2.09011  -0.00743  -0.00857   0.00000  -0.00857   2.08154
   A18        2.09998   0.00636   0.01118   0.00000   0.01117   2.11115
   A19        2.07139  -0.01295  -0.04601   0.00000  -0.04606   2.02533
   A20        2.11181   0.00659   0.03483   0.00000   0.03490   2.14671
   A21        2.09269  -0.00039  -0.00341   0.00000  -0.00341   2.08928
   A22        2.10055   0.00223   0.01231   0.00000   0.01232   2.11287
   A23        2.08994  -0.00184  -0.00891   0.00000  -0.00890   2.08104
   A24        2.09103  -0.00385  -0.00673   0.00000  -0.00672   2.08431
   A25        2.09662   0.00232   0.00445   0.00000   0.00444   2.10106
   A26        2.09554   0.00153   0.00228   0.00000   0.00228   2.09781
   A27        2.09103  -0.00214  -0.00673   0.00000  -0.00673   2.08430
   A28        2.09037  -0.00148  -0.00805   0.00000  -0.00805   2.08232
   A29        2.10178   0.00362   0.01478   0.00000   0.01478   2.11656
   A30        2.10152   0.00746   0.01425   0.00000   0.01427   2.11579
   A31        2.07339  -0.01066  -0.04201   0.00000  -0.04211   2.03128
   A32        2.10827   0.00320   0.02776   0.00000   0.02785   2.13612
   A33        2.10321  -0.00715   0.01763   0.00000   0.01746   2.12067
   A34        2.11675   0.01325   0.04472   0.00000   0.04470   2.16145
   A35        2.13233   0.03192   0.07588   0.00000   0.07590   2.20823
   A36        2.08494  -0.02801  -0.01890   0.00000  -0.01872   2.06622
    D1        0.00000  -0.00000  -0.00000   0.00000  -0.00000   0.00000
    D2        3.14159   0.00000   0.00000   0.00000   0.00000   3.14159
    D3       -0.00000   0.00000  -0.00000   0.00000  -0.00000  -0.00000
    D4        3.14159   0.00000   0.00000   0.00000   0.00000   3.14159
    D5        0.00000  -0.00000  -0.00000   0.00000   0.00000   0.00000
    D6        3.14159   0.00000   0.00000   0.00000   0.00000   3.14159
    D7       -3.14159  -0.00000  -0.00000   0.00000  -0.00000  -3.14159
    D8        0.00000  -0.00000  -0.00000   0.00000  -0.00000   0.00000
    D9        0.00000  -0.00000  -0.00000   0.00000  -0.00000   0.00000
   D10       -3.14159   0.00000   0.00000   0.00000   0.00000  -3.14159
   D11       -0.00000   0.00000   0.00000   0.00000   0.00000  -0.00000
   D12        3.14159  -0.00000  -0.00000   0.00000  -0.00000   3.14159
   D13        3.14159   0.00000   0.00000   0.00000   0.00000   3.14159
   D14        0.00000  -0.00000  -0.00000   0.00000  -0.00000   0.00000
   D15        0.00000  -0.00000  -0.00000   0.00000  -0.00000   0.00000
   D16       -3.14159  -0.00000  -0.00000   0.00000  -0.00000  -3.14159
   D17       -3.14159  -0.00000  -0.00000   0.00000  -0.00000  -3.14159
   D18        0.00000  -0.00000  -0.00000   0.00000  -0.00000   0.00000
   D19       -0.00000   0.00000   0.00000   0.00000   0.00000  -0.00000
   D20        3.14159   0.00000  -0.00000   0.00000  -0.00000   3.14159
   D21        3.14159   0.00000   0.00000   0.00000   0.00000   3.14159
   D22       -0.00000  -0.00000  -0.00000   0.00000  -0.00000  -0.00000
   D23        0.00001   0.00000   0.00000   0.00000   0.00000   0.00001
   D24       -3.14159   0.00000   0.00000   0.00000   0.00000  -3.14158
   D25        0.00000   0.00000   0.00000   0.00000   0.00000   0.00000
   D26       -3.14159  -0.00000  -0.00000   0.00000  -0.00000  -3.14159
   D27       -0.00000  -0.00000  -0.00000   0.00000  -0.00000  -0.00000
   D28        3.14159   0.00000   0.00000   0.00000   0.00000   3.14159
   D29       -0.00000  -0.00000  -0.00000   0.00000  -0.00000  -0.00000
   D30        3.14159  -0.00000  -0.00000   0.00000  -0.00000   3.14159
   D31        3.14159   0.00000  -0.00000   0.00000  -0.00000   3.14159
   D32       -0.00000  -0.00000  -0.00000   0.00000  -0.00000  -0.00000
   D33        0.00000   0.00000   0.00000   0.00000   0.00000   0.00000
   D34       -3.14159  -0.00000   0.00000   0.00000   0.00000  -3.14159
   D35       -0.00000  -0.00000  -0.00000   0.00000  -0.00000  -0.00000
   D36       -3.14159  -0.00000  -0.00000   0.00000  -0.00000  -3.14159
   D37        3.14159   0.00000   0.00000   0.00000   0.00000   3.14159
   D38        0.00000  -0.00000  -0.00000   0.00000  -0.00000   0.00000
   D39        0.00000   0.00000   0.00000   0.00000   0.00000   0.00000
   D40       -3.14159  -0.00000  -0.00000   0.00000  -0.00000  -3.14159
   D41        3.14159   0.00000   0.00000   0.00000   0.00000   3.14159
   D42        0.00000  -0.00000  -0.00000   0.00000  -0.00000   0.00000
   D43        0.00000   0.00000   0.00000   0.00000   0.00000   0.00000
   D44       -3.14159  -0.00000  -0.00000   0.00000  -0.00000  -3.14159
   D45        3.14159   0.00000   0.00000   0.00000   0.00000   3.14159
   D46       -0.00000   0.00000   0.00000   0.00000   0.00000  -0.00000
   D47        0.00001  -0.00000   0.00000   0.00000   0.00000   0.00001
   D48       -3.14159   0.00000   0.00000   0.00000   0.00000  -3.14159
   D49       -0.00001  -0.00000  -0.00000   0.00000  -0.00000  -0.00001
   D50       -0.00000  -0.00000  -0.00000   0.00000  -0.00000  -0.00000
         Item               Value     Threshold  Converged?
 Maximum Force            0.344196     0.000450     NO 
[...]
                 (A) (A) (A) (A) (A) (A) (A) (A) (A) (A) (A) (A)
                 (A) (A) (A) (A) (A) (A) (A) (A) (A) (A) (A) (A)
                 (A) (A) (A) (A) (A) (A) (A) (A) (A) (A) (A) (A)
                 (A) (A) (A) (A) (A) (A) (A) (A) (A) (A) (A) (A)
                 (A) (A) (A) (A) (A) (A) (A) (A) (A) (A) (A) (A)
                 (A) (A) (A) (A) (A) (A) (A) (A) (A) (A) (A) (A)
                 (A) (A) (A) (A) (A) (A) (A) (A) (A) (A) (A) (A)
                 (A) (A) (A) (A) (A) (A) (A) (A) (A) (A) (A) (A)
                 (A)
 The electronic state is 1-A.
 Alpha  occ. eigenvalues -- -101.58638-101.58521-101.58521-101.58517-101.58516
 Alpha  occ. eigenvalues -- -101.58434-101.58379-101.58313-101.58286 -10.29088
 Alpha  occ. eigenvalues --  -10.28749 -10.28744 -10.28699 -10.28674 -10.28674
 Alpha  occ. eigenvalues --  -10.28407 -10.28323 -10.28030 -10.25050 -10.24736
 Alpha  occ. eigenvalues --  -10.22777  -9.50104  -9.49995  -9.49993  -9.49987
 Alpha  occ. eigenvalues --   -9.49986  -9.49912  -9.49836  -9.49776  -9.49757
 Alpha  occ. eigenvalues --   -7.26613  -7.26496  -7.26496  -7.26489  -7.26488
 Alpha  occ. eigenvalues --   -7.26403  -7.26330  -7.26281  -7.26235  -7.25585
 Alpha  occ. eigenvalues --   -7.25492  -7.25471  -7.25469  -7.25464  -7.25464
 Alpha  occ. eigenvalues --   -7.25399  -7.25398  -7.25390  -7.25379  -7.25378
 Alpha  occ. eigenvalues --   -7.25318  -7.25314  -7.25253  -7.25249  -7.25231
 Alpha  occ. eigenvalues --   -7.25186  -7.25173  -0.97889  -0.96387  -0.93090
 Alpha  occ. eigenvalues --   -0.92619  -0.91401  -0.90724  -0.88560  -0.87855
 Alpha  occ. eigenvalues --   -0.87370  -0.84737  -0.84276  -0.80185  -0.76204
 Alpha  occ. eigenvalues --   -0.75138  -0.74706  -0.66960  -0.64584  -0.63857
 Alpha  occ. eigenvalues --   -0.62367  -0.56844  -0.55745  -0.55512  -0.52940
 Alpha  occ. eigenvalues --   -0.50329  -0.49243  -0.47873  -0.47872  -0.47586
 Alpha  occ. eigenvalues --   -0.47490  -0.46652  -0.45336  -0.43953  -0.43199
 Alpha  occ. eigenvalues --   -0.42871  -0.41896  -0.40218  -0.39992  -0.39515
 Alpha  occ. eigenvalues --   -0.36880  -0.36517  -0.36382  -0.36055  -0.36047
 Alpha  occ. eigenvalues --   -0.36025  -0.35037  -0.35009  -0.34584  -0.33876
 Alpha  occ. eigenvalues --   -0.33404  -0.33354  -0.32506  -0.31944  -0.28307
 Alpha  occ. eigenvalues --   -0.28010  -0.27371  -0.27188
 Alpha virt. eigenvalues --   -0.07067  -0.06877  -0.06662  -0.06457  -0.06106
 Alpha virt. eigenvalues --   -0.04874  -0.01267  -0.00745  -0.00630   0.00114
 Alpha virt. eigenvalues --    0.00843   0.01228   0.01986   0.02108   0.02342
 Alpha virt. eigenvalues --    0.02418   0.02820   0.04073   0.04308   0.04958
 Alpha virt. eigenvalues --    0.05186   0.05776   0.05784   0.06361   0.06580
 Alpha virt. eigenvalues --    0.06961   0.07589   0.07931   0.08077   0.08080
 Alpha virt. eigenvalues --    0.08748   0.08938   0.09251   0.09251   0.09488
 Alpha virt. eigenvalues --    0.09958   0.10281   0.10424   0.11026   0.11113
 Alpha virt. eigenvalues --    0.11251   0.11650   0.11721   0.12618   0.13135
 Alpha virt. eigenvalues --    0.13288   0.13504   0.13517   0.14389   0.14834
 Alpha virt. eigenvalues --    0.14948   0.15007   0.15139   0.16042   0.16088
 Alpha virt. eigenvalues --    0.16557   0.16692   0.16876   0.17336   0.17672
 Alpha virt. eigenvalues --    0.18067   0.18658   0.19135   0.19423   0.19539
 Alpha virt. eigenvalues --    0.19850   0.20117   0.20609   0.20949   0.21270
 Alpha virt. eigenvalues --    0.21599   0.21755   0.22514   0.22593   0.22960
 Alpha virt. eigenvalues --    0.23188   0.23537   0.23835   0.24118   0.24868
 Alpha virt. eigenvalues --    0.25330   0.25521   0.25854   0.26072   0.26294
 Alpha virt. eigenvalues --    0.26563   0.27012   0.27450   0.27817   0.27861
 Alpha virt. eigenvalues --    0.28427   0.28702   0.29226   0.29283   0.29551
 Alpha virt. eigenvalues --    0.30355   0.30912   0.31029   0.31377   0.31571
 Alpha virt. eigenvalues --    0.32479   0.32984   0.35564   0.37954   0.38726
 Alpha virt. eigenvalues --    0.40234   0.42323   0.42593   0.42881   0.43372
 Alpha virt. eigenvalues --    0.43837   0.44087   0.44457   0.45307   0.45445
 Alpha virt. eigenvalues --    0.45629   0.46012   0.46398   0.46413   0.46922
 Alpha virt. eigenvalues --    0.47844   0.47972   0.48047   0.48204   0.48885
 Alpha virt. eigenvalues --    0.49311   0.49475   0.50679   0.51163   0.51620
 Alpha virt. eigenvalues --    0.51783   0.53615   0.55505   0.56197   0.56461
 Alpha virt. eigenvalues --    0.56774   0.57081   0.57530   0.57880   0.59626
 Alpha virt. eigenvalues --    0.60120   0.60189   0.60699   0.60958   0.61359
 Alpha virt. eigenvalues --    0.61455   0.62196   0.62297   0.62692   0.63112
 Alpha virt. eigenvalues --    0.63771   0.65154   0.65818   0.65961   0.67068
 Alpha virt. eigenvalues --    0.67792   0.67832   0.68319   0.69645   0.76453
 Alpha virt. eigenvalues --    0.77289   0.77324   0.78526   0.78690   0.80424
 Alpha virt. eigenvalues --    0.81654   0.81817   0.82052   0.82648   0.82727
 Alpha virt. eigenvalues --    0.83121   0.83243   0.83440   0.83557   0.83726
 Alpha virt. eigenvalues --    0.83901   0.84102   0.84422   0.84614   0.85088
 Alpha virt. eigenvalues --    0.85432   0.85541   0.86049   0.86193   0.88715
 Alpha virt. eigenvalues --    0.88875   0.89167   0.89174   0.89443   0.89568
 Alpha virt. eigenvalues --    0.89621   0.90765   0.91038   0.91699   0.92104
 Alpha virt. eigenvalues --    0.92241   0.93065   0.93224   0.93662   0.94298
 Alpha virt. eigenvalues --    0.94656   0.94929   0.95056   0.96218   0.96485
 Alpha virt. eigenvalues --    0.97099   0.97603   0.97918   0.99089   1.00386
 Alpha virt. eigenvalues --    1.01738   1.02488   1.02911   1.03473   1.05813
 Alpha virt. eigenvalues --    1.06480   1.06659   1.09079   1.10269   1.11789
 Alpha virt. eigenvalues --    1.13404   1.16254   1.17029   1.18868   1.18877
 Alpha virt. eigenvalues --    1.20059   1.21134   1.22207   1.23845   1.24238
 Alpha virt. eigenvalues --    1.26236   1.26667   1.27192   1.27778   1.28315
 Alpha virt. eigenvalues --    1.28496   1.29070   1.29298   1.29338   1.30035
 Alpha virt. eigenvalues --    1.30901   1.31905   1.34839   1.36690   1.38312
 Alpha virt. eigenvalues --    1.39126   1.39511   1.45279   1.46124   1.47678
 Alpha virt. eigenvalues --    1.50915   1.53935   1.54599   1.57090   1.58838
 Alpha virt. eigenvalues --    1.62224   1.64192   1.65322   1.65630   1.71467
 Alpha virt. eigenvalues --    1.72603   1.73737   1.75899   1.78040   1.78290
 Alpha virt. eigenvalues --    1.80491   1.80522   1.81269   1.81491   1.82741
 Alpha virt. eigenvalues --    1.84663   1.86685   1.87458   1.90132   1.90442
 Alpha virt. eigenvalues --    1.95570   1.95600   1.97833   2.03485   2.03752
 Alpha virt. eigenvalues --    2.09824   2.11711   2.12123   2.19013   2.20599
 Alpha virt. eigenvalues --    2.21888   2.22175   2.22635   2.23106   2.24219
 Alpha virt. eigenvalues --    2.25547   2.25637   2.26454   2.26764   2.27547
 Alpha virt. eigenvalues --    2.30344   2.30782   2.31949   2.32476   2.32790
 Alpha virt. eigenvalues --    2.34224   2.34436   2.39458   2.40344   2.41070
 Alpha virt. eigenvalues --    2.41946   2.43115   2.43377   2.44423   2.45222
 Alpha virt. eigenvalues --    2.46569   2.48251   2.50545   2.51813   2.52792
 Alpha virt. eigenvalues --    2.52803   2.55531   2.55633   2.58142   2.60191
 Alpha virt. eigenvalues --    2.64605   2.65286   2.66693   2.66764   2.67585
 Alpha virt. eigenvalues --    2.68245   2.71419   2.73321   2.75381   2.77051
 Alpha virt. eigenvalues --    2.80271   2.80586   2.82094   2.87632   2.95044
 Alpha virt. eigenvalues --    2.95238   3.02906   3.06536   3.06807   3.08391
 Alpha virt. eigenvalues --    3.10771   3.11523   3.12110   3.14030   3.14647
 Alpha virt. eigenvalues --    3.18852   3.21929   3.23426   3.25060   3.27494
 Alpha virt. eigenvalues --    3.39829   3.44735   3.50656   3.55486   3.63770
 Alpha virt. eigenvalues --    3.69324   3.74670   3.87485   3.87976   3.92186
 Alpha virt. eigenvalues --    4.00858   4.28779   4.79839   4.79984   9.74135
 Alpha virt. eigenvalues --    9.75451   9.78417   9.79210   9.80472   9.80996
 Alpha virt. eigenvalues --    9.81272   9.85508   9.87008  23.25414  23.42145
 Alpha virt. eigenvalues --   23.76762  23.81108  23.81766  23.84060  23.91150
 Alpha virt. eigenvalues --   23.92195  23.93666  23.96803  24.06135  24.09627
 Alpha virt. eigenvalues --   25.76352  25.76832  25.77840  25.82043  25.85233
 Alpha virt. eigenvalues --   25.85469  25.95204  25.99052  26.00701  26.07113
 Alpha virt. eigenvalues --   26.08866  26.10263  26.16385  26.19705  26.23856
 Alpha virt. eigenvalues --   26.34342  26.38520  26.39976  26.48640  26.53080
 Alpha virt. eigenvalues --   26.56177  26.67309  26.71114  26.79388  26.80803
 Alpha virt. eigenvalues --   26.96009  27.24244 215.73286 215.74651 215.78015
 Alpha virt. eigenvalues --  215.78866 215.80367 215.81101 215.81421 215.87415
 Alpha virt. eigenvalues --  215.87927
          Condensed to atoms (all electrons):
               1          2          3          4          5          6
     1  C   38.777737 -13.563345 -11.337871  -1.259902  -4.538564   2.308154
     2  C  -13.563345  44.220752  -4.068838  -5.667033   6.390280  -5.054988
     3  C  -11.337871  -4.068838  33.730400   5.685053 -13.693383   5.367733
     4  C   -1.259902  -5.667033   5.685053  28.828775 -11.088960  -7.975421
     5  C   -4.538564   6.390280 -13.693383 -11.088960  39.738810  -2.824763
     6  C    2.308154  -5.054988   5.367733  -7.975421  -2.824763  28.595311
     7  C   15.331888  -3.988792  -5.871083  -1.985912  -3.077469  -0.208827
     8  C   -1.185078  -4.284342  -1.233455   0.088985  -2.539552  -2.654187
     9  C   -6.312495  -1.931192  -0.100538   0.078320  -0.859287  -1.972198
    10  C   -4.024426   0.703903   0.416284   0.099125  -0.426716   0.088985
    11  C   -6.319384  -1.941784  -0.103853   0.077578  -0.858977  -1.976797
    12  C   -1.211302  -4.281976  -1.229714   0.090867  -2.546252  -2.660073
    13  H    0.163854   0.017793   0.101072   0.027246   0.047366  -0.015490
    14  Cl   0.306764   0.276573  -0.141317  -0.008815   0.228323   0.192937
    15  Cl  -0.564579   0.216361   0.906147   1.249448  -0.543624  -3.489967
    16  Cl  -0.235873  -0.036530  -0.001394  -0.000423  -0.004256  -0.062916
    17  Cl  -1.009967   0.609682   0.103125  -0.888206   0.028948   0.888084
    18  Cl  -0.091501  -0.027415  -0.001904  -0.002364  -0.000010  -0.040909
    19  Cl  -0.035142  -0.507312   0.025181  -0.533444   0.543062  -0.136336
    20  Cl  -0.235400  -0.036231  -0.001273  -0.000415  -0.004321  -0.062891
    21  Cl   0.305414   0.272809  -0.143424  -0.009254   0.228705   0.190766
    22  Cl   0.873471  -0.726621  -1.815941  -0.902079   0.893169  -0.569048
               7          8          9         10         11         12
     1  C   15.331888  -1.185078  -6.312495  -4.024426  -6.319384  -1.211302
     2  C   -3.988792  -4.284342  -1.931192   0.703903  -1.941784  -4.281976
     3  C   -5.871083  -1.233455  -0.100538   0.416284  -0.103853  -1.229714
     4  C   -1.985912   0.088985   0.078320   0.099125   0.077578   0.090867
     5  C   -3.077469  -2.539552  -0.859287  -0.426716  -0.858977  -2.546252
     6  C   -0.208827  -2.654187  -1.972198   0.088985  -1.976797  -2.660073
     7  C   33.287609  -2.533172 -11.072903   2.205292 -11.096762  -2.550588
     8  C   -2.533172  23.184476  -6.288421  -9.273937  11.758878   4.411613
     9  C  -11.072903  -6.288421  34.485461  -2.201959  -9.834907  11.758780
    10  C    2.205292  -9.273937  -2.201959  31.127795  -2.214790  -9.234941
    11  C  -11.096762  11.758878  -9.834907  -2.214790  34.520710  -6.262367
    12  C   -2.550588   4.411613  11.758780  -9.234941  -6.262367  23.169891
    13  H    0.017683  -0.000135  -0.000996   0.000147  -0.000992  -0.000143
    14  Cl   0.270837  -1.219181   1.466815  -0.608686  -2.001129  -0.966904
    15  Cl  -0.618414   0.325262   0.038193  -0.061730   0.038607   0.326292
    16  Cl  -1.180510   0.729267  -0.582999  -0.522108   1.273459  -0.003021
    17  Cl  -0.108201  -0.090307  -0.012357  -0.010377  -0.012400  -0.090587
    18  Cl   0.113412  -0.802540   0.016155   0.884390   0.016162  -0.801091
    19  Cl  -0.011414  -0.038371  -0.000630  -0.001714  -0.000651  -0.038437
    20  Cl  -1.178716  -0.003154   1.268492  -0.520332  -0.581990   0.728735
    21  Cl   0.267995  -0.961275  -1.992416  -0.611866   1.467408  -1.216221
    22  Cl   0.664101   0.214595  -0.108607  -0.199264  -0.108140   0.212546
              13         14         15         16         17         18
     1  C    0.163854   0.306764  -0.564579  -0.235873  -1.009967  -0.091501
     2  C    0.017793   0.276573   0.216361  -0.036530   0.609682  -0.027415
     3  C    0.101072  -0.141317   0.906147  -0.001394   0.103125  -0.001904
     4  C    0.027246  -0.008815   1.249448  -0.000423  -0.888206  -0.002364
     5  C    0.047366   0.228323  -0.543624  -0.004256   0.028948  -0.000010
     6  C   -0.015490   0.192937  -3.489967  -0.062916   0.888084  -0.040909
     7  C    0.017683   0.270837  -0.618414  -1.180510  -0.108201   0.113412
     8  C   -0.000135  -1.219181   0.325262   0.729267  -0.090307  -0.802540
     9  C   -0.000996   1.466815   0.038193  -0.582999  -0.012357   0.016155
    10  C    0.000147  -0.608686  -0.061730  -0.522108  -0.010377   0.884390
    11  C   -0.000992  -2.001129   0.038607   1.273459  -0.012400   0.016162
    12  C   -0.000143  -0.966904   0.326292  -0.003021  -0.090587  -0.801091
    13  H    0.488334  -0.000945   0.000811  -0.000005  -0.000900  -0.000000
    14  Cl  -0.000945  19.155344   0.010963  -0.412611   0.004985  -0.032966
    15  Cl   0.000811   0.010963  19.158151  -0.003009  -0.469214   0.014199
    16  Cl  -0.000005  -0.412611  -0.003009  17.606935   0.000292  -0.231979
    17  Cl  -0.000900   0.004985  -0.469214   0.000292  17.624640  -0.000033
    18  Cl  -0.000000  -0.032966   0.014199  -0.231979  -0.000033  17.563936
    19  Cl  -0.007840   0.009375  -0.019138   0.000030  -0.182146   0.000000
    20  Cl  -0.000005   0.035136  -0.002940  -0.008842   0.000293  -0.232033
    21  Cl  -0.000942  -0.186981   0.010533   0.035175   0.004959  -0.032999
    22  Cl  -0.008815   0.036934  -0.101154  -0.004711   0.009298   0.011628
              19         20         21         22
     1  C   -0.035142  -0.235400   0.305414   0.873471
     2  C   -0.507312  -0.036231   0.272809  -0.726621
     3  C    0.025181  -0.001273  -0.143424  -1.815941
     4  C   -0.533444  -0.000415  -0.009254  -0.902079
     5  C    0.543062  -0.004321   0.228705   0.893169
     6  C   -0.136336  -0.062891   0.190766  -0.569048
     7  C   -0.011414  -1.178716   0.267995   0.664101
     8  C   -0.038371  -0.003154  -0.961275   0.214595
     9  C   -0.000630   1.268492  -1.992416  -0.108607
    10  C   -0.001714  -0.520332  -0.611866  -0.199264
    11  C   -0.000651  -0.581990   1.467408  -0.108140
    12  C   -0.038437   0.728735  -1.216221   0.212546
    13  H   -0.007840  -0.000005  -0.000942  -0.008815
    14  Cl   0.009375   0.035136  -0.186981   0.036934
    15  Cl  -0.019138  -0.002940   0.010533  -0.101154
    16  Cl   0.000030  -0.008842   0.035175  -0.004711
    17  Cl  -0.182146   0.000293   0.004959   0.009298
    18  Cl   0.000000  -0.232033  -0.032999   0.011628
    19  Cl  17.434056   0.000031   0.009352  -0.050660
    20  Cl   0.000031  17.607139  -0.412602  -0.004769
    21  Cl   0.009352  -0.412602  19.152665   0.037113
    22  Cl  -0.050660  -0.004769   0.037113  18.254339
 Mulliken charges:
               1
     1  C   -0.142452
     2  C   -0.591756
     3  C   -0.591009
     4  C    0.096829
     5  C    0.907472
     6  C   -1.927158
     7  C   -0.676053
     8  C   -1.605968
     9  C    0.159687
    10  C    0.386924
    11  C    0.162121
    12  C   -1.605107
    13  H    0.172902
    14  Cl   0.584549
    15  Cl   0.578804
    16  Cl   0.646028
    17  Cl   0.600389
    18  Cl   0.677861
    19  Cl   0.542146
    20  Cl   0.646088
    21  Cl   0.585086
    22  Cl   0.392615
 Sum of Mulliken charges =  -0.00000
 Mulliken charges with hydrogens summed into heavy atoms:
               1
     1  C   -0.142452
     2  C   -0.591756
     3  C   -0.418106
     4  C    0.096829
     5  C    0.907472
     6  C   -1.927158
     7  C   -0.676053
     8  C   -1.605968
     9  C    0.159687
    10  C    0.386924
    11  C    0.162121
    12  C   -1.605107
    14  Cl   0.584549
    15  Cl   0.578804
    16  Cl   0.646028
    17  Cl   0.600389
    18  Cl   0.677861
    19  Cl   0.542146
    20  Cl   0.646088
    21  Cl   0.585086
    22  Cl   0.392615
 Electronic spatial extent (au):  <R**2>=          11232.3466
 Charge=             -0.0000 electrons
 Dipole moment (field-independent basis, Debye):
    X=              0.4013    Y=              0.0002    Z=             -0.7915  Tot=              0.8874
 Quadrupole moment (field-independent basis, Debye-Ang):
   XX=           -180.9808   YY=           -181.9446   ZZ=           -179.5567
   XY=              0.0003   XZ=             -3.6957   YZ=             -0.0015
 Traceless Quadrupole moment (field-independent basis, Debye-Ang):
   XX=             -0.1534   YY=             -1.1172   ZZ=              1.2707
   XY=              0.0003   XZ=             -3.6957   YZ=             -0.0015
 Octapole moment (field-independent basis, Debye-Ang**2):
  XXX=            -15.6301  YYY=              0.0113  ZZZ=              5.6923  XYY=             -5.3349
  XXY=              0.0103  XXZ=             -8.4766  XZZ=              6.7207  YZZ=              0.0054
  YYZ=              3.2156  XYZ=             -0.0038
 Hexadecapole moment (field-independent basis, Debye-Ang**3):
 XXXX=          -9851.5712 YYYY=          -2514.5451 ZZZZ=          -1907.4042 XXXY=              0.0272
 XXXZ=            -25.3453 YYYX=             -0.0349 YYYZ=              0.0699 ZZZX=             16.5905
 ZZZY=             -0.0715 XXYY=          -2080.3483 XXZZ=          -1950.3456 YYZZ=           -782.6629
 XXYZ=             -0.0292 YYXZ=              2.5157 ZZXY=              0.0010
 N-N= 3.115902834113D+03 E-N=-1.713750486759D+04  KE= 4.588394934491D+03
 1\1\GINC-CN288\FOpt\RB3LYP\6-311+G(d,p)\C12H1Cl9\20CY91R06\02-Apr-2022
 \0\\# opt b3lyp/6-311+g(d,p) scf=xqc\\Title Card Required\\0,1\C,0.882
 1823639,-1.3585057976,-0.2347907936\C,2.1738033185,-1.2820034204,0.294
 4070574\C,2.8874803419,-0.0927111165,0.311420384\C,2.3103806978,1.0584
 274613,-0.2096685037\C,1.0189751277,1.0313497437,-0.7508014641\C,0.320
 030721,-0.1842291127,-0.7551886345\C,0.1272365813,-2.6446089914,-0.246
 5856573\C,0.228236559,-3.5214420711,-1.3319789946\C,-0.4697519315,-4.7
 343088942,-1.3503349428\C,-1.284447603,-5.0768203877,-0.2619242024\C,-
 1.396808394,-4.2100387772,0.8342770338\C,-0.68957589,-3.0024466057,0.8
 313791067\H,3.8849212276,-0.0576691655,0.7258483378\Cl,-0.8183270599,-
 1.9141912307,2.1843624257\Cl,-1.2883519898,-0.2537250195,-1.4208346575
 \Cl,-2.4041748657,-4.6324509095,2.1819075217\Cl,0.302310252,2.47123130
 94,-1.4005762461\Cl,-2.1550248874,-6.5770822657,-0.2713008067\Cl,3.238
 9482766,2.5322951873,-0.1698169258\Cl,-0.3290339024,-5.8059844681,-2.7
 070999936\Cl,1.24331453,-3.0810245895,-2.6764803606\Cl,2.9335510558,-2
 .7106399783,0.9590390743\\Version=EM64L-G16RevB.01\State=1-A\HF=-4599.
 973422\RMSD=6.006e-09\RMSF=2.486e-05\Dipole=0.3227154,0.028122,0.13021
 58\Quadrupole=2.4130443,-1.8334908,-0.5795535,1.3478455,1.0527501,0.81
 37506\PG=C01 [X(C12H1Cl9)]\\@


 WOE UNTO THEM THAT CALL EVIL GOOD, AND GOOD EVIL      
 Job cpu time:       1 days 18 hours 48 minutes 11.5 seconds.
 Elapsed time:       0 days  2 hours 46 minutes 25.3 seconds.
 File lengths (MBytes):  RWF=    195 Int=      0 D2E=      0 Chk=     29 Scr=      1
 Normal termination of Gaussian 16 at Sat Apr  2 03:07:57 2022.
