 Entering Gaussian System, Link 0=g16
 Input=2,2prime,3,4,5-Ppentachlorobiphenyl.gjf
 Output=2,2prime,3,4,5-Ppentachlorobiphenyl.log
 Initial command:
 /opt/g16/l1.exe "/scratch/gour/Gau-26696.inp" -scrdir="/scratch/gour/"
 Entering Link 1 = /opt/g16/l1.exe PID=     26697.
  
 Copyright (c) 1988-2017, Gaussian, Inc.  All Rights Reserved.
  
 This is part of the Gaussian(R) 16 program.  It is based on
 the Gaussian(R) 09 system (copyright 2009, Gaussian, Inc.),
 the Gaussian(R) 03 system (copyright 2003, Gaussian, Inc.),
 the Gaussian(R) 98 system (copyright 1998, Gaussian, Inc.),
 the Gaussian(R) 94 system (copyright 1995, Gaussian, Inc.),
 the Gaussian 92(TM) system (copyright 1992, Gaussian, Inc.),
 the Gaussian 90(TM) system (copyright 1990, Gaussian, Inc.),
 the Gaussian 88(TM) system (copyright 1988, Gaussian, Inc.),
 the Gaussian 86(TM) system (copyright 1986, Carnegie Mellon
 University), and the Gaussian 82(TM) system (copyright 1983,
 Carnegie Mellon University). Gaussian is a federally registered
 trademark of Gaussian, Inc.
  
 This software contains proprietary and confidential information,
 including trade secrets, belonging to Gaussian, Inc.
  
 This software is provided under written license and may be
 used, copied, transmitted, or stored only in accord with that
 written license.
  
 The following legend is applicable only to US Government
 contracts under FAR:
  
                    RESTRICTED RIGHTS LEGEND
  
 Use, reproduction and disclosure by the US Government is
 subject to restrictions as set forth in subparagraphs (a)
 and (c) of the Commercial Computer Software - Restricted
 Rights clause in FAR 52.227-19.
  
 Gaussian, Inc.
 340 Quinnipiac St., Bldg. 40, Wallingford CT 06492
  
  
 ---------------------------------------------------------------
 Warning -- This program may not be used in any manner that
 competes with the business of Gaussian, Inc. or will provide
 assistance to any competitor of Gaussian, Inc.  The licensee
 of this program is prohibited from giving any competitor of
 Gaussian, Inc. access to this program.  By using this program,
 the user acknowledges that Gaussian, Inc. is engaged in the
 business of creating and licensing software in the field of
 computational chemistry and represents and warrants to the
 licensee that it is not a competitor of Gaussian, Inc. and that
 it will not use this program in any manner prohibited above.
 ---------------------------------------------------------------
  

 Cite this work as:
 Gaussian 16, Revision B.01,
 M. J. Frisch, G. W. Trucks, H. B. Schlegel, G. E. Scuseria, 
 M. A. Robb, J. R. Cheeseman, G. Scalmani, V. Barone, 
 G. A. Petersson, H. Nakatsuji, X. Li, M. Caricato, A. V. Marenich, 
 J. Bloino, B. G. Janesko, R. Gomperts, B. Mennucci, H. P. Hratchian, 
 J. V. Ortiz, A. F. Izmaylov, J. L. Sonnenberg, D. Williams-Young, 
 F. Ding, F. Lipparini, F. Egidi, J. Goings, B. Peng, A. Petrone, 
 T. Henderson, D. Ranasinghe, V. G. Zakrzewski, J. Gao, N. Rega, 
 G. Zheng, W. Liang, M. Hada, M. Ehara, K. Toyota, R. Fukuda, 
 J. Hasegawa, M. Ishida, T. Nakajima, Y. Honda, O. Kitao, H. Nakai, 
 T. Vreven, K. Throssell, J. A. Montgomery, Jr., J. E. Peralta, 
 F. Ogliaro, M. J. Bearpark, J. J. Heyd, E. N. Brothers, K. N. Kudin, 
 V. N. Staroverov, T. A. Keith, R. Kobayashi, J. Normand, 
 K. Raghavachari, A. P. Rendell, J. C. Burant, S. S. Iyengar, 
 J. Tomasi, M. Cossi, J. M. Millam, M. Klene, C. Adamo, R. Cammi, 
 J. W. Ochterski, R. L. Martin, K. Morokuma, O. Farkas, 
 J. B. Foresman, and D. J. Fox, Gaussian, Inc., Wallingford CT, 2016.
 
 ******************************************
 Gaussian 16:  EM64L-G16RevB.01 20-Dec-2017
                16-Mar-2022 
 ******************************************
 %mem=10GB
 %nprocshared=4
 Will use up to    4 processors via shared memory.
 --------------------------------
 # opt b3lyp/6-311+g(d,p) scf=xqc
 --------------------------------
 1/18=20,19=15,26=3,38=1/1,3;
 2/9=110,12=2,17=6,18=5,40=1/2;
 3/5=4,6=6,7=111,11=2,25=1,30=1,71=1,74=-5/1,2,3;
 4//1;
 5/5=2,8=3,13=1,38=5/2,8;
 6/7=2,8=2,9=2,10=2,28=1/1;
 7//1,2,3,16;
 1/18=20,19=15,26=3/3(2);
 2/9=110/2;
 99//99;
 2/9=110/2;
 3/5=4,6=6,7=111,11=2,25=1,30=1,71=1,74=-5/1,2,3;
 4/5=5,16=3,69=1/1;
 5/5=2,8=3,13=1,38=5/2,8;
 7//1,2,3,16;
 1/18=20,19=15,26=3/3(-5);
 2/9=110/2;
 6/7=2,8=2,9=2,10=2,19=2,28=1/1;
 99/9=1/99;
 -------------------
 Title Card Required
 -------------------
 Symbolic Z-matrix:
 Charge =  0 Multiplicity = 1
 C                     0.903     0.49308  -0.03879 
 C                     2.23538   0.52296  -0.47214 
 C                     2.94328   1.73241  -0.47821 
 C                     2.31879   2.91198  -0.05094 
 C                     0.98641   2.88209   0.38241 
 C                     0.27851   1.67264   0.38848 
 C                     0.1251   -0.83599  -0.03212 
 C                     0.74958  -2.01556  -0.45939 
 C                     0.04169  -3.22501  -0.45332 
 C                    -1.29069  -3.25489  -0.01997 
 C                    -1.91518  -2.07533   0.40731 
 C                    -1.20728  -0.86588   0.40123 
 H                     2.71219  -0.37766  -0.79837 
 H                     3.96058   1.75523  -0.80908 
 H                     2.85928   3.83542  -0.05557 
 H                     0.5096    3.78272   0.70864 
 H                     1.76689  -1.99274  -0.79026 
 Cl                   -1.99157   0.61552   0.93784 
 Cl                   -1.39481   1.63511   0.93271 
 Cl                   -3.58849  -2.11286   0.95155 
 Cl                   -2.17972  -4.77383  -0.01234 
 Cl                    0.82598  -4.70641  -0.98993 
 

 GradGradGradGradGradGradGradGradGradGradGradGradGradGradGradGradGradGrad
 Berny optimization.
 Initialization pass.
                           ----------------------------
                           !    Initial Parameters    !
                           ! (Angstroms and Degrees)  !
 --------------------------                            --------------------------
 ! Name  Definition              Value          Derivative Info.                !
 --------------------------------------------------------------------------------
 ! R1    R(1,2)                  1.4014         estimate D2E/DX2                !
 ! R2    R(1,6)                  1.4014         estimate D2E/DX2                !
 ! R3    R(1,7)                  1.54           estimate D2E/DX2                !
 ! R4    R(2,3)                  1.4014         estimate D2E/DX2                !
 ! R5    R(2,13)                 1.07           estimate D2E/DX2                !
 ! R6    R(3,4)                  1.4014         estimate D2E/DX2                !
 ! R7    R(3,14)                 1.07           estimate D2E/DX2                !
 ! R8    R(4,5)                  1.4014         estimate D2E/DX2                !
 ! R9    R(4,15)                 1.07           estimate D2E/DX2                !
 ! R10   R(5,6)                  1.4014         estimate D2E/DX2                !
 ! R11   R(5,16)                 1.07           estimate D2E/DX2                !
 ! R12   R(6,19)                 1.76           estimate D2E/DX2                !
 ! R13   R(7,8)                  1.4014         estimate D2E/DX2                !
 ! R14   R(7,12)                 1.4014         estimate D2E/DX2                !
 ! R15   R(8,9)                  1.4014         estimate D2E/DX2                !
 ! R16   R(8,17)                 1.07           estimate D2E/DX2                !
 ! R17   R(9,10)                 1.4014         estimate D2E/DX2                !
 ! R18   R(9,22)                 1.76           estimate D2E/DX2                !
 ! R19   R(10,11)                1.4014         estimate D2E/DX2                !
 ! R20   R(10,21)                1.76           estimate D2E/DX2                !
 ! R21   R(11,12)                1.4014         estimate D2E/DX2                !
 ! R22   R(11,20)                1.76           estimate D2E/DX2                !
 ! R23   R(12,18)                1.76           estimate D2E/DX2                !
 ! R24   R(18,19)                1.1814         estimate D2E/DX2                !
 ! A1    A(2,1,6)              120.0            estimate D2E/DX2                !
 ! A2    A(2,1,7)              120.0            estimate D2E/DX2                !
 ! A3    A(6,1,7)              120.0            estimate D2E/DX2                !
 ! A4    A(1,2,3)              120.0            estimate D2E/DX2                !
 ! A5    A(1,2,13)             120.0            estimate D2E/DX2                !
 ! A6    A(3,2,13)             120.0            estimate D2E/DX2                !
 ! A7    A(2,3,4)              120.0            estimate D2E/DX2                !
 ! A8    A(2,3,14)             120.0            estimate D2E/DX2                !
 ! A9    A(4,3,14)             120.0            estimate D2E/DX2                !
 ! A10   A(3,4,5)              120.0            estimate D2E/DX2                !
 ! A11   A(3,4,15)             120.0            estimate D2E/DX2                !
 ! A12   A(5,4,15)             120.0            estimate D2E/DX2                !
 ! A13   A(4,5,6)              120.0            estimate D2E/DX2                !
 ! A14   A(4,5,16)             120.0            estimate D2E/DX2                !
 ! A15   A(6,5,16)             120.0            estimate D2E/DX2                !
 ! A16   A(1,6,5)              120.0            estimate D2E/DX2                !
 ! A17   A(1,6,19)             120.0            estimate D2E/DX2                !
 ! A18   A(5,6,19)             120.0            estimate D2E/DX2                !
 ! A19   A(1,7,8)              120.0            estimate D2E/DX2                !
 ! A20   A(1,7,12)             120.0            estimate D2E/DX2                !
 ! A21   A(8,7,12)             120.0            estimate D2E/DX2                !
 ! A22   A(7,8,9)              120.0            estimate D2E/DX2                !
 ! A23   A(7,8,17)             120.0            estimate D2E/DX2                !
 ! A24   A(9,8,17)             120.0            estimate D2E/DX2                !
 ! A25   A(8,9,10)             120.0            estimate D2E/DX2                !
 ! A26   A(8,9,22)             120.0            estimate D2E/DX2                !
 ! A27   A(10,9,22)            120.0            estimate D2E/DX2                !
 ! A28   A(9,10,11)            120.0            estimate D2E/DX2                !
 ! A29   A(9,10,21)            120.0            estimate D2E/DX2                !
 ! A30   A(11,10,21)           120.0            estimate D2E/DX2                !
 ! A31   A(10,11,12)           120.0            estimate D2E/DX2                !
 ! A32   A(10,11,20)           120.0            estimate D2E/DX2                !
 ! A33   A(12,11,20)           120.0            estimate D2E/DX2                !
 ! A34   A(7,12,11)            120.0            estimate D2E/DX2                !
 ! A35   A(7,12,18)            120.0            estimate D2E/DX2                !
 ! A36   A(11,12,18)           120.0            estimate D2E/DX2                !
 ! A37   A(12,18,19)           120.0            estimate D2E/DX2                !
 ! A38   A(6,19,18)            120.0            estimate D2E/DX2                !
 ! D1    D(6,1,2,3)              0.0001         estimate D2E/DX2                !
 ! D2    D(6,1,2,13)           180.0            estimate D2E/DX2                !
 ! D3    D(7,1,2,3)           -180.0            estimate D2E/DX2                !
 ! D4    D(7,1,2,13)            -0.0001         estimate D2E/DX2                !
 ! D5    D(2,1,6,5)             -0.0001         estimate D2E/DX2                !
 ! D6    D(2,1,6,19)           180.0            estimate D2E/DX2                !
 ! D7    D(7,1,6,5)            180.0            estimate D2E/DX2                !
 ! D8    D(7,1,6,19)             0.0            estimate D2E/DX2                !
 ! D9    D(2,1,7,8)             -0.0001         estimate D2E/DX2                !
 ! D10   D(2,1,7,12)           179.9998         estimate D2E/DX2                !
 ! D11   D(6,1,7,8)            179.9999         estimate D2E/DX2                !
 ! D12   D(6,1,7,12)            -0.0002         estimate D2E/DX2                !
 ! D13   D(1,2,3,4)              0.0            estimate D2E/DX2                !
 ! D14   D(1,2,3,14)           180.0            estimate D2E/DX2                !
 ! D15   D(13,2,3,4)          -179.9999         estimate D2E/DX2                !
 ! D16   D(13,2,3,14)            0.0001         estimate D2E/DX2                !
 ! D17   D(2,3,4,5)             -0.0001         estimate D2E/DX2                !
 ! D18   D(2,3,4,15)           180.0            estimate D2E/DX2                !
 ! D19   D(14,3,4,5)           179.9999         estimate D2E/DX2                !
 ! D20   D(14,3,4,15)            0.0            estimate D2E/DX2                !
 ! D21   D(3,4,5,6)              0.0001         estimate D2E/DX2                !
 ! D22   D(3,4,5,16)          -179.9999         estimate D2E/DX2                !
 ! D23   D(15,4,5,6)          -180.0            estimate D2E/DX2                !
 ! D24   D(15,4,5,16)            0.0            estimate D2E/DX2                !
 ! D25   D(4,5,6,1)              0.0            estimate D2E/DX2                !
 ! D26   D(4,5,6,19)           179.9999         estimate D2E/DX2                !
 ! D27   D(16,5,6,1)           180.0            estimate D2E/DX2                !
 ! D28   D(16,5,6,19)           -0.0001         estimate D2E/DX2                !
 ! D29   D(1,6,19,18)            0.0006         estimate D2E/DX2                !
 ! D30   D(5,6,19,18)         -179.9994         estimate D2E/DX2                !
 ! D31   D(1,7,8,9)            179.9999         estimate D2E/DX2                !
 ! D32   D(1,7,8,17)             0.0001         estimate D2E/DX2                !
 ! D33   D(12,7,8,9)             0.0001         estimate D2E/DX2                !
 ! D34   D(12,7,8,17)         -179.9998         estimate D2E/DX2                !
 ! D35   D(1,7,12,11)         -179.9999         estimate D2E/DX2                !
 ! D36   D(1,7,12,18)            0.0            estimate D2E/DX2                !
 ! D37   D(8,7,12,11)           -0.0001         estimate D2E/DX2                !
 ! D38   D(8,7,12,18)          179.9999         estimate D2E/DX2                !
 ! D39   D(7,8,9,10)             0.0            estimate D2E/DX2                !
 ! D40   D(7,8,9,22)           180.0            estimate D2E/DX2                !
 ! D41   D(17,8,9,10)          179.9998         estimate D2E/DX2                !
 ! D42   D(17,8,9,22)           -0.0002         estimate D2E/DX2                !
 ! D43   D(8,9,10,11)            0.0            estimate D2E/DX2                !
 ! D44   D(8,9,10,21)         -179.9999         estimate D2E/DX2                !
 ! D45   D(22,9,10,11)         180.0            estimate D2E/DX2                !
 ! D46   D(22,9,10,21)           0.0001         estimate D2E/DX2                !
 ! D47   D(9,10,11,12)           0.0            estimate D2E/DX2                !
 ! D48   D(9,10,11,20)        -179.9998         estimate D2E/DX2                !
 ! D49   D(21,10,11,12)        179.9999         estimate D2E/DX2                !
 ! D50   D(21,10,11,20)          0.0001         estimate D2E/DX2                !
 ! D51   D(10,11,12,7)           0.0            estimate D2E/DX2                !
 ! D52   D(10,11,12,18)       -179.9999         estimate D2E/DX2                !
 ! D53   D(20,11,12,7)         179.9999         estimate D2E/DX2                !
 ! D54   D(20,11,12,18)         -0.0001         estimate D2E/DX2                !
 ! D55   D(7,12,18,19)           0.0005         estimate D2E/DX2                !
 ! D56   D(11,12,18,19)       -179.9995         estimate D2E/DX2                !
 ! D57   D(12,18,19,6)          -0.0008         estimate D2E/DX2                !
 --------------------------------------------------------------------------------
 Trust Radius=3.00D-01 FncErr=1.00D-07 GrdErr=1.00D-06 EigMax=2.50D+02 EigMin=1.00D-04
 Number of steps in this run=    129 maximum allowed number of steps=    132.
 GradGradGradGradGradGradGradGradGradGradGradGradGradGradGradGradGradGrad

                          Input orientation:                          
 ---------------------------------------------------------------------
 Center     Atomic      Atomic             Coordinates (Angstroms)
 Number     Number       Type             X           Y           Z
 ---------------------------------------------------------------------
      1          6           0        0.903001    0.493076   -0.038793
      2          6           0        2.235382    0.522962   -0.472139
      3          6           0        2.943275    1.732413   -0.478212
      4          6           0        2.318788    2.911978   -0.050937
      5          6           0        0.986406    2.882093    0.382408
      6          6           0        0.278513    1.672642    0.388480
      7          6           0        0.125096   -0.835991   -0.032119
      8          6           0        0.749583   -2.015556   -0.459394
      9          6           0        0.041690   -3.225008   -0.453319
     10          6           0       -1.290690   -3.254894   -0.019970
     11          6           0       -1.915177   -2.075329    0.407306
     12          6           0       -1.207284   -0.865878    0.401231
     13          1           0        2.712192   -0.377663   -0.798371
     14          1           0        3.960578    1.755231   -0.809081
     15          1           0        2.859281    3.835421   -0.055573
     16          1           0        0.509596    3.782717    0.708639
     17          1           0        1.766886   -1.992738   -0.790264
     18         17           0       -1.991569    0.615522    0.937843
     19         17           0       -1.394808    1.635108    0.932714
     20         17           0       -3.588494   -2.112864    0.951548
     21         17           0       -2.179723   -4.773829   -0.012338
     22         17           0        0.825976   -4.706408   -0.989929
 ---------------------------------------------------------------------
                    Distance matrix (angstroms):
                    1          2          3          4          5
     1  C    0.000000
     2  C    1.401400   0.000000
     3  C    2.427296   1.401400   0.000000
     4  C    2.802800   2.427296   1.401400   0.000000
     5  C    2.427296   2.802800   2.427296   1.401400   0.000000
     6  C    1.401400   2.427296   2.802800   2.427296   1.401400
     7  C    1.540000   2.548270   3.838989   4.342800   3.838989
     8  C    2.548270   2.941400   4.342800   5.187469   4.975106
     9  C    3.838989   4.342800   5.744200   6.558176   6.235992
    10  C    4.342800   5.187469   6.558176   7.145600   6.558176
    11  C    3.838989   4.975106   6.235992   6.558176   5.744200
    12  C    2.548270   3.813607   4.975106   5.187469   4.342800
    13  H    2.146700   1.070000   2.146700   3.396345   3.872800
    14  H    3.396345   2.146700   1.070000   2.146700   3.396345
    15  H    3.872800   3.396345   2.146700   1.070000   2.146700
    16  H    3.396345   3.872800   3.396345   2.146700   1.070000
    17  H    2.736837   2.578650   3.918930   4.990735   5.074276
    18  Cl   3.057342   4.456874   5.254079   4.983028   3.783409
    19  Cl   2.743718   4.048303   4.562800   4.048303   2.743718
    20  Cl   5.286324   6.549198   7.713260   7.819846   6.797295
    21  Cl   6.102800   6.910901   8.294174   8.905600   8.294174
    22  Cl   5.286324   5.440665   6.797295   7.819846   7.713260
                    6          7          8          9         10
     6  C    0.000000
     7  C    2.548270   0.000000
     8  C    3.813607   1.401400   0.000000
     9  C    4.975106   2.427296   1.401400   0.000000
    10  C    5.187469   2.802800   2.427296   1.401400   0.000000
    11  C    4.342800   2.427296   2.802800   2.427296   1.401400
    12  C    2.941400   1.401400   2.427296   2.802800   2.427296
    13  H    3.396345   2.736837   2.578650   3.918930   4.990735
    14  H    3.872800   4.693509   4.965039   6.347206   7.300676
    15  H    3.396345   5.412800   6.232802   7.612271   8.215600
    16  H    2.146700   4.693509   5.919617   7.118798   7.300676
    17  H    4.127917   2.146700   1.070000   2.146700   3.396345
    18  Cl   2.563702   2.743718   4.048303   4.562800   4.048303
    19  Cl   1.760000   3.057342   4.456874   5.254079   4.983028
    20  Cl   5.440665   4.048303   4.562800   4.048303   2.743718
    21  Cl   6.910901   4.562800   4.048303   2.743718   1.760000
    22  Cl   6.549198   4.048303   2.743718   1.760000   2.743718
                   11         12         13         14         15
    11  C    0.000000
    12  C    1.401400   0.000000
    13  H    5.074276   4.127917   0.000000
    14  H    7.118798   5.919617   2.471400   0.000000
    15  H    7.612271   6.232802   4.280590   2.471400   0.000000
    16  H    6.347206   4.965039   4.942800   4.280590   2.471400
    17  H    3.872800   3.396345   1.871400   4.342800   5.974992
    18  Cl   2.743718   1.760000   5.111382   6.307038   5.906383
    19  Cl   3.783409   2.563702   4.890332   5.632800   4.890332
    20  Cl   1.760000   2.743718   6.765486   8.663168   8.830073
    21  Cl   2.743718   4.048303   6.623817   8.998151   9.975600
    22  Cl   4.048303   4.562800   4.725732   7.184095   8.830073
                   16         17         18         19         20
    16  H    0.000000
    17  H    6.097816   0.000000
    18  Cl   4.042212   4.890332   0.000000
    19  Cl   2.879094   5.111382   1.181400   0.000000
    20  Cl   7.184095   5.632800   3.161400   4.342800   0.000000
    21  Cl   8.998151   4.890332   5.475705   6.525618   3.161400
    22  Cl   8.663168   2.879094   6.322800   6.988795   5.475705
                   21         22
    21  Cl   0.000000
    22  Cl   3.161400   0.000000
 Stoichiometry    C12H5Cl5
 Framework group  C1[X(C12H5Cl5)]
 Deg. of freedom    60
 Full point group                 C1      NOp   1
 Largest Abelian subgroup         C1      NOp   1
 Largest concise Abelian subgroup C1      NOp   1
                         Standard orientation:                         
 ---------------------------------------------------------------------
 Center     Atomic      Atomic             Coordinates (Angstroms)
 Number     Number       Type             X           Y           Z
 ---------------------------------------------------------------------
      1          6           0       -1.918656    0.898277   -0.000000
      2          6           0       -2.395857    2.215927    0.000003
      3          6           0       -3.775576    2.461483    0.000005
      4          6           0       -4.678093    1.389390    0.000005
      5          6           0       -4.200892    0.071741   -0.000000
      6          6           0       -2.821174   -0.173816   -0.000002
      7          6           0       -0.402481    0.628434   -0.000002
      8          6           0        0.500036    1.700527   -0.000002
      9          6           0        1.879755    1.454970   -0.000002
     10          6           0        2.356956    0.137320   -0.000001
     11          6           0        1.454438   -0.934773   -0.000001
     12          6           0        0.074719   -0.689216   -0.000001
     13          1           0       -1.706764    3.034493    0.000005
     14          1           0       -4.139929    3.467538    0.000008
     15          1           0       -5.731539    1.576879    0.000007
     16          1           0       -4.889985   -0.746826   -0.000003
     17          1           0        0.135683    2.706582    0.000000
     18         17           0       -1.058741   -2.035644    0.000002
     19         17           0       -2.221863   -1.828636   -0.000007
     20         17           0        2.053749   -2.589592    0.000004
     21         17           0        4.089727   -0.171071    0.000001
     22         17           0        3.013216    2.801398   -0.000002
 ---------------------------------------------------------------------
 Rotational constants (GHZ):           0.4820754           0.2167138           0.1495049
 Standard basis: 6-311+G(d,p) (5D, 7F)
 There are   461 symmetry adapted cartesian basis functions of A   symmetry.
 There are   444 symmetry adapted basis functions of A   symmetry.
   444 basis functions,   737 primitive gaussians,   461 cartesian basis functions
    81 alpha electrons       81 beta electrons
       nuclear repulsion energy      1864.5775296268 Hartrees.
 NAtoms=   22 NActive=   22 NUniq=   22 SFac= 1.00D+00 NAtFMM=   60 NAOKFM=F Big=F
 Integral buffers will be    131072 words long.
 Raffenetti 2 integral format.
 Two-electron integral symmetry is turned on.
 One-electron integrals computed using PRISM.
 NBasis=   444 RedAO= T EigKep=  1.67D-06  NBF=   444
 NBsUse=   437 1.00D-06 EigRej=  9.08D-07 NBFU=   437
 ExpMin= 4.38D-02 ExpMax= 1.06D+05 ExpMxC= 3.62D+03 IAcc=3 IRadAn=         5 AccDes= 0.00D+00
 Harris functional with IExCor=  402 and IRadAn=       5 diagonalized for initial guess.
 HarFok:  IExCor=  402 AccDes= 0.00D+00 IRadAn=         5 IDoV= 1 UseB2=F ITyADJ=14
 ICtDFT=  3500011 ScaDFX=  1.000000  1.000000  1.000000  1.000000
 FoFCou: FMM=F IPFlag=           0 FMFlag=      100000 FMFlg1=           0
         NFxFlg=           0 DoJE=T BraDBF=F KetDBF=T FulRan=T
         wScrn=  0.000000 ICntrl=       500 IOpCl=  0 I1Cent=   200000004 NGrid=           0
         NMat0=    1 NMatS0=      1 NMatT0=    0 NMatD0=    1 NMtDS0=    0 NMtDT0=    0
 Petite list used in FoFCou.
 Requested convergence on RMS density matrix=1.00D-08 within  32 cycles.
 Requested convergence on MAX density matrix=1.00D-06.
 Requested convergence on             energy=1.00D-06.
 No special actions if energy rises.
 SCF Done:  E(RB3LYP) =  -2759.89275582     A.U. after   19 cycles
            NFock= 19  Conv=0.81D-08     -V/T= 1.9998
 QCSCF skips out because SCF is already converged.

 **********************************************************************

            Population analysis using the SCF Density.

 **********************************************************************

 Orbital symmetries:
       Occupied  (A) (A) (A) (A) (A) (A) (A) (A) (A) (A) (A) (A)
                 (A) (A) (A) (A) (A) (A) (A) (A) (A) (A) (A) (A)
                 (A) (A) (A) (A) (A) (A) (A) (A) (A) (A) (A) (A)
                 (A) (A) (A) (A) (A) (A) (A) (A) (A) (A) (A) (A)
                 (A) (A) (A) (A) (A) (A) (A) (A) (A) (A) (A) (A)
                 (A) (A) (A) (A) (A) (A) (A) (A) (A) (A) (A) (A)
                 (A) (A) (A) (A) (A) (A) (A) (A) (A)
       Virtual   (A) (A) (A) (A) (A) (A) (A) (A) (A) (A) (A) (A)
                 (A) (A) (A) (A) (A) (A) (A) (A) (A) (A) (A) (A)
                 (A) (A) (A) (A) (A) (A) (A) (A) (A) (A) (A) (A)
                 (A) (A) (A) (A) (A) (A) (A) (A) (A) (A) (A) (A)
                 (A) (A) (A) (A) (A) (A) (A) (A) (A) (A) (A) (A)
                 (A) (A) (A) (A) (A) (A) (A) (A) (A) (A) (A) (A)
                 (A) (A) (A) (A) (A) (A) (A) (A) (A) (A) (A) (A)
                 (A) (A) (A) (A) (A) (A) (A) (A) (A) (A) (A) (A)
                 (A) (A) (A) (A) (A) (A) (A) (A) (A) (A) (A) (A)
                 (A) (A) (A) (A) (A) (A) (A) (A) (A) (A) (A) (A)
                 (A) (A) (A) (A) (A) (A) (A) (A) (A) (A) (A) (A)
                 (A) (A) (A) (A) (A) (A) (A) (A) (A) (A) (A) (A)
                 (A) (A) (A) (A) (A) (A) (A) (A) (A) (A) (A) (A)
                 (A) (A) (A) (A) (A) (A) (A) (A) (A) (A) (A) (A)
                 (A) (A) (A) (A) (A) (A) (A) (A) (A) (A) (A) (A)
                 (A) (A) (A) (A) (A) (A) (A) (A) (A) (A) (A) (A)
                 (A) (A) (A) (A) (A) (A) (A) (A) (A) (A) (A) (A)
                 (A) (A) (A) (A) (A) (A) (A) (A) (A) (A) (A) (A)
                 (A) (A) (A) (A) (A) (A) (A) (A) (A) (A) (A) (A)
                 (A) (A) (A) (A) (A) (A) (A) (A) (A) (A) (A) (A)
                 (A) (A) (A) (A) (A) (A) (A) (A) (A) (A) (A) (A)
                 (A) (A) (A) (A) (A) (A) (A) (A) (A) (A) (A) (A)
                 (A) (A) (A) (A) (A) (A) (A) (A) (A) (A) (A) (A)
                 (A) (A) (A) (A) (A) (A) (A) (A) (A) (A) (A) (A)
                 (A) (A) (A) (A) (A) (A) (A) (A) (A) (A) (A) (A)
                 (A) (A) (A) (A) (A) (A) (A) (A) (A) (A) (A) (A)
                 (A) (A) (A) (A) (A) (A) (A) (A) (A) (A) (A) (A)
                 (A) (A) (A) (A) (A) (A) (A) (A) (A) (A) (A) (A)
                 (A) (A) (A) (A) (A) (A) (A) (A) (A) (A) (A) (A)
                 (A) (A) (A) (A) (A) (A) (A) (A)
 The electronic state is 1-A.
 Alpha  occ. eigenvalues -- -101.66317-101.65843-101.56440-101.56266-101.55900
 Alpha  occ. eigenvalues --  -10.25985 -10.25777 -10.25725 -10.21468 -10.20615
 Alpha  occ. eigenvalues --  -10.20051 -10.19260 -10.19122 -10.18963 -10.18839
 Alpha  occ. eigenvalues --  -10.17934 -10.17521  -9.64925  -9.62769  -9.47903
 Alpha  occ. eigenvalues --   -9.47696  -9.47344  -7.43313  -7.38396  -7.38296
 Alpha  occ. eigenvalues --   -7.37925  -7.37667  -7.37211  -7.24358  -7.24185
 Alpha  occ. eigenvalues --   -7.23831  -7.23396  -7.23341  -7.23175  -7.23121
 Alpha  occ. eigenvalues --   -7.22836  -7.22755  -1.39353  -0.93238  -0.88741
 Alpha  occ. eigenvalues --   -0.88599  -0.86134  -0.84268  -0.81680  -0.80181
 Alpha  occ. eigenvalues --   -0.77756  -0.73818  -0.72539  -0.72292  -0.70667
 Alpha  occ. eigenvalues --   -0.65834  -0.63039  -0.60574  -0.59128  -0.57727
 Alpha  occ. eigenvalues --   -0.52023  -0.51083  -0.49680  -0.47794  -0.46315
 Alpha  occ. eigenvalues --   -0.45325  -0.44537  -0.43638  -0.42647  -0.40754
 Alpha  occ. eigenvalues --   -0.39780  -0.39575  -0.37394  -0.36723  -0.35463
 Alpha  occ. eigenvalues --   -0.35363  -0.33817  -0.33523  -0.32931  -0.30468
 Alpha  occ. eigenvalues --   -0.30333  -0.28456  -0.27102  -0.24832  -0.21177
 Alpha  occ. eigenvalues --   -0.16272
 Alpha virt. eigenvalues --   -0.06596  -0.05404  -0.03160  -0.02225  -0.01853
 Alpha virt. eigenvalues --    0.00164   0.00413   0.00812   0.01492   0.02054
 Alpha virt. eigenvalues --    0.02175   0.02585   0.03074   0.03452   0.04945
 Alpha virt. eigenvalues --    0.05236   0.05684   0.06252   0.06366   0.06592
 Alpha virt. eigenvalues --    0.07556   0.07851   0.08279   0.08568   0.09406
 Alpha virt. eigenvalues --    0.09835   0.09886   0.09925   0.10369   0.11285
 Alpha virt. eigenvalues --    0.11699   0.11805   0.11834   0.12709   0.13335
 Alpha virt. eigenvalues --    0.13424   0.14008   0.14437   0.14901   0.15163
 Alpha virt. eigenvalues --    0.15561   0.16269   0.16403   0.16471   0.16688
 Alpha virt. eigenvalues --    0.16981   0.17533   0.17554   0.18614   0.19113
 Alpha virt. eigenvalues --    0.19174   0.19410   0.19849   0.19944   0.19964
 Alpha virt. eigenvalues --    0.20189   0.20655   0.21084   0.21612   0.22241
 Alpha virt. eigenvalues --    0.22854   0.23720   0.24261   0.24555   0.24614
 Alpha virt. eigenvalues --    0.25169   0.25704   0.25951   0.26636   0.26905
 Alpha virt. eigenvalues --    0.27009   0.27616   0.28377   0.28414   0.28783
 Alpha virt. eigenvalues --    0.28993   0.29727   0.30571   0.31516   0.31953
 Alpha virt. eigenvalues --    0.32448   0.33143   0.33762   0.34271   0.35389
 Alpha virt. eigenvalues --    0.36590   0.37675   0.38826   0.41291   0.43193
 Alpha virt. eigenvalues --    0.43819   0.44506   0.44770   0.45498   0.45807
 Alpha virt. eigenvalues --    0.46329   0.46698   0.48155   0.48458   0.48967
 Alpha virt. eigenvalues --    0.49538   0.50149   0.50503   0.51139   0.52268
 Alpha virt. eigenvalues --    0.52539   0.53336   0.53966   0.54324   0.55052
 Alpha virt. eigenvalues --    0.56157   0.56879   0.57065   0.58940   0.59141
 Alpha virt. eigenvalues --    0.59357   0.60813   0.61153   0.62340   0.62408
 Alpha virt. eigenvalues --    0.62934   0.63271   0.64714   0.65171   0.65653
 Alpha virt. eigenvalues --    0.67034   0.67129   0.68086   0.68609   0.70776
 Alpha virt. eigenvalues --    0.70910   0.71545   0.71730   0.73042   0.74906
 Alpha virt. eigenvalues --    0.77675   0.78588   0.79011   0.80724   0.81353
 Alpha virt. eigenvalues --    0.81898   0.83584   0.83751   0.84084   0.84986
 Alpha virt. eigenvalues --    0.85586   0.85999   0.86194   0.86477   0.86891
 Alpha virt. eigenvalues --    0.86982   0.88601   0.89317   0.90382   0.90519
 Alpha virt. eigenvalues --    0.91052   0.91805   0.92499   0.93532   0.94526
 Alpha virt. eigenvalues --    0.95397   0.95524   0.96272   0.96830   0.97394
 Alpha virt. eigenvalues --    0.97523   0.98462   0.99040   1.00712   1.00936
 Alpha virt. eigenvalues --    1.02669   1.04190   1.05248   1.06352   1.08522
 Alpha virt. eigenvalues --    1.09030   1.09483   1.11798   1.12634   1.13672
 Alpha virt. eigenvalues --    1.16918   1.18264   1.18929   1.23745   1.24461
 Alpha virt. eigenvalues --    1.26050   1.27298   1.27387   1.27954   1.30016
 Alpha virt. eigenvalues --    1.30154   1.30826   1.33308   1.34763   1.37360
 Alpha virt. eigenvalues --    1.39753   1.41867   1.44164   1.44848   1.48241
 Alpha virt. eigenvalues --    1.49616   1.50658   1.50766   1.52171   1.54921
 Alpha virt. eigenvalues --    1.55714   1.56272   1.59467   1.60890   1.62373
 Alpha virt. eigenvalues --    1.65274   1.66095   1.69147   1.69207   1.72201
 Alpha virt. eigenvalues --    1.73899   1.74197   1.76517   1.80038   1.80817
 Alpha virt. eigenvalues --    1.83356   1.83584   1.85720   1.86543   1.88143
 Alpha virt. eigenvalues --    1.88451   1.90530   1.90681   1.93101   1.93406
 Alpha virt. eigenvalues --    1.95478   1.95574   1.97401   1.99831   2.00888
 Alpha virt. eigenvalues --    2.02610   2.04007   2.07047   2.08837   2.12927
 Alpha virt. eigenvalues --    2.14219   2.16640   2.21562   2.21681   2.24110
 Alpha virt. eigenvalues --    2.24267   2.26320   2.27169   2.27515   2.29076
 Alpha virt. eigenvalues --    2.29596   2.32551   2.33484   2.33836   2.36481
 Alpha virt. eigenvalues --    2.36658   2.40009   2.42048   2.42351   2.43439
 Alpha virt. eigenvalues --    2.44721   2.44939   2.48154   2.51014   2.52258
 Alpha virt. eigenvalues --    2.53419   2.57390   2.61506   2.61573   2.63795
 Alpha virt. eigenvalues --    2.64744   2.66697   2.69204   2.70693   2.73525
 Alpha virt. eigenvalues --    2.73734   2.73867   2.75575   2.76103   2.78251
 Alpha virt. eigenvalues --    2.80194   2.80314   2.81111   2.82458   2.85269
 Alpha virt. eigenvalues --    2.86937   2.87343   2.91735   2.93097   2.95682
 Alpha virt. eigenvalues --    3.01850   3.07466   3.08999   3.09209   3.12691
 Alpha virt. eigenvalues --    3.14476   3.16800   3.19902   3.22524   3.23808
 Alpha virt. eigenvalues --    3.34528   3.36161   3.40522   3.41380   3.52218
 Alpha virt. eigenvalues --    3.53596   3.56252   3.63655   3.69340   3.73202
 Alpha virt. eigenvalues --    3.88315   3.93161   4.04588   4.07644   4.09914
 Alpha virt. eigenvalues --    4.20701   4.47548   4.81592   4.84944   9.73367
 Alpha virt. eigenvalues --    9.78786   9.81234   9.82575  10.54952  23.34969
 Alpha virt. eigenvalues --   23.59610  23.83055  23.85459  23.91972  23.95211
 Alpha virt. eigenvalues --   23.96664  24.01554  24.04236  24.06702  24.08934
 Alpha virt. eigenvalues --   24.15520  25.41116  25.77646  25.82422  25.89767
 Alpha virt. eigenvalues --   25.97547  26.12644  26.13990  26.21114  26.25011
 Alpha virt. eigenvalues --   26.48739  26.64661  26.86438  27.11304  27.41363
 Alpha virt. eigenvalues --   28.45657 215.73015 215.79120 215.81528 215.91037
 Alpha virt. eigenvalues --  216.86852
          Condensed to atoms (all electrons):
               1          2          3          4          5          6
     1  C   12.421928  -2.288060   0.107925  -2.096945  -2.622569   6.110603
     2  C   -2.288060  14.661004  -5.068056   2.993920   2.740635  -3.904529
     3  C    0.107925  -5.068056  12.909845  -1.441857  -2.309688   3.731158
     4  C   -2.096945   2.993920  -1.441857  11.369893   4.262748  -9.028437
     5  C   -2.622569   2.740635  -2.309688   4.262748  20.118863 -17.905782
     6  C    6.110603  -3.904529   3.731158  -9.028437 -17.905782  41.067620
     7  C    4.617057  -2.104973   0.245025  -1.250915  -2.288937   1.374155
     8  C   -2.230620  -0.395377  -1.098052  -0.222128  -0.110369  -1.944318
     9  C   -3.391796  -0.615389   0.541793  -0.237225  -0.849809  -1.421687
    10  C   -0.963444   0.669934  -0.598516   0.200161   0.444357  -0.443435
    11  C   -1.078949  -0.702070   0.426031  -0.288283  -0.819635  -0.293597
    12  C    1.155932  -2.268174   1.145259  -2.184223  -8.173888  10.795999
    13  H    0.070231   0.448629  -0.281640   0.017222   0.015377  -0.018477
    14  H    0.029653  -0.110292   0.436272  -0.024361  -0.000424   0.004045
    15  H    0.008394   0.065545  -0.058787   0.502582  -0.107626  -0.072369
    16  H    0.098883  -0.022593  -0.021887  -0.046615   0.310255   0.085716
    17  H    0.113522   0.058268  -0.026256   0.007410   0.009437   0.055709
    18  Cl  -1.220083   0.746606  -1.003479   0.997760   2.992943  -4.532629
    19  Cl  -2.595481   1.443341  -1.500653   3.026261  11.006771 -17.754825
    20  Cl   0.064701  -0.068379   0.057843  -0.046992  -0.306440   0.229851
    21  Cl  -0.011947  -0.035149  -0.022069   0.003615   0.024932  -0.008272
    22  Cl  -0.277805  -0.063620   0.060168  -0.008317  -0.027358  -0.124688
               7          8          9         10         11         12
     1  C    4.617057  -2.230620  -3.391796  -0.963444  -1.078949   1.155932
     2  C   -2.104973  -0.395377  -0.615389   0.669934  -0.702070  -2.268174
     3  C    0.245025  -1.098052   0.541793  -0.598516   0.426031   1.145259
     4  C   -1.250915  -0.222128  -0.237225   0.200161  -0.288283  -2.184223
     5  C   -2.288937  -0.110369  -0.849809   0.444357  -0.819635  -8.173888
     6  C    1.374155  -1.944318  -1.421687  -0.443435  -0.293597  10.795999
     7  C   18.038184  -1.420110  -5.833866   1.999180  -1.503801  -2.422266
     8  C   -1.420110  11.329594   3.650771  -5.589214   2.605191   2.297372
     9  C   -5.833866   3.650771  15.939992  -4.831385   2.055586   3.953578
    10  C    1.999180  -5.589214  -4.831385  23.613593  -4.425454  -6.508431
    11  C   -1.503801   2.605191   2.055586  -4.425454  14.377373  -1.379064
    12  C   -2.422266   2.297372   3.953578  -6.508431  -1.379064  39.491519
    13  H    0.021869   0.049286  -0.035116   0.012333  -0.019294   0.000435
    14  H    0.002553   0.008051   0.002633  -0.000062   0.000334   0.001537
    15  H   -0.001144   0.002406  -0.000146   0.000157  -0.000226  -0.002622
    16  H    0.013626   0.000862   0.000362  -0.000502   0.001309   0.024169
    17  H    0.130170   0.254716  -0.260248   0.049397  -0.070444  -0.020386
    18  Cl  -0.518603  -0.856209  -2.152884   2.410467  -0.190458 -17.211238
    19  Cl  -0.857869  -0.225828  -0.661208   1.190199  -0.726892 -16.259859
    20  Cl  -0.870224   0.520111   0.633401  -1.271773  -1.586022   4.475321
    21  Cl   0.354728  -0.562277  -0.643275   0.445956  -0.055420  -0.551530
    22  Cl  -1.110968   0.471216   0.320536  -0.436715   0.261678   0.163734
              13         14         15         16         17         18
     1  C    0.070231   0.029653   0.008394   0.098883   0.113522  -1.220083
     2  C    0.448629  -0.110292   0.065545  -0.022593   0.058268   0.746606
     3  C   -0.281640   0.436272  -0.058787  -0.021887  -0.026256  -1.003479
     4  C    0.017222  -0.024361   0.502582  -0.046615   0.007410   0.997760
     5  C    0.015377  -0.000424  -0.107626   0.310255   0.009437   2.992943
     6  C   -0.018477   0.004045  -0.072369   0.085716   0.055709  -4.532629
     7  C    0.021869   0.002553  -0.001144   0.013626   0.130170  -0.518603
     8  C    0.049286   0.008051   0.002406   0.000862   0.254716  -0.856209
     9  C   -0.035116   0.002633  -0.000146   0.000362  -0.260248  -2.152884
    10  C    0.012333  -0.000062   0.000157  -0.000502   0.049397   2.410467
    11  C   -0.019294   0.000334  -0.000226   0.001309  -0.070444  -0.190458
    12  C    0.000435   0.001537  -0.002622   0.024169  -0.020386 -17.211238
    13  H    0.579950  -0.007618  -0.000203   0.000060   0.006072   0.011502
    14  H   -0.007618   0.536274  -0.007463  -0.000273  -0.000017  -0.000628
    15  H   -0.000203  -0.007463   0.542512  -0.008652   0.000000   0.000299
    16  H    0.000060  -0.000273  -0.008652   0.535725  -0.000003   0.000190
    17  H    0.006072  -0.000017   0.000000  -0.000003   0.558825   0.024214
    18  Cl   0.011502  -0.000628   0.000299   0.000190   0.024214  32.322986
    19  Cl   0.016870   0.000944   0.009882  -0.097800   0.013829   7.090976
    20  Cl  -0.000633   0.000004  -0.000007   0.000163  -0.002047  -3.100020
    21  Cl   0.000423  -0.000001   0.000001  -0.000005   0.002620   0.408946
    22  Cl  -0.002004   0.000024  -0.000001   0.000006  -0.036431  -0.114676
              19         20         21         22
     1  C   -2.595481   0.064701  -0.011947  -0.277805
     2  C    1.443341  -0.068379  -0.035149  -0.063620
     3  C   -1.500653   0.057843  -0.022069   0.060168
     4  C    3.026261  -0.046992   0.003615  -0.008317
     5  C   11.006771  -0.306440   0.024932  -0.027358
     6  C  -17.754825   0.229851  -0.008272  -0.124688
     7  C   -0.857869  -0.870224   0.354728  -1.110968
     8  C   -0.225828   0.520111  -0.562277   0.471216
     9  C   -0.661208   0.633401  -0.643275   0.320536
    10  C    1.190199  -1.271773   0.445956  -0.436715
    11  C   -0.726892  -1.586022  -0.055420   0.261678
    12  C  -16.259859   4.475321  -0.551530   0.163734
    13  H    0.016870  -0.000633   0.000423  -0.002004
    14  H    0.000944   0.000004  -0.000001   0.000024
    15  H    0.009882  -0.000007   0.000001  -0.000001
    16  H   -0.097800   0.000163  -0.000005   0.000006
    17  H    0.013829  -0.002047   0.002620  -0.036431
    18  Cl   7.090976  -3.100020   0.408946  -0.114676
    19  Cl  35.182268  -1.753064   0.110227  -0.024457
    20  Cl  -1.753064  20.134092  -0.860566   0.088940
    21  Cl   0.110227  -0.860566  18.122743  -0.361984
    22  Cl  -0.024457   0.088940  -0.361984  17.678767
 Mulliken charges:
               1
     1  C   -0.021130
     2  C   -0.181222
     3  C   -0.230380
     4  C   -0.505275
     5  C   -0.403794
     6  C   -0.001814
     7  C   -0.612872
     8  C   -0.535073
     9  C   -0.164617
    10  C    0.033197
    11  C   -0.587892
    12  C   -0.523175
    13  H    0.114727
    14  H    0.128814
    15  H    0.127469
    16  H    0.127006
    17  H    0.131645
    18  Cl   0.894017
    19  Cl   0.366367
    20  Cl   0.661742
    21  Cl   0.638304
    22  Cl   0.543957
 Sum of Mulliken charges =  -0.00000
 Mulliken charges with hydrogens summed into heavy atoms:
               1
     1  C   -0.021130
     2  C   -0.066495
     3  C   -0.101566
     4  C   -0.377807
     5  C   -0.276787
     6  C   -0.001814
     7  C   -0.612872
     8  C   -0.403428
     9  C   -0.164617
    10  C    0.033197
    11  C   -0.587892
    12  C   -0.523175
    18  Cl   0.894017
    19  Cl   0.366367
    20  Cl   0.661742
    21  Cl   0.638304
    22  Cl   0.543957
 Electronic spatial extent (au):  <R**2>=           6420.8863
 Charge=             -0.0000 electrons
 Dipole moment (field-independent basis, Debye):
    X=             -4.5702    Y=             -1.2127    Z=              0.0000  Tot=              4.7284
 Quadrupole moment (field-independent basis, Debye-Ang):
   XX=           -132.6012   YY=           -122.6890   ZZ=           -134.7493
   XY=              1.7689   XZ=             -0.0000   YZ=              0.0000
 Traceless Quadrupole moment (field-independent basis, Debye-Ang):
   XX=             -2.5880   YY=              7.3242   ZZ=             -4.7361
   XY=              1.7689   XZ=             -0.0000   YZ=              0.0000
 Octapole moment (field-independent basis, Debye-Ang**2):
  XXX=            -38.9891  YYY=            -28.2547  ZZZ=             -0.0000  XYY=            -25.5541
  XXY=             -7.4883  XXZ=              0.0001  XZZ=             15.4220  YZZ=            -16.9775
  YYZ=              0.0001  XYZ=             -0.0001
 Hexadecapole moment (field-independent basis, Debye-Ang**3):
 XXXX=          -5588.3535 YYYY=          -2444.4722 ZZZZ=           -161.0717 XXXY=            -18.5091
 XXXZ=             -0.0001 YYYX=             33.1297 YYYZ=              0.0002 ZZZX=              0.0002
 ZZZY=             -0.0000 XXYY=          -1342.4920 XXZZ=          -1062.7521 YYZZ=           -475.3237
 XXYZ=              0.0003 YYXZ=             -0.0001 ZZXY=             36.5561
 N-N= 1.864577529627D+03 E-N=-1.026602578749D+04  KE= 2.760336516792D+03
 Calling FoFJK, ICntrl=      2127 FMM=F ISym2X=0 I1Cent= 0 IOpClX= 0 NMat=1 NMatS=1 NMatT=0.
 ***** Axes restored to original set *****
 -------------------------------------------------------------------
 Center     Atomic                   Forces (Hartrees/Bohr)
 Number     Number              X              Y              Z
 -------------------------------------------------------------------
      1        6           0.002755754   -0.029859012   -0.006515681
      2        6          -0.003469123    0.018240498    0.004568864
      3        6          -0.014586990   -0.000872827    0.004641937
      4        6          -0.008165448   -0.012846985    0.000277144
      5        6           0.005804810   -0.019707570   -0.005613549
      6        6           0.100475096   -0.006432331   -0.034310690
      7        6           0.022983841    0.007442985   -0.006174330
      8        6          -0.014367904   -0.003738878    0.004031403
      9        6           0.000953036    0.004633791    0.000556246
     10        6          -0.006134518   -0.007520943    0.000608595
     11        6           0.022312791    0.010215640   -0.005432479
     12        6           0.051766495   -0.105758415   -0.036916786
     13        1           0.006713997   -0.005013878   -0.003153678
     14        1           0.009137365    0.000153842   -0.002981451
     15        1           0.005254782    0.008913210   -0.000057219
     16        1          -0.006658272    0.010961169    0.004252239
     17        1           0.006565261   -0.005064157   -0.003114153
     18       17          -1.719582139   -2.706498596    0.058248777
     19       17           1.538718058    2.830042389    0.024540690
     20       17          -0.002961532    0.002636446    0.001470839
     21       17           0.002022223    0.003014475   -0.000100155
     22       17           0.000462420    0.007059149    0.001173438
 -------------------------------------------------------------------
 Cartesian Forces:  Max     2.830042389 RMS     0.559949745

 GradGradGradGradGradGradGradGradGradGradGradGradGradGradGradGradGradGrad
 Berny optimization.
 FormGI is forming the generalized inverse of G from B-inverse, IUseBI=4.
 Internal  Forces:  Max     3.118598545 RMS     0.292665273
 Search for a local minimum.
 Step number   1 out of a maximum of  129
 All quantities printed in internal units (Hartrees-Bohrs-Radians)
 Mixed Optimization -- RFO/linear search
 Second derivative matrix not updated -- first step.
 ITU=  0
     Eigenvalues ---    0.01035   0.01214   0.01489   0.01712   0.01738
     Eigenvalues ---    0.01829   0.02070   0.02070   0.02070   0.02070
     Eigenvalues ---    0.02070   0.02070   0.02070   0.02070   0.02070
     Eigenvalues ---    0.02070   0.02070   0.02070   0.03966   0.16000
     Eigenvalues ---    0.16000   0.16000   0.16000   0.16000   0.22000
     Eigenvalues ---    0.22592   0.23534   0.24501   0.25000   0.25000
     Eigenvalues ---    0.25000   0.25000   0.25000   0.25000   0.25000
     Eigenvalues ---    0.25000   0.28335   0.29044   0.29447   0.29539
     Eigenvalues ---    0.29539   0.29539   0.37230   0.37230   0.37230
     Eigenvalues ---    0.37230   0.37230   0.39999   0.40869   0.41376
     Eigenvalues ---    0.41631   0.44578   0.45130   0.45389   0.45389
     Eigenvalues ---    0.45389   0.45389   0.45389   0.45389  16.61567
 RFO step:  Lambda=-6.28377060D-01 EMin= 1.03510892D-02
 Linear search not attempted -- first point.
 Iteration  1 RMS(Cart)=  0.03332193 RMS(Int)=  0.00052272
 Iteration  2 RMS(Cart)=  0.00126520 RMS(Int)=  0.00023528
 Iteration  3 RMS(Cart)=  0.00000064 RMS(Int)=  0.00023528
 Variable       Old X    -DE/DX   Delta X   Delta X   Delta X     New X
                                 (Linear)    (Quad)   (Total)
    R1        2.64826   0.01870   0.00000   0.00270   0.00264   2.65090
    R2        2.64826   0.10243   0.00000   0.01715   0.01684   2.66510
    R3        2.91018   0.11879   0.00000  -0.01352  -0.01404   2.89614
    R4        2.64826  -0.00980   0.00000  -0.00676  -0.00675   2.64152
    R5        2.02201   0.00817   0.00000   0.00817   0.00817   2.03017
    R6        2.64826  -0.02790   0.00000  -0.00891  -0.00884   2.63943
    R7        2.02201   0.00961   0.00000   0.00961   0.00961   2.03161
    R8        2.64826  -0.02440   0.00000  -0.00797  -0.00791   2.64035
    R9        2.02201   0.01035   0.00000   0.01034   0.01034   2.03235
   R10        2.64826  -0.00642   0.00000  -0.00823  -0.00824   2.64002
   R11        2.02201   0.01349   0.00000   0.01348   0.01348   2.03549
   R12        3.32592   0.04355   0.00000   0.11811   0.11836   3.44428
   R13        2.64826   0.01502   0.00000  -0.00083  -0.00090   2.64736
   R14        2.64826   0.10083   0.00000   0.01561   0.01525   2.66351
   R15        2.64826  -0.01327   0.00000  -0.00998  -0.00997   2.63829
   R16        2.02201   0.00710   0.00000   0.00709   0.00709   2.02910
   R17        2.64826  -0.02357   0.00000  -0.00479  -0.00471   2.64355
   R18        3.32592  -0.00609   0.00000  -0.00660  -0.00660   3.31932
   R19        2.64826  -0.01929   0.00000  -0.00312  -0.00305   2.64521
   R20        3.32592  -0.00362   0.00000  -0.00392  -0.00392   3.32200
   R21        2.64826  -0.01244   0.00000  -0.01378  -0.01379   2.63447
   R22        3.32592   0.00321   0.00000   0.00348   0.00348   3.32940
   R23        3.32592   0.06531   0.00000   0.14171   0.14193   3.46785
   R24        2.23252   3.11860   0.00000   0.18086   0.18137   2.41389
    A1        2.09440  -0.08098   0.00000  -0.01137  -0.01108   2.08331
    A2        2.09440  -0.16675   0.00000  -0.00214  -0.00149   2.09291
    A3        2.09440   0.24773   0.00000   0.01350   0.01257   2.10696
    A4        2.09440   0.04720   0.00000   0.00680   0.00664   2.10104
    A5        2.09440  -0.01991   0.00000   0.00129   0.00137   2.09576
    A6        2.09440  -0.02730   0.00000  -0.00809  -0.00801   2.08639
    A7        2.09440   0.00749   0.00000   0.00089   0.00086   2.09526
    A8        2.09440  -0.00380   0.00000  -0.00051  -0.00050   2.09390
    A9        2.09440  -0.00369   0.00000  -0.00038  -0.00037   2.09403
   A10        2.09440  -0.00792   0.00000  -0.00131  -0.00128   2.09311
   A11        2.09440   0.00393   0.00000   0.00061   0.00060   2.09499
   A12        2.09440   0.00399   0.00000   0.00070   0.00069   2.09508
   A13        2.09440   0.02062   0.00000   0.00740   0.00734   2.10174
   A14        2.09440  -0.00953   0.00000  -0.00271  -0.00268   2.09171
   A15        2.09440  -0.01109   0.00000  -0.00469  -0.00466   2.08974
   A16        2.09440   0.01359   0.00000  -0.00242  -0.00248   2.09191
   A17        2.09440   0.07110   0.00000   0.03298   0.03282   2.12721
   A18        2.09440  -0.08469   0.00000  -0.03056  -0.03034   2.06406
   A19        2.09440  -0.16991   0.00000  -0.00565  -0.00497   2.08943
   A20        2.09440   0.24715   0.00000   0.01303   0.01207   2.10647
   A21        2.09440  -0.07724   0.00000  -0.00738  -0.00711   2.08729
   A22        2.09440   0.04652   0.00000   0.00588   0.00570   2.10009
   A23        2.09440  -0.01790   0.00000   0.00386   0.00395   2.09834
   A24        2.09440  -0.02862   0.00000  -0.00973  -0.00964   2.08475
   A25        2.09440   0.00921   0.00000   0.00300   0.00298   2.09737
   A26        2.09440  -0.01089   0.00000  -0.00866  -0.00865   2.08575
   A27        2.09440   0.00168   0.00000   0.00566   0.00567   2.10006
   A28        2.09440  -0.01423   0.00000  -0.00809  -0.00805   2.08635
   A29        2.09440   0.00672   0.00000   0.00359   0.00357   2.09797
   A30        2.09440   0.00751   0.00000   0.00449   0.00448   2.09887
   A31        2.09440   0.02542   0.00000   0.01286   0.01280   2.10720
   A32        2.09440  -0.00814   0.00000  -0.00123  -0.00120   2.09320
   A33        2.09440  -0.01728   0.00000  -0.01163  -0.01160   2.08279
   A34        2.09440   0.01031   0.00000  -0.00627  -0.00632   2.08807
   A35        2.09440   0.06508   0.00000   0.02627   0.02605   2.12044
   A36        2.09440  -0.07539   0.00000  -0.02000  -0.01973   2.07467
   A37        2.09440  -0.31546   0.00000  -0.04278  -0.04167   2.05273
   A38        2.09440  -0.31559   0.00000  -0.04299  -0.04184   2.05255
    D1        0.00000   0.00000   0.00000   0.00000   0.00000   0.00000
    D2        3.14159   0.00000   0.00000   0.00000   0.00000   3.14159
    D3       -3.14159   0.00000   0.00000   0.00000   0.00000  -3.14159
    D4       -0.00000   0.00000   0.00000   0.00000   0.00000  -0.00000
    D5       -0.00000  -0.00000   0.00000  -0.00000  -0.00000  -0.00000
    D6        3.14159  -0.00000   0.00000   0.00000   0.00000   3.14159
    D7        3.14159  -0.00000   0.00000  -0.00000  -0.00000   3.14159
    D8        0.00000  -0.00000   0.00000   0.00000   0.00000   0.00000
    D9       -0.00000  -0.00000   0.00000  -0.00000  -0.00000  -0.00000
   D10        3.14159  -0.00000   0.00000  -0.00000  -0.00000   3.14159
   D11        3.14159  -0.00000   0.00000  -0.00000  -0.00000   3.14159
   D12       -0.00000  -0.00000   0.00000  -0.00000  -0.00000  -0.00000
   D13        0.00000  -0.00000   0.00000   0.00000   0.00000   0.00000
   D14        3.14159  -0.00000   0.00000   0.00000   0.00000   3.14159
   D15       -3.14159   0.00000   0.00000  -0.00000  -0.00000  -3.14159
   D16        0.00000   0.00000   0.00000  -0.00000  -0.00000   0.00000
   D17       -0.00000  -0.00000   0.00000   0.00000   0.00000  -0.00000
   D18        3.14159   0.00000   0.00000  -0.00000  -0.00000   3.14159
   D19        3.14159  -0.00000   0.00000   0.00000   0.00000   3.14159
   D20        0.00000   0.00000   0.00000  -0.00000  -0.00000   0.00000
   D21        0.00000   0.00000   0.00000  -0.00000  -0.00000   0.00000
   D22       -3.14159   0.00000   0.00000  -0.00000  -0.00000  -3.14159
   D23       -3.14159  -0.00000   0.00000  -0.00000  -0.00000  -3.14159
   D24        0.00000   0.00000   0.00000  -0.00000  -0.00000   0.00000
   D25       -0.00000   0.00000   0.00000   0.00000   0.00000  -0.00000
   D26        3.14159   0.00000   0.00000   0.00000   0.00000   3.14159
   D27        3.14159  -0.00000   0.00000   0.00000   0.00000   3.14159
   D28       -0.00000   0.00000   0.00000  -0.00000  -0.00000  -0.00000
   D29        0.00001  -0.00000   0.00000  -0.00000  -0.00000   0.00001
   D30       -3.14158  -0.00000   0.00000  -0.00000  -0.00000  -3.14158
   D31        3.14159   0.00000   0.00000   0.00000   0.00000   3.14159
   D32        0.00000   0.00000   0.00000   0.00000   0.00000   0.00000
   D33        0.00000   0.00000   0.00000   0.00000   0.00000   0.00000
   D34       -3.14159   0.00000   0.00000  -0.00000  -0.00000  -3.14159
   D35       -3.14159  -0.00000   0.00000  -0.00000  -0.00000  -3.14159
   D36        0.00000  -0.00000   0.00000   0.00000   0.00000   0.00000
   D37       -0.00000  -0.00000   0.00000  -0.00000  -0.00000  -0.00000
   D38        3.14159  -0.00000   0.00000   0.00000   0.00000   3.14159
   D39       -0.00000  -0.00000   0.00000  -0.00000  -0.00000  -0.00000
   D40        3.14159  -0.00000   0.00000  -0.00000  -0.00000   3.14159
   D41        3.14159   0.00000   0.00000   0.00000   0.00000   3.14159
   D42       -0.00000   0.00000   0.00000   0.00000   0.00000  -0.00000
   D43       -0.00000  -0.00000   0.00000  -0.00000  -0.00000  -0.00000
   D44       -3.14159  -0.00000   0.00000  -0.00000  -0.00000  -3.14159
   D45        3.14159  -0.00000   0.00000   0.00000   0.00000   3.14159
   D46        0.00000   0.00000   0.00000  -0.00000  -0.00000   0.00000
   D47        0.00000   0.00000   0.00000  -0.00000  -0.00000   0.00000
   D48       -3.14159   0.00000   0.00000  -0.00000  -0.00000  -3.14159
   D49        3.14159  -0.00000   0.00000   0.00000   0.00000   3.14159
   D50        0.00000   0.00000   0.00000   0.00000   0.00000   0.00000
   D51        0.00000   0.00000   0.00000   0.00000   0.00000   0.00000
   D52       -3.14159   0.00000   0.00000  -0.00000  -0.00000  -3.14159
   D53        3.14159   0.00000   0.00000   0.00000   0.00000   3.14159
   D54       -0.00000   0.00000   0.00000  -0.00000  -0.00000  -0.00000
   D55        0.00001  -0.00000   0.00000  -0.00000  -0.00000   0.00001
   D56       -3.14158  -0.00000   0.00000  -0.00000  -0.00000  -3.14158
   D57       -0.00001   0.00000   0.00000   0.00000   0.00000  -0.00001
         Item               Value     Threshold  Converged?
 Maximum Force            3.118599     0.000450     NO 
 RMS     Force            0.292665     0.000300     NO 
 Maximum Displacement     0.197239     0.001800     NO 
 RMS     Displacement     0.032585     0.001200     NO 
 Predicted change in Energy=-3.367009D-01
 GradGradGradGradGradGradGradGradGradGradGradGradGradGradGradGradGradGrad

                          Input orientation:                          
 ---------------------------------------------------------------------
 Center     Atomic      Atomic             Coordinates (Angstroms)
 Number     Number       Type             X           Y           Z
 ---------------------------------------------------------------------
      1          6           0        0.894309    0.489160   -0.036665
      2          6           0        2.227882    0.515280   -0.471111
      3          6           0        2.944524    1.715379   -0.481822
      4          6           0        2.334192    2.898261   -0.058588
      5          6           0        1.006274    2.880804    0.375620
      6          6           0        0.282305    1.686070    0.389752
      7          6           0        0.118600   -0.832581   -0.029338
      8          6           0        0.747234   -2.009085   -0.457405
      9          6           0        0.052621   -3.220149   -0.456008
     10          6           0       -1.277882   -3.267028   -0.026468
     11          6           0       -1.906744   -2.091931    0.401409
     12          6           0       -1.221898   -0.877640    0.403837
     13          1           0        2.705369   -0.389740   -0.798391
     14          1           0        3.966244    1.727841   -0.816092
     15          1           0        2.885797    3.821463   -0.066930
     16          1           0        0.536868    3.793780    0.701732
     17          1           0        1.768096   -1.986441   -0.789480
     18         17           0       -2.095943    0.631398    0.975212
     19         17           0       -1.445758    1.730895    0.967489
     20         17           0       -3.582121   -2.139098    0.944521
     21         17           0       -2.153346   -4.791448   -0.024337
     22         17           0        0.861873   -4.682182   -0.997206
 ---------------------------------------------------------------------
                    Distance matrix (angstroms):
                    1          2          3          4          5
     1  C    0.000000
     2  C    1.402798   0.000000
     3  C    2.430053   1.397830   0.000000
     4  C    2.806690   2.420758   1.396725   0.000000
     5  C    2.429501   2.793740   2.418726   1.397215   0.000000
     6  C    1.410310   2.428395   2.801412   2.425006   1.397040
     7  C    1.532572   2.541842   3.831799   4.339226   3.839424
     8  C    2.537692   2.926590   4.324386   5.172962   4.967096
     9  C    3.826651   4.322664   5.720420   6.542052   6.230785
    10  C    4.339063   5.176287   6.546789   7.145551   6.570759
    11  C    3.834037   4.965277   6.229808   6.564994   5.763196
    12  C    2.557443   3.821877   4.986703   5.207402   4.369375
    13  H    2.152355   1.074322   2.142181   3.390580   3.868034
    14  H    3.402737   2.147375   1.075083   2.146459   3.392775
    15  H    3.882162   3.395152   2.147364   1.075472   2.147859
    16  H    3.404924   3.870872   3.393723   2.147188   1.077134
    17  H    2.731087   2.563469   3.896423   4.971416   5.062401
    18  Cl   3.160022   4.560789   5.357637   5.082667   3.878542
    19  Cl   2.833045   4.128307   4.623345   4.087003   2.772193
    20  Cl   5.282887   6.542620   7.712882   7.834792   6.824692
    21  Cl   6.096981   6.896096   8.278670   8.903415   8.307022
    22  Cl   5.259892   5.399664   6.747729   7.778935   7.687929
                    6          7          8          9         10
     6  C    0.000000
     7  C    2.558522   0.000000
     8  C    3.819425   1.400923   0.000000
     9  C    4.983879   2.426290   1.396125   0.000000
    10  C    5.209664   2.806547   2.422648   1.398907   0.000000
    11  C    4.366390   2.423536   2.790703   2.418088   1.399785
    12  C    2.972445   1.409470   2.428865   2.801978   2.428471
    13  H    3.404690   2.734762   2.563756   3.894292   4.974027
    14  H    3.876495   4.688188   4.945230   6.318917   7.285128
    15  H    3.398033   5.414694   6.222637   7.600168   8.220983
    16  H    2.145828   4.702407   5.921242   7.125311   7.326569
    17  H    4.133461   2.151754   1.073753   2.139180   3.391176
    18  Cl   2.666676   2.838408   4.136206   4.636716   4.107349
    19  Cl   1.822632   3.164220   4.563659   5.365101   5.098565
    20  Cl   5.465662   4.043603   4.552539   4.042462   2.743094
    21  Cl   6.932684   4.564471   4.042580   2.742556   1.757924
    22  Cl   6.543255   4.038397   2.729464   1.756510   2.742909
                   11         12         13         14         15
    11  C    0.000000
    12  C    1.394103   0.000000
    13  H    5.060490   4.136040   0.000000
    14  H    7.110904   5.932417   2.464603   0.000000
    15  H    7.626009   6.259101   4.278062   2.472218   0.000000
    16  H    6.379893   5.000417   4.945160   4.281648   2.471654
    17  H    3.864426   3.404924   1.851490   4.316070   5.958446
    18  Cl   2.789546   1.835108   5.219291   6.415690   6.006688
    19  Cl   3.891908   2.678109   4.984704   5.698327   4.919640
    20  Cl   1.761841   2.730251   6.755037   8.662032   8.853546
    21  Cl   2.743987   4.045840   6.601614   8.976491   9.978828
    22  Cl   4.041134   4.558461   4.675795   7.124487   8.790543
                   16         17         18         19         20
    16  H    0.000000
    17  H    6.095129   0.000000
    18  Cl   4.123973   4.989792   0.000000
    19  Cl   2.873487   5.218657   1.277378   0.000000
    20  Cl   7.226622   5.626267   3.144092   4.420568   0.000000
    21  Cl   9.026105   4.881723   5.514495   6.635161   3.164656
    22  Cl   8.650662   2.851562   6.393219   7.093147   5.476008
                   21         22
    21  Cl   0.000000
    22  Cl   3.170168   0.000000
 Stoichiometry    C12H5Cl5
 Framework group  C1[X(C12H5Cl5)]
 Deg. of freedom    60
 Full point group                 C1      NOp   1
 Largest Abelian subgroup         C1      NOp   1
 Largest concise Abelian subgroup C1      NOp   1
                         Standard orientation:                         
 ---------------------------------------------------------------------
 Center     Atomic      Atomic             Coordinates (Angstroms)
 Number     Number       Type             X           Y           Z
 ---------------------------------------------------------------------
      1          6           0       -1.896561    0.924488   -0.000000
      2          6           0       -2.354572    2.250410    0.000003
      3          6           0       -3.725189    2.524889    0.000005
      4          6           0       -4.648378    1.476766    0.000005
      5          6           0       -4.200418    0.153309   -0.000000
      6          6           0       -2.832508   -0.130489   -0.000002
      7          6           0       -0.391429    0.635780   -0.000002
      8          6           0        0.519770    1.699876   -0.000002
      9          6           0        1.893625    1.451508   -0.000002
     10          6           0        2.370319    0.136326   -0.000001
     11          6           0        1.460529   -0.927479   -0.000001
     12          6           0        0.086787   -0.690085   -0.000000
     13          1           0       -1.651660    3.062865    0.000005
     14          1           0       -4.068936    3.543536    0.000008
     15          1           0       -5.702856    1.688228    0.000007
     16          1           0       -4.913499   -0.653991   -0.000003
     17          1           0        0.166647    2.713903    0.000000
     18         17           0       -1.059953   -2.122777    0.000002
     19         17           0       -2.313599   -1.877694   -0.000007
     20         17           0        2.049537   -2.587947    0.000004
     21         17           0        4.100017   -0.177433    0.000001
     22         17           0        3.016850    2.801949   -0.000002
 ---------------------------------------------------------------------
 Rotational constants (GHZ):           0.4691527           0.2159493           0.1478805
 Standard basis: 6-311+G(d,p) (5D, 7F)
 There are   461 symmetry adapted cartesian basis functions of A   symmetry.
 There are   444 symmetry adapted basis functions of A   symmetry.
   444 basis functions,   737 primitive gaussians,   461 cartesian basis functions
    81 alpha electrons       81 beta electrons
       nuclear repulsion energy      1843.4513808888 Hartrees.
 NAtoms=   22 NActive=   22 NUniq=   22 SFac= 1.00D+00 NAtFMM=   60 NAOKFM=F Big=F
 Integral buffers will be    131072 words long.
 Raffenetti 2 integral format.
 Two-electron integral symmetry is turned on.
 One-electron integrals computed using PRISM.
 NBasis=   444 RedAO= T EigKep=  1.07D-06  NBF=   444
 NBsUse=   438 1.00D-06 EigRej=  6.57D-07 NBFU=   438
 Initial guess from the checkpoint file:  "/scratch/gour/Gau-26697.chk"
 B after Tr=     0.000000    0.000000   -0.000000
         Rot=    0.999994    0.000000   -0.000000    0.003367 Ang=   0.39 deg.
 ExpMin= 4.38D-02 ExpMax= 1.06D+05 ExpMxC= 3.62D+03 IAcc=3 IRadAn=         5 AccDes= 0.00D+00
 Harris functional with IExCor=  402 and IRadAn=       5 diagonalized for initial guess.
 HarFok:  IExCor=  402 AccDes= 0.00D+00 IRadAn=         5 IDoV= 1 UseB2=F ITyADJ=14
 ICtDFT=  3500011 ScaDFX=  1.000000  1.000000  1.000000  1.000000
 FoFCou: FMM=F IPFlag=           0 FMFlag=      100000 FMFlg1=           0
         NFxFlg=           0 DoJE=T BraDBF=F KetDBF=T FulRan=T
         wScrn=  0.000000 ICntrl=       500 IOpCl=  0 I1Cent=   200000004 NGrid=           0
         NMat0=    1 NMatS0=      1 NMatT0=    0 NMatD0=    1 NMtDS0=    0 NMtDT0=    0
 Petite list used in FoFCou.
 Requested convergence on RMS density matrix=1.00D-08 within  32 cycles.
 Requested convergence on MAX density matrix=1.00D-06.
 Requested convergence on             energy=1.00D-06.
 No special actions if energy rises.
 SCF Done:  E(RB3LYP) =  -2760.40237762     A.U. after   16 cycles
            NFock= 16  Conv=0.75D-08     -V/T= 2.0007
 QCSCF skips out because SCF is already converged.
 Calling FoFJK, ICntrl=      2127 FMM=F ISym2X=0 I1Cent= 0 IOpClX= 0 NMat=1 NMatS=1 NMatT=0.
 ***** Axes restored to original set *****
 -------------------------------------------------------------------
 Center     Atomic                   Forces (Hartrees/Bohr)
 Number     Number              X              Y              Z
 -------------------------------------------------------------------
      1        6          -0.001278590   -0.024287449   -0.004140186
      2        6          -0.002172548    0.013540823    0.003259027
      3        6          -0.009013773   -0.001334876    0.002719037
      4        6          -0.003802342   -0.006458615    0.000039495
      5        6          -0.000951565   -0.013550116   -0.002231223
      6        6           0.082799920   -0.017861637   -0.030633872
      7        6           0.016590212    0.009441621   -0.003692489
      8        6          -0.009414816   -0.002287036    0.002672272
      9        6           0.000776571    0.003081940    0.000322924
     10        6          -0.006183389   -0.007988413    0.000536908
     11        6           0.019327478    0.011184173   -0.004267025
     12        6           0.054366279   -0.083545539   -0.033601712
     13        1           0.004894079   -0.002665487   -0.002113044
     14        1           0.005737088   -0.000069605   -0.001903177
     15        1           0.003260835    0.005597522   -0.000023024
     16        1          -0.004147487    0.007329689    0.002743033
     17        1           0.004023525   -0.004557481   -0.002181615
     18       17          -1.112449762   -1.682838548    0.050467839
     19       17           0.960394553    1.788641520    0.019498495
     20       17          -0.004811201    0.001632344    0.001891636
     21       17           0.001700133    0.002254208   -0.000136821
     22       17           0.000354799    0.004740962    0.000773522
 -------------------------------------------------------------------
 Cartesian Forces:  Max     1.788641520 RMS     0.352818478

 GradGradGradGradGradGradGradGradGradGradGradGradGradGradGradGradGradGrad
 Berny optimization.
 Using GEDIIS/GDIIS optimizer.
 FormGI is forming the generalized inverse of G from B-inverse, IUseBI=4.
 Internal  Forces:  Max     1.970812870 RMS     0.184951905
 Search for a local minimum.
 Step number   2 out of a maximum of  129
 All quantities printed in internal units (Hartrees-Bohrs-Radians)
 Mixed Optimization -- RFO/linear search
 Update second derivatives using D2CorX and points    1    2
 DE= -5.10D-01 DEPred=-3.37D-01 R= 1.51D+00
 TightC=F SS=  1.41D+00  RLast= 2.77D-01 DXNew= 5.0454D-01 8.3175D-01
 Trust test= 1.51D+00 RLast= 2.77D-01 DXMaxT set to 5.05D-01
 ITU=  1  0
 Use linear search instead of GDIIS.
 Linear search step of   0.554 exceeds DXMaxT=   0.505 but not scaled.
 Quartic linear search produced a step of  2.00000.
 Iteration  1 RMS(Cart)=  0.04129998 RMS(Int)=  0.01673027
 Iteration  2 RMS(Cart)=  0.02403158 RMS(Int)=  0.00130489
 Iteration  3 RMS(Cart)=  0.00024885 RMS(Int)=  0.00129701
 Iteration  4 RMS(Cart)=  0.00000021 RMS(Int)=  0.00129701
 Variable       Old X    -DE/DX   Delta X   Delta X   Delta X     New X
                                 (Linear)    (Quad)   (Total)
    R1        2.65090   0.01263   0.00528   0.00000   0.00496   2.65586
    R2        2.66510   0.06065   0.03367   0.00000   0.03195   2.69705
    R3        2.89614   0.06179  -0.02807   0.00000  -0.03073   2.86541
    R4        2.64152  -0.00656  -0.01349   0.00000  -0.01342   2.62809
    R5        2.03017   0.00506   0.01634   0.00000   0.01634   2.04651
    R6        2.63943  -0.01733  -0.01767   0.00000  -0.01726   2.62216
    R7        2.03161   0.00604   0.01921   0.00000   0.01921   2.05082
    R8        2.64035  -0.01420  -0.01582   0.00000  -0.01549   2.62487
    R9        2.03235   0.00648   0.02068   0.00000   0.02068   2.05303
   R10        2.64002  -0.00544  -0.01648   0.00000  -0.01654   2.62348
   R11        2.03549   0.00885   0.02696   0.00000   0.02696   2.06245
   R12        3.44428   0.05351   0.23672   0.00000   0.23782   3.68210
   R13        2.64736   0.01051  -0.00180   0.00000  -0.00220   2.64516
   R14        2.66351   0.05970   0.03050   0.00000   0.02855   2.69206
   R15        2.63829  -0.00838  -0.01994   0.00000  -0.01987   2.61843
   R16        2.02910   0.00440   0.01418   0.00000   0.01418   2.04328
   R17        2.64355  -0.01479  -0.00942   0.00000  -0.00895   2.63460
   R18        3.31932  -0.00402  -0.01319   0.00000  -0.01319   3.30613
   R19        2.64521  -0.01106  -0.00610   0.00000  -0.00571   2.63950
   R20        3.32200  -0.00280  -0.00785   0.00000  -0.00785   3.31415
   R21        2.63447  -0.01019  -0.02758   0.00000  -0.02764   2.60683
   R22        3.32940   0.00511   0.00696   0.00000   0.00696   3.33636
   R23        3.46785   0.07444   0.28387   0.00000   0.28485   3.75270
   R24        2.41389   1.97081   0.36274   0.00000   0.36540   2.77930
    A1        2.08331  -0.04981  -0.02216   0.00000  -0.02065   2.06266
    A2        2.09291  -0.09800  -0.00298   0.00000   0.00060   2.09351
    A3        2.10696   0.14781   0.02514   0.00000   0.02005   2.12701
    A4        2.10104   0.02970   0.01328   0.00000   0.01241   2.11344
    A5        2.09576  -0.01166   0.00273   0.00000   0.00317   2.09893
    A6        2.08639  -0.01804  -0.01602   0.00000  -0.01558   2.07081
    A7        2.09526   0.00414   0.00173   0.00000   0.00160   2.09686
    A8        2.09390  -0.00222  -0.00100   0.00000  -0.00093   2.09297
    A9        2.09403  -0.00193  -0.00073   0.00000  -0.00067   2.09336
   A10        2.09311  -0.00609  -0.00257   0.00000  -0.00243   2.09068
   A11        2.09499   0.00313   0.00119   0.00000   0.00113   2.09612
   A12        2.09508   0.00297   0.00137   0.00000   0.00130   2.09638
   A13        2.10174   0.01402   0.01468   0.00000   0.01433   2.11607
   A14        2.09171  -0.00666  -0.00536   0.00000  -0.00519   2.08652
   A15        2.08974  -0.00736  -0.00932   0.00000  -0.00914   2.08060
   A16        2.09191   0.00804  -0.00497   0.00000  -0.00525   2.08666
   A17        2.12721   0.05590   0.06564   0.00000   0.06456   2.19177
   A18        2.06406  -0.06394  -0.06067   0.00000  -0.05931   2.00475
   A19        2.08943  -0.10064  -0.00993   0.00000  -0.00617   2.08325
   A20        2.10647   0.14738   0.02415   0.00000   0.01896   2.12543
   A21        2.08729  -0.04674  -0.01422   0.00000  -0.01279   2.07450
   A22        2.10009   0.02877   0.01140   0.00000   0.01041   2.11050
   A23        2.09834  -0.00959   0.00789   0.00000   0.00839   2.10673
   A24        2.08475  -0.01918  -0.01929   0.00000  -0.01880   2.06596
   A25        2.09737   0.00547   0.00596   0.00000   0.00584   2.10322
   A26        2.08575  -0.00714  -0.01730   0.00000  -0.01724   2.06851
   A27        2.10006   0.00167   0.01134   0.00000   0.01139   2.11146
   A28        2.08635  -0.01093  -0.01610   0.00000  -0.01587   2.07047
   A29        2.09797   0.00484   0.00714   0.00000   0.00703   2.10500
   A30        2.09887   0.00609   0.00895   0.00000   0.00884   2.10771
   A31        2.10720   0.01885   0.02560   0.00000   0.02526   2.13246
   A32        2.09320  -0.00643  -0.00240   0.00000  -0.00223   2.09097
   A33        2.08279  -0.01241  -0.02321   0.00000  -0.02304   2.05976
   A34        2.08807   0.00458  -0.01264   0.00000  -0.01285   2.07522
   A35        2.12044   0.05078   0.05210   0.00000   0.05070   2.17115
   A36        2.07467  -0.05536  -0.03945   0.00000  -0.03785   2.03682
   A37        2.05273  -0.20196  -0.08334   0.00000  -0.07706   1.97567
   A38        2.05255  -0.19991  -0.08368   0.00000  -0.07722   1.97534
    D1        0.00000   0.00000   0.00000   0.00000  -0.00000   0.00000
    D2        3.14159   0.00000   0.00000   0.00000   0.00000   3.14159
    D3       -3.14159   0.00000   0.00000   0.00000   0.00000  -3.14159
    D4       -0.00000   0.00000   0.00000   0.00000   0.00000  -0.00000
    D5       -0.00000  -0.00000  -0.00000   0.00000  -0.00000  -0.00000
    D6        3.14159  -0.00000   0.00000   0.00000   0.00000   3.14159
    D7        3.14159  -0.00000  -0.00000   0.00000  -0.00000   3.14159
    D8        0.00000  -0.00000   0.00000   0.00000   0.00000   0.00000
    D9       -0.00000  -0.00000  -0.00000   0.00000  -0.00000  -0.00000
   D10        3.14159  -0.00000  -0.00000   0.00000  -0.00000   3.14159
   D11        3.14159  -0.00000  -0.00000   0.00000  -0.00000   3.14159
   D12       -0.00000  -0.00000  -0.00000   0.00000  -0.00000  -0.00000
   D13        0.00000  -0.00000   0.00000   0.00000   0.00000   0.00000
   D14        3.14159  -0.00000   0.00000   0.00000   0.00000   3.14159
   D15       -3.14159   0.00000  -0.00000   0.00000  -0.00000  -3.14159
   D16        0.00000   0.00000  -0.00000   0.00000  -0.00000   0.00000
   D17       -0.00000  -0.00000   0.00000   0.00000   0.00000  -0.00000
   D18        3.14159   0.00000  -0.00000   0.00000  -0.00000   3.14159
   D19        3.14159  -0.00000   0.00000   0.00000   0.00000   3.14159
   D20        0.00000   0.00000  -0.00000   0.00000  -0.00000   0.00000
   D21        0.00000   0.00000  -0.00000   0.00000  -0.00000   0.00000
   D22       -3.14159   0.00000  -0.00000   0.00000  -0.00000  -3.14159
   D23       -3.14159  -0.00000  -0.00000   0.00000  -0.00000  -3.14159
   D24        0.00000   0.00000  -0.00000   0.00000  -0.00000   0.00000
   D25       -0.00000   0.00000   0.00000   0.00000   0.00000  -0.00000
   D26        3.14159   0.00000   0.00000   0.00000   0.00000   3.14159
   D27        3.14159  -0.00000   0.00000   0.00000   0.00000   3.14159
   D28       -0.00000   0.00000  -0.00000   0.00000  -0.00000  -0.00000
   D29        0.00001  -0.00000  -0.00000   0.00000  -0.00000   0.00001
   D30       -3.14158  -0.00000  -0.00000   0.00000  -0.00000  -3.14158
   D31        3.14159   0.00000   0.00000   0.00000   0.00000   3.14159
   D32        0.00000   0.00000   0.00000   0.00000   0.00000   0.00000
   D33        0.00000   0.00000   0.00000   0.00000   0.00000   0.00000
   D34       -3.14159   0.00000  -0.00000   0.00000  -0.00000  -3.14159
   D35       -3.14159  -0.00000  -0.00000   0.00000  -0.00000  -3.14159
   D36        0.00000  -0.00000   0.00000   0.00000   0.00000   0.00000
   D37       -0.00000  -0.00000  -0.00000   0.00000  -0.00000  -0.00000
   D38        3.14159  -0.00000   0.00000   0.00000   0.00000   3.14159
   D39       -0.00000  -0.00000  -0.00000   0.00000  -0.00000  -0.00000
   D40        3.14159  -0.00000  -0.00000   0.00000  -0.00000   3.14159
   D41        3.14159   0.00000   0.00000   0.00000   0.00000   3.14159
   D42       -0.00000   0.00000   0.00000   0.00000   0.00000  -0.00000
   D43       -0.00000  -0.00000  -0.00000   0.00000  -0.00000  -0.00000
   D44       -3.14159  -0.00000  -0.00000   0.00000  -0.00000  -3.14159
   D45        3.14159  -0.00000   0.00000   0.00000   0.00000   3.14159
   D46        0.00000   0.00000  -0.00000   0.00000  -0.00000   0.00000
   D47        0.00000   0.00000   0.00000   0.00000  -0.00000   0.00000
   D48       -3.14159   0.00000  -0.00000   0.00000  -0.00000  -3.14159
   D49        3.14159  -0.00000   0.00000   0.00000   0.00000   3.14159
   D50        0.00000   0.00000   0.00000   0.00000   0.00000   0.00000
   D51        0.00000   0.00000   0.00000   0.00000   0.00000   0.00000
   D52       -3.14159   0.00000  -0.00000   0.00000  -0.00000  -3.14159
   D53        3.14159   0.00000   0.00000   0.00000   0.00000   3.14159
   D54       -0.00000   0.00000  -0.00000   0.00000  -0.00000  -0.00000
   D55        0.00001  -0.00000  -0.00000   0.00000  -0.00000   0.00001
   D56       -3.14158  -0.00000  -0.00000   0.00000  -0.00000  -3.14158
   D57       -0.00001   0.00000   0.00000   0.00000   0.00000  -0.00001
         Item               Value     Threshold  Converged?
 Maximum Force            1.970813     0.000450     NO 
 RMS     Force            0.184952     0.000300     NO 
 Maximum Displacement     0.380856     0.001800     NO 
 RMS     Displacement     0.060236     0.001200     NO 
 Predicted change in Energy=-3.679973D-01
 GradGradGradGradGradGradGradGradGradGradGradGradGradGradGradGradGradGrad

[...]
                 (A) (A) (A) (A) (A) (A) (A) (A) (A)
       Virtual   (A) (A) (A) (A) (A) (A) (A) (A) (A) (A) (A) (A)
                 (A) (A) (A) (A) (A) (A) (A) (A) (A) (A) (A) (A)
                 (A) (A) (A) (A) (A) (A) (A) (A) (A) (A) (A) (A)
                 (A) (A) (A) (A) (A) (A) (A) (A) (A) (A) (A) (A)
                 (A) (A) (A) (A) (A) (A) (A) (A) (A) (A) (A) (A)
                 (A) (A) (A) (A) (A) (A) (A) (A) (A) (A) (A) (A)
                 (A) (A) (A) (A) (A) (A) (A) (A) (A) (A) (A) (A)
                 (A) (A) (A) (A) (A) (A) (A) (A) (A) (A) (A) (A)
                 (A) (A) (A) (A) (A) (A) (A) (A) (A) (A) (A) (A)
                 (A) (A) (A) (A) (A) (A) (A) (A) (A) (A) (A) (A)
                 (A) (A) (A) (A) (A) (A) (A) (A) (A) (A) (A) (A)
                 (A) (A) (A) (A) (A) (A) (A) (A) (A) (A) (A) (A)
                 (A) (A) (A) (A) (A) (A) (A) (A) (A) (A) (A) (A)
                 (A) (A) (A) (A) (A) (A) (A) (A) (A) (A) (A) (A)
                 (A) (A) (A) (A) (A) (A) (A) (A) (A) (A) (A) (A)
                 (A) (A) (A) (A) (A) (A) (A) (A) (A) (A) (A) (A)
                 (A) (A) (A) (A) (A) (A) (A) (A) (A) (A) (A) (A)
                 (A) (A) (A) (A) (A) (A) (A) (A) (A) (A) (A) (A)
                 (A) (A) (A) (A) (A) (A) (A) (A) (A) (A) (A) (A)
                 (A) (A) (A) (A) (A) (A) (A) (A) (A) (A) (A) (A)
                 (A) (A) (A) (A) (A) (A) (A) (A) (A) (A) (A) (A)
                 (A) (A) (A) (A) (A) (A) (A) (A) (A) (A) (A) (A)
                 (A) (A) (A) (A) (A) (A) (A) (A) (A) (A) (A) (A)
                 (A) (A) (A) (A) (A) (A) (A) (A) (A) (A) (A) (A)
                 (A) (A) (A) (A) (A) (A) (A) (A) (A) (A) (A) (A)
                 (A) (A) (A) (A) (A) (A) (A) (A) (A) (A) (A) (A)
                 (A) (A) (A) (A) (A) (A) (A) (A) (A) (A) (A) (A)
                 (A) (A) (A) (A) (A) (A) (A) (A) (A) (A) (A) (A)
                 (A) (A) (A) (A) (A) (A) (A) (A) (A) (A) (A) (A)
                 (A) (A) (A) (A) (A) (A) (A) (A) (A) (A) (A) (A)
 The electronic state is 1-A.
 Alpha  occ. eigenvalues -- -101.57683-101.57615-101.57516-101.57287-101.56470
 Alpha  occ. eigenvalues --  -10.27817 -10.27738 -10.27240 -10.27130 -10.25721
 Alpha  occ. eigenvalues --  -10.23125 -10.22095 -10.21733 -10.20453 -10.20392
 Alpha  occ. eigenvalues --  -10.20257 -10.19940  -9.49147  -9.49082  -9.48972
 Alpha  occ. eigenvalues --   -9.48762  -9.47943  -7.25650  -7.25585  -7.25462
 Alpha  occ. eigenvalues --   -7.25251  -7.24628  -7.24564  -7.24543  -7.24477
 Alpha  occ. eigenvalues --   -7.24450  -7.24403  -7.24391  -7.24244  -7.24170
 Alpha  occ. eigenvalues --   -7.23428  -7.23385  -0.95848  -0.91907  -0.90969
 Alpha  occ. eigenvalues --   -0.89080  -0.86487  -0.85642  -0.84663  -0.79809
 Alpha  occ. eigenvalues --   -0.76126  -0.75177  -0.73928  -0.65976  -0.63550
 Alpha  occ. eigenvalues --   -0.63153  -0.60737  -0.54999  -0.54277  -0.52430
 Alpha  occ. eigenvalues --   -0.49927  -0.49272  -0.47811  -0.46589  -0.46021
 Alpha  occ. eigenvalues --   -0.45614  -0.45036  -0.42951  -0.42599  -0.40837
 Alpha  occ. eigenvalues --   -0.39915  -0.38718  -0.38518  -0.37401  -0.35390
 Alpha  occ. eigenvalues --   -0.35329  -0.34953  -0.34745  -0.33305  -0.33165
 Alpha  occ. eigenvalues --   -0.32653  -0.31500  -0.28314  -0.27382  -0.26691
 Alpha  occ. eigenvalues --   -0.26377
 Alpha virt. eigenvalues --   -0.05817  -0.05535  -0.04558  -0.04178  -0.03728
 Alpha virt. eigenvalues --   -0.00895  -0.00136   0.00135   0.01216   0.01866
 Alpha virt. eigenvalues --    0.02226   0.02346   0.02787   0.03447   0.04111
 Alpha virt. eigenvalues --    0.04447   0.05101   0.05409   0.05955   0.06287
 Alpha virt. eigenvalues --    0.06659   0.07828   0.08115   0.08176   0.08446
 Alpha virt. eigenvalues --    0.08967   0.09428   0.09571   0.10072   0.10219
 Alpha virt. eigenvalues --    0.10573   0.11003   0.11329   0.12300   0.12468
 Alpha virt. eigenvalues --    0.12683   0.12733   0.12857   0.13838   0.14161
 Alpha virt. eigenvalues --    0.14623   0.14694   0.15043   0.15634   0.15975
 Alpha virt. eigenvalues --    0.16404   0.16528   0.16906   0.17730   0.18361
 Alpha virt. eigenvalues --    0.18563   0.18666   0.19270   0.19385   0.19548
 Alpha virt. eigenvalues --    0.19688   0.20186   0.20361   0.20796   0.21081
 Alpha virt. eigenvalues --    0.21307   0.21742   0.22569   0.22774   0.22934
 Alpha virt. eigenvalues --    0.23841   0.23988   0.24739   0.24922   0.25517
 Alpha virt. eigenvalues --    0.26026   0.26196   0.26466   0.27234   0.27523
 Alpha virt. eigenvalues --    0.27769   0.28035   0.28557   0.28767   0.29266
 Alpha virt. eigenvalues --    0.29348   0.29766   0.30328   0.31358   0.31635
 Alpha virt. eigenvalues --    0.32292   0.32402   0.32956   0.34968   0.36221
 Alpha virt. eigenvalues --    0.40387   0.42123   0.43119   0.43667   0.44364
 Alpha virt. eigenvalues --    0.44862   0.45130   0.45592   0.46489   0.46641
 Alpha virt. eigenvalues --    0.47718   0.48158   0.48729   0.49112   0.50140
 Alpha virt. eigenvalues --    0.50546   0.51128   0.51286   0.51782   0.53393
 Alpha virt. eigenvalues --    0.54343   0.55349   0.56264   0.56687   0.57305
 Alpha virt. eigenvalues --    0.57738   0.58000   0.58724   0.59920   0.61203
 Alpha virt. eigenvalues --    0.61376   0.61477   0.62153   0.63463   0.63900
 Alpha virt. eigenvalues --    0.64566   0.65109   0.65655   0.67072   0.67234
 Alpha virt. eigenvalues --    0.68056   0.68627   0.69253   0.69647   0.70732
 Alpha virt. eigenvalues --    0.71672   0.71765   0.72871   0.76264   0.78251
 Alpha virt. eigenvalues --    0.79043   0.81032   0.81574   0.81905   0.82218
 Alpha virt. eigenvalues --    0.82647   0.83364   0.84106   0.84482   0.84574
 Alpha virt. eigenvalues --    0.84726   0.85046   0.85442   0.85679   0.86239
 Alpha virt. eigenvalues --    0.87058   0.87869   0.88426   0.88902   0.89449
 Alpha virt. eigenvalues --    0.90296   0.90983   0.91452   0.92781   0.93703
 Alpha virt. eigenvalues --    0.94151   0.94476   0.94955   0.95835   0.95975
 Alpha virt. eigenvalues --    0.96709   0.97369   0.98482   0.98987   0.99685
 Alpha virt. eigenvalues --    0.99841   1.01591   1.02756   1.03624   1.03914
 Alpha virt. eigenvalues --    1.05822   1.07165   1.08672   1.10787   1.13661
 Alpha virt. eigenvalues --    1.15542   1.17023   1.19043   1.19928   1.22100
 Alpha virt. eigenvalues --    1.23828   1.24905   1.27018   1.27509   1.27979
 Alpha virt. eigenvalues --    1.28947   1.29855   1.30942   1.31298   1.33065
 Alpha virt. eigenvalues --    1.36884   1.38804   1.39167   1.41900   1.44533
 Alpha virt. eigenvalues --    1.47692   1.48509   1.49669   1.52509   1.54594
 Alpha virt. eigenvalues --    1.55373   1.56953   1.58398   1.61578   1.62910
 Alpha virt. eigenvalues --    1.64830   1.65613   1.65686   1.68202   1.69729
 Alpha virt. eigenvalues --    1.71920   1.72976   1.76244   1.77569   1.79309
 Alpha virt. eigenvalues --    1.81323   1.82684   1.83555   1.84482   1.85004
 Alpha virt. eigenvalues --    1.86200   1.86882   1.90205   1.92239   1.93269
 Alpha virt. eigenvalues --    1.93930   1.95139   1.97162   1.99856   2.02469
 Alpha virt. eigenvalues --    2.03353   2.04645   2.06260   2.07438   2.12645
 Alpha virt. eigenvalues --    2.14058   2.20099   2.22140   2.22857   2.24765
 Alpha virt. eigenvalues --    2.25522   2.27287   2.28485   2.28643   2.29311
 Alpha virt. eigenvalues --    2.31148   2.32118   2.34899   2.35853   2.37951
 Alpha virt. eigenvalues --    2.38646   2.39046   2.41972   2.42593   2.43900
 Alpha virt. eigenvalues --    2.47201   2.49077   2.49923   2.52492   2.54460
 Alpha virt. eigenvalues --    2.55804   2.57752   2.59647   2.60798   2.63002
 Alpha virt. eigenvalues --    2.66688   2.67827   2.68364   2.70252   2.70650
 Alpha virt. eigenvalues --    2.71139   2.73157   2.75033   2.75404   2.78163
 Alpha virt. eigenvalues --    2.78460   2.80963   2.82773   2.83814   2.84400
 Alpha virt. eigenvalues --    2.84974   2.88557   2.90626   2.98448   2.99432
 Alpha virt. eigenvalues --    3.06802   3.08764   3.09630   3.11714   3.14433
 Alpha virt. eigenvalues --    3.14931   3.17276   3.21252   3.23692   3.27209
 Alpha virt. eigenvalues --    3.33260   3.37474   3.38801   3.51444   3.51733
 Alpha virt. eigenvalues --    3.55644   3.64724   3.67330   3.75006   3.84179
 Alpha virt. eigenvalues --    3.92222   4.01696   4.03185   4.06529   4.13010
 Alpha virt. eigenvalues --    4.32982   4.80836   4.82261   9.74173   9.79082
 Alpha virt. eigenvalues --    9.80940   9.81810   9.83848  23.33614  23.57488
 Alpha virt. eigenvalues --   23.79932  23.85349  23.89875  23.92276  23.94947
 Alpha virt. eigenvalues --   23.97842  24.03651  24.06408  24.12137  24.16811
 Alpha virt. eigenvalues --   25.77042  25.80623  25.85880  25.90047  25.96946
 Alpha virt. eigenvalues --   26.08509  26.10281  26.17773  26.24444  26.36051
 Alpha virt. eigenvalues --   26.47523  26.59319  26.69698  26.79210  26.98524
 Alpha virt. eigenvalues --  215.73113 215.78607 215.80756 215.82105 215.84138
          Condensed to atoms (all electrons):
               1          2          3          4          5          6
     1  C   35.263543  -6.887669  -1.493228  -3.558506  -4.803841  -6.252777
     2  C   -6.887669  35.878117  -4.845781   2.667051 -14.644741  -6.823196
     3  C   -1.493228  -4.845781  10.468769  -0.355273   3.940134  -3.059678
     4  C   -3.558506   2.667051  -0.355273   7.831754   0.832495  -0.194648
     5  C   -4.803841 -14.644741   3.940134   0.832495  31.010158  -6.748155
     6  C   -6.252777  -6.823196  -3.059678  -0.194648  -6.748155  43.025196
     7  C    2.353807  -1.021258   0.354848  -0.905441  -0.393690  -5.416052
     8  C    4.627468   1.079555  -0.167692   0.035577  -0.866157  -2.154257
     9  C   -1.827794   0.380271   0.246979  -0.044503  -0.076263  -0.280209
    10  C   -2.137132  -0.474954  -0.081710   0.009184   0.272887   0.850724
    11  C   -1.479413  -0.507469   0.078464  -0.049985   0.142653  -0.961304
    12  C   -9.234579  -0.639304   0.837106  -0.445623   0.451480  -4.150191
    13  H    0.033831   0.293883  -0.051293  -0.020939   0.017225  -0.103127
    14  H   -0.012138   0.016644   0.342312   0.020940  -0.032883   0.012065
    15  H    0.043928  -0.055904   0.048660   0.329162   0.027816  -0.050745
    16  H    0.119904   0.024739  -0.039217  -0.051770   0.261763   0.037466
    17  H    0.085494  -0.034450  -0.010632   0.006469   0.020396   0.106947
    18  Cl  -0.681957   0.599051   0.116727  -0.059891  -0.335472  -0.170238
    19  Cl   1.083581   1.697431  -0.189211   0.095918  -2.417555  -0.975095
    20  Cl  -0.023236  -0.028887   0.005105  -0.001929   0.006361  -0.048755
    21  Cl  -0.074786   0.034285   0.001577  -0.000301  -0.010846  -0.077378
    22  Cl  -0.218014  -0.029162   0.021493  -0.004716   0.026724  -0.021897
               7          8          9         10         11         12
     1  C    2.353807   4.627468  -1.827794  -2.137132  -1.479413  -9.234579
     2  C   -1.021258   1.079555   0.380271  -0.474954  -0.507469  -0.639304
     3  C    0.354848  -0.167692   0.246979  -0.081710   0.078464   0.837106
     4  C   -0.905441   0.035577  -0.044503   0.009184  -0.049985  -0.445623
     5  C   -0.393690  -0.866157  -0.076263   0.272887   0.142653   0.451480
     6  C   -5.416052  -2.154257  -0.280209   0.850724  -0.961304  -4.150191
     7  C   29.212052  -0.544690  -7.479518   3.796593  -1.749377  -9.053108
     8  C   -0.544690  32.746489  -5.317422  -9.387187   8.171418 -20.463212
     9  C   -7.479518  -5.317422  21.220270  -6.020817  -3.742230   9.574236
    10  C    3.796593  -9.387187  -6.020817  24.061546  -2.797637  -1.467315
    11  C   -1.749377   8.171418  -3.742230  -2.797637  15.063394  -6.012837
    12  C   -9.053108 -20.463212   9.574236  -1.467315  -6.012837  45.835259
    13  H    0.101973   0.017918  -0.022399   0.006066   0.012627   0.069637
    14  H    0.002058  -0.000978  -0.000441   0.000034   0.000004   0.001969
    15  H    0.007518  -0.000683  -0.000175   0.000022   0.000091   0.001037
    16  H    0.005972  -0.000755  -0.000908   0.000116  -0.000174   0.001618
    17  H    0.053636   0.327185  -0.079948  -0.023862  -0.037653  -0.050379
    18  Cl  -2.207411  -1.366787   0.969132  -0.513510  -0.291614   2.215806
    19  Cl  -0.679027   0.388537   0.199988  -0.217580  -0.065529  -0.533555
    20  Cl  -0.080073   0.555571  -0.115373  -0.483148  -0.144297  -0.173372
    21  Cl   0.159610  -0.136372  -0.968938   0.371524   0.659906  -0.610394
    22  Cl  -0.759597  -0.477621   0.090355  -0.039526  -0.275786   0.858539
              13         14         15         16         17         18
     1  C    0.033831  -0.012138   0.043928   0.119904   0.085494  -0.681957
     2  C    0.293883   0.016644  -0.055904   0.024739  -0.034450   0.599051
     3  C   -0.051293   0.342312   0.048660  -0.039217  -0.010632   0.116727
     4  C   -0.020939   0.020940   0.329162  -0.051770   0.006469  -0.059891
     5  C    0.017225  -0.032883   0.027816   0.261763   0.020396  -0.335472
     6  C   -0.103127   0.012065  -0.050745   0.037466   0.106947  -0.170238
     7  C    0.101973   0.002058   0.007518   0.005972   0.053636  -2.207411
     8  C    0.017918  -0.000978  -0.000683  -0.000755   0.327185  -1.366787
     9  C   -0.022399  -0.000441  -0.000175  -0.000908  -0.079948   0.969132
    10  C    0.006066   0.000034   0.000022   0.000116  -0.023862  -0.513510
    11  C    0.012627   0.000004   0.000091  -0.000174  -0.037653  -0.291614
    12  C    0.069637   0.001969   0.001037   0.001618  -0.050379   2.215806
    13  H    0.535927  -0.007153  -0.000246   0.000053  -0.000469  -0.010273
    14  H   -0.007153   0.529772  -0.007632  -0.000202   0.000004  -0.000589
    15  H   -0.000246  -0.007632   0.528142  -0.007802  -0.000004  -0.000308
    16  H    0.000053  -0.000202  -0.007802   0.511278   0.000005  -0.001260
    17  H   -0.000469   0.000004  -0.000004   0.000005   0.507052  -0.002411
    18  Cl  -0.010273  -0.000589  -0.000308  -0.001260  -0.002411  18.383717
    19  Cl  -0.003379   0.001125   0.000090  -0.011303  -0.010156   0.154504
    20  Cl   0.000542   0.000001   0.000000  -0.000007   0.000641  -0.310454
    21  Cl   0.000118  -0.000000   0.000000  -0.000000  -0.001160  -0.024656
    22  Cl   0.000130  -0.000002   0.000000  -0.000012  -0.007322   0.017326
              19         20         21         22
     1  C    1.083581  -0.023236  -0.074786  -0.218014
     2  C    1.697431  -0.028887   0.034285  -0.029162
     3  C   -0.189211   0.005105   0.001577   0.021493
     4  C    0.095918  -0.001929  -0.000301  -0.004716
     5  C   -2.417555   0.006361  -0.010846   0.026724
     6  C   -0.975095  -0.048755  -0.077378  -0.021897
     7  C   -0.679027  -0.080073   0.159610  -0.759597
     8  C    0.388537   0.555571  -0.136372  -0.477621
     9  C    0.199988  -0.115373  -0.968938   0.090355
    10  C   -0.217580  -0.483148   0.371524  -0.039526
    11  C   -0.065529  -0.144297   0.659906  -0.275786
    12  C   -0.533555  -0.173372  -0.610394   0.858539
    13  H   -0.003379   0.000542   0.000118   0.000130
    14  H    0.001125   0.000001  -0.000000  -0.000002
    15  H    0.000090   0.000000   0.000000   0.000000
    16  H   -0.011303  -0.000007  -0.000000  -0.000012
    17  H   -0.010156   0.000641  -0.001160  -0.007322
    18  Cl   0.154504  -0.310454  -0.024656   0.017326
    19  Cl  18.098658  -0.006039   0.010865  -0.010283
    20  Cl  -0.006039  17.459094  -0.227641   0.000079
    21  Cl   0.010865  -0.227641  17.469952  -0.199024
    22  Cl  -0.010283   0.000079  -0.199024  17.466146
 Mulliken charges:
               1
     1  C    1.073514
     2  C   -0.678253
     3  C   -0.168458
     4  C   -0.135022
     5  C   -0.680488
     6  C   -0.544694
     7  C    0.241174
     8  C   -1.065906
     9  C   -0.704291
    10  C    0.275682
    11  C   -0.013251
    12  C   -1.012817
    13  H    0.129349
    14  H    0.135090
    15  H    0.137030
    16  H    0.150495
    17  H    0.150618
    18  Cl   0.520569
    19  Cl   0.388016
    20  Cl   0.615816
    21  Cl   0.623659
    22  Cl   0.562168
 Sum of Mulliken charges =  -0.00000
 Mulliken charges with hydrogens summed into heavy atoms:
               1
     1  C    1.073514
     2  C   -0.548905
     3  C   -0.033368
     4  C    0.002008
     5  C   -0.529994
     6  C   -0.544694
     7  C    0.241174
     8  C   -0.915288
     9  C   -0.704291
    10  C    0.275682
    11  C   -0.013251
    12  C   -1.012817
    18  Cl   0.520569
    19  Cl   0.388016
    20  Cl   0.615816
    21  Cl   0.623659
    22  Cl   0.562168
 Electronic spatial extent (au):  <R**2>=           6461.3775
 Charge=             -0.0000 electrons
 Dipole moment (field-independent basis, Debye):
    X=             -2.8736    Y=              1.1107    Z=              1.5650  Tot=              3.4555
 Quadrupole moment (field-independent basis, Debye-Ang):
   XX=           -121.7889   YY=           -134.6104   ZZ=           -130.1199
   XY=             -3.1383   XZ=             -4.0913   YZ=              1.6311
 Traceless Quadrupole moment (field-independent basis, Debye-Ang):
   XX=              7.0508   YY=             -5.7707   ZZ=             -1.2802
   XY=             -3.1383   XZ=             -4.0913   YZ=              1.6311
 Octapole moment (field-independent basis, Debye-Ang**2):
  XXX=            -53.4887  YYY=            -14.2899  ZZZ=              1.7881  XYY=             16.3200
  XXY=              1.8663  XXZ=              6.3037  XZZ=             -1.4891  YZZ=             -0.9198
  YYZ=             -4.5796  XYZ=             -4.3640
 Hexadecapole moment (field-independent basis, Debye-Ang**3):
 XXXX=          -5191.8563 YYYY=          -1955.6399 ZZZZ=           -838.7987 XXXY=            -44.1029
 XXXZ=            -26.4385 YYYX=             34.1932 YYYZ=            -10.8441 ZZZX=            -22.7683
 ZZZY=              9.9211 XXYY=          -1314.4073 XXZZ=          -1062.6617 YYZZ=           -497.6121
 XXYZ=             14.5926 YYXZ=              7.2323 ZZXY=             -7.7211
 N-N= 1.765667768974D+03 E-N=-1.006827693295D+04  KE= 2.754118415396D+03
 1\1\GINC-LOCALHOST\FOpt\RB3LYP\6-311+G(d,p)\C12H5Cl5\GOUR\16-Mar-2022\
 0\\# opt b3lyp/6-311+g(d,p) scf=xqc\\Title Card Required\\0,1\C,0.8475
 753806,0.4879974834,0.0334353794\C,2.146260894,0.4838963369,0.55611083
 38\C,2.9059482864,1.6483625039,0.6103057152\C,2.3732497666,2.844540348
 ,0.1351874198\C,1.0865668998,2.8734189928,-0.394406246\C,0.3369467442,
 1.7013476583,-0.4414384971\C,0.0711655112,-0.7854427306,-0.0321937273\
 C,0.2850964924,-1.6545619046,-1.099441156\C,-0.4003457093,-2.858603588
 7,-1.1960853885\C,-1.3256198132,-3.2270208936,-0.214357533\C,-1.549295
 7003,-2.363164699,0.8706441639\C,-0.8509079892,-1.1505811029,0.9564298
 152\H,2.5538692282,-0.4487164025,0.9291555627\H,3.9075946444,1.6206017
 048,1.0224735834\H,2.9557675215,3.7576878518,0.1726933567\H,0.66114802
 34,3.7945503514,-0.7715192315\H,0.99135043,-1.3850586878,-1.8734025669
 \Cl,-1.1183830015,-0.080980514,2.3068888978\Cl,-1.2805758798,1.7702426
 197,-1.1254711253\Cl,-2.6890629773,-2.8043114447,2.1051634957\Cl,-2.18
 30201904,-4.7319194039,-0.3337780815\Cl,-0.0768314808,-3.8892780491,-2
 .5666634976\\Version=EM64L-G16RevB.01\State=1-A\HF=-2761.5106928\RMSD=
 9.379e-09\RMSF=7.468e-06\Dipole=1.1652313,0.700319,0.005508\Quadrupole
 =3.2231311,1.2328852,-4.4560163,4.7315045,1.052693,-0.4312748\PG=C01 [
 X(C12H5Cl5)]\\@


 THE DIFFICULTY IN SCIENCE IS OFTEN NOT SO MUCH HOW
 TO MAKE A DISCOVERY BUT RATHER TO KNOW ONE HAS MADE IT.

                                                   -- J. D. BERNAL
 Job cpu time:       0 days 21 hours 19 minutes 42.1 seconds.
 Elapsed time:       0 days  5 hours 20 minutes 51.2 seconds.
 File lengths (MBytes):  RWF=    133 Int=      0 D2E=      0 Chk=     20 Scr=      1
 Normal termination of Gaussian 16 at Wed Mar 16 05:39:20 2022.
