 Entering Gaussian System, Link 0=g16
 Input=2,2prime,4,4prime,5,5prime-Hexachlorobiphenyl.gjf
 Output=2,2prime,4,4prime,5,5prime-Hexachlorobiphenyl.log
 Initial command:
 /opt/g16/l1.exe "/scratch/gour/Gau-104808.inp" -scrdir="/scratch/gour/"
 Entering Link 1 = /opt/g16/l1.exe PID=    104809.
  
 Copyright (c) 1988-2017, Gaussian, Inc.  All Rights Reserved.
  
 This is part of the Gaussian(R) 16 program.  It is based on
 the Gaussian(R) 09 system (copyright 2009, Gaussian, Inc.),
 the Gaussian(R) 03 system (copyright 2003, Gaussian, Inc.),
 the Gaussian(R) 98 system (copyright 1998, Gaussian, Inc.),
 the Gaussian(R) 94 system (copyright 1995, Gaussian, Inc.),
 the Gaussian 92(TM) system (copyright 1992, Gaussian, Inc.),
 the Gaussian 90(TM) system (copyright 1990, Gaussian, Inc.),
 the Gaussian 88(TM) system (copyright 1988, Gaussian, Inc.),
 the Gaussian 86(TM) system (copyright 1986, Carnegie Mellon
 University), and the Gaussian 82(TM) system (copyright 1983,
 Carnegie Mellon University). Gaussian is a federally registered
 trademark of Gaussian, Inc.
  
 This software contains proprietary and confidential information,
 including trade secrets, belonging to Gaussian, Inc.
  
 This software is provided under written license and may be
 used, copied, transmitted, or stored only in accord with that
 written license.
  
 The following legend is applicable only to US Government
 contracts under FAR:
  
                    RESTRICTED RIGHTS LEGEND
  
 Use, reproduction and disclosure by the US Government is
 subject to restrictions as set forth in subparagraphs (a)
 and (c) of the Commercial Computer Software - Restricted
 Rights clause in FAR 52.227-19.
  
 Gaussian, Inc.
 340 Quinnipiac St., Bldg. 40, Wallingford CT 06492
  
  
 ---------------------------------------------------------------
 Warning -- This program may not be used in any manner that
 competes with the business of Gaussian, Inc. or will provide
 assistance to any competitor of Gaussian, Inc.  The licensee
 of this program is prohibited from giving any competitor of
 Gaussian, Inc. access to this program.  By using this program,
 the user acknowledges that Gaussian, Inc. is engaged in the
 business of creating and licensing software in the field of
 computational chemistry and represents and warrants to the
 licensee that it is not a competitor of Gaussian, Inc. and that
 it will not use this program in any manner prohibited above.
 ---------------------------------------------------------------
  

 Cite this work as:
 Gaussian 16, Revision B.01,
 M. J. Frisch, G. W. Trucks, H. B. Schlegel, G. E. Scuseria, 
 M. A. Robb, J. R. Cheeseman, G. Scalmani, V. Barone, 
 G. A. Petersson, H. Nakatsuji, X. Li, M. Caricato, A. V. Marenich, 
 J. Bloino, B. G. Janesko, R. Gomperts, B. Mennucci, H. P. Hratchian, 
 J. V. Ortiz, A. F. Izmaylov, J. L. Sonnenberg, D. Williams-Young, 
 F. Ding, F. Lipparini, F. Egidi, J. Goings, B. Peng, A. Petrone, 
 T. Henderson, D. Ranasinghe, V. G. Zakrzewski, J. Gao, N. Rega, 
 G. Zheng, W. Liang, M. Hada, M. Ehara, K. Toyota, R. Fukuda, 
 J. Hasegawa, M. Ishida, T. Nakajima, Y. Honda, O. Kitao, H. Nakai, 
 T. Vreven, K. Throssell, J. A. Montgomery, Jr., J. E. Peralta, 
 F. Ogliaro, M. J. Bearpark, J. J. Heyd, E. N. Brothers, K. N. Kudin, 
 V. N. Staroverov, T. A. Keith, R. Kobayashi, J. Normand, 
 K. Raghavachari, A. P. Rendell, J. C. Burant, S. S. Iyengar, 
 J. Tomasi, M. Cossi, J. M. Millam, M. Klene, C. Adamo, R. Cammi, 
 J. W. Ochterski, R. L. Martin, K. Morokuma, O. Farkas, 
 J. B. Foresman, and D. J. Fox, Gaussian, Inc., Wallingford CT, 2016.
 
 ******************************************
 Gaussian 16:  EM64L-G16RevB.01 20-Dec-2017
                17-Mar-2022 
 ******************************************
 %mem=10GB
 %nprocshared=4
 Will use up to    4 processors via shared memory.
 --------------------------------
 # opt b3lyp/6-311+g(d,p) scf=xqc
 --------------------------------
 1/18=20,19=15,26=3,38=1/1,3;
 2/9=110,12=2,17=6,18=5,40=1/2;
 3/5=4,6=6,7=111,11=2,25=1,30=1,71=1,74=-5/1,2,3;
 4//1;
 5/5=2,8=3,13=1,38=5/2,8;
 6/7=2,8=2,9=2,10=2,28=1/1;
 7//1,2,3,16;
 1/18=20,19=15,26=3/3(2);
 2/9=110/2;
 99//99;
 2/9=110/2;
 3/5=4,6=6,7=111,11=2,25=1,30=1,71=1,74=-5/1,2,3;
 4/5=5,16=3,69=1/1;
 5/5=2,8=3,13=1,38=5/2,8;
 7//1,2,3,16;
 1/18=20,19=15,26=3/3(-5);
 2/9=110/2;
 6/7=2,8=2,9=2,10=2,19=2,28=1/1;
 99/9=1/99;
 -------------------
 Title Card Required
 -------------------
 Symbolic Z-matrix:
 Charge =  0 Multiplicity = 1
 C                     1.0016   -0.24439  -0.00285 
 C                     2.33398  -0.21451  -0.4362 
 C                     3.04187   0.99494  -0.44227 
 C                     2.41738   2.17451  -0.015 
 C                     1.085     2.14462   0.41835 
 C                     0.37711   0.93517   0.42442 
 C                     0.22369  -1.57346   0.00382 
 C                     0.84818  -2.75303  -0.42345 
 C                     0.14029  -3.96248  -0.41738 
 C                    -1.19209  -3.99236   0.01597 
 C                    -1.81658  -2.8128    0.44325 
 C                    -1.10869  -1.60335   0.43717 
 H                     2.81079  -1.11513  -0.76243 
 H                     0.60819   3.04525   0.74458 
 H                     1.86548  -2.73021  -0.75432 
 H                    -2.83388  -2.83562   0.77412 
 Cl                   -1.89297  -0.12195   0.97378 
 Cl                   -1.29621   0.89764   0.96866 
 Cl                   -2.08113  -5.5113    0.0236 
 Cl                    3.30642   3.69344  -0.02262 
 Cl                    0.92457  -5.44388  -0.95399 
 Cl                    4.71519   1.03248  -0.9865 
 

 GradGradGradGradGradGradGradGradGradGradGradGradGradGradGradGradGradGrad
 Berny optimization.
 Initialization pass.
                           ----------------------------
                           !    Initial Parameters    !
                           ! (Angstroms and Degrees)  !
 --------------------------                            --------------------------
 ! Name  Definition              Value          Derivative Info.                !
 --------------------------------------------------------------------------------
 ! R1    R(1,2)                  1.4014         estimate D2E/DX2                !
 ! R2    R(1,6)                  1.4014         estimate D2E/DX2                !
 ! R3    R(1,7)                  1.54           estimate D2E/DX2                !
 ! R4    R(2,3)                  1.4014         estimate D2E/DX2                !
 ! R5    R(2,13)                 1.07           estimate D2E/DX2                !
 ! R6    R(3,4)                  1.4014         estimate D2E/DX2                !
 ! R7    R(3,22)                 1.76           estimate D2E/DX2                !
 ! R8    R(4,5)                  1.4014         estimate D2E/DX2                !
 ! R9    R(4,20)                 1.76           estimate D2E/DX2                !
 ! R10   R(5,6)                  1.4014         estimate D2E/DX2                !
 ! R11   R(5,14)                 1.07           estimate D2E/DX2                !
 ! R12   R(6,18)                 1.76           estimate D2E/DX2                !
 ! R13   R(7,8)                  1.4014         estimate D2E/DX2                !
 ! R14   R(7,12)                 1.4014         estimate D2E/DX2                !
 ! R15   R(8,9)                  1.4014         estimate D2E/DX2                !
 ! R16   R(8,15)                 1.07           estimate D2E/DX2                !
 ! R17   R(9,10)                 1.4014         estimate D2E/DX2                !
 ! R18   R(9,21)                 1.76           estimate D2E/DX2                !
 ! R19   R(10,11)                1.4014         estimate D2E/DX2                !
 ! R20   R(10,19)                1.76           estimate D2E/DX2                !
 ! R21   R(11,12)                1.4014         estimate D2E/DX2                !
 ! R22   R(11,16)                1.07           estimate D2E/DX2                !
 ! R23   R(12,17)                1.76           estimate D2E/DX2                !
 ! R24   R(17,18)                1.1814         estimate D2E/DX2                !
 ! A1    A(2,1,6)              120.0            estimate D2E/DX2                !
 ! A2    A(2,1,7)              120.0            estimate D2E/DX2                !
 ! A3    A(6,1,7)              120.0            estimate D2E/DX2                !
 ! A4    A(1,2,3)              120.0            estimate D2E/DX2                !
 ! A5    A(1,2,13)             120.0            estimate D2E/DX2                !
 ! A6    A(3,2,13)             120.0            estimate D2E/DX2                !
 ! A7    A(2,3,4)              120.0            estimate D2E/DX2                !
 ! A8    A(2,3,22)             120.0            estimate D2E/DX2                !
 ! A9    A(4,3,22)             120.0            estimate D2E/DX2                !
 ! A10   A(3,4,5)              120.0            estimate D2E/DX2                !
 ! A11   A(3,4,20)             120.0            estimate D2E/DX2                !
 ! A12   A(5,4,20)             120.0            estimate D2E/DX2                !
 ! A13   A(4,5,6)              120.0            estimate D2E/DX2                !
 ! A14   A(4,5,14)             120.0            estimate D2E/DX2                !
 ! A15   A(6,5,14)             120.0            estimate D2E/DX2                !
 ! A16   A(1,6,5)              120.0            estimate D2E/DX2                !
 ! A17   A(1,6,18)             120.0            estimate D2E/DX2                !
 ! A18   A(5,6,18)             120.0            estimate D2E/DX2                !
 ! A19   A(1,7,8)              120.0            estimate D2E/DX2                !
 ! A20   A(1,7,12)             120.0            estimate D2E/DX2                !
 ! A21   A(8,7,12)             120.0            estimate D2E/DX2                !
 ! A22   A(7,8,9)              120.0            estimate D2E/DX2                !
 ! A23   A(7,8,15)             120.0            estimate D2E/DX2                !
 ! A24   A(9,8,15)             120.0            estimate D2E/DX2                !
 ! A25   A(8,9,10)             120.0            estimate D2E/DX2                !
 ! A26   A(8,9,21)             120.0            estimate D2E/DX2                !
 ! A27   A(10,9,21)            120.0            estimate D2E/DX2                !
 ! A28   A(9,10,11)            120.0            estimate D2E/DX2                !
 ! A29   A(9,10,19)            120.0            estimate D2E/DX2                !
 ! A30   A(11,10,19)           120.0            estimate D2E/DX2                !
 ! A31   A(10,11,12)           120.0            estimate D2E/DX2                !
 ! A32   A(10,11,16)           120.0            estimate D2E/DX2                !
 ! A33   A(12,11,16)           120.0            estimate D2E/DX2                !
 ! A34   A(7,12,11)            120.0            estimate D2E/DX2                !
 ! A35   A(7,12,17)            120.0            estimate D2E/DX2                !
 ! A36   A(11,12,17)           120.0            estimate D2E/DX2                !
 ! A37   A(12,17,18)           120.0            estimate D2E/DX2                !
 ! A38   A(6,18,17)            120.0            estimate D2E/DX2                !
 ! D1    D(6,1,2,3)              0.0001         estimate D2E/DX2                !
 ! D2    D(6,1,2,13)           180.0            estimate D2E/DX2                !
 ! D3    D(7,1,2,3)           -180.0            estimate D2E/DX2                !
 ! D4    D(7,1,2,13)            -0.0001         estimate D2E/DX2                !
 ! D5    D(2,1,6,5)             -0.0001         estimate D2E/DX2                !
 ! D6    D(2,1,6,18)           180.0            estimate D2E/DX2                !
 ! D7    D(7,1,6,5)            180.0            estimate D2E/DX2                !
 ! D8    D(7,1,6,18)             0.0            estimate D2E/DX2                !
 ! D9    D(2,1,7,8)             -0.0001         estimate D2E/DX2                !
 ! D10   D(2,1,7,12)           179.9998         estimate D2E/DX2                !
 ! D11   D(6,1,7,8)            179.9999         estimate D2E/DX2                !
 ! D12   D(6,1,7,12)            -0.0002         estimate D2E/DX2                !
 ! D13   D(1,2,3,4)              0.0            estimate D2E/DX2                !
 ! D14   D(1,2,3,22)           180.0            estimate D2E/DX2                !
 ! D15   D(13,2,3,4)          -179.9999         estimate D2E/DX2                !
 ! D16   D(13,2,3,22)            0.0001         estimate D2E/DX2                !
 ! D17   D(2,3,4,5)             -0.0001         estimate D2E/DX2                !
 ! D18   D(2,3,4,20)           180.0            estimate D2E/DX2                !
 ! D19   D(22,3,4,5)           179.9999         estimate D2E/DX2                !
 ! D20   D(22,3,4,20)            0.0            estimate D2E/DX2                !
 ! D21   D(3,4,5,6)              0.0001         estimate D2E/DX2                !
 ! D22   D(3,4,5,14)          -179.9999         estimate D2E/DX2                !
 ! D23   D(20,4,5,6)          -180.0            estimate D2E/DX2                !
 ! D24   D(20,4,5,14)            0.0            estimate D2E/DX2                !
 ! D25   D(4,5,6,1)              0.0            estimate D2E/DX2                !
 ! D26   D(4,5,6,18)           179.9999         estimate D2E/DX2                !
 ! D27   D(14,5,6,1)           180.0            estimate D2E/DX2                !
 ! D28   D(14,5,6,18)           -0.0001         estimate D2E/DX2                !
 ! D29   D(1,6,18,17)            0.0006         estimate D2E/DX2                !
 ! D30   D(5,6,18,17)         -179.9994         estimate D2E/DX2                !
 ! D31   D(1,7,8,9)            179.9999         estimate D2E/DX2                !
 ! D32   D(1,7,8,15)             0.0001         estimate D2E/DX2                !
 ! D33   D(12,7,8,9)             0.0001         estimate D2E/DX2                !
 ! D34   D(12,7,8,15)         -179.9998         estimate D2E/DX2                !
 ! D35   D(1,7,12,11)         -179.9999         estimate D2E/DX2                !
 ! D36   D(1,7,12,17)            0.0            estimate D2E/DX2                !
 ! D37   D(8,7,12,11)           -0.0001         estimate D2E/DX2                !
 ! D38   D(8,7,12,17)          179.9999         estimate D2E/DX2                !
 ! D39   D(7,8,9,10)             0.0            estimate D2E/DX2                !
 ! D40   D(7,8,9,21)           180.0            estimate D2E/DX2                !
 ! D41   D(15,8,9,10)          179.9998         estimate D2E/DX2                !
 ! D42   D(15,8,9,21)           -0.0002         estimate D2E/DX2                !
 ! D43   D(8,9,10,11)            0.0            estimate D2E/DX2                !
 ! D44   D(8,9,10,19)         -179.9999         estimate D2E/DX2                !
 ! D45   D(21,9,10,11)         180.0            estimate D2E/DX2                !
 ! D46   D(21,9,10,19)           0.0001         estimate D2E/DX2                !
 ! D47   D(9,10,11,12)           0.0            estimate D2E/DX2                !
 ! D48   D(9,10,11,16)        -179.9998         estimate D2E/DX2                !
 ! D49   D(19,10,11,12)        179.9999         estimate D2E/DX2                !
 ! D50   D(19,10,11,16)          0.0001         estimate D2E/DX2                !
 ! D51   D(10,11,12,7)           0.0            estimate D2E/DX2                !
 ! D52   D(10,11,12,17)       -179.9999         estimate D2E/DX2                !
 ! D53   D(16,11,12,7)         179.9999         estimate D2E/DX2                !
 ! D54   D(16,11,12,17)         -0.0001         estimate D2E/DX2                !
 ! D55   D(7,12,17,18)           0.0005         estimate D2E/DX2                !
 ! D56   D(11,12,17,18)       -179.9995         estimate D2E/DX2                !
 ! D57   D(12,17,18,6)          -0.0008         estimate D2E/DX2                !
 --------------------------------------------------------------------------------
 Trust Radius=3.00D-01 FncErr=1.00D-07 GrdErr=1.00D-06 EigMax=2.50D+02 EigMin=1.00D-04
 Number of steps in this run=    129 maximum allowed number of steps=    132.
 GradGradGradGradGradGradGradGradGradGradGradGradGradGradGradGradGradGrad

                          Input orientation:                          
 ---------------------------------------------------------------------
 Center     Atomic      Atomic             Coordinates (Angstroms)
 Number     Number       Type             X           Y           Z
 ---------------------------------------------------------------------
      1          6           0        1.001596   -0.244394   -0.002851
      2          6           0        2.333978   -0.214508   -0.436198
      3          6           0        3.041871    0.994943   -0.442270
      4          6           0        2.417384    2.174508   -0.014995
      5          6           0        1.085002    2.144623    0.418350
      6          6           0        0.377108    0.935172    0.424422
      7          6           0        0.223692   -1.573461    0.003823
      8          6           0        0.848179   -2.753026   -0.423452
      9          6           0        0.140286   -3.962477   -0.417378
     10          6           0       -1.192094   -3.992364    0.015972
     11          6           0       -1.816581   -2.812799    0.443247
     12          6           0       -1.108688   -1.603347    0.437173
     13          1           0        2.810788   -1.115132   -0.762430
     14          1           0        0.608191    3.045247    0.744581
     15          1           0        1.865482   -2.730207   -0.754322
     16          1           0       -2.833882   -2.835618    0.774122
     17         17           0       -1.892973   -0.121948    0.973785
     18         17           0       -1.296212    0.897639    0.968656
     19         17           0       -2.081127   -5.511298    0.023603
     20         17           0        3.306418    3.693442   -0.022621
     21         17           0        0.924571   -5.443878   -0.953987
     22         17           0        4.715192    1.032476   -0.986504
 ---------------------------------------------------------------------
                    Distance matrix (angstroms):
                    1          2          3          4          5
     1  C    0.000000
     2  C    1.401400   0.000000
     3  C    2.427296   1.401400   0.000000
     4  C    2.802800   2.427296   1.401400   0.000000
     5  C    2.427296   2.802800   2.427296   1.401400   0.000000
     6  C    1.401400   2.427296   2.802800   2.427296   1.401400
     7  C    1.540000   2.548270   3.838989   4.342800   3.838989
     8  C    2.548270   2.941400   4.342800   5.187469   4.975106
     9  C    3.838989   4.342800   5.744200   6.558176   6.235992
    10  C    4.342800   5.187469   6.558176   7.145600   6.558176
    11  C    3.838989   4.975106   6.235992   6.558176   5.744200
    12  C    2.548270   3.813607   4.975106   5.187469   4.342800
    13  H    2.146700   1.070000   2.146700   3.396345   3.872800
    14  H    3.396345   3.872800   3.396345   2.146700   1.070000
    15  H    2.736837   2.578650   3.918930   4.990735   5.074276
    16  H    4.693509   5.919617   7.118798   7.300676   6.347206
    17  Cl   3.057342   4.456874   5.254079   4.983028   3.783409
    18  Cl   2.743718   4.048303   4.562800   4.048303   2.743718
    19  Cl   6.102800   6.910901   8.294174   8.905600   8.294174
    20  Cl   4.562800   4.048303   2.743718   1.760000   2.743718
    21  Cl   5.286324   5.440665   6.797295   7.819846   7.713260
    22  Cl   4.048303   2.743718   1.760000   2.743718   4.048303
                    6          7          8          9         10
     6  C    0.000000
     7  C    2.548270   0.000000
     8  C    3.813607   1.401400   0.000000
     9  C    4.975106   2.427296   1.401400   0.000000
    10  C    5.187469   2.802800   2.427296   1.401400   0.000000
    11  C    4.342800   2.427296   2.802800   2.427296   1.401400
    12  C    2.941400   1.401400   2.427296   2.802800   2.427296
    13  H    3.396345   2.736837   2.578650   3.918930   4.990735
    14  H    2.146700   4.693509   5.919617   7.118798   7.300676
    15  H    4.127917   2.146700   1.070000   2.146700   3.396345
    16  H    4.965039   3.396345   3.872800   3.396345   2.146700
    17  Cl   2.563702   2.743718   4.048303   4.562800   4.048303
    18  Cl   1.760000   3.057342   4.456874   5.254079   4.983028
    19  Cl   6.910901   4.562800   4.048303   2.743718   1.760000
    20  Cl   4.048303   6.102800   6.910901   8.294174   8.905600
    21  Cl   6.549198   4.048303   2.743718   1.760000   2.743718
    22  Cl   4.562800   5.286324   5.440665   6.797295   7.819846
                   11         12         13         14         15
    11  C    0.000000
    12  C    1.401400   0.000000
    13  H    5.074276   4.127917   0.000000
    14  H    6.347206   4.965039   4.942800   0.000000
    15  H    3.872800   3.396345   1.871400   6.097816   0.000000
    16  H    1.070000   2.146700   6.097816   6.814200   4.942800
    17  Cl   2.743718   1.760000   5.111382   4.042212   4.890332
    18  Cl   3.783409   2.563702   4.890332   2.879094   5.111382
    19  Cl   2.743718   4.048303   6.623817   8.998151   4.890332
    20  Cl   8.294174   6.910901   4.890332   2.879094   6.623817
    21  Cl   4.048303   4.562800   4.725732   8.663168   2.879094
    22  Cl   7.713260   6.549198   2.879094   4.890332   4.725732
                   16         17         18         19         20
    16  H    0.000000
    17  Cl   2.879094   0.000000
    18  Cl   4.042212   1.181400   0.000000
    19  Cl   2.879094   5.475705   6.525618   0.000000
    20  Cl   8.998151   6.525618   5.475705  10.665600   0.000000
    21  Cl   4.890332   6.322800   6.988795   3.161400   9.488480
    22  Cl   8.663168   6.988795   6.322800   9.488480   3.161400
                   21         22
    21  Cl   0.000000
    22  Cl   7.504200   0.000000
 Stoichiometry    C12H4Cl6
 Framework group  C1[X(C12H4Cl6)]
 Deg. of freedom    60
 Full point group                 C1      NOp   1
 Largest Abelian subgroup         C1      NOp   1
 Largest concise Abelian subgroup C1      NOp   1
                         Standard orientation:                         
 ---------------------------------------------------------------------
 Center     Atomic      Atomic             Coordinates (Angstroms)
 Number     Number       Type             X           Y           Z
 ---------------------------------------------------------------------
      1          6           0       -0.770000    0.000000    0.000002
      2          6           0       -1.470700   -1.213648    0.000001
      3          6           0       -2.872100   -1.213648   -0.000000
      4          6           0       -3.572800    0.000000   -0.000001
      5          6           0       -2.872100    1.213648    0.000003
      6          6           0       -1.470700    1.213648    0.000004
      7          6           0        0.770000    0.000000    0.000002
      8          6           0        1.470700   -1.213648    0.000003
      9          6           0        2.872100   -1.213648    0.000002
     10          6           0        3.572800    0.000000   -0.000000
     11          6           0        2.872100    1.213648   -0.000002
     12          6           0        1.470700    1.213648   -0.000001
     13          1           0       -0.935700   -2.140295   -0.000001
     14          1           0       -3.407100    2.140295    0.000004
     15          1           0        0.935700   -2.140295    0.000002
     16          1           0        3.407100    2.140295   -0.000006
     17         17           0        0.590700    2.737853   -0.000004
     18         17           0       -0.590700    2.737853    0.000006
     19         17           0        5.332800    0.000000   -0.000004
     20         17           0       -5.332800    0.000000   -0.000003
     21         17           0        3.752100   -2.737853    0.000003
     22         17           0       -3.752100   -2.737853   -0.000002
 ---------------------------------------------------------------------
 Rotational constants (GHZ):           0.4182380           0.1314904           0.1000390
 Standard basis: 6-311+G(d,p) (5D, 7F)
 There are   486 symmetry adapted cartesian basis functions of A   symmetry.
 There are   468 symmetry adapted basis functions of A   symmetry.
   468 basis functions,   782 primitive gaussians,   486 cartesian basis functions
    89 alpha electrons       89 beta electrons
       nuclear repulsion energy      2065.9753979696 Hartrees.
 NAtoms=   22 NActive=   22 NUniq=   22 SFac= 1.00D+00 NAtFMM=   60 NAOKFM=F Big=F
 Integral buffers will be    131072 words long.
 Raffenetti 2 integral format.
 Two-electron integral symmetry is turned on.
 One-electron integrals computed using PRISM.
 NBasis=   468 RedAO= T EigKep=  1.69D-06  NBF=   468
 NBsUse=   461 1.00D-06 EigRej=  8.30D-07 NBFU=   461
 ExpMin= 4.38D-02 ExpMax= 1.06D+05 ExpMxC= 3.62D+03 IAcc=3 IRadAn=         5 AccDes= 0.00D+00
 Harris functional with IExCor=  402 and IRadAn=       5 diagonalized for initial guess.
 HarFok:  IExCor=  402 AccDes= 0.00D+00 IRadAn=         5 IDoV= 1 UseB2=F ITyADJ=14
 ICtDFT=  3500011 ScaDFX=  1.000000  1.000000  1.000000  1.000000
 FoFCou: FMM=F IPFlag=           0 FMFlag=      100000 FMFlg1=           0
         NFxFlg=           0 DoJE=T BraDBF=F KetDBF=T FulRan=T
         wScrn=  0.000000 ICntrl=       500 IOpCl=  0 I1Cent=   200000004 NGrid=           0
         NMat0=    1 NMatS0=      1 NMatT0=    0 NMatD0=    1 NMtDS0=    0 NMtDT0=    0
 Petite list used in FoFCou.
 Requested convergence on RMS density matrix=1.00D-08 within  32 cycles.
 Requested convergence on MAX density matrix=1.00D-06.
 Requested convergence on             energy=1.00D-06.
 No special actions if energy rises.
 SCF Done:  E(RB3LYP) =  -3219.51550692     A.U. after   19 cycles
            NFock= 19  Conv=0.61D-08     -V/T= 2.0002
 QCSCF skips out because SCF is already converged.

 **********************************************************************

            Population analysis using the SCF Density.

 **********************************************************************

 Orbital symmetries:
       Occupied  (A) (A) (A) (A) (A) (A) (A) (A) (A) (A) (A) (A)
                 (A) (A) (A) (A) (A) (A) (A) (A) (A) (A) (A) (A)
                 (A) (A) (A) (A) (A) (A) (A) (A) (A) (A) (A) (A)
                 (A) (A) (A) (A) (A) (A) (A) (A) (A) (A) (A) (A)
                 (A) (A) (A) (A) (A) (A) (A) (A) (A) (A) (A) (A)
                 (A) (A) (A) (A) (A) (A) (A) (A) (A) (A) (A) (A)
                 (A) (A) (A) (A) (A) (A) (A) (A) (A) (A) (A) (A)
                 (A) (A) (A) (A) (A)
       Virtual   (A) (A) (A) (A) (A) (A) (A) (A) (A) (A) (A) (A)
                 (A) (A) (A) (A) (A) (A) (A) (A) (A) (A) (A) (A)
                 (A) (A) (A) (A) (A) (A) (A) (A) (A) (A) (A) (A)
                 (A) (A) (A) (A) (A) (A) (A) (A) (A) (A) (A) (A)
                 (A) (A) (A) (A) (A) (A) (A) (A) (A) (A) (A) (A)
                 (A) (A) (A) (A) (A) (A) (A) (A) (A) (A) (A) (A)
                 (A) (A) (A) (A) (A) (A) (A) (A) (A) (A) (A) (A)
                 (A) (A) (A) (A) (A) (A) (A) (A) (A) (A) (A) (A)
                 (A) (A) (A) (A) (A) (A) (A) (A) (A) (A) (A) (A)
                 (A) (A) (A) (A) (A) (A) (A) (A) (A) (A) (A) (A)
                 (A) (A) (A) (A) (A) (A) (A) (A) (A) (A) (A) (A)
                 (A) (A) (A) (A) (A) (A) (A) (A) (A) (A) (A) (A)
                 (A) (A) (A) (A) (A) (A) (A) (A) (A) (A) (A) (A)
                 (A) (A) (A) (A) (A) (A) (A) (A) (A) (A) (A) (A)
                 (A) (A) (A) (A) (A) (A) (A) (A) (A) (A) (A) (A)
                 (A) (A) (A) (A) (A) (A) (A) (A) (A) (A) (A) (A)
                 (A) (A) (A) (A) (A) (A) (A) (A) (A) (A) (A) (A)
                 (A) (A) (A) (A) (A) (A) (A) (A) (A) (A) (A) (A)
                 (A) (A) (A) (A) (A) (A) (A) (A) (A) (A) (A) (A)
                 (A) (A) (A) (A) (A) (A) (A) (A) (A) (A) (A) (A)
                 (A) (A) (A) (A) (A) (A) (A) (A) (A) (A) (A) (A)
                 (A) (A) (A) (A) (A) (A) (A) (A) (A) (A) (A) (A)
                 (A) (A) (A) (A) (A) (A) (A) (A) (A) (A) (A) (A)
                 (A) (A) (A) (A) (A) (A) (A) (A) (A) (A) (A) (A)
                 (A) (A) (A) (A) (A) (A) (A) (A) (A) (A) (A) (A)
                 (A) (A) (A) (A) (A) (A) (A) (A) (A) (A) (A) (A)
                 (A) (A) (A) (A) (A) (A) (A) (A) (A) (A) (A) (A)
                 (A) (A) (A) (A) (A) (A) (A) (A) (A) (A) (A) (A)
                 (A) (A) (A) (A) (A) (A) (A) (A) (A) (A) (A) (A)
                 (A) (A) (A) (A) (A) (A) (A) (A) (A) (A) (A) (A)
                 (A) (A) (A) (A) (A) (A) (A) (A) (A) (A) (A) (A)
 The electronic state is 1-A.
 Alpha  occ. eigenvalues -- -101.66930-101.66930-101.56544-101.56544-101.56522
 Alpha  occ. eigenvalues -- -101.56522 -10.26280 -10.26280 -10.26076 -10.26075
 Alpha  occ. eigenvalues --  -10.21883 -10.21862 -10.20987 -10.20987 -10.20791
 Alpha  occ. eigenvalues --  -10.20790 -10.18466 -10.18466  -9.65720  -9.63593
 Alpha  occ. eigenvalues --   -9.47977  -9.47977  -9.47961  -9.47961  -7.44125
 Alpha  occ. eigenvalues --   -7.39154  -7.39126  -7.38688  -7.38527  -7.38085
 Alpha  occ. eigenvalues --   -7.24463  -7.24463  -7.24438  -7.24438  -7.23459
 Alpha  occ. eigenvalues --   -7.23459  -7.23449  -7.23449  -7.23405  -7.23405
 Alpha  occ. eigenvalues --   -7.23389  -7.23389  -1.40098  -0.92913  -0.92425
 Alpha  occ. eigenvalues --   -0.88158  -0.86798  -0.86535  -0.86200  -0.80954
 Alpha  occ. eigenvalues --   -0.80668  -0.78461  -0.74861  -0.73303  -0.72675
 Alpha  occ. eigenvalues --   -0.70721  -0.66439  -0.64341  -0.62863  -0.59433
 Alpha  occ. eigenvalues --   -0.57211  -0.52525  -0.51357  -0.49986  -0.48993
 Alpha  occ. eigenvalues --   -0.48984  -0.46506  -0.45336  -0.43586  -0.43267
 Alpha  occ. eigenvalues --   -0.42678  -0.42515  -0.40927  -0.38510  -0.37410
 Alpha  occ. eigenvalues --   -0.36448  -0.35918  -0.35535  -0.35103  -0.33992
 Alpha  occ. eigenvalues --   -0.33979  -0.31546  -0.31542  -0.29740  -0.29040
 Alpha  occ. eigenvalues --   -0.27457  -0.25647  -0.21755  -0.17083
 Alpha virt. eigenvalues --   -0.07407  -0.06362  -0.03086  -0.03069  -0.01844
 Alpha virt. eigenvalues --   -0.01814  -0.00411   0.00152   0.00455   0.01273
 Alpha virt. eigenvalues --    0.01467   0.01958   0.02290   0.03038   0.03318
 Alpha virt. eigenvalues --    0.04581   0.04694   0.05182   0.05613   0.06024
 Alpha virt. eigenvalues --    0.06141   0.06604   0.07611   0.07825   0.07897
 Alpha virt. eigenvalues --    0.09224   0.09380   0.09624   0.09706   0.10126
 Alpha virt. eigenvalues --    0.10346   0.10815   0.11396   0.11845   0.12214
 Alpha virt. eigenvalues --    0.12436   0.12965   0.13045   0.13308   0.13376
 Alpha virt. eigenvalues --    0.13524   0.14211   0.14731   0.14756   0.15609
 Alpha virt. eigenvalues --    0.15812   0.16263   0.16503   0.16737   0.16948
 Alpha virt. eigenvalues --    0.17286   0.18048   0.18100   0.18526   0.19291
 Alpha virt. eigenvalues --    0.19449   0.19460   0.20003   0.20031   0.21112
 Alpha virt. eigenvalues --    0.21260   0.21407   0.22103   0.22598   0.22868
 Alpha virt. eigenvalues --    0.23053   0.23696   0.24225   0.24231   0.25206
 Alpha virt. eigenvalues --    0.25616   0.25798   0.25876   0.26175   0.26551
 Alpha virt. eigenvalues --    0.27403   0.27621   0.27937   0.28624   0.29742
 Alpha virt. eigenvalues --    0.30210   0.30638   0.31662   0.32249   0.32609
 Alpha virt. eigenvalues --    0.33191   0.33465   0.33738   0.35187   0.36699
 Alpha virt. eigenvalues --    0.38725   0.38832   0.40761   0.42871   0.43525
 Alpha virt. eigenvalues --    0.43913   0.44062   0.44243   0.44424   0.44695
 Alpha virt. eigenvalues --    0.45824   0.45951   0.46859   0.47107   0.47358
 Alpha virt. eigenvalues --    0.47624   0.48126   0.48448   0.49075   0.49866
 Alpha virt. eigenvalues --    0.50467   0.51404   0.51792   0.54063   0.54128
 Alpha virt. eigenvalues --    0.54233   0.55923   0.56545   0.56733   0.58131
 Alpha virt. eigenvalues --    0.58484   0.59193   0.60078   0.60938   0.61291
 Alpha virt. eigenvalues --    0.61691   0.62417   0.63583   0.64571   0.64906
 Alpha virt. eigenvalues --    0.65561   0.66649   0.66684   0.67112   0.67449
 Alpha virt. eigenvalues --    0.69571   0.70625   0.70700   0.70885   0.71124
 Alpha virt. eigenvalues --    0.72445   0.76528   0.78289   0.78353   0.79533
 Alpha virt. eigenvalues --    0.79574   0.80571   0.83428   0.84538   0.85118
 Alpha virt. eigenvalues --    0.85251   0.85311   0.85488   0.85488   0.85540
 Alpha virt. eigenvalues --    0.86314   0.86323   0.87309   0.88081   0.88217
 Alpha virt. eigenvalues --    0.89133   0.89675   0.90883   0.91011   0.91460
 Alpha virt. eigenvalues --    0.91768   0.92086   0.92121   0.93015   0.94211
 Alpha virt. eigenvalues --    0.94353   0.94537   0.95124   0.95316   0.95831
 Alpha virt. eigenvalues --    0.97146   0.97794   0.98930   0.99568   1.00226
 Alpha virt. eigenvalues --    1.02754   1.05348   1.06290   1.07351   1.08038
 Alpha virt. eigenvalues --    1.08066   1.08660   1.10277   1.12071   1.13577
 Alpha virt. eigenvalues --    1.17135   1.18951   1.18970   1.22405   1.23700
 Alpha virt. eigenvalues --    1.24877   1.25354   1.27071   1.27425   1.27571
 Alpha virt. eigenvalues --    1.28685   1.28972   1.30779   1.30969   1.31187
 Alpha virt. eigenvalues --    1.34713   1.35296   1.37891   1.42579   1.43301
 Alpha virt. eigenvalues --    1.43450   1.47809   1.49767   1.49931   1.50395
 Alpha virt. eigenvalues --    1.54808   1.54974   1.57628   1.57969   1.59414
 Alpha virt. eigenvalues --    1.59644   1.63272   1.67044   1.67874   1.68931
 Alpha virt. eigenvalues --    1.70601   1.72356   1.73388   1.75920   1.77189
 Alpha virt. eigenvalues --    1.78995   1.82514   1.85849   1.87337   1.87985
 Alpha virt. eigenvalues --    1.89029   1.89147   1.92483   1.93069   1.94086
 Alpha virt. eigenvalues --    1.96213   1.97237   1.97777   1.99826   2.00347
 Alpha virt. eigenvalues --    2.03839   2.04581   2.06565   2.06707   2.09792
 Alpha virt. eigenvalues --    2.09863   2.14860   2.17351   2.18776   2.21983
 Alpha virt. eigenvalues --    2.24176   2.24539   2.24656   2.25188   2.26292
 Alpha virt. eigenvalues --    2.27571   2.29445   2.29562   2.31099   2.31864
 Alpha virt. eigenvalues --    2.34029   2.35188   2.35706   2.40206   2.40725
 Alpha virt. eigenvalues --    2.41878   2.45697   2.46100   2.46856   2.52361
 Alpha virt. eigenvalues --    2.52712   2.53710   2.57465   2.58186   2.59097
 Alpha virt. eigenvalues --    2.60898   2.61101   2.63156   2.63956   2.64142
 Alpha virt. eigenvalues --    2.69934   2.71416   2.72834   2.73181   2.75830
 Alpha virt. eigenvalues --    2.76146   2.76622   2.77594   2.79917   2.81959
 Alpha virt. eigenvalues --    2.83446   2.84618   2.86201   2.90589   2.91824
 Alpha virt. eigenvalues --    2.95480   2.98921   3.02572   3.06187   3.07612
 Alpha virt. eigenvalues --    3.10348   3.13407   3.15401   3.18202   3.18446
 Alpha virt. eigenvalues --    3.19694   3.25210   3.35299   3.35682   3.37506
 Alpha virt. eigenvalues --    3.50578   3.51353   3.52204   3.57392   3.68762
 Alpha virt. eigenvalues --    3.74313   3.82965   3.86816   3.91097   3.94590
 Alpha virt. eigenvalues --    4.12622   4.20987   4.46586   4.80131   4.83831
 Alpha virt. eigenvalues --    9.73609   9.76443   9.79294   9.80400   9.80607
 Alpha virt. eigenvalues --   10.53918  23.36866  23.51920  23.82812  23.82948
 Alpha virt. eigenvalues --   23.89104  23.89420  23.97181  23.99295  24.03246
 Alpha virt. eigenvalues --   24.04272  24.09689  24.09771  25.40196  25.78136
 Alpha virt. eigenvalues --   25.78590  25.86619  25.87149  25.99382  26.10121
 Alpha virt. eigenvalues --   26.13217  26.14735  26.17838  26.19062  26.50386
 Alpha virt. eigenvalues --   26.52923  26.75990  26.77875  27.11507  27.39601
 Alpha virt. eigenvalues --   28.43705 215.73157 215.75463 215.79759 215.80260
 Alpha virt. eigenvalues --  215.89055 216.85745
          Condensed to atoms (all electrons):
               1          2          3          4          5          6
     1  C   21.152456   1.451976  -4.563115  -1.120590  -8.436984   7.703259
     2  C    1.451976  17.161507   0.093673  -4.814122   1.112331  -0.723441
     3  C   -4.563115   0.093673  26.601560  -5.186571  -6.352718   2.376988
     4  C   -1.120590  -4.814122  -5.186571  22.207204   5.642058 -13.445712
     5  C   -8.436984   1.112331  -6.352718   5.642058  29.225528 -24.259652
     6  C    7.703259  -0.723441   2.376988 -13.445712 -24.259652  60.151204
     7  C    8.498995  -1.680346  -2.197731  -1.030141  -6.615982   5.606614
     8  C   -1.680346  -2.866420   0.277002  -0.594191  -1.994561   0.140135
     9  C   -2.197731   0.277002   3.728429  -0.149632  -2.559118  -2.316965
    10  C   -1.030141  -0.594191  -0.149633   0.072815   0.859874  -0.476653
    11  C   -6.615983  -1.994562  -2.559119   0.859874   6.253183  -5.364909
    12  C    5.606615   0.140135  -2.316965  -0.476654  -5.364909   3.645188
    13  H    0.176818   0.294311  -0.397775   0.046681   0.007845  -0.013784
    14  H    0.166662  -0.044326   0.006147   0.038192   0.157933   0.100978
    15  H    0.136501   0.054584  -0.101360  -0.001396   0.023614   0.075671
    16  H    0.034038   0.008446   0.002186  -0.000630  -0.008844   0.007111
    17  Cl  -4.865033  -0.782900  -1.258599   1.742938   6.552162  -7.563782
    18  Cl  -6.483223  -0.131485  -2.933650   2.655646  12.692861 -19.350577
    19  Cl  -0.055636  -0.063036  -0.011042  -0.001264   0.010720  -0.011648
    20  Cl  -0.054450   0.106729   0.349873  -0.244739  -0.020187  -0.899122
    21  Cl  -0.238895  -0.009773   0.087015   0.001519  -0.043169  -0.165476
    22  Cl  -1.095636  -0.321493   0.172431  -0.178042   0.244309   0.672802
               7          8          9         10         11         12
     1  C    8.498995  -1.680346  -2.197731  -1.030141  -6.615983   5.606615
     2  C   -1.680346  -2.866420   0.277002  -0.594191  -1.994562   0.140135
     3  C   -2.197731   0.277002   3.728429  -0.149633  -2.559119  -2.316965
     4  C   -1.030141  -0.594191  -0.149632   0.072815   0.859874  -0.476654
     5  C   -6.615982  -1.994561  -2.559118   0.859874   6.253183  -5.364909
     6  C    5.606614   0.140135  -2.316965  -0.476653  -5.364909   3.645188
     7  C   21.152457   1.451975  -4.563115  -1.120589  -8.436985   7.703261
     8  C    1.451975  17.161505   0.093673  -4.814120   1.112331  -0.723440
     9  C   -4.563115   0.093673  26.601561  -5.186574  -6.352719   2.376990
    10  C   -1.120589  -4.814120  -5.186574  22.207204   5.642059 -13.445714
    11  C   -8.436985   1.112331  -6.352719   5.642059  29.225532 -24.259656
    12  C    7.703261  -0.723440   2.376990 -13.445714 -24.259656  60.151205
    13  H    0.136501   0.054584  -0.101360  -0.001396   0.023614   0.075671
    14  H    0.034038   0.008446   0.002186  -0.000630  -0.008844   0.007111
    15  H    0.176818   0.294311  -0.397775   0.046681   0.007845  -0.013784
    16  H    0.166662  -0.044326   0.006147   0.038192   0.157933   0.100978
    17  Cl  -6.483225  -0.131486  -2.933652   2.655647  12.692867 -19.350583
    18  Cl  -4.865031  -0.782900  -1.258598   1.742938   6.552158  -7.563777
    19  Cl  -0.054450   0.106729   0.349872  -0.244739  -0.020187  -0.899122
    20  Cl  -0.055636  -0.063035  -0.011042  -0.001264   0.010720  -0.011648
    21  Cl  -1.095636  -0.321493   0.172431  -0.178043   0.244309   0.672802
    22  Cl  -0.238895  -0.009773   0.087015   0.001519  -0.043169  -0.165476
              13         14         15         16         17         18
     1  C    0.176818   0.166662   0.136501   0.034038  -4.865033  -6.483223
     2  C    0.294311  -0.044326   0.054584   0.008446  -0.782900  -0.131485
     3  C   -0.397775   0.006147  -0.101360   0.002186  -1.258599  -2.933650
     4  C    0.046681   0.038192  -0.001396  -0.000630   1.742938   2.655646
     5  C    0.007845   0.157933   0.023614  -0.008844   6.552162  12.692861
     6  C   -0.013784   0.100978   0.075671   0.007111  -7.563782 -19.350577
     7  C    0.136501   0.034038   0.176818   0.166662  -6.483225  -4.865031
     8  C    0.054584   0.008446   0.294311  -0.044326  -0.131486  -0.782900
     9  C   -0.101360   0.002186  -0.397775   0.006147  -2.933652  -1.258598
    10  C   -0.001396  -0.000630   0.046681   0.038192   2.655647   1.742938
    11  C    0.023614  -0.008844   0.007845   0.157933  12.692867   6.552158
    12  C    0.075671   0.007111  -0.013784   0.100978 -19.350583  -7.563777
    13  H    0.558984   0.000019   0.007157  -0.000005   0.009555   0.026612
    14  H    0.000019   0.511453  -0.000005   0.000002  -0.000856  -0.118122
    15  H    0.007157  -0.000005   0.558984   0.000019   0.026612   0.009555
    16  H   -0.000005   0.000002   0.000019   0.511453  -0.118122  -0.000856
    17  Cl   0.009555  -0.000856   0.026612  -0.118122  34.959176   1.336143
    18  Cl   0.026612  -0.118122   0.009555  -0.000856   1.336143  34.959169
    19  Cl   0.000300  -0.000003   0.000697  -0.012547   0.065862   0.024299
    20  Cl   0.000697  -0.012547   0.000300  -0.000003   0.024299   0.065862
    21  Cl  -0.001159   0.000006  -0.038876   0.001466  -0.075151  -0.020956
    22  Cl  -0.038876   0.001466  -0.001159   0.000006  -0.020956  -0.075151
              19         20         21         22
     1  C   -0.055636  -0.054450  -0.238895  -1.095636
     2  C   -0.063036   0.106729  -0.009773  -0.321493
     3  C   -0.011042   0.349873   0.087015   0.172431
     4  C   -0.001264  -0.244739   0.001519  -0.178042
     5  C    0.010720  -0.020187  -0.043169   0.244309
     6  C   -0.011648  -0.899122  -0.165476   0.672802
     7  C   -0.054450  -0.055636  -1.095636  -0.238895
     8  C    0.106729  -0.063035  -0.321493  -0.009773
     9  C    0.349872  -0.011042   0.172431   0.087015
    10  C   -0.244739  -0.001264  -0.178043   0.001519
    11  C   -0.020187   0.010720   0.244309  -0.043169
    12  C   -0.899122  -0.011648   0.672802  -0.165476
    13  H    0.000300   0.000697  -0.001159  -0.038876
    14  H   -0.000003  -0.012547   0.000006   0.001466
    15  H    0.000697   0.000300  -0.038876  -0.001159
    16  H   -0.012547  -0.000003   0.001466   0.000006
    17  Cl   0.065862   0.024299  -0.075151  -0.020956
    18  Cl   0.024299   0.065862  -0.020956  -0.075151
    19  Cl  17.518037   0.000001  -0.220152  -0.000063
    20  Cl   0.000001  17.518037  -0.000063  -0.220152
    21  Cl  -0.220152  -0.000063  17.682643  -0.000145
    22  Cl  -0.000063  -0.220152  -0.000145  17.682643
 Mulliken charges:
               1
     1  C   -0.489559
     2  C   -0.674601
     3  C    0.332973
     4  C   -0.023243
     5  C   -1.126293
     6  C    0.111772
     7  C   -0.489559
     8  C   -0.674601
     9  C    0.332973
    10  C   -0.023243
    11  C   -1.126293
    12  C    0.111772
    13  H    0.135006
    14  H    0.150695
    15  H    0.135006
    16  H    0.150695
    17  Cl   0.519085
    18  Cl   0.519085
    19  Cl   0.517372
    20  Cl   0.517372
    21  Cl   0.546794
    22  Cl   0.546794
 Sum of Mulliken charges =  -0.00000
 Mulliken charges with hydrogens summed into heavy atoms:
               1
     1  C   -0.489559
     2  C   -0.539595
     3  C    0.332973
     4  C   -0.023243
     5  C   -0.975598
     6  C    0.111772
     7  C   -0.489559
     8  C   -0.539595
     9  C    0.332973
    10  C   -0.023243
    11  C   -0.975598
    12  C    0.111772
    17  Cl   0.519085
    18  Cl   0.519085
    19  Cl   0.517372
    20  Cl   0.517372
    21  Cl   0.546794
    22  Cl   0.546794
 Electronic spatial extent (au):  <R**2>=           9227.9452
 Charge=             -0.0000 electrons
 Dipole moment (field-independent basis, Debye):
    X=              0.0000    Y=              4.4318    Z=             -0.0000  Tot=              4.4318
 Quadrupole moment (field-independent basis, Debye-Ang):
   XX=           -167.5770   YY=           -131.6630   ZZ=           -146.2912
   XY=              0.0000   XZ=             -0.0000   YZ=              0.0000
 Traceless Quadrupole moment (field-independent basis, Debye-Ang):
   XX=            -19.0665   YY=             16.8474   ZZ=              2.2192
   XY=              0.0000   XZ=             -0.0000   YZ=              0.0000
 Octapole moment (field-independent basis, Debye-Ang**2):
  XXX=              0.0000  YYY=             54.4181  ZZZ=             -0.0000  XYY=              0.0000
  XXY=             29.4063  XXZ=             -0.0000  XZZ=             -0.0000  YZZ=              6.8153
  YYZ=             -0.0000  XYZ=             -0.0000
 Hexadecapole moment (field-independent basis, Debye-Ang**3):
 XXXX=          -9420.3355 YYYY=          -2669.5032 ZZZZ=           -173.2010 XXXY=              0.0000
 XXXZ=             -0.0003 YYYX=              0.0000 YYYZ=              0.0000 ZZZX=              0.0000
 ZZZY=              0.0000 XXYY=          -1994.5977 XXZZ=          -1581.8900 YYZZ=           -510.4348
 XXYZ=             -0.0000 YYXZ=             -0.0001 ZZXY=              0.0000
 N-N= 2.065975397970D+03 E-N=-1.176069011676D+04  KE= 3.218817544664D+03
 Calling FoFJK, ICntrl=      2127 FMM=F ISym2X=0 I1Cent= 0 IOpClX= 0 NMat=1 NMatS=1 NMatT=0.
 ***** Axes restored to original set *****
 -------------------------------------------------------------------
 Center     Atomic                   Forces (Hartrees/Bohr)
 Number     Number              X              Y              Z
 -------------------------------------------------------------------
      1        6           0.004360499   -0.027854683   -0.006667944
      2        6          -0.004957650    0.015829840    0.004606524
      3        6           0.000070449   -0.001768059   -0.000355166
      4        6          -0.003030467    0.000634993    0.001117472
      5        6           0.004931060   -0.021384865   -0.005640710
      6        6           0.110056538   -0.003884402   -0.036988836
      7        6           0.026392292    0.009787126   -0.006856994
      8        6          -0.016209451   -0.003393972    0.004702898
      9        6           0.001574448    0.000801664   -0.000368202
     10        6          -0.002032642    0.002339636    0.001109124
     11        6           0.021035181    0.006129449   -0.005778970
     12        6           0.057117721   -0.094332105   -0.036533869
     13        1           0.007908450   -0.003379380   -0.003240224
     14        1          -0.004906766    0.011270480    0.003733275
     15        1           0.006804881   -0.005264838   -0.003230794
     16        1          -0.012213038   -0.001212429    0.003795931
     17       17          -1.716307848   -2.718175316    0.054977032
     18       17           1.529731387    2.827790796    0.027078592
     19       17          -0.001267508    0.004760691    0.001311638
     20       17          -0.004765718   -0.001216111    0.001341697
     21       17           0.001095695    0.006799086    0.000915964
     22       17          -0.005387515   -0.004277601    0.000971563
 -------------------------------------------------------------------
 Cartesian Forces:  Max     2.827790796 RMS     0.560105371

 GradGradGradGradGradGradGradGradGradGradGradGradGradGradGradGradGradGrad
 Berny optimization.
 FormGI is forming the generalized inverse of G from B-inverse, IUseBI=4.
 Internal  Forces:  Max     3.117119531 RMS     0.292515795
 Search for a local minimum.
 Step number   1 out of a maximum of  129
 All quantities printed in internal units (Hartrees-Bohrs-Radians)
 Mixed Optimization -- RFO/linear search
 Second derivative matrix not updated -- first step.
 ITU=  0
     Eigenvalues ---    0.01035   0.01214   0.01489   0.01712   0.01738
     Eigenvalues ---    0.01829   0.02070   0.02070   0.02070   0.02070
     Eigenvalues ---    0.02070   0.02070   0.02070   0.02070   0.02070
     Eigenvalues ---    0.02070   0.02070   0.02070   0.03966   0.16000
     Eigenvalues ---    0.16000   0.16000   0.16000   0.23072   0.23094
     Eigenvalues ---    0.23988   0.23995   0.25000   0.25000   0.25000
     Eigenvalues ---    0.25000   0.25000   0.25000   0.25000   0.25000
     Eigenvalues ---    0.25000   0.28335   0.29043   0.29447   0.29539
     Eigenvalues ---    0.29539   0.29539   0.29539   0.37230   0.37230
     Eigenvalues ---    0.37230   0.37230   0.40135   0.40984   0.41468
     Eigenvalues ---    0.41469   0.44587   0.45131   0.45389   0.45389
     Eigenvalues ---    0.45389   0.45389   0.45389   0.45389  16.61567
 RFO step:  Lambda=-6.27107277D-01 EMin= 1.03510895D-02
 Linear search not attempted -- first point.
 Iteration  1 RMS(Cart)=  0.03152259 RMS(Int)=  0.00051960
 Iteration  2 RMS(Cart)=  0.00130780 RMS(Int)=  0.00023740
 Iteration  3 RMS(Cart)=  0.00000069 RMS(Int)=  0.00023740
 Variable       Old X    -DE/DX   Delta X   Delta X   Delta X     New X
                                 (Linear)    (Quad)   (Total)
    R1        2.64826   0.01583   0.00000   0.00004  -0.00003   2.64823
    R2        2.64826   0.10168   0.00000   0.01647   0.01613   2.66440
    R3        2.91018   0.11771   0.00000  -0.01467  -0.01519   2.89499
    R4        2.64826  -0.01180   0.00000  -0.00858  -0.00856   2.63970
    R5        2.02201   0.00736   0.00000   0.00736   0.00736   2.02937
    R6        2.64826  -0.02246   0.00000  -0.00382  -0.00374   2.64452
    R7        3.32592  -0.00551   0.00000  -0.00598  -0.00598   3.31994
    R8        2.64826  -0.02675   0.00000  -0.01013  -0.01007   2.63820
    R9        3.32592  -0.00346   0.00000  -0.00375  -0.00375   3.32216
   R10        2.64826  -0.00926   0.00000  -0.01091  -0.01092   2.63734
   R11        2.02201   0.01281   0.00000   0.01282   0.01282   2.03483
   R12        3.32592   0.05224   0.00000   0.12768   0.12792   3.45384
   R13        2.64826   0.01583   0.00000   0.00004  -0.00003   2.64823
   R14        2.64826   0.10168   0.00000   0.01647   0.01613   2.66440
   R15        2.64826  -0.01180   0.00000  -0.00858  -0.00856   2.63970
   R16        2.02201   0.00736   0.00000   0.00736   0.00736   2.02937
   R17        2.64826  -0.02246   0.00000  -0.00382  -0.00374   2.64452
   R18        3.32592  -0.00551   0.00000  -0.00598  -0.00598   3.31994
   R19        2.64826  -0.02675   0.00000  -0.01013  -0.01007   2.63820
   R20        3.32592  -0.00346   0.00000  -0.00375  -0.00375   3.32216
   R21        2.64826  -0.00926   0.00000  -0.01091  -0.01092   2.63734
   R22        2.02201   0.01281   0.00000   0.01282   0.01282   2.03483
   R23        3.32592   0.05224   0.00000   0.12768   0.12792   3.45384
   R24        2.23252   3.11712   0.00000   0.18079   0.18130   2.41383
    A1        2.09440  -0.07947   0.00000  -0.00982  -0.00954   2.08486
    A2        2.09440  -0.16686   0.00000  -0.00231  -0.00164   2.09276
    A3        2.09440   0.24634   0.00000   0.01213   0.01117   2.10557
    A4        2.09440   0.04670   0.00000   0.00627   0.00610   2.10050
    A5        2.09440  -0.01778   0.00000   0.00394   0.00402   2.09842
    A6        2.09440  -0.02892   0.00000  -0.01021  -0.01013   2.08427
    A7        2.09440   0.00681   0.00000   0.00024   0.00021   2.09461
    A8        2.09440  -0.01044   0.00000  -0.00813  -0.00812   2.08628
    A9        2.09440   0.00362   0.00000   0.00789   0.00791   2.10230
   A10        2.09440  -0.00867   0.00000  -0.00200  -0.00197   2.09242
   A11        2.09440   0.01056   0.00000   0.00810   0.00808   2.10248
   A12        2.09440  -0.00189   0.00000  -0.00609  -0.00611   2.08829
   A13        2.09440   0.02097   0.00000   0.00782   0.00775   2.10215
   A14        2.09440  -0.01145   0.00000  -0.00513  -0.00510   2.08929
   A15        2.09440  -0.00952   0.00000  -0.00268  -0.00265   2.09174
   A16        2.09440   0.01365   0.00000  -0.00250  -0.00256   2.09184
   A17        2.09440   0.06960   0.00000   0.03145   0.03126   2.12565
   A18        2.09440  -0.08326   0.00000  -0.02895  -0.02870   2.06569
   A19        2.09440  -0.16686   0.00000  -0.00231  -0.00164   2.09276
   A20        2.09440   0.24634   0.00000   0.01213   0.01117   2.10557
   A21        2.09440  -0.07947   0.00000  -0.00982  -0.00954   2.08486
   A22        2.09440   0.04670   0.00000   0.00627   0.00610   2.10050
   A23        2.09440  -0.01778   0.00000   0.00394   0.00402   2.09842
   A24        2.09440  -0.02892   0.00000  -0.01021  -0.01013   2.08427
   A25        2.09440   0.00681   0.00000   0.00024   0.00021   2.09461
   A26        2.09440  -0.01044   0.00000  -0.00813  -0.00812   2.08628
   A27        2.09440   0.00362   0.00000   0.00789   0.00791   2.10230
   A28        2.09440  -0.00867   0.00000  -0.00200  -0.00197   2.09242
   A29        2.09440   0.01056   0.00000   0.00810   0.00808   2.10248
   A30        2.09440  -0.00189   0.00000  -0.00609  -0.00611   2.08829
   A31        2.09440   0.02097   0.00000   0.00782   0.00775   2.10215
   A32        2.09440  -0.01145   0.00000  -0.00513  -0.00510   2.08929
   A33        2.09440  -0.00952   0.00000  -0.00268  -0.00265   2.09174
   A34        2.09440   0.01365   0.00000  -0.00250  -0.00256   2.09184
   A35        2.09440   0.06960   0.00000   0.03145   0.03126   2.12565
   A36        2.09440  -0.08326   0.00000  -0.02895  -0.02870   2.06569
   A37        2.09440  -0.31594   0.00000  -0.04358  -0.04243   2.05196
   A38        2.09440  -0.31594   0.00000  -0.04358  -0.04243   2.05196
    D1        0.00000   0.00000   0.00000   0.00000   0.00000   0.00000
    D2        3.14159   0.00000   0.00000   0.00000   0.00000   3.14159
    D3       -3.14159   0.00000   0.00000   0.00000   0.00000  -3.14159
    D4       -0.00000   0.00000   0.00000   0.00000   0.00000  -0.00000
    D5       -0.00000  -0.00000   0.00000  -0.00000  -0.00000  -0.00000
    D6        3.14159  -0.00000   0.00000   0.00000   0.00000   3.14159
    D7        3.14159  -0.00000   0.00000  -0.00000  -0.00000   3.14159
    D8        0.00000  -0.00000   0.00000   0.00000   0.00000   0.00000
    D9       -0.00000  -0.00000   0.00000  -0.00000  -0.00000  -0.00000
   D10        3.14159  -0.00000   0.00000  -0.00000  -0.00000   3.14159
   D11        3.14159  -0.00000   0.00000  -0.00000  -0.00000   3.14159
   D12       -0.00000  -0.00000   0.00000  -0.00000  -0.00000  -0.00000
   D13        0.00000  -0.00000   0.00000   0.00000   0.00000   0.00000
   D14        3.14159  -0.00000   0.00000   0.00000   0.00000   3.14159
   D15       -3.14159   0.00000   0.00000  -0.00000  -0.00000  -3.14159
   D16        0.00000   0.00000   0.00000  -0.00000  -0.00000   0.00000
   D17       -0.00000  -0.00000   0.00000   0.00000   0.00000  -0.00000
   D18        3.14159   0.00000   0.00000  -0.00000  -0.00000   3.14159
   D19        3.14159  -0.00000   0.00000   0.00000   0.00000   3.14159
   D20        0.00000   0.00000   0.00000  -0.00000  -0.00000   0.00000
   D21        0.00000   0.00000   0.00000  -0.00000  -0.00000   0.00000
   D22       -3.14159   0.00000   0.00000  -0.00000  -0.00000  -3.14159
   D23       -3.14159  -0.00000   0.00000  -0.00000  -0.00000  -3.14159
   D24        0.00000   0.00000   0.00000   0.00000   0.00000   0.00000
   D25       -0.00000   0.00000   0.00000   0.00000   0.00000  -0.00000
   D26        3.14159   0.00000   0.00000  -0.00000  -0.00000   3.14159
   D27        3.14159  -0.00000   0.00000   0.00000   0.00000   3.14159
   D28       -0.00000   0.00000   0.00000  -0.00000  -0.00000  -0.00000
   D29        0.00001  -0.00000   0.00000  -0.00000  -0.00000   0.00001
   D30       -3.14158  -0.00000   0.00000  -0.00000  -0.00000  -3.14158
   D31        3.14159   0.00000   0.00000   0.00000   0.00000   3.14159
   D32        0.00000   0.00000   0.00000   0.00000   0.00000   0.00000
   D33        0.00000   0.00000   0.00000   0.00000   0.00000   0.00000
   D34       -3.14159   0.00000   0.00000  -0.00000  -0.00000  -3.14159
   D35       -3.14159  -0.00000   0.00000  -0.00000  -0.00000  -3.14159
   D36        0.00000  -0.00000   0.00000   0.00000   0.00000   0.00000
   D37       -0.00000  -0.00000   0.00000  -0.00000  -0.00000  -0.00000
   D38        3.14159  -0.00000   0.00000   0.00000   0.00000   3.14159
   D39       -0.00000  -0.00000   0.00000   0.00000   0.00000  -0.00000
   D40        3.14159  -0.00000   0.00000  -0.00000  -0.00000   3.14159
   D41        3.14159   0.00000   0.00000   0.00000   0.00000   3.14159
   D42       -0.00000   0.00000   0.00000   0.00000   0.00000  -0.00000
   D43       -0.00000  -0.00000   0.00000  -0.00000  -0.00000  -0.00000
   D44       -3.14159  -0.00000   0.00000  -0.00000  -0.00000  -3.14159
   D45        3.14159  -0.00000   0.00000   0.00000   0.00000   3.14159
   D46        0.00000   0.00000   0.00000  -0.00000  -0.00000   0.00000
   D47        0.00000   0.00000   0.00000  -0.00000  -0.00000   0.00000
   D48       -3.14159   0.00000   0.00000  -0.00000  -0.00000  -3.14159
   D49        3.14159  -0.00000   0.00000   0.00000   0.00000   3.14159
   D50        0.00000   0.00000   0.00000  -0.00000  -0.00000   0.00000
   D51        0.00000   0.00000   0.00000   0.00000   0.00000   0.00000
   D52       -3.14159   0.00000   0.00000  -0.00000  -0.00000  -3.14159
   D53        3.14159   0.00000   0.00000   0.00000   0.00000   3.14159
   D54       -0.00000   0.00000   0.00000  -0.00000  -0.00000  -0.00000
   D55        0.00001  -0.00000   0.00000  -0.00000  -0.00000   0.00001
   D56       -3.14158  -0.00000   0.00000  -0.00000  -0.00000  -3.14158
   D57       -0.00001   0.00000   0.00000   0.00000   0.00000  -0.00001
         Item               Value     Threshold  Converged?
 Maximum Force            3.117120     0.000450     NO 
 RMS     Force            0.292516     0.000300     NO 
 Maximum Displacement     0.194577     0.001800     NO 
 RMS     Displacement     0.030826     0.001200     NO 
 Predicted change in Energy=-3.357689D-01
 GradGradGradGradGradGradGradGradGradGradGradGradGradGradGradGradGradGrad

                          Input orientation:                          
 ---------------------------------------------------------------------
 Center     Atomic      Atomic             Coordinates (Angstroms)
 Number     Number       Type             X           Y           Z
 ---------------------------------------------------------------------
      1          6           0        0.997746   -0.246793   -0.002033
      2          6           0        2.330033   -0.219164   -0.435773
      3          6           0        3.044330    0.981220   -0.445658
      4          6           0        2.430098    2.164761   -0.021015
      5          6           0        1.103091    2.143202    0.412123
      6          6           0        0.382735    0.947929    0.424964
      7          6           0        0.223902   -1.568923    0.004606
      8          6           0        0.850309   -2.747303   -0.423079
      9          6           0        0.153441   -3.957927   -0.420857
     10          6           0       -1.177396   -3.998722    0.009935
     11          6           0       -1.806512   -2.827921    0.437090
     12          6           0       -1.117053   -1.614496    0.437835
     13          1           0        2.810734   -1.121755   -0.763655
     14          1           0        0.633315    3.055572    0.738243
     15          1           0        1.871224   -2.726926   -0.755598
     16          1           0       -2.830609   -2.862626    0.767972
     17         17           0       -1.995939   -0.117091    1.008620
     18         17           0       -1.350714    0.985296    1.003074
     19         17           0       -2.065610   -5.515834    0.017639
     20         17           0        3.317945    3.682089   -0.028551
     21         17           0        0.959635   -5.422255   -0.961478
     22         17           0        4.713476    0.991261   -0.993679
 ---------------------------------------------------------------------
                    Distance matrix (angstroms):
                    1          2          3          4          5
     1  C    0.000000
     2  C    1.401385   0.000000
     3  C    2.427617   1.396868   0.000000
     4  C    2.804922   2.421804   1.399419   0.000000
     5  C    2.427901   2.793759   2.419587   1.396074   0.000000
     6  C    1.409938   2.427950   2.800567   2.423071   1.395620
     7  C    1.531962   2.539994   3.828940   4.336860   3.836524
     8  C    2.539994   2.929374   4.326214   5.175497   4.967747
     9  C    3.828940   4.326214   5.723026   6.544490   6.230527
    10  C    4.336860   5.175497   6.544490   7.141673   6.563963
    11  C    3.836524   4.967747   6.230527   6.563963   5.760077
    12  C    2.556652   3.820018   4.983514   5.203423   4.364630
    13  H    2.152336   1.073895   2.139671   3.390809   3.867615
    14  H    3.403885   3.870538   3.393752   2.144399   1.076783
    15  H    2.735303   2.569371   3.901614   4.978008   5.066730
    16  H    4.700191   5.921918   7.124813   7.319301   6.376436
    17  Cl   3.162340   4.561876   5.359619   5.084958   3.881845
    18  Cl   2.836116   4.131453   4.627662   4.090775   2.776892
    19  Cl   6.094861   6.897968   8.278758   8.899687   8.298019
    20  Cl   4.562909   4.044945   2.746550   1.758014   2.732754
    21  Cl   5.263781   5.406155   6.754000   7.785213   7.690481
    22  Cl   4.040147   2.730786   1.756837   2.745359   4.042045
                    6          7          8          9         10
     6  C    0.000000
     7  C    2.556652   0.000000
     8  C    3.820018   1.401385   0.000000
     9  C    4.983514   2.427617   1.396868   0.000000
    10  C    5.203423   2.804922   2.421804   1.399419   0.000000
    11  C    4.364630   2.427901   2.793759   2.419587   1.396074
    12  C    2.969099   1.409938   2.427950   2.800567   2.423071
    13  H    3.404641   2.735303   2.569371   3.901614   4.978008
    14  H    2.145482   4.700191   5.921918   7.124813   7.319301
    15  H    4.136893   2.152336   1.073895   2.139671   3.390809
    16  H    4.996355   3.403885   3.870538   3.393752   2.144399
    17  Cl   2.670770   2.836116   4.131453   4.627662   4.090775
    18  Cl   1.827692   3.162340   4.561876   5.359619   5.084958
    19  Cl   6.923910   4.562909   4.044945   2.746550   1.758014
    20  Cl   4.036925   6.094861   6.897968   8.278758   8.899687
    21  Cl   6.544790   4.040147   2.730786   1.756837   2.745359
    22  Cl   4.557383   5.263781   5.406155   6.754000   7.785213
                   11         12         13         14         15
    11  C    0.000000
    12  C    1.395620   0.000000
    13  H    5.066730   4.136893   0.000000
    14  H    6.376436   4.996355   4.944382   0.000000
    15  H    3.867615   3.404641   1.859924   6.099284   0.000000
    16  H    1.076783   2.145482   6.099284   6.857457   4.944382
    17  Cl   2.776892   1.827692   5.220576   4.129390   4.987850
    18  Cl   3.881845   2.670770   4.987850   2.879678   5.220576
    19  Cl   2.732754   4.036925   6.610376   9.015124   4.886160
    20  Cl   8.298019   6.923910   4.886160   2.861422   6.610376
    21  Cl   4.042045   4.557383   4.686150   8.652692   2.852749
    22  Cl   7.690481   6.544790   2.852749   4.889648   4.686150
                   16         17         18         19         20
    16  H    0.000000
    17  Cl   2.879678   0.000000
    18  Cl   4.129390   1.277342   0.000000
    19  Cl   2.861422   5.489382   6.614140   0.000000
    20  Cl   9.015124   6.614140   5.489382  10.657700   0.000000
    21  Cl   4.889648   6.384471   7.088998   3.181122   9.450982
    22  Cl   8.652692   7.088998   6.384471   9.450982   3.181122
                   21         22
    21  Cl   0.000000
    22  Cl   7.431389   0.000000
 Stoichiometry    C12H4Cl6
 Framework group  C1[X(C12H4Cl6)]
 Deg. of freedom    60
 Full point group                 C1      NOp   1
 Largest Abelian subgroup         C1      NOp   1
 Largest concise Abelian subgroup C1      NOp   1
                         Standard orientation:                         
 ---------------------------------------------------------------------
 Center     Atomic      Atomic             Coordinates (Angstroms)
 Number     Number       Type             X           Y           Z
 ---------------------------------------------------------------------
      1          6           0       -0.765981   -0.006371    0.000002
      2          6           0       -1.464687   -1.221151    0.000001
      3          6           0       -2.861513   -1.231961   -0.000000
      4          6           0       -3.570836   -0.025630   -0.000001
      5          6           0       -2.880038    1.187556    0.000003
      6          6           0       -1.484550    1.206717    0.000004
      7          6           0        0.765981   -0.006371    0.000002
      8          6           0        1.464687   -1.221151    0.000003
      9          6           0        2.861513   -1.231961    0.000002
     10          6           0        3.570836   -0.025630   -0.000000
     11          6           0        2.880038    1.187556   -0.000002
     12          6           0        1.484550    1.206717   -0.000001
     13          1           0       -0.929962   -2.152452   -0.000001
     14          1           0       -3.428728    2.114055    0.000004
     15          1           0        0.929962   -2.152452    0.000002
     16          1           0        3.428728    2.114055   -0.000006
     17         17           0        0.638671    2.826886   -0.000005
     18         17           0       -0.638671    2.826886    0.000006
     19         17           0        5.328850   -0.025401   -0.000004
     20         17           0       -5.328850   -0.025401   -0.000003
     21         17           0        3.715694   -2.767164    0.000003
     22         17           0       -3.715694   -2.767164   -0.000002
 ---------------------------------------------------------------------
 Rotational constants (GHZ):           0.4030659           0.1321037           0.0994946
 Standard basis: 6-311+G(d,p) (5D, 7F)
 There are   486 symmetry adapted cartesian basis functions of A   symmetry.
 There are   468 symmetry adapted basis functions of A   symmetry.
   468 basis functions,   782 primitive gaussians,   486 cartesian basis functions
    89 alpha electrons       89 beta electrons
       nuclear repulsion energy      2045.3771268850 Hartrees.
 NAtoms=   22 NActive=   22 NUniq=   22 SFac= 1.00D+00 NAtFMM=   60 NAOKFM=F Big=F
 Integral buffers will be    131072 words long.
 Raffenetti 2 integral format.
 Two-electron integral symmetry is turned on.
 One-electron integrals computed using PRISM.
 NBasis=   468 RedAO= T EigKep=  1.73D-06  NBF=   468
 NBsUse=   461 1.00D-06 EigRej=  9.16D-07 NBFU=   461
 Initial guess from the checkpoint file:  "/scratch/gour/Gau-104809.chk"
 B after Tr=    -0.000000   -0.000000   -0.000000
         Rot=    1.000000    0.000000    0.000000   -0.000000 Ang=   0.00 deg.
 ExpMin= 4.38D-02 ExpMax= 1.06D+05 ExpMxC= 3.62D+03 IAcc=3 IRadAn=         5 AccDes= 0.00D+00
 Harris functional with IExCor=  402 and IRadAn=       5 diagonalized for initial guess.
 HarFok:  IExCor=  402 AccDes= 0.00D+00 IRadAn=         5 IDoV= 1 UseB2=F ITyADJ=14
 ICtDFT=  3500011 ScaDFX=  1.000000  1.000000  1.000000  1.000000
 FoFCou: FMM=F IPFlag=           0 FMFlag=      100000 FMFlg1=           0
         NFxFlg=           0 DoJE=T BraDBF=F KetDBF=T FulRan=T
         wScrn=  0.000000 ICntrl=       500 IOpCl=  0 I1Cent=   200000004 NGrid=           0
         NMat0=    1 NMatS0=      1 NMatT0=    0 NMatD0=    1 NMtDS0=    0 NMtDT0=    0
 Petite list used in FoFCou.
 Requested convergence on RMS density matrix=1.00D-08 within  32 cycles.
 Requested convergence on MAX density matrix=1.00D-06.
 Requested convergence on             energy=1.00D-06.
 No special actions if energy rises.
 SCF Done:  E(RB3LYP) =  -3220.02395503     A.U. after   15 cycles
            NFock= 15  Conv=0.87D-08     -V/T= 2.0009
 QCSCF skips out because SCF is already converged.
 Calling FoFJK, ICntrl=      2127 FMM=F ISym2X=0 I1Cent= 0 IOpClX= 0 NMat=1 NMatS=1 NMatT=0.
 ***** Axes restored to original set *****
 -------------------------------------------------------------------
 Center     Atomic                   Forces (Hartrees/Bohr)
 Number     Number              X              Y              Z
 -------------------------------------------------------------------
      1        6          -0.000112892   -0.022308788   -0.004152636
      2        6          -0.003807015    0.010968299    0.003314371
      3        6           0.000701626   -0.000855274   -0.000391683
      4        6           0.000385465    0.001630969    0.000179132
      5        6          -0.001800291   -0.015459985   -0.002310313
      6        6           0.091444273   -0.016618946   -0.033248408
      7        6           0.019377383    0.010990718   -0.004319789
      8        6          -0.011412916   -0.002026448    0.003379506
      9        6           0.001087516   -0.000195867   -0.000395127
     10        6          -0.001232415   -0.001133376    0.000193224
     11        6           0.012587719    0.009122269   -0.002433787
     12        6           0.059123047   -0.071840821   -0.032970630
     13        1           0.006085263   -0.001484560   -0.002283695
     14        1          -0.002675486    0.007743743    0.002335827
     15        1           0.004264205   -0.004595850   -0.002268118
     16        1          -0.008051624   -0.001441461    0.002381888
     17       17          -1.100541123   -1.697983661    0.043700020
     18       17           0.941722347    1.791291232    0.026147876
     19       17          -0.000817897    0.003068582    0.000845721
     20       17          -0.003072258   -0.000783077    0.000865107
     21       17           0.000549781    0.004676008    0.000697088
     22       17          -0.003804706   -0.002763708    0.000734424
 -------------------------------------------------------------------
 Cartesian Forces:  Max     1.791291232 RMS     0.352783549

 GradGradGradGradGradGradGradGradGradGradGradGradGradGradGradGradGradGrad
 Berny optimization.
 Using GEDIIS/GDIIS optimizer.
 FormGI is forming the generalized inverse of G from B-inverse, IUseBI=4.
 Internal  Forces:  Max     1.968832297 RMS     0.184760642
 Search for a local minimum.
 Step number   2 out of a maximum of  129
 All quantities printed in internal units (Hartrees-Bohrs-Radians)
 Mixed Optimization -- RFO/linear search
 Update second derivatives using D2CorX and points    1    2
 DE= -5.08D-01 DEPred=-3.36D-01 R= 1.51D+00
 TightC=F SS=  1.41D+00  RLast= 2.76D-01 DXNew= 5.0454D-01 8.2771D-01
 Trust test= 1.51D+00 RLast= 2.76D-01 DXMaxT set to 5.05D-01
 ITU=  1  0
 Use linear search instead of GDIIS.
 Linear search step of   0.552 exceeds DXMaxT=   0.505 but not scaled.
 Quartic linear search produced a step of  2.00000.
 Iteration  1 RMS(Cart)=  0.04054233 RMS(Int)=  0.01619618
 Iteration  2 RMS(Cart)=  0.02336990 RMS(Int)=  0.00131357
 Iteration  3 RMS(Cart)=  0.00022998 RMS(Int)=  0.00130847
 Iteration  4 RMS(Cart)=  0.00000007 RMS(Int)=  0.00130847
 Variable       Old X    -DE/DX   Delta X   Delta X   Delta X     New X
                                 (Linear)    (Quad)   (Total)
    R1        2.64823   0.01097  -0.00006   0.00000  -0.00041   2.64783
    R2        2.66440   0.05997   0.03227   0.00000   0.03043   2.69482
    R3        2.89499   0.06048  -0.03038   0.00000  -0.03307   2.86192
    R4        2.63970  -0.00737  -0.01713   0.00000  -0.01705   2.62265
    R5        2.02937   0.00467   0.01472   0.00000   0.01472   2.04409
    R6        2.64452  -0.01480  -0.00749   0.00000  -0.00705   2.63747
    R7        3.31994  -0.00386  -0.01195   0.00000  -0.01195   3.30799
    R8        2.63820  -0.01497  -0.02013   0.00000  -0.01978   2.61842
    R9        3.32216  -0.00223  -0.00751   0.00000  -0.00751   3.31466
   R10        2.63734  -0.00701  -0.02184   0.00000  -0.02192   2.61542
   R11        2.03483   0.00844   0.02564   0.00000   0.02564   2.06046
   R12        3.45384   0.06293   0.25584   0.00000   0.25689   3.71073
   R13        2.64823   0.01097  -0.00006   0.00000  -0.00041   2.64783
   R14        2.66440   0.05997   0.03227   0.00000   0.03043   2.69482
   R15        2.63970  -0.00737  -0.01713   0.00000  -0.01705   2.62265
   R16        2.02937   0.00467   0.01472   0.00000   0.01472   2.04409
   R17        2.64452  -0.01480  -0.00749   0.00000  -0.00705   2.63747
   R18        3.31994  -0.00386  -0.01195   0.00000  -0.01195   3.30799
   R19        2.63820  -0.01497  -0.02013   0.00000  -0.01978   2.61842
   R20        3.32216  -0.00223  -0.00751   0.00000  -0.00751   3.31466
   R21        2.63734  -0.00701  -0.02184   0.00000  -0.02192   2.61542
   R22        2.03483   0.00844   0.02564   0.00000   0.02564   2.06046
   R23        3.45384   0.06293   0.25584   0.00000   0.25689   3.71073
   R24        2.41383   1.96883   0.36261   0.00000   0.36529   2.77912
    A1        2.08486  -0.04817  -0.01908   0.00000  -0.01757   2.06729
    A2        2.09276  -0.09828  -0.00327   0.00000   0.00042   2.09318
    A3        2.10557   0.14646   0.02235   0.00000   0.01715   2.12272
    A4        2.10050   0.02924   0.01220   0.00000   0.01128   2.11178
    A5        2.09842  -0.00979   0.00805   0.00000   0.00851   2.10693
    A6        2.08427  -0.01945  -0.02025   0.00000  -0.01979   2.06448
    A7        2.09461   0.00356   0.00043   0.00000   0.00030   2.09491
    A8        2.08628  -0.00640  -0.01624   0.00000  -0.01618   2.07010
    A9        2.10230   0.00285   0.01581   0.00000   0.01587   2.11818
   A10        2.09242  -0.00648  -0.00395   0.00000  -0.00379   2.08863
   A11        2.10248   0.00725   0.01616   0.00000   0.01608   2.11856
   A12        2.08829  -0.00077  -0.01221   0.00000  -0.01229   2.07599
   A13        2.10215   0.01476   0.01551   0.00000   0.01514   2.11729
   A14        2.08929  -0.00859  -0.01020   0.00000  -0.01002   2.07927
   A15        2.09174  -0.00617  -0.00530   0.00000  -0.00512   2.08663
   A16        2.09184   0.00710  -0.00511   0.00000  -0.00537   2.08647
   A17        2.12565   0.05507   0.06252   0.00000   0.06128   2.18694
   A18        2.06569  -0.06217  -0.05741   0.00000  -0.05591   2.00978
   A19        2.09276  -0.09828  -0.00327   0.00000   0.00042   2.09318
   A20        2.10557   0.14646   0.02235   0.00000   0.01715   2.12272
   A21        2.08486  -0.04817  -0.01908   0.00000  -0.01757   2.06729
   A22        2.10050   0.02924   0.01220   0.00000   0.01128   2.11178
   A23        2.09842  -0.00979   0.00805   0.00000   0.00851   2.10693
   A24        2.08427  -0.01945  -0.02025   0.00000  -0.01979   2.06448
   A25        2.09461   0.00356   0.00043   0.00000   0.00030   2.09491
   A26        2.08628  -0.00640  -0.01624   0.00000  -0.01618   2.07010
   A27        2.10230   0.00285   0.01581   0.00000   0.01587   2.11818
   A28        2.09242  -0.00648  -0.00395   0.00000  -0.00379   2.08863
   A29        2.10248   0.00725   0.01616   0.00000   0.01608   2.11856
   A30        2.08829  -0.00077  -0.01221   0.00000  -0.01229   2.07599
   A31        2.10215   0.01476   0.01551   0.00000   0.01514   2.11729
   A32        2.08929  -0.00859  -0.01020   0.00000  -0.01002   2.07927
   A33        2.09174  -0.00617  -0.00530   0.00000  -0.00512   2.08663
   A34        2.09184   0.00710  -0.00511   0.00000  -0.00537   2.08647
   A35        2.12565   0.05507   0.06252   0.00000   0.06128   2.18694
   A36        2.06569  -0.06217  -0.05741   0.00000  -0.05591   2.00978
   A37        2.05196  -0.20152  -0.08487   0.00000  -0.07843   1.97353
   A38        2.05196  -0.20152  -0.08487   0.00000  -0.07843   1.97353
    D1        0.00000   0.00000   0.00000   0.00000   0.00000   0.00000
    D2        3.14159   0.00000   0.00000   0.00000   0.00000   3.14159
    D3       -3.14159   0.00000   0.00000   0.00000   0.00000  -3.14159
    D4       -0.00000   0.00000   0.00000   0.00000   0.00000  -0.00000
    D5       -0.00000  -0.00000  -0.00000   0.00000  -0.00000  -0.00000
    D6        3.14159  -0.00000   0.00000   0.00000   0.00000   3.14159
    D7        3.14159  -0.00000  -0.00000   0.00000  -0.00000   3.14159
    D8        0.00000  -0.00000   0.00000   0.00000   0.00000   0.00000
    D9       -0.00000  -0.00000  -0.00000   0.00000  -0.00000  -0.00000
   D10        3.14159  -0.00000  -0.00000   0.00000  -0.00000   3.14159
   D11        3.14159  -0.00000  -0.00000   0.00000  -0.00000   3.14159
   D12       -0.00000  -0.00000  -0.00000   0.00000  -0.00000  -0.00000
   D13        0.00000  -0.00000   0.00000   0.00000   0.00000   0.00000
   D14        3.14159  -0.00000   0.00000   0.00000   0.00000   3.14159
   D15       -3.14159   0.00000  -0.00000   0.00000  -0.00000  -3.14159
   D16        0.00000   0.00000  -0.00000   0.00000  -0.00000   0.00000
   D17       -0.00000  -0.00000   0.00000   0.00000   0.00000  -0.00000
   D18        3.14159   0.00000  -0.00000   0.00000  -0.00000   3.14159
   D19        3.14159  -0.00000   0.00000   0.00000   0.00000   3.14159
   D20        0.00000   0.00000  -0.00000   0.00000  -0.00000   0.00000
   D21        0.00000   0.00000  -0.00000   0.00000  -0.00000   0.00000
   D22       -3.14159   0.00000  -0.00000   0.00000  -0.00000  -3.14159
   D23       -3.14159  -0.00000  -0.00000   0.00000  -0.00000  -3.14159
   D24        0.00000   0.00000   0.00000   0.00000   0.00000   0.00000
   D25       -0.00000   0.00000   0.00000   0.00000   0.00000  -0.00000
   D26        3.14159   0.00000  -0.00000   0.00000  -0.00000   3.14159
   D27        3.14159  -0.00000   0.00000   0.00000   0.00000   3.14159
   D28       -0.00000   0.00000  -0.00000   0.00000  -0.00000  -0.00000
   D29        0.00001  -0.00000  -0.00000   0.00000  -0.00000   0.00001
   D30       -3.14158  -0.00000  -0.00000   0.00000  -0.00000  -3.14158
   D31        3.14159   0.00000   0.00000   0.00000   0.00000   3.14159
   D32        0.00000   0.00000   0.00000   0.00000   0.00000   0.00000
   D33        0.00000   0.00000   0.00000   0.00000   0.00000   0.00000
   D34       -3.14159   0.00000  -0.00000   0.00000  -0.00000  -3.14159
   D35       -3.14159  -0.00000  -0.00000   0.00000  -0.00000  -3.14159
   D36        0.00000  -0.00000   0.00000   0.00000   0.00000   0.00000
   D37       -0.00000  -0.00000  -0.00000   0.00000  -0.00000  -0.00000
   D38        3.14159  -0.00000   0.00000   0.00000   0.00000   3.14159
   D39       -0.00000  -0.00000   0.00000   0.00000   0.00000  -0.00000
   D40        3.14159  -0.00000  -0.00000   0.00000  -0.00000   3.14159
   D41        3.14159   0.00000   0.00000   0.00000   0.00000   3.14159
   D42       -0.00000   0.00000   0.00000   0.00000   0.00000  -0.00000
   D43       -0.00000  -0.00000  -0.00000   0.00000  -0.00000  -0.00000
   D44       -3.14159  -0.00000  -0.00000   0.00000  -0.00000  -3.14159
   D45        3.14159  -0.00000   0.00000   0.00000   0.00000   3.14159
   D46        0.00000   0.00000  -0.00000   0.00000  -0.00000   0.00000
   D47        0.00000   0.00000  -0.00000   0.00000  -0.00000   0.00000
   D48       -3.14159   0.00000  -0.00000   0.00000  -0.00000  -3.14159
   D49        3.14159  -0.00000   0.00000   0.00000   0.00000   3.14159
   D50        0.00000   0.00000  -0.00000   0.00000  -0.00000   0.00000
   D51        0.00000   0.00000   0.00000   0.00000   0.00000   0.00000
   D52       -3.14159   0.00000  -0.00000   0.00000  -0.00000  -3.14159
   D53        3.14159   0.00000   0.00000   0.00000   0.00000   3.14159
   D54       -0.00000   0.00000  -0.00000   0.00000  -0.00000  -0.00000
   D55        0.00001  -0.00000  -0.00000   0.00000  -0.00000   0.00001
   D56       -3.14158  -0.00000  -0.00000   0.00000  -0.00000  -3.14158
[...]
                 (A) (A) (A) (A) (A) (A) (A) (A) (A) (A) (A) (A)
                 (A) (A) (A) (A) (A) (A) (A) (A) (A) (A) (A) (A)
                 (A) (A) (A) (A) (A) (A) (A) (A) (A) (A) (A) (A)
                 (A) (A) (A) (A) (A) (A) (A) (A) (A) (A) (A) (A)
                 (A) (A) (A) (A) (A) (A) (A) (A) (A) (A) (A) (A)
                 (A) (A) (A) (A) (A) (A) (A) (A) (A) (A) (A) (A)
                 (A) (A) (A) (A) (A) (A) (A) (A) (A) (A) (A) (A)
                 (A) (A) (A) (A) (A) (A) (A) (A) (A) (A) (A) (A)
                 (A) (A) (A) (A) (A) (A) (A) (A) (A) (A) (A) (A)
                 (A) (A) (A) (A) (A) (A) (A) (A) (A) (A) (A) (A)
                 (A) (A) (A) (A) (A) (A) (A) (A) (A) (A) (A) (A)
                 (A) (A) (A) (A) (A) (A) (A) (A) (A) (A) (A) (A)
                 (A) (A) (A) (A) (A) (A) (A) (A) (A) (A) (A) (A)
                 (A) (A) (A) (A) (A) (A) (A) (A) (A) (A) (A) (A)
                 (A) (A) (A) (A) (A) (A) (A) (A) (A) (A) (A) (A)
                 (A) (A) (A) (A) (A) (A) (A) (A) (A) (A) (A) (A)
                 (A) (A) (A) (A) (A) (A) (A) (A) (A) (A) (A) (A)
                 (A) (A) (A) (A) (A) (A) (A) (A) (A) (A) (A) (A)
                 (A) (A) (A) (A) (A) (A) (A) (A) (A) (A) (A) (A)
                 (A) (A) (A) (A) (A) (A) (A) (A) (A) (A) (A) (A)
                 (A) (A) (A) (A) (A) (A) (A) (A) (A) (A) (A) (A)
                 (A) (A) (A) (A) (A) (A) (A) (A) (A) (A) (A) (A)
                 (A) (A) (A) (A) (A) (A) (A) (A) (A) (A) (A) (A)
                 (A) (A) (A) (A) (A) (A) (A) (A) (A) (A) (A) (A)
                 (A) (A) (A) (A) (A) (A) (A) (A) (A) (A) (A) (A)
                 (A) (A) (A) (A)
 The electronic state is 1-A.
 Alpha  occ. eigenvalues -- -101.57831-101.57831-101.57711-101.57711-101.57587
 Alpha  occ. eigenvalues -- -101.57587 -10.27556 -10.27556 -10.27223 -10.27222
 Alpha  occ. eigenvalues --  -10.27158 -10.27158 -10.23485 -10.23456 -10.22333
 Alpha  occ. eigenvalues --  -10.22333 -10.22317 -10.22317  -9.49286  -9.49286
 Alpha  occ. eigenvalues --   -9.49166  -9.49166  -9.49055  -9.49055  -7.25775
 Alpha  occ. eigenvalues --   -7.25774  -7.25653  -7.25653  -7.25528  -7.25528
 Alpha  occ. eigenvalues --   -7.24766  -7.24766  -7.24706  -7.24706  -7.24643
 Alpha  occ. eigenvalues --   -7.24643  -7.24588  -7.24588  -7.24533  -7.24533
 Alpha  occ. eigenvalues --   -7.24488  -7.24488  -0.95314  -0.94457  -0.91385
 Alpha  occ. eigenvalues --   -0.90238  -0.88390  -0.88194  -0.85536  -0.84230
 Alpha  occ. eigenvalues --   -0.80323  -0.77148  -0.75632  -0.73662  -0.66823
 Alpha  occ. eigenvalues --   -0.65535  -0.64073  -0.60544  -0.55350  -0.53904
 Alpha  occ. eigenvalues --   -0.53422  -0.52552  -0.50019  -0.48859  -0.46955
 Alpha  occ. eigenvalues --   -0.46711  -0.46687  -0.45000  -0.44916  -0.43746
 Alpha  occ. eigenvalues --   -0.41728  -0.41568  -0.40759  -0.39676  -0.39152
 Alpha  occ. eigenvalues --   -0.36975  -0.36941  -0.35146  -0.35011  -0.33975
 Alpha  occ. eigenvalues --   -0.33800  -0.33684  -0.33403  -0.33017  -0.32894
 Alpha  occ. eigenvalues --   -0.28856  -0.28617  -0.26861  -0.26586
 Alpha virt. eigenvalues --   -0.06568  -0.06200  -0.05178  -0.05011  -0.03360
 Alpha virt. eigenvalues --   -0.02746  -0.00789  -0.00325   0.00100   0.00950
 Alpha virt. eigenvalues --    0.01466   0.02168   0.02291   0.02346   0.03309
 Alpha virt. eigenvalues --    0.04053   0.04564   0.04754   0.04978   0.05719
 Alpha virt. eigenvalues --    0.06013   0.06472   0.06937   0.07180   0.08171
 Alpha virt. eigenvalues --    0.08372   0.08527   0.08772   0.09435   0.09573
 Alpha virt. eigenvalues --    0.10191   0.10359   0.10501   0.10949   0.11099
 Alpha virt. eigenvalues --    0.11710   0.11864   0.11911   0.12313   0.12579
 Alpha virt. eigenvalues --    0.12643   0.13364   0.13453   0.14274   0.14443
 Alpha virt. eigenvalues --    0.14670   0.15228   0.15860   0.15862   0.16314
 Alpha virt. eigenvalues --    0.16811   0.17005   0.17194   0.18018   0.18856
 Alpha virt. eigenvalues --    0.19004   0.19051   0.19414   0.19950   0.20272
 Alpha virt. eigenvalues --    0.20452   0.20787   0.21031   0.21283   0.21781
 Alpha virt. eigenvalues --    0.22274   0.22811   0.22902   0.23322   0.23471
 Alpha virt. eigenvalues --    0.23703   0.24623   0.24712   0.24980   0.25214
 Alpha virt. eigenvalues --    0.25996   0.26249   0.26437   0.27279   0.27595
 Alpha virt. eigenvalues --    0.27635   0.27866   0.28465   0.28533   0.29097
 Alpha virt. eigenvalues --    0.29426   0.29892   0.31234   0.31240   0.32222
 Alpha virt. eigenvalues --    0.32501   0.33007   0.34666   0.36007   0.40249
 Alpha virt. eigenvalues --    0.41367   0.41587   0.42957   0.43285   0.44275
 Alpha virt. eigenvalues --    0.44363   0.44840   0.45185   0.45240   0.45824
 Alpha virt. eigenvalues --    0.46811   0.46966   0.47205   0.47413   0.47765
 Alpha virt. eigenvalues --    0.48058   0.49624   0.49965   0.50396   0.52050
 Alpha virt. eigenvalues --    0.53753   0.53924   0.54638   0.55553   0.56994
 Alpha virt. eigenvalues --    0.57149   0.57172   0.57889   0.59007   0.59308
 Alpha virt. eigenvalues --    0.59899   0.61056   0.61809   0.62373   0.62940
 Alpha virt. eigenvalues --    0.63745   0.64898   0.65012   0.65523   0.65554
 Alpha virt. eigenvalues --    0.66025   0.66850   0.67851   0.68773   0.69318
 Alpha virt. eigenvalues --    0.69521   0.69884   0.70360   0.70894   0.75444
 Alpha virt. eigenvalues --    0.78092   0.79178   0.79284   0.80784   0.81508
 Alpha virt. eigenvalues --    0.82425   0.83883   0.84021   0.84069   0.84112
 Alpha virt. eigenvalues --    0.84242   0.84302   0.84535   0.85076   0.85101
 Alpha virt. eigenvalues --    0.85219   0.85799   0.86616   0.87085   0.87484
 Alpha virt. eigenvalues --    0.87911   0.89645   0.89881   0.90119   0.90350
 Alpha virt. eigenvalues --    0.90833   0.90949   0.91559   0.92362   0.93182
 Alpha virt. eigenvalues --    0.93392   0.93709   0.94496   0.94793   0.95200
 Alpha virt. eigenvalues --    0.96353   0.96911   0.97546   0.97987   0.99011
 Alpha virt. eigenvalues --    0.99172   1.00277   1.00831   1.01948   1.02984
 Alpha virt. eigenvalues --    1.04471   1.09954   1.10324   1.12478   1.14680
 Alpha virt. eigenvalues --    1.14820   1.18264   1.20650   1.21453   1.22092
 Alpha virt. eigenvalues --    1.22149   1.22995   1.24471   1.24932   1.25685
 Alpha virt. eigenvalues --    1.27495   1.27791   1.28250   1.29378   1.30687
 Alpha virt. eigenvalues --    1.32179   1.33147   1.33542   1.34813   1.39356
 Alpha virt. eigenvalues --    1.41132   1.44969   1.48086   1.48633   1.53184
 Alpha virt. eigenvalues --    1.54399   1.55514   1.55880   1.56486   1.57165
 Alpha virt. eigenvalues --    1.60533   1.61365   1.64597   1.66914   1.67093
 Alpha virt. eigenvalues --    1.71156   1.72289   1.73223   1.73387   1.76543
 Alpha virt. eigenvalues --    1.79882   1.80882   1.82230   1.82941   1.84579
 Alpha virt. eigenvalues --    1.85810   1.90964   1.91492   1.91581   1.93039
 Alpha virt. eigenvalues --    1.97327   1.97632   1.99374   1.99540   2.00964
 Alpha virt. eigenvalues --    2.01286   2.04658   2.07462   2.08223   2.10285
 Alpha virt. eigenvalues --    2.10500   2.13239   2.18092   2.22350   2.22360
 Alpha virt. eigenvalues --    2.23165   2.23407   2.24768   2.25718   2.27650
 Alpha virt. eigenvalues --    2.28252   2.29457   2.29818   2.31380   2.34704
 Alpha virt. eigenvalues --    2.34791   2.37679   2.42012   2.42258   2.42527
 Alpha virt. eigenvalues --    2.44882   2.47482   2.48750   2.50570   2.52222
 Alpha virt. eigenvalues --    2.52695   2.54215   2.56001   2.56879   2.59201
 Alpha virt. eigenvalues --    2.59894   2.61942   2.62876   2.67123   2.67913
 Alpha virt. eigenvalues --    2.69117   2.71088   2.72576   2.74150   2.74234
 Alpha virt. eigenvalues --    2.74868   2.76002   2.76555   2.77252   2.83091
 Alpha virt. eigenvalues --    2.83216   2.83805   2.87027   2.89427   2.97623
 Alpha virt. eigenvalues --    2.98193   3.03952   3.07235   3.08404   3.08659
 Alpha virt. eigenvalues --    3.11916   3.12095   3.14123   3.16078   3.21723
 Alpha virt. eigenvalues --    3.24989   3.27793   3.34192   3.35087   3.47420
 Alpha virt. eigenvalues --    3.51504   3.53368   3.56550   3.68811   3.76953
 Alpha virt. eigenvalues --    3.80594   3.81799   3.89871   3.93795   4.10938
 Alpha virt. eigenvalues --    4.11124   4.31875   4.80023   4.81095   9.75317
 Alpha virt. eigenvalues --    9.75766   9.79129   9.79491   9.81104   9.82509
 Alpha virt. eigenvalues --   23.35447  23.50872  23.81568  23.83364  23.87712
 Alpha virt. eigenvalues --   23.88954  23.93320  23.99809  24.03115  24.05240
 Alpha virt. eigenvalues --   24.08504  24.13613  25.77679  25.77735  25.85781
 Alpha virt. eigenvalues --   25.85866  25.86233  25.95398  26.06646  26.07566
 Alpha virt. eigenvalues --   26.12486  26.14712  26.31460  26.34613  26.49907
 Alpha virt. eigenvalues --   26.51308  26.67090  26.75728  26.77654  26.82788
 Alpha virt. eigenvalues --  215.74532 215.74721 215.78593 215.79034 215.81473
 Alpha virt. eigenvalues --  215.82648
          Condensed to atoms (all electrons):
               1          2          3          4          5          6
     1  C   38.146170   2.546489 -12.570728  -4.670034  -3.736945  -7.526664
     2  C    2.546489  25.251232  -0.002326  -9.281191   1.153330 -12.524756
     3  C  -12.570728  -0.002326  33.486673  -5.806168 -11.492921   0.496756
     4  C   -4.670034  -9.281191  -5.806168  31.074201   4.032061  -8.373449
     5  C   -3.736945   1.153330 -11.492921   4.032061  27.793698  -5.135093
     6  C   -7.526664 -12.524756   0.496756  -8.373449  -5.135093  54.969532
     7  C    3.877818  -1.899467   0.773927   0.362780  -3.042010  -5.447113
     8  C   -1.895715   0.309948  -0.159368  -0.358659   0.479682   0.959157
     9  C    0.772633  -0.159444   0.401262  -0.013975  -0.188329   0.752964
    10  C    0.363272  -0.358605  -0.013907  -0.047181   0.044835   0.616148
    11  C   -3.040751   0.479811  -0.188350   0.044816   0.057904  -2.641701
    12  C   -5.453707   0.959185   0.752909   0.616284  -2.641249 -10.137185
    13  H   -0.010314   0.273562  -0.022492   0.059852  -0.052482  -0.101073
    14  H    0.121627  -0.042988   0.038614  -0.007088   0.206066   0.014600
    15  H    0.118857  -0.008368  -0.038158   0.003673   0.032050   0.109293
    16  H    0.019652  -0.001824  -0.000826   0.000134   0.000382   0.003898
    17  Cl   0.229978   0.005452   0.206812   0.009322  -0.263956   0.134342
    18  Cl  -0.946255  -0.373437   0.747663  -0.549266  -1.149666   0.603163
    19  Cl  -0.029692   0.011525   0.010328  -0.001499  -0.006235  -0.049269
    20  Cl   0.114309   0.356622   0.039493  -1.040678   0.327164  -0.433741
    21  Cl  -0.154064   0.065442   0.016030   0.005549  -0.003658  -0.108417
    22  Cl  -0.623424   0.181116  -0.896147  -0.194554   0.190811   0.702945
               7          8          9         10         11         12
     1  C    3.877818  -1.895715   0.772633   0.363272  -3.040751  -5.453707
     2  C   -1.899467   0.309948  -0.159444  -0.358605   0.479811   0.959185
     3  C    0.773927  -0.159368   0.401262  -0.013907  -0.188350   0.752909
     4  C    0.362780  -0.358659  -0.013975  -0.047181   0.044816   0.616284
     5  C   -3.042010   0.479682  -0.188329   0.044835   0.057904  -2.641249
     6  C   -5.447113   0.959157   0.752964   0.616148  -2.641701 -10.137185
     7  C   38.149590   2.546664 -12.571971  -4.670872  -3.736262  -7.531376
     8  C    2.546664  25.251641  -0.004232  -9.280679   1.154352 -12.527965
     9  C  -12.571971  -0.004232  33.488361  -5.805277 -11.495328   0.500653
    10  C   -4.670872  -9.280679  -5.805277  31.072713   4.032033  -8.373442
    11  C   -3.736262   1.154352 -11.495328   4.032033  27.797624  -5.138475
    12  C   -7.531376 -12.527965   0.500653  -8.373442  -5.138475  54.981135
    13  H    0.118853  -0.008409  -0.038156   0.003670   0.032045   0.109311
    14  H    0.019656  -0.001826  -0.000827   0.000134   0.000382   0.003899
    15  H   -0.010322   0.273612  -0.022526   0.059847  -0.052476  -0.101114
    16  H    0.121646  -0.042985   0.038613  -0.007086   0.206068   0.014577
    17  Cl  -0.946638  -0.373556   0.747746  -0.548960  -1.149743   0.604122
    18  Cl   0.230674   0.005499   0.206892   0.009361  -0.263976   0.134275
    19  Cl   0.114254   0.356480   0.039626  -1.040646   0.327012  -0.433558
    20  Cl  -0.029712   0.011533   0.010331  -0.001498  -0.006237  -0.049261
    21  Cl  -0.623415   0.180961  -0.895990  -0.194530   0.190633   0.703085
    22  Cl  -0.154063   0.065477   0.016040   0.005547  -0.003664  -0.108468
              13         14         15         16         17         18
     1  C   -0.010314   0.121627   0.118857   0.019652   0.229978  -0.946255
     2  C    0.273562  -0.042988  -0.008368  -0.001824   0.005452  -0.373437
     3  C   -0.022492   0.038614  -0.038158  -0.000826   0.206812   0.747663
     4  C    0.059852  -0.007088   0.003673   0.000134   0.009322  -0.549266
     5  C   -0.052482   0.206066   0.032050   0.000382  -0.263956  -1.149666
     6  C   -0.101073   0.014600   0.109293   0.003898   0.134342   0.603163
     7  C    0.118853   0.019656  -0.010322   0.121646  -0.946638   0.230674
     8  C   -0.008409  -0.001826   0.273612  -0.042985  -0.373556   0.005499
     9  C   -0.038156  -0.000827  -0.022526   0.038613   0.747746   0.206892
    10  C    0.003670   0.000134   0.059847  -0.007086  -0.548960   0.009361
    11  C    0.032045   0.000382  -0.052476   0.206068  -1.149743  -0.263976
    12  C    0.109311   0.003899  -0.101114   0.014577   0.604122   0.134275
    13  H    0.509619   0.000044  -0.000915   0.000001  -0.011013  -0.000251
    14  H    0.000044   0.489124   0.000001   0.000000  -0.001260  -0.005961
    15  H   -0.000915   0.000001   0.509621   0.000044  -0.000252  -0.011019
    16  H    0.000001   0.000000   0.000044   0.489125  -0.005961  -0.001261
    17  Cl  -0.011013  -0.001260  -0.000252  -0.005961  17.946978   0.079014
    18  Cl  -0.000251  -0.005961  -0.011019  -0.001261   0.079014  17.946962
    19  Cl   0.000102  -0.000001  -0.000792  -0.008425  -0.042884   0.007725
    20  Cl  -0.000792  -0.008425   0.000102  -0.000001   0.007723  -0.042891
    21  Cl   0.000114  -0.000008  -0.012980   0.000124  -0.001144  -0.003950
    22  Cl  -0.012981   0.000123   0.000114  -0.000008  -0.003946  -0.001144
              19         20         21         22
     1  C   -0.029692   0.114309  -0.154064  -0.623424
     2  C    0.011525   0.356622   0.065442   0.181116
     3  C    0.010328   0.039493   0.016030  -0.896147
     4  C   -0.001499  -1.040678   0.005549  -0.194554
     5  C   -0.006235   0.327164  -0.003658   0.190811
     6  C   -0.049269  -0.433741  -0.108417   0.702945
     7  C    0.114254  -0.029712  -0.623415  -0.154063
     8  C    0.356480   0.011533   0.180961   0.065477
     9  C    0.039626   0.010331  -0.895990   0.016040
    10  C   -1.040646  -0.001498  -0.194530   0.005547
    11  C    0.327012  -0.006237   0.190633  -0.003664
    12  C   -0.433558  -0.049261   0.703085  -0.108468
    13  H    0.000102  -0.000792   0.000114  -0.012981
    14  H   -0.000001  -0.008425  -0.000008   0.000123
    15  H   -0.000792   0.000102  -0.012980   0.000114
    16  H   -0.008425  -0.000001   0.000124  -0.000008
    17  Cl  -0.042884   0.007723  -0.001144  -0.003946
    18  Cl   0.007725  -0.042891  -0.003950  -0.001144
    19  Cl  17.417312   0.000005  -0.170815   0.000104
    20  Cl   0.000005  17.417324   0.000104  -0.170812
    21  Cl  -0.170815   0.000104  17.482246   0.000099
    22  Cl   0.000104  -0.170812   0.000099  17.482259
 Mulliken charges:
               1
     1  C    0.347488
     2  C   -0.941309
     3  C    0.220925
     4  C    0.135068
     5  C   -0.605438
     6  C   -0.884339
     7  C    0.347359
     8  C   -0.941612
     9  C    0.220934
    10  C    0.135125
    11  C   -0.605718
    12  C   -0.883638
    13  H    0.151706
    14  H    0.174113
    15  H    0.151707
    16  H    0.174113
    17  Cl   0.377824
    18  Cl   0.377848
    19  Cl   0.499343
    20  Cl   0.499341
    21  Cl   0.524583
    22  Cl   0.524576
 Sum of Mulliken charges =  -0.00000
 Mulliken charges with hydrogens summed into heavy atoms:
               1
     1  C    0.347488
     2  C   -0.789603
     3  C    0.220925
     4  C    0.135068
     5  C   -0.431325
     6  C   -0.884339
     7  C    0.347359
     8  C   -0.789905
     9  C    0.220934
    10  C    0.135125
    11  C   -0.431604
    12  C   -0.883638
    17  Cl   0.377824
    18  Cl   0.377848
    19  Cl   0.499343
    20  Cl   0.499341
    21  Cl   0.524583
    22  Cl   0.524576
 Electronic spatial extent (au):  <R**2>=           9115.3591
 Charge=              0.0000 electrons
 Dipole moment (field-independent basis, Debye):
    X=             -0.0000    Y=              0.0388    Z=             -0.0000  Tot=              0.0388
 Quadrupole moment (field-independent basis, Debye-Ang):
   XX=           -152.2202   YY=           -144.9184   ZZ=           -144.3827
   XY=              0.0008   XZ=             -4.3026   YZ=              0.0002
 Traceless Quadrupole moment (field-independent basis, Debye-Ang):
   XX=             -5.0464   YY=              2.2553   ZZ=              2.7911
   XY=              0.0008   XZ=             -4.3026   YZ=              0.0002
 Octapole moment (field-independent basis, Debye-Ang**2):
  XXX=              0.0037  YYY=             -0.3939  ZZZ=              0.0009  XYY=              0.0018
  XXY=             25.0690  XXZ=              0.0032  XZZ=             -0.0032  YZZ=              0.4093
  YYZ=              0.0000  XYZ=             -8.3149
 Hexadecapole moment (field-independent basis, Debye-Ang**3):
 XXXX=          -8950.8379 YYYY=          -1759.5198 ZZZZ=          -1288.5099 XXXY=              0.0134
 XXXZ=            -49.2804 YYYX=             -0.0019 YYYZ=             -0.0108 ZZZX=             16.3354
 ZZZY=              0.0094 XXYY=          -1765.9397 XXZZ=          -1680.8774 YYZZ=           -480.7235
 XXYZ=              0.0019 YYXZ=             15.5944 ZZXY=              0.0013
 N-N= 1.976542813622D+03 E-N=-1.158190015267D+04  KE= 3.212689863553D+03
 1\1\GINC-LOCALHOST\FOpt\RB3LYP\6-311+G(d,p)\C12H4Cl6\GOUR\17-Mar-2022\
 0\\# opt b3lyp/6-311+g(d,p) scf=xqc\\Title Card Required\\0,1\C,0.9532
 187977,-0.2444726869,0.0294467559\C,2.2831579662,-0.2377871572,0.45406
 7261\C,3.0358413804,0.9328636362,0.4805366132\C,2.4528520995,2.1350654
 406,0.0706533709\C,1.1296372463,2.1490188209,-0.3616056871\C,0.3930831
 94,0.9710808811,-0.3805705878\C,0.195559012,-1.5288851798,0.0048987934
 \C,0.3617960297,-2.405664592,-1.0687612401\C,-0.3118595255,-3.62226277
 11,-1.1296580579\C,-1.176006865,-3.9828960143,-0.0921724546\C,-1.35151
 91261,-3.125279744,0.9902306258\C,-0.671560745,-1.9144139808,1.0339122
 702\H,2.7414856362,-1.1626925168,0.7800720023\H,0.6800717809,3.0779878
 521,-0.6839181611\H,1.0235920713,-2.1321559175,-1.880555181\H,-2.01579
 25763,-3.406485519,1.7956127627\Cl,-0.9154636136,-0.8774178417,2.42452
 4192\Cl,-1.2632444241,1.0390714486,-0.9468054157\Cl,-2.0475718279,-5.4
 925425028,-0.1103457502\Cl,3.3431488734,3.6338190888,0.0804470092\Cl,-
 0.0525392279,-4.6603117275,-2.5072296921\Cl,4.6902947612,0.8579549548,
 1.027947742\\Version=EM64L-G16RevB.01\State=1-A\HF=-3221.1371073\RMSD=
 5.471e-09\RMSF=5.207e-06\Dipole=-0.0123426,0.0071931,0.0053801\Quadrup
 ole=-0.6826021,-0.5579187,1.2405208,-2.607813,-1.9430563,-3.0159281\PG
 =C01 [X(C12H4Cl6)]\\@


 A SLIP OF THE FOOT YOU MAY SOON RECOVER, BUT A SLIP OF THE TONGUE
 YOU MAY NEVER GET OVER. -- BEN FRANKLIN
 Job cpu time:       1 days  3 hours 28 minutes 43.1 seconds.
 Elapsed time:       0 days  6 hours 53 minutes 22.2 seconds.
 File lengths (MBytes):  RWF=    145 Int=      0 D2E=      0 Chk=     21 Scr=      1
 Normal termination of Gaussian 16 at Thu Mar 17 18:10:12 2022.
