 Entering Gaussian System, Link 0=g16
 Input=2,2prime,5,5prime-Tetrachlorobiphenyl.gjf
 Output=2,2prime,5,5prime-Tetrachlorobiphenyl.log
 Initial command:
 /opt/g16/l1.exe "/scratch/gour/Gau-4369.inp" -scrdir="/scratch/gour/"
 Entering Link 1 = /opt/g16/l1.exe PID=      4370.
  
 Copyright (c) 1988-2017, Gaussian, Inc.  All Rights Reserved.
  
 This is part of the Gaussian(R) 16 program.  It is based on
 the Gaussian(R) 09 system (copyright 2009, Gaussian, Inc.),
 the Gaussian(R) 03 system (copyright 2003, Gaussian, Inc.),
 the Gaussian(R) 98 system (copyright 1998, Gaussian, Inc.),
 the Gaussian(R) 94 system (copyright 1995, Gaussian, Inc.),
 the Gaussian 92(TM) system (copyright 1992, Gaussian, Inc.),
 the Gaussian 90(TM) system (copyright 1990, Gaussian, Inc.),
 the Gaussian 88(TM) system (copyright 1988, Gaussian, Inc.),
 the Gaussian 86(TM) system (copyright 1986, Carnegie Mellon
 University), and the Gaussian 82(TM) system (copyright 1983,
 Carnegie Mellon University). Gaussian is a federally registered
 trademark of Gaussian, Inc.
  
 This software contains proprietary and confidential information,
 including trade secrets, belonging to Gaussian, Inc.
  
 This software is provided under written license and may be
 used, copied, transmitted, or stored only in accord with that
 written license.
  
 The following legend is applicable only to US Government
 contracts under FAR:
  
                    RESTRICTED RIGHTS LEGEND
  
 Use, reproduction and disclosure by the US Government is
 subject to restrictions as set forth in subparagraphs (a)
 and (c) of the Commercial Computer Software - Restricted
 Rights clause in FAR 52.227-19.
  
 Gaussian, Inc.
 340 Quinnipiac St., Bldg. 40, Wallingford CT 06492
  
  
 ---------------------------------------------------------------
 Warning -- This program may not be used in any manner that
 competes with the business of Gaussian, Inc. or will provide
 assistance to any competitor of Gaussian, Inc.  The licensee
 of this program is prohibited from giving any competitor of
 Gaussian, Inc. access to this program.  By using this program,
 the user acknowledges that Gaussian, Inc. is engaged in the
 business of creating and licensing software in the field of
 computational chemistry and represents and warrants to the
 licensee that it is not a competitor of Gaussian, Inc. and that
 it will not use this program in any manner prohibited above.
 ---------------------------------------------------------------
  

 Cite this work as:
 Gaussian 16, Revision B.01,
 M. J. Frisch, G. W. Trucks, H. B. Schlegel, G. E. Scuseria, 
 M. A. Robb, J. R. Cheeseman, G. Scalmani, V. Barone, 
 G. A. Petersson, H. Nakatsuji, X. Li, M. Caricato, A. V. Marenich, 
 J. Bloino, B. G. Janesko, R. Gomperts, B. Mennucci, H. P. Hratchian, 
 J. V. Ortiz, A. F. Izmaylov, J. L. Sonnenberg, D. Williams-Young, 
 F. Ding, F. Lipparini, F. Egidi, J. Goings, B. Peng, A. Petrone, 
 T. Henderson, D. Ranasinghe, V. G. Zakrzewski, J. Gao, N. Rega, 
 G. Zheng, W. Liang, M. Hada, M. Ehara, K. Toyota, R. Fukuda, 
 J. Hasegawa, M. Ishida, T. Nakajima, Y. Honda, O. Kitao, H. Nakai, 
 T. Vreven, K. Throssell, J. A. Montgomery, Jr., J. E. Peralta, 
 F. Ogliaro, M. J. Bearpark, J. J. Heyd, E. N. Brothers, K. N. Kudin, 
 V. N. Staroverov, T. A. Keith, R. Kobayashi, J. Normand, 
 K. Raghavachari, A. P. Rendell, J. C. Burant, S. S. Iyengar, 
 J. Tomasi, M. Cossi, J. M. Millam, M. Klene, C. Adamo, R. Cammi, 
 J. W. Ochterski, R. L. Martin, K. Morokuma, O. Farkas, 
 J. B. Foresman, and D. J. Fox, Gaussian, Inc., Wallingford CT, 2016.
 
 ******************************************
 Gaussian 16:  EM64L-G16RevB.01 20-Dec-2017
                15-Mar-2022 
 ******************************************
 %mem=10GB
 %nprocshared=4
 Will use up to    4 processors via shared memory.
 --------------------------------
 # opt b3lyp/6-311+g(d,p) scf=xqc
 --------------------------------
 1/18=20,19=15,26=3,38=1/1,3;
 2/9=110,12=2,17=6,18=5,40=1/2;
 3/5=4,6=6,7=111,11=2,25=1,30=1,71=1,74=-5/1,2,3;
 4//1;
 5/5=2,8=3,13=1,38=5/2,8;
 6/7=2,8=2,9=2,10=2,28=1/1;
 7//1,2,3,16;
 1/18=20,19=15,26=3/3(2);
 2/9=110/2;
 99//99;
 2/9=110/2;
 3/5=4,6=6,7=111,11=2,25=1,30=1,71=1,74=-5/1,2,3;
 4/5=5,16=3,69=1/1;
 5/5=2,8=3,13=1,38=5/2,8;
 7//1,2,3,16;
 1/18=20,19=15,26=3/3(-5);
 2/9=110/2;
 6/7=2,8=2,9=2,10=2,19=2,28=1/1;
 99/9=1/99;
 -------------------
 Title Card Required
 -------------------
 Symbolic Z-matrix:
 Charge =  0 Multiplicity = 1
 C                    -1.14688   1.7061    0.71214 
 C                     0.1855    1.73599   0.27879 
 C                     0.89339   2.94544   0.27272 
 C                     0.26891   4.125     0.69999 
 C                    -1.06348   4.09512   1.13334 
 C                    -1.77137   2.88567   1.13941 
 C                    -1.92479   0.37704   0.71881 
 C                    -1.3003   -0.80253   0.29154 
 C                    -2.00819  -2.01198   0.29761 
 C                    -3.34057  -2.04187   0.73096 
 C                    -3.96506  -0.8623    1.15824 
 C                    -3.25717   0.34715   1.15216 
 H                     0.66231   0.83536  -0.04744 
 H                     0.8094    5.04845   0.69536 
 H                    -1.54029   4.99574   1.45957 
 H                    -0.283    -0.77971  -0.03933 
 H                    -3.88106  -2.96531   0.7356 
 H                    -4.98236  -0.88512   1.48911 
 Cl                   -4.04145   1.82855   1.68877 
 Cl                   -3.44469   2.84814   1.68364 
 Cl                   -1.22391  -3.49338  -0.239 
 Cl                    2.56671   2.98297  -0.27151 
 

 GradGradGradGradGradGradGradGradGradGradGradGradGradGradGradGradGradGrad
 Berny optimization.
 Initialization pass.
                           ----------------------------
                           !    Initial Parameters    !
                           ! (Angstroms and Degrees)  !
 --------------------------                            --------------------------
 ! Name  Definition              Value          Derivative Info.                !
 --------------------------------------------------------------------------------
 ! R1    R(1,2)                  1.4014         estimate D2E/DX2                !
 ! R2    R(1,6)                  1.4014         estimate D2E/DX2                !
 ! R3    R(1,7)                  1.54           estimate D2E/DX2                !
 ! R4    R(2,3)                  1.4014         estimate D2E/DX2                !
 ! R5    R(2,13)                 1.07           estimate D2E/DX2                !
 ! R6    R(3,4)                  1.4014         estimate D2E/DX2                !
 ! R7    R(3,22)                 1.76           estimate D2E/DX2                !
 ! R8    R(4,5)                  1.4014         estimate D2E/DX2                !
 ! R9    R(4,14)                 1.07           estimate D2E/DX2                !
 ! R10   R(5,6)                  1.4014         estimate D2E/DX2                !
 ! R11   R(5,15)                 1.07           estimate D2E/DX2                !
 ! R12   R(6,20)                 1.76           estimate D2E/DX2                !
 ! R13   R(7,8)                  1.4014         estimate D2E/DX2                !
 ! R14   R(7,12)                 1.4014         estimate D2E/DX2                !
 ! R15   R(8,9)                  1.4014         estimate D2E/DX2                !
 ! R16   R(8,16)                 1.07           estimate D2E/DX2                !
 ! R17   R(9,10)                 1.4014         estimate D2E/DX2                !
 ! R18   R(9,21)                 1.76           estimate D2E/DX2                !
 ! R19   R(10,11)                1.4014         estimate D2E/DX2                !
 ! R20   R(10,17)                1.07           estimate D2E/DX2                !
 ! R21   R(11,12)                1.4014         estimate D2E/DX2                !
 ! R22   R(11,18)                1.07           estimate D2E/DX2                !
 ! R23   R(12,19)                1.76           estimate D2E/DX2                !
 ! R24   R(19,20)                1.1814         estimate D2E/DX2                !
 ! A1    A(2,1,6)              120.0            estimate D2E/DX2                !
 ! A2    A(2,1,7)              120.0            estimate D2E/DX2                !
 ! A3    A(6,1,7)              120.0            estimate D2E/DX2                !
 ! A4    A(1,2,3)              120.0            estimate D2E/DX2                !
 ! A5    A(1,2,13)             120.0            estimate D2E/DX2                !
 ! A6    A(3,2,13)             120.0            estimate D2E/DX2                !
 ! A7    A(2,3,4)              120.0            estimate D2E/DX2                !
 ! A8    A(2,3,22)             120.0            estimate D2E/DX2                !
 ! A9    A(4,3,22)             120.0            estimate D2E/DX2                !
 ! A10   A(3,4,5)              120.0            estimate D2E/DX2                !
 ! A11   A(3,4,14)             120.0            estimate D2E/DX2                !
 ! A12   A(5,4,14)             120.0            estimate D2E/DX2                !
 ! A13   A(4,5,6)              120.0            estimate D2E/DX2                !
 ! A14   A(4,5,15)             120.0            estimate D2E/DX2                !
 ! A15   A(6,5,15)             120.0            estimate D2E/DX2                !
 ! A16   A(1,6,5)              120.0            estimate D2E/DX2                !
 ! A17   A(1,6,20)             120.0            estimate D2E/DX2                !
 ! A18   A(5,6,20)             120.0            estimate D2E/DX2                !
 ! A19   A(1,7,8)              120.0            estimate D2E/DX2                !
 ! A20   A(1,7,12)             120.0            estimate D2E/DX2                !
 ! A21   A(8,7,12)             120.0            estimate D2E/DX2                !
 ! A22   A(7,8,9)              120.0            estimate D2E/DX2                !
 ! A23   A(7,8,16)             120.0            estimate D2E/DX2                !
 ! A24   A(9,8,16)             120.0            estimate D2E/DX2                !
 ! A25   A(8,9,10)             120.0            estimate D2E/DX2                !
 ! A26   A(8,9,21)             120.0            estimate D2E/DX2                !
 ! A27   A(10,9,21)            120.0            estimate D2E/DX2                !
 ! A28   A(9,10,11)            120.0            estimate D2E/DX2                !
 ! A29   A(9,10,17)            120.0            estimate D2E/DX2                !
 ! A30   A(11,10,17)           120.0            estimate D2E/DX2                !
 ! A31   A(10,11,12)           120.0            estimate D2E/DX2                !
 ! A32   A(10,11,18)           120.0            estimate D2E/DX2                !
 ! A33   A(12,11,18)           120.0            estimate D2E/DX2                !
 ! A34   A(7,12,11)            120.0            estimate D2E/DX2                !
 ! A35   A(7,12,19)            120.0            estimate D2E/DX2                !
 ! A36   A(11,12,19)           120.0            estimate D2E/DX2                !
 ! A37   A(12,19,20)           120.0            estimate D2E/DX2                !
 ! A38   A(6,20,19)            120.0            estimate D2E/DX2                !
 ! D1    D(6,1,2,3)              0.0001         estimate D2E/DX2                !
 ! D2    D(6,1,2,13)           180.0            estimate D2E/DX2                !
 ! D3    D(7,1,2,3)           -180.0            estimate D2E/DX2                !
 ! D4    D(7,1,2,13)            -0.0001         estimate D2E/DX2                !
 ! D5    D(2,1,6,5)             -0.0001         estimate D2E/DX2                !
 ! D6    D(2,1,6,20)           180.0            estimate D2E/DX2                !
 ! D7    D(7,1,6,5)            180.0            estimate D2E/DX2                !
 ! D8    D(7,1,6,20)             0.0            estimate D2E/DX2                !
 ! D9    D(2,1,7,8)             -0.0001         estimate D2E/DX2                !
 ! D10   D(2,1,7,12)           179.9998         estimate D2E/DX2                !
 ! D11   D(6,1,7,8)            179.9999         estimate D2E/DX2                !
 ! D12   D(6,1,7,12)            -0.0002         estimate D2E/DX2                !
 ! D13   D(1,2,3,4)              0.0            estimate D2E/DX2                !
 ! D14   D(1,2,3,22)           180.0            estimate D2E/DX2                !
 ! D15   D(13,2,3,4)          -179.9999         estimate D2E/DX2                !
 ! D16   D(13,2,3,22)            0.0001         estimate D2E/DX2                !
 ! D17   D(2,3,4,5)             -0.0001         estimate D2E/DX2                !
 ! D18   D(2,3,4,14)           180.0            estimate D2E/DX2                !
 ! D19   D(22,3,4,5)           179.9999         estimate D2E/DX2                !
 ! D20   D(22,3,4,14)            0.0            estimate D2E/DX2                !
 ! D21   D(3,4,5,6)              0.0001         estimate D2E/DX2                !
 ! D22   D(3,4,5,15)          -179.9999         estimate D2E/DX2                !
 ! D23   D(14,4,5,6)          -180.0            estimate D2E/DX2                !
 ! D24   D(14,4,5,15)            0.0            estimate D2E/DX2                !
 ! D25   D(4,5,6,1)              0.0            estimate D2E/DX2                !
 ! D26   D(4,5,6,20)           179.9999         estimate D2E/DX2                !
 ! D27   D(15,5,6,1)           180.0            estimate D2E/DX2                !
 ! D28   D(15,5,6,20)           -0.0001         estimate D2E/DX2                !
 ! D29   D(1,6,20,19)            0.0006         estimate D2E/DX2                !
 ! D30   D(5,6,20,19)         -179.9994         estimate D2E/DX2                !
 ! D31   D(1,7,8,9)            179.9999         estimate D2E/DX2                !
 ! D32   D(1,7,8,16)             0.0001         estimate D2E/DX2                !
 ! D33   D(12,7,8,9)             0.0001         estimate D2E/DX2                !
 ! D34   D(12,7,8,16)         -179.9998         estimate D2E/DX2                !
 ! D35   D(1,7,12,11)         -179.9999         estimate D2E/DX2                !
 ! D36   D(1,7,12,19)            0.0            estimate D2E/DX2                !
 ! D37   D(8,7,12,11)           -0.0001         estimate D2E/DX2                !
 ! D38   D(8,7,12,19)          179.9999         estimate D2E/DX2                !
 ! D39   D(7,8,9,10)             0.0            estimate D2E/DX2                !
 ! D40   D(7,8,9,21)           180.0            estimate D2E/DX2                !
 ! D41   D(16,8,9,10)          179.9998         estimate D2E/DX2                !
 ! D42   D(16,8,9,21)           -0.0002         estimate D2E/DX2                !
 ! D43   D(8,9,10,11)            0.0            estimate D2E/DX2                !
 ! D44   D(8,9,10,17)         -179.9999         estimate D2E/DX2                !
 ! D45   D(21,9,10,11)         180.0            estimate D2E/DX2                !
 ! D46   D(21,9,10,17)           0.0001         estimate D2E/DX2                !
 ! D47   D(9,10,11,12)           0.0            estimate D2E/DX2                !
 ! D48   D(9,10,11,18)        -179.9998         estimate D2E/DX2                !
 ! D49   D(17,10,11,12)        179.9999         estimate D2E/DX2                !
 ! D50   D(17,10,11,18)          0.0001         estimate D2E/DX2                !
 ! D51   D(10,11,12,7)           0.0            estimate D2E/DX2                !
 ! D52   D(10,11,12,19)       -179.9999         estimate D2E/DX2                !
 ! D53   D(18,11,12,7)         179.9999         estimate D2E/DX2                !
 ! D54   D(18,11,12,19)         -0.0001         estimate D2E/DX2                !
 ! D55   D(7,12,19,20)           0.0005         estimate D2E/DX2                !
 ! D56   D(11,12,19,20)       -179.9995         estimate D2E/DX2                !
 ! D57   D(12,19,20,6)          -0.0008         estimate D2E/DX2                !
 --------------------------------------------------------------------------------
 Trust Radius=3.00D-01 FncErr=1.00D-07 GrdErr=1.00D-06 EigMax=2.50D+02 EigMin=1.00D-04
 Number of steps in this run=    129 maximum allowed number of steps=    132.
 GradGradGradGradGradGradGradGradGradGradGradGradGradGradGradGradGradGrad

                          Input orientation:                          
 ---------------------------------------------------------------------
 Center     Atomic      Atomic             Coordinates (Angstroms)
 Number     Number       Type             X           Y           Z
 ---------------------------------------------------------------------
      1          6           0       -1.146881    1.706103    0.712138
      2          6           0        0.185500    1.735989    0.278791
      3          6           0        0.893393    2.945440    0.272719
      4          6           0        0.268906    4.125005    0.699994
      5          6           0       -1.063476    4.095119    1.133338
      6          6           0       -1.771369    2.885668    1.139411
      7          6           0       -1.924786    0.377036    0.718812
      8          6           0       -1.300299   -0.802529    0.291537
      9          6           0       -2.008192   -2.011981    0.297611
     10          6           0       -3.340572   -2.041867    0.730961
     11          6           0       -3.965059   -0.862302    1.158236
     12          6           0       -3.257166    0.347149    1.152162
     13          1           0        0.662310    0.835364   -0.047441
     14          1           0        0.809399    5.048448    0.695358
     15          1           0       -1.540286    4.995744    1.459570
     16          1           0       -0.282996   -0.779711   -0.039333
     17          1           0       -3.881063   -2.965310    0.735600
     18          1           0       -4.982360   -0.885122    1.489111
     19         17           0       -4.041451    1.828549    1.688774
     20         17           0       -3.444690    2.848135    1.683644
     21         17           0       -1.223906   -3.493381   -0.238998
     22         17           0        2.566714    2.982973   -0.271515
 ---------------------------------------------------------------------
                    Distance matrix (angstroms):
                    1          2          3          4          5
     1  C    0.000000
     2  C    1.401400   0.000000
     3  C    2.427296   1.401400   0.000000
     4  C    2.802800   2.427296   1.401400   0.000000
     5  C    2.427296   2.802800   2.427296   1.401400   0.000000
     6  C    1.401400   2.427296   2.802800   2.427296   1.401400
     7  C    1.540000   2.548270   3.838989   4.342800   3.838989
     8  C    2.548270   2.941400   4.342800   5.187469   4.975106
     9  C    3.838989   4.342800   5.744200   6.558176   6.235992
    10  C    4.342800   5.187469   6.558176   7.145600   6.558176
    11  C    3.838989   4.975106   6.235992   6.558176   5.744200
    12  C    2.548270   3.813607   4.975106   5.187469   4.342800
    13  H    2.146700   1.070000   2.146700   3.396345   3.872800
    14  H    3.872800   3.396345   2.146700   1.070000   2.146700
    15  H    3.396345   3.872800   3.396345   2.146700   1.070000
    16  H    2.736837   2.578650   3.918930   4.990735   5.074276
    17  H    5.412800   6.232802   7.612271   8.215600   7.612271
    18  H    4.693509   5.919617   7.118798   7.300676   6.347206
    19  Cl   3.057342   4.456874   5.254079   4.983028   3.783409
    20  Cl   2.743718   4.048303   4.562800   4.048303   2.743718
    21  Cl   5.286324   5.440665   6.797295   7.819846   7.713260
    22  Cl   4.048303   2.743718   1.760000   2.743718   4.048303
                    6          7          8          9         10
     6  C    0.000000
     7  C    2.548270   0.000000
     8  C    3.813607   1.401400   0.000000
     9  C    4.975106   2.427296   1.401400   0.000000
    10  C    5.187469   2.802800   2.427296   1.401400   0.000000
    11  C    4.342800   2.427296   2.802800   2.427296   1.401400
    12  C    2.941400   1.401400   2.427296   2.802800   2.427296
    13  H    3.396345   2.736837   2.578650   3.918930   4.990735
    14  H    3.396345   5.412800   6.232802   7.612271   8.215600
    15  H    2.146700   4.693509   5.919617   7.118798   7.300676
    16  H    4.127917   2.146700   1.070000   2.146700   3.396345
    17  H    6.232802   3.872800   3.396345   2.146700   1.070000
    18  H    4.965039   3.396345   3.872800   3.396345   2.146700
    19  Cl   2.563702   2.743718   4.048303   4.562800   4.048303
    20  Cl   1.760000   3.057342   4.456874   5.254079   4.983028
    21  Cl   6.549198   4.048303   2.743718   1.760000   2.743718
    22  Cl   4.562800   5.286324   5.440665   6.797295   7.819846
                   11         12         13         14         15
    11  C    0.000000
    12  C    1.401400   0.000000
    13  H    5.074276   4.127917   0.000000
    14  H    7.612271   6.232802   4.280590   0.000000
    15  H    6.347206   4.965039   4.942800   2.471400   0.000000
    16  H    3.872800   3.396345   1.871400   5.974992   6.097816
    17  H    2.146700   3.396345   5.974992   9.285600   8.329571
    18  H    1.070000   2.146700   6.097816   8.329571   6.814200
    19  Cl   2.743718   1.760000   5.111382   5.906383   4.042212
    20  Cl   3.783409   2.563702   4.890332   4.890332   2.879094
    21  Cl   4.048303   4.562800   4.725732   8.830073   8.663168
    22  Cl   7.713260   6.549198   2.879094   2.879094   4.890332
                   16         17         18         19         20
    16  H    0.000000
    17  H    4.280590   0.000000
    18  H    4.942800   2.471400   0.000000
    19  Cl   4.890332   4.890332   2.879094   0.000000
    20  Cl   5.111382   5.906383   4.042212   1.181400   0.000000
    21  Cl   2.879094   2.879094   4.890332   6.322800   6.988795
    22  Cl   4.725732   8.830073   8.663168   6.988795   6.322800
                   21         22
    21  Cl   0.000000
    22  Cl   7.504200   0.000000
 Stoichiometry    C12H6Cl4
 Framework group  C1[X(C12H6Cl4)]
 Deg. of freedom    60
 Full point group                 C1      NOp   1
 Largest Abelian subgroup         C1      NOp   1
 Largest concise Abelian subgroup C1      NOp   1
                         Standard orientation:                         
 ---------------------------------------------------------------------
 Center     Atomic      Atomic             Coordinates (Angstroms)
 Number     Number       Type             X           Y           Z
 ---------------------------------------------------------------------
      1          6           0        0.770000    0.000000   -0.000001
      2          6           0        1.470700   -1.213648   -0.000001
      3          6           0        2.872100   -1.213648    0.000000
      4          6           0        3.572800    0.000000    0.000001
      5          6           0        2.872100    1.213648   -0.000002
      6          6           0        1.470700    1.213648   -0.000003
      7          6           0       -0.770000    0.000000   -0.000001
      8          6           0       -1.470700   -1.213648   -0.000002
      9          6           0       -2.872100   -1.213648   -0.000001
     10          6           0       -3.572800    0.000000    0.000002
     11          6           0       -2.872100    1.213648    0.000003
     12          6           0       -1.470700    1.213648    0.000002
     13          1           0        0.935700   -2.140295    0.000001
     14          1           0        4.642800    0.000000    0.000002
     15          1           0        3.407100    2.140295   -0.000004
     16          1           0       -0.935700   -2.140295   -0.000001
     17          1           0       -4.642800    0.000000    0.000004
     18          1           0       -3.407100    2.140295    0.000007
     19         17           0       -0.590700    2.737853    0.000005
     20         17           0        0.590700    2.737853   -0.000005
     21         17           0       -3.752100   -2.737853   -0.000002
     22         17           0        3.752100   -2.737853    0.000002
 ---------------------------------------------------------------------
 Rotational constants (GHZ):           0.4182380           0.2662728           0.1626934
 Standard basis: 6-311+G(d,p) (5D, 7F)
 There are   436 symmetry adapted cartesian basis functions of A   symmetry.
 There are   420 symmetry adapted basis functions of A   symmetry.
   420 basis functions,   692 primitive gaussians,   436 cartesian basis functions
    73 alpha electrons       73 beta electrons
       nuclear repulsion energy      1540.1076431839 Hartrees.
 NAtoms=   22 NActive=   22 NUniq=   22 SFac= 1.00D+00 NAtFMM=   60 NAOKFM=F Big=F
 Integral buffers will be    131072 words long.
 Raffenetti 2 integral format.
 Two-electron integral symmetry is turned on.
 One-electron integrals computed using PRISM.
 NBasis=   420 RedAO= T EigKep=  1.15D-06  NBF=   420
 NBsUse=   415 1.00D-06 EigRej=  7.39D-07 NBFU=   415
 ExpMin= 4.38D-02 ExpMax= 1.06D+05 ExpMxC= 3.62D+03 IAcc=3 IRadAn=         5 AccDes= 0.00D+00
 Harris functional with IExCor=  402 and IRadAn=       5 diagonalized for initial guess.
 HarFok:  IExCor=  402 AccDes= 0.00D+00 IRadAn=         5 IDoV= 1 UseB2=F ITyADJ=14
 ICtDFT=  3500011 ScaDFX=  1.000000  1.000000  1.000000  1.000000
 FoFCou: FMM=F IPFlag=           0 FMFlag=      100000 FMFlg1=           0
         NFxFlg=           0 DoJE=T BraDBF=F KetDBF=T FulRan=T
         wScrn=  0.000000 ICntrl=       500 IOpCl=  0 I1Cent=   200000004 NGrid=           0
         NMat0=    1 NMatS0=      1 NMatT0=    0 NMatD0=    1 NMtDS0=    0 NMtDT0=    0
 Petite list used in FoFCou.
 Requested convergence on RMS density matrix=1.00D-08 within  32 cycles.
 Requested convergence on MAX density matrix=1.00D-06.
 Requested convergence on             energy=1.00D-06.
 No special actions if energy rises.
 SCF Done:  E(RB3LYP) =  -2300.27861441     A.U. after   19 cycles
            NFock= 19  Conv=0.22D-08     -V/T= 1.9994
 QCSCF skips out because SCF is already converged.

 **********************************************************************

            Population analysis using the SCF Density.

 **********************************************************************

 Orbital symmetries:
       Occupied  (A) (A) (A) (A) (A) (A) (A) (A) (A) (A) (A) (A)
                 (A) (A) (A) (A) (A) (A) (A) (A) (A) (A) (A) (A)
                 (A) (A) (A) (A) (A) (A) (A) (A) (A) (A) (A) (A)
                 (A) (A) (A) (A) (A) (A) (A) (A) (A) (A) (A) (A)
                 (A) (A) (A) (A) (A) (A) (A) (A) (A) (A) (A) (A)
                 (A) (A) (A) (A) (A) (A) (A) (A) (A) (A) (A) (A)
                 (A)
       Virtual   (A) (A) (A) (A) (A) (A) (A) (A) (A) (A) (A) (A)
                 (A) (A) (A) (A) (A) (A) (A) (A) (A) (A) (A) (A)
                 (A) (A) (A) (A) (A) (A) (A) (A) (A) (A) (A) (A)
                 (A) (A) (A) (A) (A) (A) (A) (A) (A) (A) (A) (A)
                 (A) (A) (A) (A) (A) (A) (A) (A) (A) (A) (A) (A)
                 (A) (A) (A) (A) (A) (A) (A) (A) (A) (A) (A) (A)
                 (A) (A) (A) (A) (A) (A) (A) (A) (A) (A) (A) (A)
                 (A) (A) (A) (A) (A) (A) (A) (A) (A) (A) (A) (A)
                 (A) (A) (A) (A) (A) (A) (A) (A) (A) (A) (A) (A)
                 (A) (A) (A) (A) (A) (A) (A) (A) (A) (A) (A) (A)
                 (A) (A) (A) (A) (A) (A) (A) (A) (A) (A) (A) (A)
                 (A) (A) (A) (A) (A) (A) (A) (A) (A) (A) (A) (A)
                 (A) (A) (A) (A) (A) (A) (A) (A) (A) (A) (A) (A)
                 (A) (A) (A) (A) (A) (A) (A) (A) (A) (A) (A) (A)
                 (A) (A) (A) (A) (A) (A) (A) (A) (A) (A) (A) (A)
                 (A) (A) (A) (A) (A) (A) (A) (A) (A) (A) (A) (A)
                 (A) (A) (A) (A) (A) (A) (A) (A) (A) (A) (A) (A)
                 (A) (A) (A) (A) (A) (A) (A) (A) (A) (A) (A) (A)
                 (A) (A) (A) (A) (A) (A) (A) (A) (A) (A) (A) (A)
                 (A) (A) (A) (A) (A) (A) (A) (A) (A) (A) (A) (A)
                 (A) (A) (A) (A) (A) (A) (A) (A) (A) (A) (A) (A)
                 (A) (A) (A) (A) (A) (A) (A) (A) (A) (A) (A) (A)
                 (A) (A) (A) (A) (A) (A) (A) (A) (A) (A) (A) (A)
                 (A) (A) (A) (A) (A) (A) (A) (A) (A) (A) (A) (A)
                 (A) (A) (A) (A) (A) (A) (A) (A) (A) (A) (A) (A)
                 (A) (A) (A) (A) (A) (A) (A) (A) (A) (A) (A) (A)
                 (A) (A) (A) (A) (A) (A) (A) (A) (A) (A) (A) (A)
                 (A) (A) (A) (A) (A) (A) (A) (A) (A) (A) (A) (A)
                 (A) (A) (A) (A) (A) (A)
 The electronic state is 1-A.
 Alpha  occ. eigenvalues -- -101.65662-101.65662-101.55689-101.55689 -10.24490
 Alpha  occ. eigenvalues --  -10.24489 -10.20683 -10.20662 -10.19541 -10.19541
 Alpha  occ. eigenvalues --  -10.19419 -10.19419 -10.19307 -10.19306 -10.16910
 Alpha  occ. eigenvalues --  -10.16909  -9.64428  -9.62301  -9.47130  -9.47129
 Alpha  occ. eigenvalues --   -7.42840  -7.37858  -7.37840  -7.37405  -7.37232
 Alpha  occ. eigenvalues --   -7.36803  -7.23591  -7.23591  -7.22612  -7.22612
 Alpha  occ. eigenvalues --   -7.22582  -7.22582  -1.38774  -0.90427  -0.89536
 Alpha  occ. eigenvalues --   -0.86457  -0.85471  -0.80108  -0.79522  -0.78939
 Alpha  occ. eigenvalues --   -0.74942  -0.72038  -0.71308  -0.69848  -0.66021
 Alpha  occ. eigenvalues --   -0.62501  -0.61163  -0.59423  -0.56797  -0.51221
 Alpha  occ. eigenvalues --   -0.49654  -0.49024  -0.47787  -0.46675  -0.44985
 Alpha  occ. eigenvalues --   -0.44270  -0.41885  -0.41403  -0.40793  -0.39968
 Alpha  occ. eigenvalues --   -0.38671  -0.36694  -0.35522  -0.34795  -0.34775
 Alpha  occ. eigenvalues --   -0.32061  -0.31832  -0.29636  -0.28938  -0.26368
 Alpha  occ. eigenvalues --   -0.25297  -0.20582  -0.15609
 Alpha virt. eigenvalues --   -0.06307  -0.04954  -0.02265  -0.01662   0.00372
 Alpha virt. eigenvalues --    0.00685   0.00752   0.00828   0.01382   0.01895
 Alpha virt. eigenvalues --    0.01982   0.02502   0.02661   0.04547   0.04839
 Alpha virt. eigenvalues --    0.05016   0.06150   0.06389   0.06760   0.07277
 Alpha virt. eigenvalues --    0.07874   0.08373   0.08654   0.09587   0.10013
 Alpha virt. eigenvalues --    0.10102   0.10665   0.10796   0.11376   0.12100
 Alpha virt. eigenvalues --    0.12138   0.12284   0.13103   0.13342   0.13461
 Alpha virt. eigenvalues --    0.14084   0.14135   0.14714   0.15519   0.15628
 Alpha virt. eigenvalues --    0.16440   0.16817   0.16846   0.17152   0.17270
 Alpha virt. eigenvalues --    0.17697   0.17973   0.18410   0.18795   0.18922
 Alpha virt. eigenvalues --    0.19463   0.20063   0.20441   0.20664   0.21247
 Alpha virt. eigenvalues --    0.22007   0.22135   0.22279   0.22386   0.23047
 Alpha virt. eigenvalues --    0.24049   0.24600   0.25083   0.25560   0.25831
 Alpha virt. eigenvalues --    0.25999   0.26436   0.26871   0.27350   0.27389
 Alpha virt. eigenvalues --    0.28192   0.28605   0.29490   0.29721   0.30241
 Alpha virt. eigenvalues --    0.31463   0.31521   0.33446   0.33718   0.33887
 Alpha virt. eigenvalues --    0.34431   0.35923   0.36274   0.37003   0.38528
 Alpha virt. eigenvalues --    0.40730   0.42684   0.43431   0.44630   0.44773
 Alpha virt. eigenvalues --    0.46104   0.46119   0.46380   0.46460   0.46943
 Alpha virt. eigenvalues --    0.47622   0.47675   0.50277   0.51218   0.51380
 Alpha virt. eigenvalues --    0.52836   0.52854   0.53712   0.54851   0.55208
 Alpha virt. eigenvalues --    0.55654   0.56603   0.56830   0.57836   0.59184
 Alpha virt. eigenvalues --    0.59304   0.59430   0.61680   0.62228   0.62236
 Alpha virt. eigenvalues --    0.62834   0.63305   0.65652   0.65753   0.66191
 Alpha virt. eigenvalues --    0.66454   0.67513   0.68634   0.68866   0.70267
 Alpha virt. eigenvalues --    0.71966   0.72025   0.72038   0.72356   0.72804
 Alpha virt. eigenvalues --    0.74003   0.78074   0.79544   0.79985   0.80958
 Alpha virt. eigenvalues --    0.82632   0.83669   0.84478   0.84595   0.84927
 Alpha virt. eigenvalues --    0.85691   0.85891   0.86216   0.86588   0.86959
 Alpha virt. eigenvalues --    0.87931   0.88151   0.89695   0.90966   0.91140
 Alpha virt. eigenvalues --    0.91754   0.92646   0.94909   0.95134   0.95811
 Alpha virt. eigenvalues --    0.96784   0.97058   0.97133   0.97147   0.99741
 Alpha virt. eigenvalues --    1.00613   1.02187   1.02966   1.05499   1.05753
 Alpha virt. eigenvalues --    1.05803   1.06458   1.07383   1.09652   1.11010
 Alpha virt. eigenvalues --    1.11267   1.11897   1.16892   1.19303   1.20944
 Alpha virt. eigenvalues --    1.21381   1.22986   1.25308   1.26585   1.26979
 Alpha virt. eigenvalues --    1.28540   1.30295   1.30580   1.32637   1.34011
 Alpha virt. eigenvalues --    1.36130   1.42572   1.43449   1.44629   1.46594
 Alpha virt. eigenvalues --    1.50248   1.50990   1.51095   1.52471   1.53478
 Alpha virt. eigenvalues --    1.55134   1.58041   1.58308   1.58694   1.61528
 Alpha virt. eigenvalues --    1.62129   1.65347   1.66120   1.67707   1.68303
 Alpha virt. eigenvalues --    1.68697   1.72768   1.74305   1.76165   1.76573
 Alpha virt. eigenvalues --    1.78234   1.84490   1.85014   1.87045   1.89173
 Alpha virt. eigenvalues --    1.89691   1.90659   1.92074   1.92657   1.94787
 Alpha virt. eigenvalues --    1.95938   1.96658   1.97430   1.97867   1.97981
 Alpha virt. eigenvalues --    1.98866   2.03307   2.05209   2.07359   2.08570
 Alpha virt. eigenvalues --    2.08777   2.09050   2.09455   2.16225   2.19007
 Alpha virt. eigenvalues --    2.19952   2.23480   2.26081   2.26542   2.27112
 Alpha virt. eigenvalues --    2.28338   2.28576   2.31199   2.32783   2.36478
 Alpha virt. eigenvalues --    2.36900   2.39178   2.41138   2.42581   2.44557
 Alpha virt. eigenvalues --    2.45492   2.46692   2.46708   2.53027   2.55031
 Alpha virt. eigenvalues --    2.55761   2.61747   2.62886   2.65182   2.65672
 Alpha virt. eigenvalues --    2.66310   2.68339   2.70325   2.72078   2.72621
 Alpha virt. eigenvalues --    2.73045   2.74645   2.74848   2.76326   2.77093
 Alpha virt. eigenvalues --    2.77866   2.81046   2.81349   2.83257   2.83476
 Alpha virt. eigenvalues --    2.84976   2.86853   2.86859   2.91858   2.93063
 Alpha virt. eigenvalues --    2.96471   3.05869   3.07089   3.07336   3.08648
 Alpha virt. eigenvalues --    3.14906   3.16473   3.17426   3.21948   3.25080
 Alpha virt. eigenvalues --    3.34390   3.34941   3.38094   3.41386   3.48410
 Alpha virt. eigenvalues --    3.52858   3.57519   3.60386   3.64524   3.77966
 Alpha virt. eigenvalues --    3.79993   3.88112   3.93899   4.06870   4.07079
 Alpha virt. eigenvalues --    4.14030   4.22549   4.49517   4.81349   4.84769
 Alpha virt. eigenvalues --    9.76896   9.79049   9.80289  10.54780  23.44436
 Alpha virt. eigenvalues --   23.59535  23.86357  23.86799  23.93107  23.94656
 Alpha virt. eigenvalues --   24.02133  24.02590  24.06058  24.06230  24.12939
 Alpha virt. eigenvalues --   24.13309  25.41404  25.82565  25.83035  26.00736
 Alpha virt. eigenvalues --   26.13748  26.16281  26.20001  26.59838  26.61176
 Alpha virt. eigenvalues --   27.10603  27.40146  28.43969 215.76370 215.78281
 Alpha virt. eigenvalues --  215.89998 216.86621
          Condensed to atoms (all electrons):
               1          2          3          4          5          6
     1  C   18.382288   1.434401  -3.950836  -1.299807  -2.016568  -0.104414
     2  C    1.434401  12.987603   0.320542  -3.096846   0.665367  -0.897436
     3  C   -3.950836   0.320542  21.643623  -4.482234  -5.422856   2.778197
     4  C   -1.299807  -3.096846  -4.482234  16.849875   5.547037  -9.911753
     5  C   -2.016568   0.665367  -5.422856   5.547037  29.775727 -33.548313
     6  C   -0.104414  -0.897436   2.778197  -9.911753 -33.548313  73.391314
     7  C    5.256519  -0.862388  -1.299847  -1.004480  -3.843321   2.982625
     8  C   -0.862388  -1.981297  -0.016765  -0.052527  -0.812993  -0.657003
     9  C   -1.299847  -0.016764   2.262857   0.011408  -1.749138  -0.970263
    10  C   -1.004480  -0.052527   0.011407   0.129126   0.433248  -0.535334
    11  C   -3.843321  -0.812993  -1.749138   0.433248   5.818317  -8.231416
    12  C    2.982626  -0.657003  -0.970263  -0.535334  -8.231416  14.013911
    13  H    0.151814   0.307259  -0.288739   0.077196   0.039576  -0.091553
    14  H    0.082954   0.039628   0.040590   0.404594  -0.060661  -0.168101
    15  H    0.128790  -0.028782  -0.053367  -0.069710   0.194459   0.281628
    16  H    0.075906   0.056372  -0.055675  -0.009481   0.019665   0.020596
    17  H    0.001833   0.000751  -0.000440  -0.000019   0.001052   0.000767
    18  H    0.020211   0.004732   0.001617  -0.000332  -0.009539   0.013779
    19  Cl  -2.295241  -0.038021  -1.655535   0.819986   6.105313  -9.679853
    20  Cl  -4.565537  -0.629464  -1.565149   2.897109  13.631388 -23.339247
    21  Cl  -0.100188  -0.043901   0.034351  -0.001779  -0.022412  -0.085189
    22  Cl  -0.629281   0.015677  -0.518464  -0.045705   0.147980   0.434460
               7          8          9         10         11         12
     1  C    5.256519  -0.862388  -1.299847  -1.004480  -3.843321   2.982626
     2  C   -0.862388  -1.981297  -0.016764  -0.052527  -0.812993  -0.657003
     3  C   -1.299847  -0.016765   2.262857   0.011407  -1.749138  -0.970263
     4  C   -1.004480  -0.052527   0.011408   0.129126   0.433248  -0.535334
     5  C   -3.843321  -0.812993  -1.749138   0.433248   5.818317  -8.231416
     6  C    2.982625  -0.657003  -0.970263  -0.535334  -8.231416  14.013911
     7  C   18.382288   1.434401  -3.950836  -1.299806  -2.016568  -0.104415
     8  C    1.434401  12.987602   0.320542  -3.096845   0.665367  -0.897436
     9  C   -3.950836   0.320542  21.643623  -4.482234  -5.422856   2.778197
    10  C   -1.299806  -3.096845  -4.482234  16.849876   5.547038  -9.911756
    11  C   -2.016568   0.665367  -5.422856   5.547038  29.775726 -33.548313
    12  C   -0.104415  -0.897436   2.778197  -9.911756 -33.548313  73.391317
    13  H    0.075906   0.056372  -0.055675  -0.009481   0.019665   0.020596
    14  H    0.001833   0.000751  -0.000440  -0.000019   0.001052   0.000767
    15  H    0.020211   0.004732   0.001617  -0.000332  -0.009539   0.013779
    16  H    0.151814   0.307259  -0.288739   0.077196   0.039576  -0.091553
    17  H    0.082954   0.039628   0.040590   0.404594  -0.060661  -0.168101
    18  H    0.128790  -0.028782  -0.053367  -0.069710   0.194459   0.281628
    19  Cl  -4.565536  -0.629464  -1.565149   2.897109  13.631388 -23.339248
    20  Cl  -2.295241  -0.038021  -1.655535   0.819986   6.105313  -9.679853
    21  Cl  -0.629281   0.015678  -0.518464  -0.045705   0.147980   0.434460
    22  Cl  -0.100188  -0.043901   0.034351  -0.001779  -0.022412  -0.085189
              13         14         15         16         17         18
     1  C    0.151814   0.082954   0.128790   0.075906   0.001833   0.020211
     2  C    0.307259   0.039628  -0.028782   0.056372   0.000751   0.004732
     3  C   -0.288739   0.040590  -0.053367  -0.055675  -0.000440   0.001617
     4  C    0.077196   0.404594  -0.069710  -0.009481  -0.000019  -0.000332
     5  C    0.039576  -0.060661   0.194459   0.019665   0.001052  -0.009539
     6  C   -0.091553  -0.168101   0.281628   0.020596   0.000767   0.013779
     7  C    0.075906   0.001833   0.020211   0.151814   0.082954   0.128790
     8  C    0.056372   0.000751   0.004732   0.307259   0.039628  -0.028782
     9  C   -0.055675  -0.000440   0.001617  -0.288739   0.040590  -0.053367
    10  C   -0.009481  -0.000019  -0.000332   0.077196   0.404594  -0.069710
    11  C    0.019665   0.001052  -0.009539   0.039576  -0.060661   0.194459
    12  C    0.020596   0.000767   0.013779  -0.091553  -0.168101   0.281628
    13  H    0.558167  -0.000230   0.000016   0.006879   0.000002  -0.000004
    14  H   -0.000230   0.524317  -0.009680   0.000002   0.000000  -0.000000
    15  H    0.000016  -0.009680   0.534145  -0.000004  -0.000000   0.000002
    16  H    0.006879   0.000002  -0.000004   0.558167  -0.000230   0.000016
    17  H    0.000002   0.000000  -0.000000  -0.000230   0.524317  -0.009680
    18  H   -0.000004  -0.000000   0.000002   0.000016  -0.009680   0.534145
    19  Cl   0.017768   0.001145   0.004414   0.014570   0.014848  -0.148985
    20  Cl   0.014570   0.014848  -0.148985   0.017768   0.001145   0.004414
    21  Cl  -0.000486   0.000000   0.000004  -0.033524  -0.015214   0.002356
    22  Cl  -0.033524  -0.015214   0.002356  -0.000486   0.000000   0.000004
              19         20         21         22
     1  C   -2.295241  -4.565537  -0.100188  -0.629281
     2  C   -0.038021  -0.629464  -0.043901   0.015677
     3  C   -1.655535  -1.565149   0.034351  -0.518464
     4  C    0.819986   2.897109  -0.001779  -0.045705
     5  C    6.105313  13.631388  -0.022412   0.147980
     6  C   -9.679853 -23.339247  -0.085189   0.434460
     7  C   -4.565536  -2.295241  -0.629281  -0.100188
     8  C   -0.629464  -0.038021   0.015678  -0.043901
     9  C   -1.565149  -1.655535  -0.518464   0.034351
    10  C    2.897109   0.819986  -0.045705  -0.001779
    11  C   13.631388   6.105313   0.147980  -0.022412
    12  C  -23.339248  -9.679853   0.434460  -0.085189
    13  H    0.017768   0.014570  -0.000486  -0.033524
    14  H    0.001145   0.014848   0.000000  -0.015214
    15  H    0.004414  -0.148985   0.000004   0.002356
    16  H    0.014570   0.017768  -0.033524  -0.000486
    17  H    0.014848   0.001145  -0.015214   0.000000
    18  H   -0.148985   0.004414   0.002356   0.000004
    19  Cl  33.985343   2.998593  -0.060959  -0.019811
    20  Cl   2.998593  33.985343  -0.019811  -0.060959
    21  Cl  -0.060959  -0.019811  17.516414  -0.000093
    22  Cl  -0.019811  -0.060959  -0.000093  17.516414
 Mulliken charges:
               1
     1  C   -0.545432
     2  C   -0.714911
     3  C    0.936122
     4  C   -0.659572
     5  C   -0.661913
     6  C    0.302598
     7  C   -0.545432
     8  C   -0.714911
     9  C    0.936122
    10  C   -0.659572
    11  C   -0.661913
    12  C    0.302598
    13  H    0.133906
    14  H    0.141865
    15  H    0.134246
    16  H    0.133906
    17  H    0.141865
    18  H    0.134246
    19  Cl   0.507325
    20  Cl   0.507325
    21  Cl   0.425766
    22  Cl   0.425766
 Sum of Mulliken charges =  -0.00000
 Mulliken charges with hydrogens summed into heavy atoms:
               1
     1  C   -0.545432
     2  C   -0.581006
     3  C    0.936122
     4  C   -0.517707
     5  C   -0.527666
     6  C    0.302598
     7  C   -0.545432
     8  C   -0.581006
     9  C    0.936122
    10  C   -0.517707
    11  C   -0.527666
    12  C    0.302598
    19  Cl   0.507325
    20  Cl   0.507325
    21  Cl   0.425766
    22  Cl   0.425766
 Electronic spatial extent (au):  <R**2>=           5864.1400
 Charge=             -0.0000 electrons
 Dipole moment (field-independent basis, Debye):
    X=             -0.0000    Y=              4.6667    Z=              0.0000  Tot=              4.6667
 Quadrupole moment (field-independent basis, Debye-Ang):
   XX=           -122.7073   YY=           -112.4066   ZZ=           -123.2157
   XY=              0.0000   XZ=             -0.0000   YZ=              0.0000
 Traceless Quadrupole moment (field-independent basis, Debye-Ang):
   XX=             -3.2641   YY=              7.0366   ZZ=             -3.7725
   XY=              0.0000   XZ=             -0.0000   YZ=              0.0000
 Octapole moment (field-independent basis, Debye-Ang**2):
  XXX=             -0.0000  YYY=             54.9270  ZZZ=              0.0000  XYY=              0.0000
  XXY=             44.7256  XXZ=              0.0001  XZZ=             -0.0000  YZZ=              6.6651
  YYZ=              0.0000  XYZ=             -0.0000
 Hexadecapole moment (field-independent basis, Debye-Ang**3):
 XXXX=          -4707.5011 YYYY=          -2696.4916 ZZZZ=           -148.3347 XXXY=              0.0000
 XXXZ=             -0.0005 YYYX=              0.0000 YYYZ=              0.0000 ZZZX=              0.0001
 ZZZY=             -0.0000 XXYY=          -1334.9884 XXZZ=           -880.2301 YYZZ=           -505.7509
 XXYZ=              0.0001 YYXZ=             -0.0001 ZZXY=              0.0000
 N-N= 1.540107643184D+03 E-N=-8.524516629041D+03  KE= 2.301744580995D+03
 Calling FoFJK, ICntrl=      2127 FMM=F ISym2X=0 I1Cent= 0 IOpClX= 0 NMat=1 NMatS=1 NMatT=0.
 ***** Axes restored to original set *****
 -------------------------------------------------------------------
 Center     Atomic                   Forces (Hartrees/Bohr)
 Number     Number              X              Y              Z
 -------------------------------------------------------------------
      1        6           0.004505203   -0.024853232   -0.006151906
      2        6           0.000177555    0.013602482    0.002496380
      3        6          -0.013138970   -0.000626850    0.004211086
      4        6          -0.004110674   -0.007892885   -0.000128286
      5        6           0.007323922   -0.025029203   -0.007113460
      6        6           0.104267647   -0.005723718   -0.035427134
      7        6           0.023848460    0.008195178   -0.006317897
      8        6          -0.011762045   -0.006796477    0.002598649
      9        6          -0.005868976    0.011794201    0.004148581
     10        6           0.004868330    0.007447767   -0.000205107
     11        6           0.025377916    0.005816554   -0.007268497
     12        6           0.055893566   -0.088372544   -0.035011260
     13        1           0.007108621   -0.004069744   -0.003106372
     14        1           0.005796594    0.007976158   -0.000411710
     15        1          -0.005683043    0.011346724    0.004003352
     16        1           0.007015711   -0.004228443   -0.003105611
     17        1          -0.004117674   -0.008962548   -0.000326702
     18        1          -0.012658469   -0.000570909    0.004063157
     19       17          -1.715240940   -2.717806814    0.054694774
     20       17           1.529931294    2.826678029    0.026803692
     21       17          -0.001161256    0.002073075    0.000771954
     22       17          -0.002372770    0.000003200    0.000782317
 -------------------------------------------------------------------
 Cartesian Forces:  Max     2.826678029 RMS     0.559921577

 GradGradGradGradGradGradGradGradGradGradGradGradGradGradGradGradGradGrad
 Berny optimization.
 FormGI is forming the generalized inverse of G from B-inverse, IUseBI=4.
 Internal  Forces:  Max     3.115953448 RMS     0.292400721
 Search for a local minimum.
 Step number   1 out of a maximum of  129
 All quantities printed in internal units (Hartrees-Bohrs-Radians)
 Mixed Optimization -- RFO/linear search
 Second derivative matrix not updated -- first step.
 ITU=  0
     Eigenvalues ---    0.01035   0.01214   0.01489   0.01712   0.01738
     Eigenvalues ---    0.01829   0.02070   0.02070   0.02070   0.02070
     Eigenvalues ---    0.02070   0.02070   0.02070   0.02070   0.02070
     Eigenvalues ---    0.02070   0.02070   0.02070   0.03966   0.16000
     Eigenvalues ---    0.16000   0.16000   0.16000   0.16000   0.16000
     Eigenvalues ---    0.22435   0.22451   0.23500   0.23531   0.24620
     Eigenvalues ---    0.24621   0.25000   0.25000   0.25000   0.25000
     Eigenvalues ---    0.25000   0.28334   0.29042   0.29447   0.29539
     Eigenvalues ---    0.29539   0.37230   0.37230   0.37230   0.37230
     Eigenvalues ---    0.37230   0.37230   0.40037   0.40812   0.41405
     Eigenvalues ---    0.41457   0.44578   0.45130   0.45389   0.45389
     Eigenvalues ---    0.45389   0.45389   0.45389   0.45389  16.61567
 RFO step:  Lambda=-6.26223199D-01 EMin= 1.03510885D-02
 Linear search not attempted -- first point.
 Iteration  1 RMS(Cart)=  0.03115087 RMS(Int)=  0.00051813
 Iteration  2 RMS(Cart)=  0.00125078 RMS(Int)=  0.00023796
 Iteration  3 RMS(Cart)=  0.00000065 RMS(Int)=  0.00023796
 Variable       Old X    -DE/DX   Delta X   Delta X   Delta X     New X
                                 (Linear)    (Quad)   (Total)
    R1        2.64826   0.01782   0.00000   0.00192   0.00185   2.65011
    R2        2.64826   0.10202   0.00000   0.01693   0.01659   2.66485
    R3        2.91018   0.11847   0.00000  -0.01377  -0.01429   2.89589
    R4        2.64826  -0.01207   0.00000  -0.00889  -0.00888   2.63938
    R5        2.02201   0.00754   0.00000   0.00755   0.00755   2.02956
    R6        2.64826  -0.03048   0.00000  -0.01136  -0.01128   2.63699
    R7        3.32592  -0.00250   0.00000  -0.00271  -0.00271   3.32321
    R8        2.64826  -0.02503   0.00000  -0.00859  -0.00853   2.63973
    R9        2.02201   0.00981   0.00000   0.00983   0.00983   2.03183
   R10        2.64826  -0.00636   0.00000  -0.00818  -0.00819   2.64008
   R11        2.02201   0.01330   0.00000   0.01332   0.01332   2.03533
   R12        3.32592   0.05140   0.00000   0.12686   0.12710   3.45301
   R13        2.64826   0.01782   0.00000   0.00192   0.00185   2.65011
   R14        2.64826   0.10202   0.00000   0.01693   0.01659   2.66485
   R15        2.64826  -0.01207   0.00000  -0.00889  -0.00888   2.63938
   R16        2.02201   0.00754   0.00000   0.00755   0.00755   2.02956
   R17        2.64826  -0.03048   0.00000  -0.01136  -0.01128   2.63699
   R18        3.32592  -0.00250   0.00000  -0.00271  -0.00271   3.32321
   R19        2.64826  -0.02503   0.00000  -0.00859  -0.00853   2.63973
   R20        2.02201   0.00981   0.00000   0.00983   0.00983   2.03183
   R21        2.64826  -0.00636   0.00000  -0.00818  -0.00819   2.64008
   R22        2.02201   0.01330   0.00000   0.01332   0.01332   2.03533
   R23        3.32592   0.05140   0.00000   0.12686   0.12710   3.45301
   R24        2.23252   3.11595   0.00000   0.18073   0.18124   2.41377
    A1        2.09440  -0.07865   0.00000  -0.00876  -0.00847   2.08592
    A2        2.09440  -0.16693   0.00000  -0.00263  -0.00196   2.09244
    A3        2.09440   0.24558   0.00000   0.01139   0.01043   2.10483
    A4        2.09440   0.04336   0.00000   0.00239   0.00222   2.09661
    A5        2.09440  -0.01717   0.00000   0.00454   0.00463   2.09902
    A6        2.09440  -0.02619   0.00000  -0.00693  -0.00684   2.08755
    A7        2.09440   0.01272   0.00000   0.00685   0.00683   2.10122
    A8        2.09440  -0.00627   0.00000  -0.00332  -0.00330   2.09109
    A9        2.09440  -0.00646   0.00000  -0.00353  -0.00352   2.09087
   A10        2.09440  -0.01148   0.00000  -0.00552  -0.00549   2.08891
   A11        2.09440   0.00469   0.00000   0.00142   0.00141   2.09580
   A12        2.09440   0.00680   0.00000   0.00410   0.00408   2.09848
   A13        2.09440   0.02252   0.00000   0.00974   0.00968   2.10408
   A14        2.09440  -0.01155   0.00000  -0.00525  -0.00522   2.08918
   A15        2.09440  -0.01096   0.00000  -0.00450  -0.00447   2.08993
   A16        2.09440   0.01153   0.00000  -0.00470  -0.00476   2.08963
   A17        2.09440   0.07042   0.00000   0.03239   0.03220   2.12659
   A18        2.09440  -0.08195   0.00000  -0.02769  -0.02744   2.06696
   A19        2.09440  -0.16693   0.00000  -0.00263  -0.00196   2.09244
   A20        2.09440   0.24558   0.00000   0.01139   0.01043   2.10483
   A21        2.09440  -0.07865   0.00000  -0.00876  -0.00847   2.08592
   A22        2.09440   0.04336   0.00000   0.00239   0.00222   2.09661
   A23        2.09440  -0.01717   0.00000   0.00454   0.00463   2.09902
   A24        2.09440  -0.02619   0.00000  -0.00693  -0.00684   2.08755
   A25        2.09440   0.01272   0.00000   0.00685   0.00683   2.10122
   A26        2.09440  -0.00627   0.00000  -0.00332  -0.00330   2.09109
   A27        2.09440  -0.00646   0.00000  -0.00353  -0.00352   2.09087
   A28        2.09440  -0.01148   0.00000  -0.00552  -0.00549   2.08891
   A29        2.09440   0.00469   0.00000   0.00142   0.00141   2.09580
   A30        2.09440   0.00680   0.00000   0.00410   0.00408   2.09848
   A31        2.09440   0.02252   0.00000   0.00974   0.00968   2.10408
   A32        2.09440  -0.01155   0.00000  -0.00525  -0.00522   2.08918
   A33        2.09440  -0.01096   0.00000  -0.00450  -0.00447   2.08993
   A34        2.09440   0.01153   0.00000  -0.00470  -0.00476   2.08963
   A35        2.09440   0.07042   0.00000   0.03239   0.03220   2.12659
   A36        2.09440  -0.08195   0.00000  -0.02769  -0.02744   2.06696
   A37        2.09440  -0.31600   0.00000  -0.04378  -0.04263   2.05176
   A38        2.09440  -0.31600   0.00000  -0.04378  -0.04263   2.05176
    D1        0.00000   0.00000   0.00000   0.00000   0.00000   0.00000
    D2        3.14159   0.00000   0.00000   0.00000   0.00000   3.14159
    D3       -3.14159   0.00000   0.00000   0.00000   0.00000  -3.14159
    D4       -0.00000   0.00000   0.00000   0.00000   0.00000  -0.00000
    D5       -0.00000  -0.00000   0.00000  -0.00000  -0.00000  -0.00000
    D6        3.14159  -0.00000   0.00000   0.00000   0.00000   3.14159
    D7        3.14159  -0.00000   0.00000  -0.00000  -0.00000   3.14159
    D8        0.00000  -0.00000   0.00000   0.00000   0.00000   0.00000
    D9       -0.00000  -0.00000   0.00000  -0.00000  -0.00000  -0.00000
   D10        3.14159  -0.00000   0.00000  -0.00000  -0.00000   3.14159
   D11        3.14159  -0.00000   0.00000  -0.00000  -0.00000   3.14159
   D12       -0.00000  -0.00000   0.00000  -0.00000  -0.00000  -0.00000
   D13        0.00000  -0.00000   0.00000   0.00000   0.00000   0.00000
   D14        3.14159  -0.00000   0.00000   0.00000   0.00000   3.14159
   D15       -3.14159   0.00000   0.00000  -0.00000  -0.00000  -3.14159
   D16        0.00000   0.00000   0.00000  -0.00000  -0.00000   0.00000
   D17       -0.00000  -0.00000   0.00000   0.00000   0.00000  -0.00000
   D18        3.14159   0.00000   0.00000  -0.00000  -0.00000   3.14159
   D19        3.14159  -0.00000   0.00000   0.00000   0.00000   3.14159
   D20        0.00000   0.00000   0.00000  -0.00000  -0.00000   0.00000
   D21        0.00000   0.00000   0.00000  -0.00000  -0.00000   0.00000
   D22       -3.14159   0.00000   0.00000  -0.00000  -0.00000  -3.14159
   D23       -3.14159  -0.00000   0.00000  -0.00000  -0.00000  -3.14159
   D24        0.00000   0.00000   0.00000  -0.00000  -0.00000   0.00000
   D25       -0.00000   0.00000   0.00000   0.00000   0.00000  -0.00000
   D26        3.14159   0.00000   0.00000  -0.00000  -0.00000   3.14159
   D27        3.14159  -0.00000   0.00000   0.00000   0.00000   3.14159
   D28       -0.00000   0.00000   0.00000  -0.00000  -0.00000  -0.00000
   D29        0.00001  -0.00000   0.00000  -0.00000  -0.00000   0.00001
   D30       -3.14158  -0.00000   0.00000  -0.00000  -0.00000  -3.14158
   D31        3.14159   0.00000   0.00000   0.00000   0.00000   3.14159
   D32        0.00000   0.00000   0.00000   0.00000   0.00000   0.00000
   D33        0.00000   0.00000   0.00000   0.00000   0.00000   0.00000
   D34       -3.14159   0.00000   0.00000  -0.00000  -0.00000  -3.14159
   D35       -3.14159  -0.00000   0.00000  -0.00000  -0.00000  -3.14159
   D36        0.00000  -0.00000   0.00000   0.00000   0.00000   0.00000
   D37       -0.00000  -0.00000   0.00000  -0.00000  -0.00000  -0.00000
   D38        3.14159  -0.00000   0.00000   0.00000   0.00000   3.14159
   D39       -0.00000  -0.00000   0.00000   0.00000   0.00000  -0.00000
   D40        3.14159  -0.00000   0.00000  -0.00000  -0.00000   3.14159
   D41        3.14159   0.00000   0.00000   0.00000   0.00000   3.14159
   D42       -0.00000   0.00000   0.00000   0.00000   0.00000  -0.00000
   D43       -0.00000  -0.00000   0.00000  -0.00000  -0.00000  -0.00000
   D44       -3.14159  -0.00000   0.00000  -0.00000  -0.00000  -3.14159
   D45        3.14159  -0.00000   0.00000   0.00000   0.00000   3.14159
   D46        0.00000   0.00000   0.00000  -0.00000  -0.00000   0.00000
   D47        0.00000   0.00000   0.00000  -0.00000  -0.00000   0.00000
   D48       -3.14159   0.00000   0.00000  -0.00000  -0.00000  -3.14159
   D49        3.14159  -0.00000   0.00000   0.00000   0.00000   3.14159
   D50        0.00000   0.00000   0.00000  -0.00000  -0.00000   0.00000
   D51        0.00000   0.00000   0.00000   0.00000   0.00000   0.00000
   D52       -3.14159   0.00000   0.00000  -0.00000  -0.00000  -3.14159
   D53        3.14159   0.00000   0.00000   0.00000   0.00000   3.14159
   D54       -0.00000   0.00000   0.00000  -0.00000  -0.00000  -0.00000
   D55        0.00001  -0.00000   0.00000  -0.00000  -0.00000   0.00001
   D56       -3.14158  -0.00000   0.00000  -0.00000  -0.00000  -3.14158
   D57       -0.00001   0.00000   0.00000   0.00000   0.00000  -0.00001
         Item               Value     Threshold  Converged?
 Maximum Force            3.115953     0.000450     NO 
 RMS     Force            0.292401     0.000300     NO 
 Maximum Displacement     0.195890     0.001800     NO 
 RMS     Displacement     0.030485     0.001200     NO 
 Predicted change in Energy=-3.351202D-01
 GradGradGradGradGradGradGradGradGradGradGradGradGradGradGradGradGradGrad

                          Input orientation:                          
 ---------------------------------------------------------------------
 Center     Atomic      Atomic             Coordinates (Angstroms)
 Number     Number       Type             X           Y           Z
 ---------------------------------------------------------------------
      1          6           0       -1.150893    1.704075    0.713079
      2          6           0        0.182322    1.731278    0.278954
      3          6           0        0.892537    2.933901    0.270834
      4          6           0        0.283650    4.116210    0.693484
      5          6           0       -1.044156    4.093998    1.126763
      6          6           0       -1.766893    2.898479    1.140342
      7          6           0       -1.924979    0.381534    0.719720
      8          6           0       -1.297747   -0.797450    0.291650
      9          6           0       -1.998558   -2.005598    0.295636
     10          6           0       -3.325712   -2.050464    0.724451
     11          6           0       -3.954649   -0.878647    1.151737
     12          6           0       -3.266139    0.336981    1.153209
     13          1           0        0.663319    0.828756   -0.049014
     14          1           0        0.835061    5.039212    0.685168
     15          1           0       -1.514369    5.006404    1.453033
     16          1           0       -0.276747   -0.777366   -0.040951
     17          1           0       -3.860488   -2.983239    0.725455
     18          1           0       -4.978991   -0.912987    1.482768
     19         17           0       -4.145111    1.833832    1.723918
     20         17           0       -3.499903    2.936192    1.718372
     21         17           0       -1.203878   -3.479034   -0.242902
     22         17           0        2.563995    2.958456   -0.275223
 ---------------------------------------------------------------------
                    Distance matrix (angstroms):
                    1          2          3          4          5
     1  C    0.000000
     2  C    1.402379   0.000000
     3  C    2.425626   1.396701   0.000000
     4  C    2.806544   2.422809   1.395432   0.000000
     5  C    2.427809   2.793827   2.414378   1.396887   0.000000
     6  C    1.410180   2.429770   2.798190   2.426371   1.397068
     7  C    1.532438   2.541023   3.828116   4.338955   3.837176
     8  C    2.541023   2.930056   4.326749   5.177484   4.968700
     9  C    3.828116   4.326749   5.723434   6.545478   6.229504
    10  C    4.338955   5.177484   6.545478   7.145370   6.566716
    11  C    3.837176   4.968700   6.229504   6.566716   5.761838
    12  C    2.556741   3.821029   4.981683   5.205278   4.364984
    13  H    2.153680   1.073996   2.141606   3.391578   3.867780
    14  H    3.881743   3.396101   2.146465   1.075201   2.149394
    15  H    3.403677   3.870875   3.389109   2.145281   1.077050
    16  H    2.736831   2.570288   3.903580   4.980012   5.067806
    17  H    5.414146   6.226584   7.603320   8.220528   7.627585
    18  H    4.700614   5.922876   7.123354   7.321965   6.378053
    19  Cl   3.162905   4.563454   5.357192   5.087727   3.883409
    20  Cl   2.836648   4.133100   4.624813   4.093667   2.778706
    21  Cl   5.270800   5.416755   6.766433   7.795979   7.697551
    22  Cl   4.043589   2.735955   1.758566   2.734732   4.034077
                    6          7          8          9         10
     6  C    0.000000
     7  C    2.556741   0.000000
     8  C    3.821029   1.402379   0.000000
     9  C    4.981683   2.425626   1.396701   0.000000
    10  C    5.205278   2.806544   2.422809   1.395432   0.000000
    11  C    4.364984   2.427809   2.793827   2.414378   1.396887
    12  C    2.968026   1.410180   2.429770   2.798190   2.426371
    13  H    3.406501   2.736831   2.570288   3.903580   4.980012
    14  H    3.400013   5.414146   6.226584   7.603320   8.220528
    15  H    2.145901   4.700614   5.922876   7.123354   7.321965
    16  H    4.138577   2.153680   1.073996   2.141606   3.391578
    17  H    6.256987   3.881743   3.396101   2.146465   1.075201
    18  H    4.996209   3.403677   3.870875   3.389109   2.145281
    19  Cl   2.670198   2.836648   4.133100   4.624813   4.093667
    20  Cl   1.827256   3.162905   4.563454   5.357192   5.087727
    21  Cl   6.550039   4.043589   2.735955   1.758566   2.734732
    22  Cl   4.556755   5.270800   5.416755   6.766433   7.795979
                   11         12         13         14         15
    11  C    0.000000
    12  C    1.397068   0.000000
    13  H    5.067806   4.138577   0.000000
    14  H    7.627585   6.256987   4.277436   0.000000
    15  H    6.378053   4.996209   4.944817   2.471946   0.000000
    16  H    3.867780   3.406501   1.861026   5.966234   6.100466
    17  H    2.149394   3.400013   5.966234   9.295673   8.358711
    18  H    1.077050   2.145901   6.100466   8.358711   6.858839
    19  Cl   2.778706   1.827256   5.222496   6.012951   4.130302
    20  Cl   3.883409   2.670198   4.989725   4.927689   2.880716
    21  Cl   4.034077   4.556755   4.699050   8.807900   8.658825
    22  Cl   7.697551   6.550039   2.863453   2.870733   4.879960
                   16         17         18         19         20
    16  H    0.000000
    17  H    4.277436   0.000000
    18  H    4.944817   2.471946   0.000000
    19  Cl   4.989725   4.927689   2.880716   0.000000
    20  Cl   5.222496   6.012951   4.130302   1.277311   0.000000
    21  Cl   2.863453   2.870733   4.879960   6.383242   7.090377
    22  Cl   4.699050   8.807900   8.658825   7.090377   6.383242
                   21         22
    21  Cl   0.000000
    22  Cl   7.459169   0.000000
 Stoichiometry    C12H6Cl4
 Framework group  C1[X(C12H6Cl4)]
 Deg. of freedom    60
 Full point group                 C1      NOp   1
 Largest Abelian subgroup         C1      NOp   1
 Largest concise Abelian subgroup C1      NOp   1
                         Standard orientation:                         
 ---------------------------------------------------------------------
 Center     Atomic      Atomic             Coordinates (Angstroms)
 Number     Number       Type             X           Y           Z
 ---------------------------------------------------------------------
      1          6           0        0.766219   -0.014139   -0.000001
      2          6           0        1.465028   -1.230006   -0.000000
      3          6           0        2.861717   -1.235838    0.000000
      4          6           0        3.572685   -0.035106    0.000001
      5          6           0        2.880919    1.178463   -0.000002
      6          6           0        1.484013    1.199690   -0.000003
      7          6           0       -0.766219   -0.014139   -0.000001
      8          6           0       -1.465028   -1.230006   -0.000002
      9          6           0       -2.861717   -1.235838   -0.000001
     10          6           0       -3.572685   -0.035106    0.000002
     11          6           0       -2.880919    1.178463    0.000003
     12          6           0       -1.484013    1.199690    0.000002
     13          1           0        0.930513   -2.161543    0.000001
     14          1           0        4.647836   -0.045423    0.000002
     15          1           0        3.429420    2.105386   -0.000004
     16          1           0       -0.930513   -2.161543   -0.000001
     17          1           0       -4.647836   -0.045423    0.000004
     18          1           0       -3.429420    2.105386    0.000007
     19         17           0       -0.638655    2.819640    0.000005
     20         17           0        0.638655    2.819640   -0.000005
     21         17           0       -3.729584   -2.765334   -0.000002
     22         17           0        3.729584   -2.765334    0.000003
 ---------------------------------------------------------------------
 Rotational constants (GHZ):           0.4042781           0.2672728           0.1609000
 Standard basis: 6-311+G(d,p) (5D, 7F)
 There are   436 symmetry adapted cartesian basis functions of A   symmetry.
 There are   420 symmetry adapted basis functions of A   symmetry.
   420 basis functions,   692 primitive gaussians,   436 cartesian basis functions
    73 alpha electrons       73 beta electrons
       nuclear repulsion energy      1519.9954920290 Hartrees.
 NAtoms=   22 NActive=   22 NUniq=   22 SFac= 1.00D+00 NAtFMM=   60 NAOKFM=F Big=F
 Integral buffers will be    131072 words long.
 Raffenetti 2 integral format.
 Two-electron integral symmetry is turned on.
 One-electron integrals computed using PRISM.
 NBasis=   420 RedAO= T EigKep=  1.19D-06  NBF=   420
 NBsUse=   415 1.00D-06 EigRej=  7.76D-07 NBFU=   415
 Initial guess from the checkpoint file:  "/scratch/gour/Gau-4370.chk"
 B after Tr=     0.000000   -0.000000   -0.000000
         Rot=    1.000000   -0.000000    0.000000   -0.000000 Ang=   0.00 deg.
 ExpMin= 4.38D-02 ExpMax= 1.06D+05 ExpMxC= 3.62D+03 IAcc=3 IRadAn=         5 AccDes= 0.00D+00
 Harris functional with IExCor=  402 and IRadAn=       5 diagonalized for initial guess.
 HarFok:  IExCor=  402 AccDes= 0.00D+00 IRadAn=         5 IDoV= 1 UseB2=F ITyADJ=14
 ICtDFT=  3500011 ScaDFX=  1.000000  1.000000  1.000000  1.000000
 FoFCou: FMM=F IPFlag=           0 FMFlag=      100000 FMFlg1=           0
         NFxFlg=           0 DoJE=T BraDBF=F KetDBF=T FulRan=T
         wScrn=  0.000000 ICntrl=       500 IOpCl=  0 I1Cent=   200000004 NGrid=           0
         NMat0=    1 NMatS0=      1 NMatT0=    0 NMatD0=    1 NMtDS0=    0 NMtDT0=    0
 Petite list used in FoFCou.
 Requested convergence on RMS density matrix=1.00D-08 within  32 cycles.
 Requested convergence on MAX density matrix=1.00D-06.
 Requested convergence on             energy=1.00D-06.
 No special actions if energy rises.
 SCF Done:  E(RB3LYP) =  -2300.78649278     A.U. after   16 cycles
            NFock= 16  Conv=0.93D-08     -V/T= 2.0004
 QCSCF skips out because SCF is already converged.
 Calling FoFJK, ICntrl=      2127 FMM=F ISym2X=0 I1Cent= 0 IOpClX= 0 NMat=1 NMatS=1 NMatT=0.
 ***** Axes restored to original set *****
 -------------------------------------------------------------------
 Center     Atomic                   Forces (Hartrees/Bohr)
 Number     Number              X              Y              Z
 -------------------------------------------------------------------
      1        6           0.000479900   -0.019775164   -0.003872092
      2        6           0.000433736    0.008994839    0.001546593
      3        6          -0.009463758   -0.001294905    0.002874800
      4        6          -0.000586957   -0.002001425   -0.000182715
      5        6           0.000110298   -0.018426673   -0.003496911
      6        6           0.087562332   -0.017938411   -0.032217313
      7        6           0.017459840    0.009235391   -0.004017706
      8        6          -0.007623385   -0.004770847    0.001615597
      9        6          -0.003492674    0.008906932    0.002823431
     10        6           0.001456884    0.001490343   -0.000200024
     11        6           0.016104713    0.008900195   -0.003634207
     12        6           0.058377101   -0.067802418   -0.031966395
     13        1           0.005361658   -0.001970907   -0.002136639
     14        1           0.003779540    0.004787789   -0.000345989
     15        1          -0.003425686    0.007787054    0.002591125
     16        1           0.004334545   -0.003725710   -0.002127874
     17        1          -0.002325191   -0.005642238   -0.000293668
     18        1          -0.008455634   -0.000806665    0.002634207
     19       17          -1.100632657   -1.698108485    0.043706783
     20       17           0.941786360    1.791432226    0.026153203
     21       17          -0.000404156    0.000734127    0.000271054
     22       17          -0.000836808   -0.000005048    0.000274740
 -------------------------------------------------------------------
 Cartesian Forces:  Max     1.791432226 RMS     0.352781230

 GradGradGradGradGradGradGradGradGradGradGradGradGradGradGradGradGradGrad
 Berny optimization.
 Using GEDIIS/GDIIS optimizer.
 FormGI is forming the generalized inverse of G from B-inverse, IUseBI=4.
 Internal  Forces:  Max     1.968704267 RMS     0.184748912
 Search for a local minimum.
 Step number   2 out of a maximum of  129
 All quantities printed in internal units (Hartrees-Bohrs-Radians)
 Mixed Optimization -- RFO/linear search
 Update second derivatives using D2CorX and points    1    2
 DE= -5.08D-01 DEPred=-3.35D-01 R= 1.52D+00
 TightC=F SS=  1.41D+00  RLast= 2.75D-01 DXNew= 5.0454D-01 8.2475D-01
 Trust test= 1.52D+00 RLast= 2.75D-01 DXMaxT set to 5.05D-01
 ITU=  1  0
 Use linear search instead of GDIIS.
 Linear search step of   0.550 exceeds DXMaxT=   0.505 but not scaled.
 Quartic linear search produced a step of  2.00000.
 Iteration  1 RMS(Cart)=  0.04000399 RMS(Int)=  0.01611212
 Iteration  2 RMS(Cart)=  0.02252609 RMS(Int)=  0.00131596
 Iteration  3 RMS(Cart)=  0.00021685 RMS(Int)=  0.00131118
 Iteration  4 RMS(Cart)=  0.00000008 RMS(Int)=  0.00131118
 Variable       Old X    -DE/DX   Delta X   Delta X   Delta X     New X
                                 (Linear)    (Quad)   (Total)
    R1        2.65011   0.01225   0.00370   0.00000   0.00334   2.65345
    R2        2.66485   0.06033   0.03318   0.00000   0.03133   2.69619
    R3        2.89589   0.06087  -0.02858   0.00000  -0.03127   2.86462
    R4        2.63938  -0.00799  -0.01776   0.00000  -0.01767   2.62171
    R5        2.02956   0.00471   0.01510   0.00000   0.01510   2.04466
    R6        2.63699  -0.01880  -0.02255   0.00000  -0.02211   2.61488
    R7        3.32321  -0.00088  -0.00542   0.00000  -0.00542   3.31779
    R8        2.63973  -0.01401  -0.01706   0.00000  -0.01670   2.62304
    R9        2.03183   0.00605   0.01966   0.00000   0.01966   2.05149
   R10        2.64008  -0.00538  -0.01637   0.00000  -0.01645   2.62363
   R11        2.03533   0.00888   0.02665   0.00000   0.02665   2.06198
   R12        3.45301   0.06283   0.25419   0.00000   0.25524   3.70826
   R13        2.65011   0.01225   0.00370   0.00000   0.00334   2.65345
   R14        2.66485   0.06033   0.03318   0.00000   0.03133   2.69619
   R15        2.63938  -0.00799  -0.01776   0.00000  -0.01767   2.62171
   R16        2.02956   0.00471   0.01510   0.00000   0.01510   2.04466
   R17        2.63699  -0.01880  -0.02255   0.00000  -0.02211   2.61488
   R18        3.32321  -0.00088  -0.00542   0.00000  -0.00542   3.31779
   R19        2.63973  -0.01401  -0.01706   0.00000  -0.01670   2.62304
   R20        2.03183   0.00605   0.01966   0.00000   0.01966   2.05149
   R21        2.64008  -0.00538  -0.01637   0.00000  -0.01645   2.62363
   R22        2.03533   0.00888   0.02665   0.00000   0.02665   2.06198
   R23        3.45301   0.06283   0.25419   0.00000   0.25524   3.70826
   R24        2.41377   1.96870   0.36249   0.00000   0.36518   2.77895
    A1        2.08592  -0.04713  -0.01695   0.00000  -0.01546   2.07046
    A2        2.09244  -0.09866  -0.00392   0.00000  -0.00020   2.09223
    A3        2.10483   0.14579   0.02087   0.00000   0.01566   2.12049
    A4        2.09661   0.02647   0.00443   0.00000   0.00350   2.10012
    A5        2.09902  -0.00930   0.00925   0.00000   0.00972   2.10874
    A6        2.08755  -0.01717  -0.01369   0.00000  -0.01322   2.07433
    A7        2.10122   0.00787   0.01365   0.00000   0.01354   2.11476
    A8        2.09109  -0.00393  -0.00661   0.00000  -0.00655   2.08454
    A9        2.09087  -0.00395  -0.00704   0.00000  -0.00699   2.08388
   A10        2.08891  -0.00877  -0.01098   0.00000  -0.01080   2.07811
   A11        2.09580   0.00353   0.00281   0.00000   0.00272   2.09852
   A12        2.09848   0.00524   0.00817   0.00000   0.00808   2.10656
   A13        2.10408   0.01595   0.01937   0.00000   0.01901   2.12308
   A14        2.08918  -0.00851  -0.01043   0.00000  -0.01025   2.07892
   A15        2.08993  -0.00743  -0.00893   0.00000  -0.00875   2.08118
   A16        2.08963   0.00561  -0.00952   0.00000  -0.00980   2.07984
   A17        2.12659   0.05605   0.06439   0.00000   0.06316   2.18975
   A18        2.06696  -0.06166  -0.05487   0.00000  -0.05337   2.01359
   A19        2.09244  -0.09866  -0.00392   0.00000  -0.00020   2.09223
   A20        2.10483   0.14579   0.02087   0.00000   0.01566   2.12049
   A21        2.08592  -0.04713  -0.01695   0.00000  -0.01546   2.07046
   A22        2.09661   0.02647   0.00443   0.00000   0.00350   2.10012
   A23        2.09902  -0.00930   0.00925   0.00000   0.00972   2.10874
   A24        2.08755  -0.01717  -0.01369   0.00000  -0.01322   2.07433
   A25        2.10122   0.00787   0.01365   0.00000   0.01354   2.11476
   A26        2.09109  -0.00393  -0.00661   0.00000  -0.00655   2.08454
   A27        2.09087  -0.00395  -0.00704   0.00000  -0.00699   2.08388
   A28        2.08891  -0.00877  -0.01098   0.00000  -0.01080   2.07811
   A29        2.09580   0.00353   0.00281   0.00000   0.00272   2.09852
   A30        2.09848   0.00524   0.00817   0.00000   0.00808   2.10656
   A31        2.10408   0.01595   0.01937   0.00000   0.01901   2.12308
   A32        2.08918  -0.00851  -0.01043   0.00000  -0.01025   2.07892
   A33        2.08993  -0.00743  -0.00893   0.00000  -0.00875   2.08118
   A34        2.08963   0.00561  -0.00952   0.00000  -0.00980   2.07984
   A35        2.12659   0.05605   0.06439   0.00000   0.06316   2.18975
   A36        2.06696  -0.06166  -0.05487   0.00000  -0.05337   2.01359
   A37        2.05176  -0.20183  -0.08526   0.00000  -0.07882   1.97294
   A38        2.05176  -0.20183  -0.08526   0.00000  -0.07882   1.97294
    D1        0.00000   0.00000   0.00000   0.00000   0.00000   0.00000
    D2        3.14159   0.00000   0.00000   0.00000   0.00000   3.14159
    D3       -3.14159   0.00000   0.00000   0.00000   0.00000  -3.14159
    D4       -0.00000   0.00000   0.00000   0.00000   0.00000  -0.00000
    D5       -0.00000  -0.00000  -0.00000   0.00000  -0.00000  -0.00000
    D6        3.14159  -0.00000   0.00000   0.00000   0.00000   3.14159
    D7        3.14159  -0.00000  -0.00000   0.00000  -0.00000   3.14159
    D8        0.00000  -0.00000   0.00000   0.00000   0.00000   0.00000
    D9       -0.00000  -0.00000  -0.00000   0.00000  -0.00000  -0.00000
   D10        3.14159  -0.00000  -0.00000   0.00000  -0.00000   3.14159
   D11        3.14159  -0.00000  -0.00000   0.00000  -0.00000   3.14159
   D12       -0.00000  -0.00000  -0.00000   0.00000  -0.00000  -0.00000
   D13        0.00000  -0.00000   0.00000   0.00000   0.00000   0.00000
   D14        3.14159  -0.00000   0.00000   0.00000   0.00000   3.14159
   D15       -3.14159   0.00000  -0.00000   0.00000  -0.00000  -3.14159
   D16        0.00000   0.00000  -0.00000   0.00000  -0.00000   0.00000
   D17       -0.00000  -0.00000   0.00000   0.00000   0.00000  -0.00000
   D18        3.14159   0.00000  -0.00000   0.00000  -0.00000   3.14159
   D19        3.14159  -0.00000   0.00000   0.00000   0.00000   3.14159
   D20        0.00000   0.00000  -0.00000   0.00000  -0.00000   0.00000
   D21        0.00000   0.00000  -0.00000   0.00000  -0.00000   0.00000
   D22       -3.14159   0.00000  -0.00000   0.00000  -0.00000  -3.14159
   D23       -3.14159  -0.00000  -0.00000   0.00000  -0.00000  -3.14159
   D24        0.00000   0.00000  -0.00000   0.00000  -0.00000   0.00000
   D25       -0.00000   0.00000   0.00000   0.00000   0.00000  -0.00000
   D26        3.14159   0.00000  -0.00000   0.00000  -0.00000   3.14159
   D27        3.14159  -0.00000   0.00000   0.00000   0.00000   3.14159
   D28       -0.00000   0.00000  -0.00000   0.00000  -0.00000  -0.00000
   D29        0.00001  -0.00000  -0.00000   0.00000  -0.00000   0.00001
   D30       -3.14158  -0.00000  -0.00000   0.00000  -0.00000  -3.14158
   D31        3.14159   0.00000   0.00000   0.00000   0.00000   3.14159
   D32        0.00000   0.00000   0.00000   0.00000   0.00000   0.00000
   D33        0.00000   0.00000   0.00000   0.00000   0.00000   0.00000
   D34       -3.14159   0.00000  -0.00000   0.00000  -0.00000  -3.14159
   D35       -3.14159  -0.00000  -0.00000   0.00000  -0.00000  -3.14159
   D36        0.00000  -0.00000   0.00000   0.00000   0.00000   0.00000
   D37       -0.00000  -0.00000  -0.00000   0.00000  -0.00000  -0.00000
   D38        3.14159  -0.00000   0.00000   0.00000   0.00000   3.14159
   D39       -0.00000  -0.00000   0.00000   0.00000   0.00000  -0.00000
   D40        3.14159  -0.00000  -0.00000   0.00000  -0.00000   3.14159
   D41        3.14159   0.00000   0.00000   0.00000   0.00000   3.14159
   D42       -0.00000   0.00000   0.00000   0.00000   0.00000  -0.00000
   D43       -0.00000  -0.00000  -0.00000   0.00000  -0.00000  -0.00000
   D44       -3.14159  -0.00000  -0.00000   0.00000  -0.00000  -3.14159
   D45        3.14159  -0.00000   0.00000   0.00000   0.00000   3.14159
   D46        0.00000   0.00000  -0.00000   0.00000  -0.00000   0.00000
   D47        0.00000   0.00000  -0.00000   0.00000  -0.00000   0.00000
   D48       -3.14159   0.00000  -0.00000   0.00000  -0.00000  -3.14159
   D49        3.14159  -0.00000   0.00000   0.00000   0.00000   3.14159
   D50        0.00000   0.00000  -0.00000   0.00000  -0.00000   0.00000
   D51        0.00000   0.00000   0.00000   0.00000   0.00000   0.00000
   D52       -3.14159   0.00000  -0.00000   0.00000  -0.00000  -3.14159
   D53        3.14159   0.00000   0.00000   0.00000   0.00000   3.14159
   D54       -0.00000   0.00000  -0.00000   0.00000  -0.00000  -0.00000
   D55        0.00001  -0.00000  -0.00000   0.00000  -0.00000   0.00001
   D56       -3.14158  -0.00000  -0.00000   0.00000  -0.00000  -3.14158
   D57       -0.00001   0.00000   0.00000   0.00000   0.00000  -0.00001
         Item               Value     Threshold  Converged?
 Maximum Force            1.968704     0.000450     NO 
 RMS     Force            0.184749     0.000300     NO 
 Maximum Displacement     0.376795     0.001800     NO 
 RMS     Displacement     0.056539     0.001200     NO 
 Predicted change in Energy=-3.671386D-01
 GradGradGradGradGradGradGradGradGradGradGradGradGradGradGradGradGradGrad

                          Input orientation:                          
 ---------------------------------------------------------------------
 Center     Atomic      Atomic             Coordinates (Angstroms)
 Number     Number       Type             X           Y           Z
 ---------------------------------------------------------------------
      1          6           0       -1.153629    1.696087    0.712480
      2          6           0        0.181256    1.723045    0.277759
[...]

            Population analysis using the SCF Density.

 **********************************************************************

 Orbital symmetries:
       Occupied  (A) (A) (A) (A) (A) (A) (A) (A) (A) (A) (A) (A)
                 (A) (A) (A) (A) (A) (A) (A) (A) (A) (A) (A) (A)
                 (A) (A) (A) (A) (A) (A) (A) (A) (A) (A) (A) (A)
                 (A) (A) (A) (A) (A) (A) (A) (A) (A) (A) (A) (A)
                 (A) (A) (A) (A) (A) (A) (A) (A) (A) (A) (A) (A)
                 (A) (A) (A) (A) (A) (A) (A) (A) (A) (A) (A) (A)
                 (A)
       Virtual   (A) (A) (A) (A) (A) (A) (A) (A) (A) (A) (A) (A)
                 (A) (A) (A) (A) (A) (A) (A) (A) (A) (A) (A) (A)
                 (A) (A) (A) (A) (A) (A) (A) (A) (A) (A) (A) (A)
                 (A) (A) (A) (A) (A) (A) (A) (A) (A) (A) (A) (A)
                 (A) (A) (A) (A) (A) (A) (A) (A) (A) (A) (A) (A)
                 (A) (A) (A) (A) (A) (A) (A) (A) (A) (A) (A) (A)
                 (A) (A) (A) (A) (A) (A) (A) (A) (A) (A) (A) (A)
                 (A) (A) (A) (A) (A) (A) (A) (A) (A) (A) (A) (A)
                 (A) (A) (A) (A) (A) (A) (A) (A) (A) (A) (A) (A)
                 (A) (A) (A) (A) (A) (A) (A) (A) (A) (A) (A) (A)
                 (A) (A) (A) (A) (A) (A) (A) (A) (A) (A) (A) (A)
                 (A) (A) (A) (A) (A) (A) (A) (A) (A) (A) (A) (A)
                 (A) (A) (A) (A) (A) (A) (A) (A) (A) (A) (A) (A)
                 (A) (A) (A) (A) (A) (A) (A) (A) (A) (A) (A) (A)
                 (A) (A) (A) (A) (A) (A) (A) (A) (A) (A) (A) (A)
                 (A) (A) (A) (A) (A) (A) (A) (A) (A) (A) (A) (A)
                 (A) (A) (A) (A) (A) (A) (A) (A) (A) (A) (A) (A)
                 (A) (A) (A) (A) (A) (A) (A) (A) (A) (A) (A) (A)
                 (A) (A) (A) (A) (A) (A) (A) (A) (A) (A) (A) (A)
                 (A) (A) (A) (A) (A) (A) (A) (A) (A) (A) (A) (A)
                 (A) (A) (A) (A) (A) (A) (A) (A) (A) (A) (A) (A)
                 (A) (A) (A) (A) (A) (A) (A) (A) (A) (A) (A) (A)
                 (A) (A) (A) (A) (A) (A) (A) (A) (A) (A) (A) (A)
                 (A) (A) (A) (A) (A) (A) (A) (A) (A) (A) (A) (A)
                 (A) (A) (A) (A) (A) (A) (A) (A) (A) (A) (A) (A)
                 (A) (A) (A) (A) (A) (A) (A) (A) (A) (A) (A) (A)
                 (A) (A) (A) (A) (A) (A) (A) (A) (A) (A) (A) (A)
                 (A) (A) (A) (A) (A) (A) (A) (A) (A) (A) (A) (A)
                 (A) (A) (A) (A) (A) (A) (A) (A) (A)
 The electronic state is 1-A.
 Alpha  occ. eigenvalues -- -101.56723-101.56723-101.56640-101.56640 -10.25949
 Alpha  occ. eigenvalues --  -10.25949 -10.25796 -10.25796 -10.22623 -10.22594
 Alpha  occ. eigenvalues --  -10.21150 -10.21150 -10.21103 -10.21103 -10.21041
 Alpha  occ. eigenvalues --  -10.21041  -9.48178  -9.48178  -9.48110  -9.48109
 Alpha  occ. eigenvalues --   -7.24643  -7.24643  -7.24575  -7.24575  -7.23658
 Alpha  occ. eigenvalues --   -7.23658  -7.23624  -7.23624  -7.23591  -7.23591
 Alpha  occ. eigenvalues --   -7.23548  -7.23548  -0.93397  -0.91856  -0.89324
 Alpha  occ. eigenvalues --   -0.88854  -0.84478  -0.83680  -0.81270  -0.77183
 Alpha  occ. eigenvalues --   -0.74431  -0.73497  -0.66979  -0.64079  -0.63059
 Alpha  occ. eigenvalues --   -0.59953  -0.54403  -0.52814  -0.51700  -0.51273
 Alpha  occ. eigenvalues --   -0.49485  -0.47634  -0.46006  -0.45475  -0.45419
 Alpha  occ. eigenvalues --   -0.42833  -0.42724  -0.41760  -0.39842  -0.39700
 Alpha  occ. eigenvalues --   -0.38932  -0.38341  -0.37756  -0.33429  -0.33332
 Alpha  occ. eigenvalues --   -0.33026  -0.32856  -0.32793  -0.32775  -0.29162
 Alpha  occ. eigenvalues --   -0.28750  -0.26019  -0.25893
 Alpha virt. eigenvalues --   -0.05396  -0.05223  -0.04255  -0.03817  -0.01286
 Alpha virt. eigenvalues --   -0.00700   0.00302   0.00557   0.00687   0.01172
 Alpha virt. eigenvalues --    0.01810   0.02566   0.03371   0.03838   0.04892
 Alpha virt. eigenvalues --    0.04965   0.04986   0.05458   0.06295   0.06527
 Alpha virt. eigenvalues --    0.06756   0.07653   0.07916   0.08881   0.09574
 Alpha virt. eigenvalues --    0.09647   0.10037   0.10200   0.10700   0.10852
 Alpha virt. eigenvalues --    0.11428   0.12142   0.12310   0.12352   0.12383
 Alpha virt. eigenvalues --    0.12990   0.13057   0.13790   0.14045   0.14496
 Alpha virt. eigenvalues --    0.15107   0.15618   0.16071   0.16249   0.16880
 Alpha virt. eigenvalues --    0.16972   0.17339   0.17675   0.17920   0.18307
 Alpha virt. eigenvalues --    0.19299   0.19436   0.19484   0.19802   0.20425
 Alpha virt. eigenvalues --    0.20933   0.21245   0.21739   0.21800   0.22375
 Alpha virt. eigenvalues --    0.22621   0.22947   0.23208   0.23403   0.23988
 Alpha virt. eigenvalues --    0.24354   0.24984   0.25189   0.25868   0.26551
 Alpha virt. eigenvalues --    0.27033   0.27069   0.27715   0.28177   0.28539
 Alpha virt. eigenvalues --    0.28746   0.28987   0.29498   0.29866   0.31099
 Alpha virt. eigenvalues --    0.31502   0.31677   0.32696   0.33345   0.33412
 Alpha virt. eigenvalues --    0.35280   0.36076   0.41810   0.42704   0.43046
 Alpha virt. eigenvalues --    0.43447   0.44380   0.45221   0.45432   0.46204
 Alpha virt. eigenvalues --    0.46937   0.47401   0.48001   0.49895   0.50172
 Alpha virt. eigenvalues --    0.50866   0.51668   0.51711   0.52397   0.54340
 Alpha virt. eigenvalues --    0.54500   0.55078   0.56324   0.57038   0.57566
 Alpha virt. eigenvalues --    0.58005   0.58591   0.58707   0.59388   0.60563
 Alpha virt. eigenvalues --    0.61165   0.62290   0.63808   0.64309   0.64496
 Alpha virt. eigenvalues --    0.65576   0.66112   0.66615   0.66961   0.67048
 Alpha virt. eigenvalues --    0.68583   0.69047   0.69667   0.69719   0.70351
 Alpha virt. eigenvalues --    0.70516   0.72217   0.73122   0.75621   0.78129
 Alpha virt. eigenvalues --    0.81808   0.81912   0.82934   0.83271   0.83482
 Alpha virt. eigenvalues --    0.83913   0.84257   0.85367   0.85395   0.85413
 Alpha virt. eigenvalues --    0.85651   0.85833   0.85949   0.86820   0.87675
 Alpha virt. eigenvalues --    0.88213   0.88691   0.89133   0.90599   0.90622
 Alpha virt. eigenvalues --    0.91551   0.93297   0.93843   0.94890   0.94978
 Alpha virt. eigenvalues --    0.95748   0.96855   0.97500   0.97579   0.99044
 Alpha virt. eigenvalues --    0.99291   0.99534   1.00770   1.01706   1.02186
 Alpha virt. eigenvalues --    1.03227   1.03795   1.05055   1.05255   1.12623
 Alpha virt. eigenvalues --    1.12800   1.14465   1.16734   1.17726   1.22513
 Alpha virt. eigenvalues --    1.22587   1.23262   1.24501   1.25918   1.26089
 Alpha virt. eigenvalues --    1.26553   1.28371   1.31227   1.32158   1.33585
 Alpha virt. eigenvalues --    1.33650   1.38926   1.40553   1.45106   1.48024
 Alpha virt. eigenvalues --    1.48646   1.49510   1.49534   1.54483   1.56027
 Alpha virt. eigenvalues --    1.56324   1.56511   1.59769   1.60343   1.61427
 Alpha virt. eigenvalues --    1.61519   1.65432   1.66672   1.67126   1.68662
 Alpha virt. eigenvalues --    1.69649   1.70856   1.71586   1.75908   1.80969
 Alpha virt. eigenvalues --    1.81614   1.81788   1.83858   1.85875   1.86053
 Alpha virt. eigenvalues --    1.90761   1.90982   1.92586   1.93772   1.94059
 Alpha virt. eigenvalues --    1.94485   1.96861   1.97066   1.98607   1.99976
 Alpha virt. eigenvalues --    2.02853   2.04426   2.04637   2.06866   2.07706
 Alpha virt. eigenvalues --    2.12126   2.14000   2.14215   2.17170   2.25447
 Alpha virt. eigenvalues --    2.26728   2.27135   2.27147   2.28621   2.29544
 Alpha virt. eigenvalues --    2.30681   2.31760   2.32939   2.36184   2.37350
 Alpha virt. eigenvalues --    2.37959   2.43738   2.45106   2.45366   2.45934
 Alpha virt. eigenvalues --    2.52361   2.53652   2.53884   2.56746   2.57083
 Alpha virt. eigenvalues --    2.59589   2.59668   2.59739   2.67622   2.67876
 Alpha virt. eigenvalues --    2.68686   2.68756   2.69558   2.70686   2.72754
 Alpha virt. eigenvalues --    2.74544   2.74546   2.75065   2.76154   2.76912
 Alpha virt. eigenvalues --    2.78277   2.79920   2.81767   2.83607   2.85370
 Alpha virt. eigenvalues --    2.85414   2.88546   2.90636   2.99430   2.99546
 Alpha virt. eigenvalues --    3.07401   3.08224   3.09855   3.10002   3.13542
 Alpha virt. eigenvalues --    3.14753   3.22241   3.25806   3.28790   3.34677
 Alpha virt. eigenvalues --    3.34752   3.40683   3.42333   3.53677   3.54367
 Alpha virt. eigenvalues --    3.59322   3.66049   3.73266   3.80788   3.86281
 Alpha virt. eigenvalues --    3.88883   4.02869   4.05337   4.12217   4.12354
 Alpha virt. eigenvalues --    4.35029   4.81453   4.82270   9.77677   9.77835
 Alpha virt. eigenvalues --    9.81654   9.83234  23.42564  23.57585  23.84402
 Alpha virt. eigenvalues --   23.85794  23.90919  23.96394  23.98604  24.01615
 Alpha virt. eigenvalues --   24.04608  24.09134  24.12973  24.15280  25.82109
 Alpha virt. eigenvalues --   25.82599  25.86731  25.96105  26.10320  26.11900
 Alpha virt. eigenvalues --   26.28287  26.28704  26.60575  26.61072  26.66845
 Alpha virt. eigenvalues --   26.80877 215.76964 215.76998 215.81951 215.83361
          Condensed to atoms (all electrons):
               1          2          3          4          5          6
     1  C   28.181779  -3.397189  -4.969570  -1.876850  -0.431458  -3.230658
     2  C   -3.397189  41.844853  -8.140674 -10.501956  -3.972983  -0.974025
     3  C   -4.969570  -8.140674  21.029228  -0.779498  -0.229116  -3.486927
     4  C   -1.876850 -10.501956  -0.779498  17.511263   1.790830  -0.897927
     5  C   -0.431458  -3.972983  -0.229116   1.790830  20.056352  -7.348022
     6  C   -3.230658  -0.974025  -3.486927  -0.897927  -7.348022  34.533111
     7  C    3.201937  -6.952395   1.991887   0.772426  -2.230010  -4.787783
     8  C   -6.952845   7.391537  -0.652432   0.414889  -3.337792  -6.353969
     9  C    1.991939  -0.652424   0.631247  -0.141048  -0.338114   1.021259
    10  C    0.772459   0.414875  -0.141048   0.029224  -0.040451   0.066822
    11  C   -2.229869  -3.337890  -0.338130  -0.040459   1.898224   2.106568
    12  C   -4.787405  -6.353899   1.021339   0.066822   2.106421  -4.395438
    13  H    0.040488   0.055223   0.047039   0.075979  -0.006715  -0.095377
    14  H    0.042491   0.011362   0.058194   0.295262  -0.015069  -0.044040
    15  H    0.099725  -0.035010  -0.030035  -0.044724   0.317203   0.030752
    16  H    0.148942   0.009980  -0.029818  -0.002166   0.025364   0.096132
    17  H    0.004700  -0.002698  -0.000061  -0.000049   0.000312   0.003222
    18  H    0.018996   0.002071  -0.000706   0.000093  -0.000432  -0.001689
    19  Cl  -0.222522   0.554123   0.284267   0.002506  -0.816237  -0.530213
    20  Cl  -0.408535   0.509925  -0.064070   0.125123  -1.143904   0.558929
    21  Cl  -0.177930  -0.051610   0.036596  -0.004775   0.013042  -0.063770
    22  Cl  -0.230690   0.661681  -1.232561  -0.158356   0.248040   0.188530
               7          8          9         10         11         12
     1  C    3.201937  -6.952845   1.991939   0.772459  -2.229869  -4.787405
     2  C   -6.952395   7.391537  -0.652424   0.414875  -3.337890  -6.353899
     3  C    1.991887  -0.652432   0.631247  -0.141048  -0.338130   1.021339
     4  C    0.772426   0.414889  -0.141048   0.029224  -0.040459   0.066822
     5  C   -2.230010  -3.337792  -0.338114  -0.040451   1.898224   2.106421
     6  C   -4.787783  -6.353969   1.021259   0.066822   2.106568  -4.395438
     7  C   28.181683  -3.397157  -4.969575  -1.876770  -0.431583  -3.230513
     8  C   -3.397157  41.845485  -8.140558 -10.501929  -3.973497  -0.973941
     9  C   -4.969575  -8.140558  21.029116  -0.779635  -0.228873  -3.487023
    10  C   -1.876770 -10.501929  -0.779635  17.511315   1.790862  -0.897972
    11  C   -0.431583  -3.973497  -0.228873   1.790862  20.057138  -7.348501
    12  C   -3.230513  -0.973941  -3.487023  -0.897972  -7.348501  34.533115
    13  H    0.148938   0.009980  -0.029817  -0.002166   0.025364   0.096132
    14  H    0.004700  -0.002698  -0.000061  -0.000049   0.000312   0.003222
    15  H    0.018996   0.002072  -0.000706   0.000093  -0.000432  -0.001690
    16  H    0.040488   0.055217   0.047040   0.075979  -0.006714  -0.095376
    17  H    0.042491   0.011362   0.058197   0.295261  -0.015068  -0.044040
    18  H    0.099724  -0.035010  -0.030035  -0.044726   0.317205   0.030755
    19  Cl  -0.408407   0.509998  -0.064092   0.125112  -1.144019   0.558878
    20  Cl  -0.222509   0.554085   0.284250   0.002493  -0.816212  -0.530157
    21  Cl  -0.230699   0.661682  -1.232536  -0.158368   0.248049   0.188522
    22  Cl  -0.177931  -0.051614   0.036596  -0.004775   0.013044  -0.063768
              13         14         15         16         17         18
     1  C    0.040488   0.042491   0.099725   0.148942   0.004700   0.018996
     2  C    0.055223   0.011362  -0.035010   0.009980  -0.002698   0.002071
     3  C    0.047039   0.058194  -0.030035  -0.029818  -0.000061  -0.000706
     4  C    0.075979   0.295262  -0.044724  -0.002166  -0.000049   0.000093
     5  C   -0.006715  -0.015069   0.317203   0.025364   0.000312  -0.000432
     6  C   -0.095377  -0.044040   0.030752   0.096132   0.003222  -0.001689
     7  C    0.148938   0.004700   0.018996   0.040488   0.042491   0.099724
     8  C    0.009980  -0.002698   0.002072   0.055217   0.011362  -0.035010
     9  C   -0.029817  -0.000061  -0.000706   0.047040   0.058197  -0.030035
    10  C   -0.002166  -0.000049   0.000093   0.075979   0.295261  -0.044726
    11  C    0.025364   0.000312  -0.000432  -0.006714  -0.015068   0.317205
    12  C    0.096132   0.003222  -0.001690  -0.095376  -0.044040   0.030755
    13  H    0.514198  -0.000278   0.000044  -0.000627  -0.000002   0.000002
    14  H   -0.000278   0.506691  -0.007852  -0.000002   0.000000  -0.000000
    15  H    0.000044  -0.007852   0.507323   0.000002  -0.000000   0.000000
    16  H   -0.000627  -0.000002   0.000002   0.514198  -0.000278   0.000044
    17  H   -0.000002   0.000000  -0.000000  -0.000278   0.506691  -0.007852
    18  H    0.000002  -0.000000   0.000000   0.000044  -0.007852   0.507322
    19  Cl  -0.006086  -0.000301  -0.000602  -0.002568   0.000356  -0.010965
    20  Cl  -0.002568   0.000356  -0.010965  -0.006086  -0.000301  -0.000602
    21  Cl   0.000433   0.000001  -0.000006  -0.017359  -0.007920   0.000555
    22  Cl  -0.017359  -0.007920   0.000555   0.000433   0.000001  -0.000006
              19         20         21         22
     1  C   -0.222522  -0.408535  -0.177930  -0.230690
     2  C    0.554123   0.509925  -0.051610   0.661681
     3  C    0.284267  -0.064070   0.036596  -1.232561
     4  C    0.002506   0.125123  -0.004775  -0.158356
     5  C   -0.816237  -1.143904   0.013042   0.248040
     6  C   -0.530213   0.558929  -0.063770   0.188530
     7  C   -0.408407  -0.222509  -0.230699  -0.177931
     8  C    0.509998   0.554085   0.661682  -0.051614
     9  C   -0.064092   0.284250  -1.232536   0.036596
    10  C    0.125112   0.002493  -0.158368  -0.004775
    11  C   -1.144019  -0.816212   0.248049   0.013044
    12  C    0.558878  -0.530157   0.188522  -0.063768
    13  H   -0.006086  -0.002568   0.000433  -0.017359
    14  H   -0.000301   0.000356   0.000001  -0.007920
    15  H   -0.000602  -0.010965  -0.000006   0.000555
    16  H   -0.002568  -0.006086  -0.017359   0.000433
    17  H    0.000356  -0.000301  -0.007920   0.000001
    18  H   -0.010965  -0.000602   0.000555  -0.000006
    19  Cl  17.630412   0.164892  -0.011583  -0.005123
    20  Cl   0.164892  17.630391  -0.005122  -0.011583
    21  Cl  -0.011583  -0.005122  17.409451   0.000082
    22  Cl  -0.005123  -0.011583   0.000082  17.409456
 Mulliken charges:
               1
     1  C    0.412067
     2  C   -1.082879
     3  C    0.994849
     4  C   -0.636609
     5  C   -0.545487
     6  C   -0.395488
     7  C    0.412062
     8  C   -1.082864
     9  C    0.994853
    10  C   -0.636606
    11  C   -0.545519
    12  C   -0.395482
    13  H    0.147175
    14  H    0.155678
    15  H    0.155259
    16  H    0.147175
    17  H    0.155678
    18  H    0.155258
    19  Cl   0.392173
    20  Cl   0.392170
    21  Cl   0.403269
    22  Cl   0.403268
 Sum of Mulliken charges =  -0.00000
 Mulliken charges with hydrogens summed into heavy atoms:
               1
     1  C    0.412067
     2  C   -0.935704
     3  C    0.994849
     4  C   -0.480931
     5  C   -0.390228
     6  C   -0.395488
     7  C    0.412062
     8  C   -0.935689
     9  C    0.994853
    10  C   -0.480928
    11  C   -0.390261
    12  C   -0.395482
    19  Cl   0.392173
    20  Cl   0.392170
    21  Cl   0.403269
    22  Cl   0.403268
 Electronic spatial extent (au):  <R**2>=           5807.6908
 Charge=             -0.0000 electrons
 Dipole moment (field-independent basis, Debye):
    X=             -0.0000    Y=              0.2590    Z=              0.0000  Tot=              0.2590
 Quadrupole moment (field-independent basis, Debye-Ang):
   XX=           -113.8142   YY=           -124.0504   ZZ=           -120.0857
   XY=              0.0000   XZ=             -9.2993   YZ=             -0.0000
 Traceless Quadrupole moment (field-independent basis, Debye-Ang):
   XX=              5.5026   YY=             -4.7337   ZZ=             -0.7689
   XY=              0.0000   XZ=             -9.2993   YZ=             -0.0000
 Octapole moment (field-independent basis, Debye-Ang**2):
  XXX=              0.0008  YYY=              2.0552  ZZZ=              0.0002  XYY=              0.0002
  XXY=             33.3673  XXZ=              0.0007  XZZ=             -0.0004  YZZ=              2.1817
  YYZ=             -0.0001  XYZ=             -8.0388
 Hexadecapole moment (field-independent basis, Debye-Ang**3):
 XXXX=          -4694.8226 YYYY=          -1731.3890 ZZZZ=          -1178.2973 XXXY=              0.0004
 XXXZ=           -135.7366 YYYX=              0.0000 YYYZ=             -0.0009 ZZZX=             17.1312
 ZZZY=              0.0004 XXYY=          -1119.6681 XXZZ=           -964.7924 YYZZ=           -464.3023
 XXYZ=             -0.0002 YYXZ=             18.5690 ZZXY=             -0.0000
 N-N= 1.448909344026D+03 E-N=-8.342332428202D+03  KE= 2.295551445857D+03
 1\1\GINC-LOCALHOST\FOpt\RB3LYP\6-311+G(d,p)\C12H6Cl4\GOUR\15-Mar-2022\
 0\\# opt b3lyp/6-311+g(d,p) scf=xqc\\Title Card Required\\0,1\C,-1.185
 8777022,1.7014190232,0.7504686061\C,0.1454006852,1.6810575369,1.180986
 9312\C,0.8934907834,2.8515332953,1.2088076816\C,0.3424479268,4.0641992
 542,0.8094930521\C,-0.9782138684,4.0956956145,0.3751742364\C,-1.731284
 7872,2.9253166877,0.3462916288\C,-1.9604163006,0.42608264,0.7136040575
 \C,-1.8054618943,-0.4371038501,-0.3767883875\C,-2.5020783705,-1.638181
 3245,-0.4274547848\C,-3.3629975934,-2.0114513774,0.5987732091\C,-3.521
 2348247,-1.1637567532,1.6897127097\C,-2.8255362117,0.0407278133,1.7440
 54041\H,0.5881051101,0.7465394151,1.500848859\H,0.933590898,4.97034674
 7,0.835028439\H,-1.4248838382,5.0285047578,0.0561458612\H,-1.143723887
 2,-0.1591682743,-1.187021644\H,-3.9011045375,-2.9491282981,0.549702738
 1\H,-4.183285565,-1.4374451021,2.501014146\Cl,-3.0467531173,1.07197654
 44,3.1464230454\Cl,-3.3893030701,3.0112741346,-0.2217085297\Cl,-2.2898
 191672,-2.6992293544,-1.8103504321\Cl,2.5606102191,2.7953113417,1.7572
 762942\\Version=EM64L-G16RevB.01\State=1-A\HF=-2301.9042815\RMSD=5.338
 e-09\RMSF=1.451e-06\Dipole=-0.0818313,0.0486449,0.0363385\Quadrupole=-
 2.2285187,5.9385115,-3.7099928,3.9285822,-2.3528273,-3.8153876\PG=C01 
 [X(C12H6Cl4)]\\@


  ON THE CHOICE OF THE CORRECT LANGUAGE -
 I SPEAK SPANISH TO GOD, ITALIAN TO WOMEN,
 FRENCH TO MEN, AND GERMAN TO MY HORSE.
          -- CHARLES V
 Job cpu time:       0 days 18 hours 29 minutes 39.8 seconds.
 Elapsed time:       0 days  4 hours 38 minutes 15.1 seconds.
 File lengths (MBytes):  RWF=    117 Int=      0 D2E=      0 Chk=     19 Scr=      1
 Normal termination of Gaussian 16 at Tue Mar 15 17:11:05 2022.
