 Entering Gaussian System, Link 0=g16
 Input=2,2prime,3,3prime,4,5prime,6prime-Heptachlorobiphenyl.gjf
 Output=2,2prime,3,3prime,4,5prime,6prime-Heptachlorobiphenyl.log
 Initial command:
 /home/apps/g16/l1.exe "./Gau-388720.inp" -scrdir="./"
 Entering Link 1 = /home/apps/g16/l1.exe PID=    388721.
  
 Copyright (c) 1988-2017, Gaussian, Inc.  All Rights Reserved.
  
 This is part of the Gaussian(R) 16 program.  It is based on
 the Gaussian(R) 09 system (copyright 2009, Gaussian, Inc.),
 the Gaussian(R) 03 system (copyright 2003, Gaussian, Inc.),
 the Gaussian(R) 98 system (copyright 1998, Gaussian, Inc.),
 the Gaussian(R) 94 system (copyright 1995, Gaussian, Inc.),
 the Gaussian 92(TM) system (copyright 1992, Gaussian, Inc.),
 the Gaussian 90(TM) system (copyright 1990, Gaussian, Inc.),
 the Gaussian 88(TM) system (copyright 1988, Gaussian, Inc.),
 the Gaussian 86(TM) system (copyright 1986, Carnegie Mellon
 University), and the Gaussian 82(TM) system (copyright 1983,
 Carnegie Mellon University). Gaussian is a federally registered
 trademark of Gaussian, Inc.
  
 This software contains proprietary and confidential information,
 including trade secrets, belonging to Gaussian, Inc.
  
 This software is provided under written license and may be
 used, copied, transmitted, or stored only in accord with that
 written license.
  
 The following legend is applicable only to US Government
 contracts under FAR:
  
                    RESTRICTED RIGHTS LEGEND
  
 Use, reproduction and disclosure by the US Government is
 subject to restrictions as set forth in subparagraphs (a)
 and (c) of the Commercial Computer Software - Restricted
 Rights clause in FAR 52.227-19.
  
 Gaussian, Inc.
 340 Quinnipiac St., Bldg. 40, Wallingford CT 06492
  
  
 ---------------------------------------------------------------
 Warning -- This program may not be used in any manner that
 competes with the business of Gaussian, Inc. or will provide
 assistance to any competitor of Gaussian, Inc.  The licensee
 of this program is prohibited from giving any competitor of
 Gaussian, Inc. access to this program.  By using this program,
 the user acknowledges that Gaussian, Inc. is engaged in the
 business of creating and licensing software in the field of
 computational chemistry and represents and warrants to the
 licensee that it is not a competitor of Gaussian, Inc. and that
 it will not use this program in any manner prohibited above.
 ---------------------------------------------------------------
  

 Cite this work as:
 Gaussian 16, Revision B.01,
 M. J. Frisch, G. W. Trucks, H. B. Schlegel, G. E. Scuseria, 
 M. A. Robb, J. R. Cheeseman, G. Scalmani, V. Barone, 
 G. A. Petersson, H. Nakatsuji, X. Li, M. Caricato, A. V. Marenich, 
 J. Bloino, B. G. Janesko, R. Gomperts, B. Mennucci, H. P. Hratchian, 
 J. V. Ortiz, A. F. Izmaylov, J. L. Sonnenberg, D. Williams-Young, 
 F. Ding, F. Lipparini, F. Egidi, J. Goings, B. Peng, A. Petrone, 
 T. Henderson, D. Ranasinghe, V. G. Zakrzewski, J. Gao, N. Rega, 
 G. Zheng, W. Liang, M. Hada, M. Ehara, K. Toyota, R. Fukuda, 
 J. Hasegawa, M. Ishida, T. Nakajima, Y. Honda, O. Kitao, H. Nakai, 
 T. Vreven, K. Throssell, J. A. Montgomery, Jr., J. E. Peralta, 
 F. Ogliaro, M. J. Bearpark, J. J. Heyd, E. N. Brothers, K. N. Kudin, 
 V. N. Staroverov, T. A. Keith, R. Kobayashi, J. Normand, 
 K. Raghavachari, A. P. Rendell, J. C. Burant, S. S. Iyengar, 
 J. Tomasi, M. Cossi, J. M. Millam, M. Klene, C. Adamo, R. Cammi, 
 J. W. Ochterski, R. L. Martin, K. Morokuma, O. Farkas, 
 J. B. Foresman, and D. J. Fox, Gaussian, Inc., Wallingford CT, 2016.
 
 ******************************************
 Gaussian 16:  EM64L-G16RevB.01 20-Dec-2017
                 3-Apr-2022 
 ******************************************
 %mem=32GB
 %nprocshared=16
 Will use up to   16 processors via shared memory.
 --------------------------------
 # opt b3lyp/6-311+g(d,p) scf=xqc
 --------------------------------
 1/18=20,19=15,26=3,38=1/1,3;
 2/9=110,12=2,17=6,18=5,40=1/2;
 3/5=4,6=6,7=111,11=2,25=1,30=1,71=1,74=-5/1,2,3;
 4//1;
 5/5=2,8=3,13=1,38=5/2,8;
 6/7=2,8=2,9=2,10=2,28=1/1;
 7//1,2,3,16;
 1/18=20,19=15,26=3/3(2);
 2/9=110/2;
 99//99;
 2/9=110/2;
 3/5=4,6=6,7=111,11=2,25=1,30=1,71=1,74=-5/1,2,3;
 4/5=5,16=3,69=1/1;
 5/5=2,8=3,13=1,38=5/2,8;
 7//1,2,3,16;
 1/18=20,19=15,26=3/3(-5);
 2/9=110/2;
 6/7=2,8=2,9=2,10=2,19=2,28=1/1;
 99/9=1/99;
 -------------------
 Title Card Required
 -------------------
 Symbolic Z-matrix:
 Charge =  0 Multiplicity = 1
 C                    -1.22252   3.51196  -1.04052 
 C                     0.10986   3.54185  -1.47386 
 C                     0.81776   4.7513   -1.47993 
 C                     0.19327   5.93086  -1.05266 
 C                    -1.13911   5.90098  -0.61932 
 C                    -1.847     4.69153  -0.61324 
 C                    -2.25087   1.755    -1.03169 
 C                    -1.62638   0.57544  -1.45897 
 C                    -2.33427  -0.63401  -1.45289 
 C                    -3.66665  -0.6639   -1.01954 
 C                    -4.29114   0.51567  -0.59227 
 C                    -3.58325   1.72512  -0.59834 
 H                     0.73376   6.85431  -1.0573 
 H                    -0.60908   0.59826  -1.78984 
 H                    -1.85746  -1.53464  -1.77913 
 Cl                   -4.36753   3.20652  -0.06173 
 Cl                   -3.52033   4.65399  -0.06901 
 Cl                   -5.96446   0.47813  -0.04803 
 Cl                   -1.9234    7.38238  -0.08271 
 Cl                   -4.55568  -2.18283  -1.01191 
 Cl                    2.49108   4.78883  -2.02417 
 Cl                    0.89415   2.06045  -2.01047 
 

 GradGradGradGradGradGradGradGradGradGradGradGradGradGradGradGradGradGrad
 Berny optimization.
 Initialization pass.
                           ----------------------------
                           !    Initial Parameters    !
                           ! (Angstroms and Degrees)  !
 --------------------------                            --------------------------
 ! Name  Definition              Value          Derivative Info.                !
 --------------------------------------------------------------------------------
 ! R1    R(1,2)                  1.4014         estimate D2E/DX2                !
 ! R2    R(1,6)                  1.4014         estimate D2E/DX2                !
 ! R3    R(2,3)                  1.4014         estimate D2E/DX2                !
 ! R4    R(2,22)                 1.76           estimate D2E/DX2                !
 ! R5    R(3,4)                  1.4014         estimate D2E/DX2                !
 ! R6    R(3,21)                 1.76           estimate D2E/DX2                !
 ! R7    R(4,5)                  1.4014         estimate D2E/DX2                !
 ! R8    R(4,13)                 1.07           estimate D2E/DX2                !
 ! R9    R(5,6)                  1.4014         estimate D2E/DX2                !
 ! R10   R(5,19)                 1.76           estimate D2E/DX2                !
 ! R11   R(6,17)                 1.76           estimate D2E/DX2                !
 ! R12   R(7,8)                  1.4014         estimate D2E/DX2                !
 ! R13   R(7,12)                 1.4014         estimate D2E/DX2                !
 ! R14   R(8,9)                  1.4014         estimate D2E/DX2                !
 ! R15   R(8,14)                 1.07           estimate D2E/DX2                !
 ! R16   R(9,10)                 1.4014         estimate D2E/DX2                !
 ! R17   R(9,15)                 1.07           estimate D2E/DX2                !
 ! R18   R(10,11)                1.4014         estimate D2E/DX2                !
 ! R19   R(10,20)                1.76           estimate D2E/DX2                !
 ! R20   R(11,12)                1.4014         estimate D2E/DX2                !
 ! R21   R(11,18)                1.76           estimate D2E/DX2                !
 ! R22   R(12,16)                1.76           estimate D2E/DX2                !
 ! R23   R(16,17)                1.6772         estimate D2E/DX2                !
 ! A1    A(2,1,6)              120.0            estimate D2E/DX2                !
 ! A2    A(1,2,3)              120.0            estimate D2E/DX2                !
 ! A3    A(1,2,22)             120.0            estimate D2E/DX2                !
 ! A4    A(3,2,22)             120.0            estimate D2E/DX2                !
 ! A5    A(2,3,4)              120.0            estimate D2E/DX2                !
 ! A6    A(2,3,21)             120.0            estimate D2E/DX2                !
 ! A7    A(4,3,21)             120.0            estimate D2E/DX2                !
 ! A8    A(3,4,5)              120.0            estimate D2E/DX2                !
 ! A9    A(3,4,13)             120.0            estimate D2E/DX2                !
 ! A10   A(5,4,13)             120.0            estimate D2E/DX2                !
 ! A11   A(4,5,6)              120.0            estimate D2E/DX2                !
 ! A12   A(4,5,19)             120.0            estimate D2E/DX2                !
 ! A13   A(6,5,19)             120.0            estimate D2E/DX2                !
 ! A14   A(1,6,5)              120.0            estimate D2E/DX2                !
 ! A15   A(1,6,17)             120.0            estimate D2E/DX2                !
 ! A16   A(5,6,17)             120.0            estimate D2E/DX2                !
 ! A17   A(8,7,12)             120.0            estimate D2E/DX2                !
 ! A18   A(7,8,9)              120.0            estimate D2E/DX2                !
 ! A19   A(7,8,14)             120.0            estimate D2E/DX2                !
 ! A20   A(9,8,14)             120.0            estimate D2E/DX2                !
 ! A21   A(8,9,10)             120.0            estimate D2E/DX2                !
 ! A22   A(8,9,15)             120.0            estimate D2E/DX2                !
 ! A23   A(10,9,15)            120.0            estimate D2E/DX2                !
 ! A24   A(9,10,11)            120.0            estimate D2E/DX2                !
 ! A25   A(9,10,20)            120.0            estimate D2E/DX2                !
 ! A26   A(11,10,20)           120.0            estimate D2E/DX2                !
 ! A27   A(10,11,12)           120.0            estimate D2E/DX2                !
 ! A28   A(10,11,18)           120.0            estimate D2E/DX2                !
 ! A29   A(12,11,18)           120.0            estimate D2E/DX2                !
 ! A30   A(7,12,11)            120.0            estimate D2E/DX2                !
 ! A31   A(7,12,16)            120.0            estimate D2E/DX2                !
 ! A32   A(11,12,16)           120.0            estimate D2E/DX2                !
 ! A33   A(12,16,17)           120.0            estimate D2E/DX2                !
 ! A34   A(6,17,16)            120.0            estimate D2E/DX2                !
 ! D1    D(6,1,2,3)              0.0001         estimate D2E/DX2                !
 ! D2    D(6,1,2,22)           180.0            estimate D2E/DX2                !
 ! D3    D(2,1,6,5)             -0.0001         estimate D2E/DX2                !
 ! D4    D(2,1,6,17)           180.0            estimate D2E/DX2                !
 ! D5    D(1,2,3,4)              0.0            estimate D2E/DX2                !
 ! D6    D(1,2,3,21)           180.0            estimate D2E/DX2                !
 ! D7    D(22,2,3,4)          -179.9999         estimate D2E/DX2                !
 ! D8    D(22,2,3,21)            0.0001         estimate D2E/DX2                !
 ! D9    D(2,3,4,5)             -0.0001         estimate D2E/DX2                !
 ! D10   D(2,3,4,13)           180.0            estimate D2E/DX2                !
 ! D11   D(21,3,4,5)           179.9999         estimate D2E/DX2                !
 ! D12   D(21,3,4,13)            0.0            estimate D2E/DX2                !
 ! D13   D(3,4,5,6)              0.0001         estimate D2E/DX2                !
 ! D14   D(3,4,5,19)          -179.9999         estimate D2E/DX2                !
 ! D15   D(13,4,5,6)          -180.0            estimate D2E/DX2                !
 ! D16   D(13,4,5,19)            0.0            estimate D2E/DX2                !
 ! D17   D(4,5,6,1)              0.0            estimate D2E/DX2                !
 ! D18   D(4,5,6,17)           179.9999         estimate D2E/DX2                !
 ! D19   D(19,5,6,1)           180.0            estimate D2E/DX2                !
 ! D20   D(19,5,6,17)           -0.0001         estimate D2E/DX2                !
 ! D21   D(1,6,17,16)            0.0004         estimate D2E/DX2                !
 ! D22   D(5,6,17,16)         -179.9996         estimate D2E/DX2                !
 ! D23   D(12,7,8,9)             0.0001         estimate D2E/DX2                !
 ! D24   D(12,7,8,14)         -179.9998         estimate D2E/DX2                !
 ! D25   D(8,7,12,11)           -0.0001         estimate D2E/DX2                !
 ! D26   D(8,7,12,16)          179.9999         estimate D2E/DX2                !
 ! D27   D(7,8,9,10)             0.0            estimate D2E/DX2                !
 ! D28   D(7,8,9,15)           180.0            estimate D2E/DX2                !
 ! D29   D(14,8,9,10)          179.9998         estimate D2E/DX2                !
 ! D30   D(14,8,9,15)           -0.0002         estimate D2E/DX2                !
 ! D31   D(8,9,10,11)            0.0            estimate D2E/DX2                !
 ! D32   D(8,9,10,20)         -179.9999         estimate D2E/DX2                !
 ! D33   D(15,9,10,11)         180.0            estimate D2E/DX2                !
 ! D34   D(15,9,10,20)           0.0001         estimate D2E/DX2                !
 ! D35   D(9,10,11,12)           0.0            estimate D2E/DX2                !
 ! D36   D(9,10,11,18)        -179.9998         estimate D2E/DX2                !
 ! D37   D(20,10,11,12)        179.9999         estimate D2E/DX2                !
 ! D38   D(20,10,11,18)          0.0001         estimate D2E/DX2                !
 ! D39   D(10,11,12,7)           0.0            estimate D2E/DX2                !
 ! D40   D(10,11,12,16)       -179.9999         estimate D2E/DX2                !
 ! D41   D(18,11,12,7)         179.9999         estimate D2E/DX2                !
 ! D42   D(18,11,12,16)         -0.0001         estimate D2E/DX2                !
 ! D43   D(7,12,16,17)           0.0004         estimate D2E/DX2                !
 ! D44   D(11,12,16,17)       -179.9997         estimate D2E/DX2                !
 ! D45   D(12,16,17,6)          -0.0006         estimate D2E/DX2                !
 --------------------------------------------------------------------------------
 Trust Radius=3.00D-01 FncErr=1.00D-07 GrdErr=1.00D-06 EigMax=2.50D+02 EigMin=1.00D-04
 Number of steps in this run=    112 maximum allowed number of steps=    132.
 GradGradGradGradGradGradGradGradGradGradGradGradGradGradGradGradGradGrad

                          Input orientation:                          
 ---------------------------------------------------------------------
 Center     Atomic      Atomic             Coordinates (Angstroms)
 Number     Number       Type             X           Y           Z
 ---------------------------------------------------------------------
      1          6           0       -1.222517    3.511963   -1.040515
      2          6           0        0.109864    3.541848   -1.473862
      3          6           0        0.817758    4.751299   -1.479934
      4          6           0        0.193270    5.930864   -1.052660
      5          6           0       -1.139111    5.900979   -0.619315
      6          6           0       -1.847005    4.691528   -0.613243
      7          6           0       -2.250867    1.755005   -1.031693
      8          6           0       -1.626379    0.575440   -1.458968
      9          6           0       -2.334272   -0.634012   -1.452893
     10          6           0       -3.666652   -0.663898   -1.019544
     11          6           0       -4.291140    0.515667   -0.592268
     12          6           0       -3.583247    1.725118   -0.598343
     13          1           0        0.733763    6.854307   -1.057296
     14          1           0       -0.609077    0.598258   -1.789838
     15          1           0       -1.857462   -1.534636   -1.779128
     16         17           0       -4.367531    3.206518   -0.061731
     17         17           0       -3.520325    4.653995   -0.069009
     18         17           0       -5.964457    0.478132   -0.048026
     19         17           0       -1.923398    7.382380   -0.082710
     20         17           0       -4.555685   -2.182833   -1.011912
     21         17           0        2.491078    4.788832   -2.024168
     22         17           0        0.894151    2.060447   -2.010468
 ---------------------------------------------------------------------
                    Distance matrix (angstroms):
                    1          2          3          4          5
     1  C    0.000000
     2  C    1.401400   0.000000
     3  C    2.427296   1.401400   0.000000
     4  C    2.802800   2.427296   1.401400   0.000000
     5  C    2.427296   2.802800   2.427296   1.401400   0.000000
     6  C    1.401400   2.427296   2.802800   2.427296   1.401400
     7  C    2.035800   2.993555   4.312210   4.838600   4.312210
     8  C    2.993555   3.437200   4.838600   5.670695   5.413300
     9  C    4.312210   4.838600   6.240000   7.046010   6.695474
    10  C    4.838600   5.670695   7.046010   7.641400   7.046010
    11  C    4.312210   5.413300   6.695474   7.046010   6.240000
    12  C    2.993555   4.207863   5.413300   5.670695   4.838600
    13  H    3.872800   3.396345   2.146700   1.070000   2.146700
    14  H    3.070418   3.046546   4.402232   5.442783   5.456181
    15  H    5.139733   5.452912   6.838077   7.776050   7.559733
    16  Cl   3.307934   4.706764   5.593288   5.404157   4.241900
    17  Cl   2.743718   4.048303   4.562800   4.048303   2.743718
    18  Cl   5.716219   6.951025   8.143019   8.286084   7.281319
    19  Cl   4.048303   4.562800   4.048303   2.743718   1.760000
    20  Cl   6.598600   7.399508   8.784937   9.401400   8.784937
    21  Cl   4.048303   2.743718   1.760000   2.743718   4.048303
    22  Cl   2.743718   1.760000   2.743718   4.048303   4.562800
                    6          7          8          9         10
     6  C    0.000000
     7  C    2.993555   0.000000
     8  C    4.207863   1.401400   0.000000
     9  C    5.413300   2.427296   1.401400   0.000000
    10  C    5.670695   2.802800   2.427296   1.401400   0.000000
    11  C    4.838600   2.427296   2.802800   2.427296   1.401400
    12  C    3.437200   1.401400   2.427296   2.802800   2.427296
    13  H    3.396345   5.908600   6.719806   8.102114   8.711400
    14  H    4.435279   2.146700   1.070000   2.146700   3.396345
    15  H    6.334391   3.396345   2.146700   1.070000   2.146700
    16  Cl   2.976990   2.743718   4.048303   4.562800   4.048303
    17  Cl   1.760000   3.307934   4.706764   5.593288   5.404157
    18  Cl   5.918242   4.048303   4.562800   4.048303   2.743718
    19  Cl   2.743718   5.716219   6.951025   8.143019   8.286084
    20  Cl   7.399508   4.562800   4.048303   2.743718   1.760000
    21  Cl   4.562800   5.716219   5.918242   7.281319   8.286084
    22  Cl   4.048303   3.307934   2.976990   4.241900   5.404157
                   11         12         13         14         15
    11  C    0.000000
    12  C    1.401400   0.000000
    13  H    8.102114   6.719806   0.000000
    14  H    3.872800   3.396345   6.440340   0.000000
    15  H    3.396345   3.872800   8.809645   2.471400   0.000000
    16  Cl   2.743718   1.760000   6.349860   4.890332   5.632800
    17  Cl   4.241900   2.976990   4.890332   5.280684   6.632403
    18  Cl   1.760000   2.743718   9.302708   5.632800   4.890333
    19  Cl   7.281319   5.918242   2.879094   7.118008   9.077189
    20  Cl   2.743718   4.048303  10.471400   4.890332   2.879094
    21  Cl   8.143019   6.951025   2.879094   5.217929   7.678288
    22  Cl   5.593288   4.706764   4.890332   2.108641   4.533157
                   16         17         18         19         20
    16  Cl   0.000000
    17  Cl   1.677200   0.000000
    18  Cl   3.161400   4.838600   0.000000
    19  Cl   4.838600   3.161400   8.000000   0.000000
    20  Cl   5.475705   6.978771   3.161400   9.964218   0.000000
    21  Cl   7.307216   6.322800   9.694501   5.475705   9.964218
    22  Cl   5.726810   5.475705   7.307216   6.322800   6.978771
                   21         22
    21  Cl   0.000000
    22  Cl   3.161400   0.000000
 Stoichiometry    C12H3Cl7
 Framework group  C1[X(C12H3Cl7)]
 Deg. of freedom    60
 Full point group                 C1      NOp   1
 Largest Abelian subgroup         C1      NOp   1
 Largest concise Abelian subgroup C1      NOp   1
                         Standard orientation:                         
 ---------------------------------------------------------------------
 Center     Atomic      Atomic             Coordinates (Angstroms)
 Number     Number       Type             X           Y           Z
 ---------------------------------------------------------------------
      1          6           0        1.147257    0.255940    0.000002
      2          6           0        2.054474    1.324059    0.000001
      3          6           0        3.433101    1.072445   -0.000001
      4          6           0        3.904511   -0.247288   -0.000003
      5          6           0        2.997293   -1.315407    0.000000
      6          6           0        1.618666   -1.063793    0.000002
      7          6           0       -0.855461    0.621457    0.000004
      8          6           0       -1.326871    1.941190    0.000005
      9          6           0       -2.705498    2.192804    0.000005
     10          6           0       -3.612715    1.124685    0.000003
     11          6           0       -3.141306   -0.195048    0.000001
     12          6           0       -1.762679   -0.446662    0.000001
     13          1           0        4.957123   -0.439400   -0.000005
     14          1           0       -0.634190    2.756723    0.000004
     15          1           0       -3.065429    3.200449    0.000007
     16         17           0       -1.170642   -2.104097   -0.000004
     17         17           0        0.479303   -2.405230    0.000005
     18         17           0       -4.280668   -1.536485   -0.000006
     19         17           0        3.589330   -2.972842    0.000002
     20         17           0       -5.344115    1.440684    0.000000
     21         17           0        4.572464    2.413882   -0.000004
     22         17           0        1.462437    2.981495   -0.000001
 ---------------------------------------------------------------------
 Rotational constants (GHZ):           0.3260347           0.1280498           0.0919403
 Standard basis: 6-311+G(d,p) (5D, 7F)
 There are   511 symmetry adapted cartesian basis functions of A   symmetry.
 There are   492 symmetry adapted basis functions of A   symmetry.
   492 basis functions,   827 primitive gaussians,   511 cartesian basis functions
    97 alpha electrons       97 beta electrons
       nuclear repulsion energy      2356.8126889717 Hartrees.
 NAtoms=   22 NActive=   22 NUniq=   22 SFac= 1.00D+00 NAtFMM=   60 NAOKFM=F Big=F
 Integral buffers will be    131072 words long.
 Raffenetti 2 integral format.
 Two-electron integral symmetry is turned on.
 One-electron integrals computed using PRISM.
 NBasis=   492 RedAO= T EigKep=  1.23D-06  NBF=   492
 NBsUse=   486 1.00D-06 EigRej=  5.45D-07 NBFU=   486
 ExpMin= 4.38D-02 ExpMax= 1.06D+05 ExpMxC= 3.62D+03 IAcc=3 IRadAn=         5 AccDes= 0.00D+00
 Harris functional with IExCor=  402 and IRadAn=       5 diagonalized for initial guess.
 HarFok:  IExCor=  402 AccDes= 0.00D+00 IRadAn=         5 IDoV= 1 UseB2=F ITyADJ=14
 ICtDFT=  3500011 ScaDFX=  1.000000  1.000000  1.000000  1.000000
 FoFCou: FMM=F IPFlag=           0 FMFlag=      100000 FMFlg1=           0
         NFxFlg=           0 DoJE=T BraDBF=F KetDBF=T FulRan=T
         wScrn=  0.000000 ICntrl=       500 IOpCl=  0 I1Cent=   200000004 NGrid=           0
         NMat0=    1 NMatS0=      1 NMatT0=    0 NMatD0=    1 NMtDS0=    0 NMtDT0=    0
 Petite list used in FoFCou.
 Requested convergence on RMS density matrix=1.00D-08 within  32 cycles.
 Requested convergence on MAX density matrix=1.00D-06.
 Requested convergence on             energy=1.00D-06.
 No special actions if energy rises.
 EnCoef did     4 forward-backward iterations
 EnCoef did     5 forward-backward iterations
 EnCoef did     6 forward-backward iterations
 EnCoef did     7 forward-backward iterations
 EnCoef did     3 forward-backward iterations
 Restarting incremental Fock formation.
 SCF Done:  E(RB3LYP) =  -3680.18407282     A.U. after   27 cycles
            NFock= 27  Conv=0.49D-08     -V/T= 2.0021
 QCSCF skips out because SCF is already converged.

 **********************************************************************

            Population analysis using the SCF Density.

 **********************************************************************

 Orbital symmetries:
       Occupied  (A) (A) (A) (A) (A) (A) (A) (A) (A) (A) (A) (A)
                 (A) (A) (A) (A) (A) (A) (A) (A) (A) (A) (A) (A)
                 (A) (A) (A) (A) (A) (A) (A) (A) (A) (A) (A) (A)
                 (A) (A) (A) (A) (A) (A) (A) (A) (A) (A) (A) (A)
                 (A) (A) (A) (A) (A) (A) (A) (A) (A) (A) (A) (A)
                 (A) (A) (A) (A) (A) (A) (A) (A) (A) (A) (A) (A)
                 (A) (A) (A) (A) (A) (A) (A) (A) (A) (A) (A) (A)
                 (A) (A) (A) (A) (A) (A) (A) (A) (A) (A) (A) (A)
                 (A)
       Virtual   (A) (A) (A) (A) (A) (A) (A) (A) (A) (A) (A) (A)
                 (A) (A) (A) (A) (A) (A) (A) (A) (A) (A) (A) (A)
                 (A) (A) (A) (A) (A) (A) (A) (A) (A) (A) (A) (A)
                 (A) (A) (A) (A) (A) (A) (A) (A) (A) (A) (A) (A)
                 (A) (A) (A) (A) (A) (A) (A) (A) (A) (A) (A) (A)
                 (A) (A) (A) (A) (A) (A) (A) (A) (A) (A) (A) (A)
                 (A) (A) (A) (A) (A) (A) (A) (A) (A) (A) (A) (A)
                 (A) (A) (A) (A) (A) (A) (A) (A) (A) (A) (A) (A)
                 (A) (A) (A) (A) (A) (A) (A) (A) (A) (A) (A) (A)
                 (A) (A) (A) (A) (A) (A) (A) (A) (A) (A) (A) (A)
                 (A) (A) (A) (A) (A) (A) (A) (A) (A) (A) (A) (A)
                 (A) (A) (A) (A) (A) (A) (A) (A) (A) (A) (A) (A)
                 (A) (A) (A) (A) (A) (A) (A) (A) (A) (A) (A) (A)
                 (A) (A) (A) (A) (A) (A) (A) (A) (A) (A) (A) (A)
                 (A) (A) (A) (A) (A) (A) (A) (A) (A) (A) (A) (A)
                 (A) (A) (A) (A) (A) (A) (A) (A) (A) (A) (A) (A)
                 (A) (A) (A) (A) (A) (A) (A) (A) (A) (A) (A) (A)
                 (A) (A) (A) (A) (A) (A) (A) (A) (A) (A) (A) (A)
                 (A) (A) (A) (A) (A) (A) (A) (A) (A) (A) (A) (A)
                 (A) (A) (A) (A) (A) (A) (A) (A) (A) (A) (A) (A)
                 (A) (A) (A) (A) (A) (A) (A) (A) (A) (A) (A) (A)
                 (A) (A) (A) (A) (A) (A) (A) (A) (A) (A) (A) (A)
                 (A) (A) (A) (A) (A) (A) (A) (A) (A) (A) (A) (A)
                 (A) (A) (A) (A) (A) (A) (A) (A) (A) (A) (A) (A)
                 (A) (A) (A) (A) (A) (A) (A) (A) (A) (A) (A) (A)
                 (A) (A) (A) (A) (A) (A) (A) (A) (A) (A) (A) (A)
                 (A) (A) (A) (A) (A) (A) (A) (A) (A) (A) (A) (A)
                 (A) (A) (A) (A) (A) (A) (A) (A) (A) (A) (A) (A)
                 (A) (A) (A) (A) (A) (A) (A) (A) (A) (A) (A) (A)
                 (A) (A) (A) (A) (A) (A) (A) (A) (A) (A) (A) (A)
                 (A) (A) (A) (A) (A) (A) (A) (A) (A) (A) (A) (A)
                 (A) (A) (A) (A) (A) (A) (A) (A) (A) (A) (A) (A)
                 (A) (A) (A) (A) (A)
 The electronic state is 1-A.
 Alpha  occ. eigenvalues -- -101.63198-101.62848-101.57641-101.57639-101.57439
 Alpha  occ. eigenvalues -- -101.56662-101.56660 -10.28440 -10.27884 -10.27793
 Alpha  occ. eigenvalues --  -10.27767 -10.27675 -10.26879 -10.26654 -10.24673
 Alpha  occ. eigenvalues --  -10.23634 -10.22717 -10.21208 -10.20579  -9.55892
 Alpha  occ. eigenvalues --   -9.55558  -9.49122  -9.49068  -9.48990  -9.48162
 Alpha  occ. eigenvalues --   -9.48104  -7.32564  -7.32234  -7.31247  -7.30893
 Alpha  occ. eigenvalues --   -7.30864  -7.30516  -7.25591  -7.25558  -7.25455
 Alpha  occ. eigenvalues --   -7.24632  -7.24600  -7.24587  -7.24555  -7.24551
 Alpha  occ. eigenvalues --   -7.24487  -7.24467  -7.24406  -7.23648  -7.23589
 Alpha  occ. eigenvalues --   -7.23579  -7.23528  -1.12162  -0.94764  -0.93606
 Alpha  occ. eigenvalues --   -0.91199  -0.88309  -0.87762  -0.86349  -0.85507
 Alpha  occ. eigenvalues --   -0.83741  -0.79034  -0.76109  -0.74943  -0.74138
 Alpha  occ. eigenvalues --   -0.67995  -0.64655  -0.62590  -0.61515  -0.58828
 Alpha  occ. eigenvalues --   -0.55660  -0.53066  -0.52724  -0.51953  -0.51156
 Alpha  occ. eigenvalues --   -0.50094  -0.48173  -0.46840  -0.45765  -0.45122
 Alpha  occ. eigenvalues --   -0.45076  -0.43767  -0.43386  -0.42218  -0.40702
 Alpha  occ. eigenvalues --   -0.40047  -0.37239  -0.36719  -0.36594  -0.35498
 Alpha  occ. eigenvalues --   -0.34773  -0.34473  -0.34082  -0.33904  -0.32844
 Alpha  occ. eigenvalues --   -0.32131  -0.31616  -0.29213  -0.27426  -0.26626
 Alpha  occ. eigenvalues --   -0.26069  -0.13193
 Alpha virt. eigenvalues --   -0.09694  -0.07192  -0.06571  -0.06094  -0.04826
 Alpha virt. eigenvalues --   -0.03362  -0.01825  -0.01342  -0.00619  -0.00077
 Alpha virt. eigenvalues --    0.00643   0.01040   0.01924   0.02412   0.02807
 Alpha virt. eigenvalues --    0.03595   0.04014   0.04198   0.05006   0.05035
 Alpha virt. eigenvalues --    0.05806   0.05938   0.06719   0.06892   0.07023
 Alpha virt. eigenvalues --    0.07328   0.07654   0.07952   0.08620   0.08874
 Alpha virt. eigenvalues --    0.09293   0.09362   0.09915   0.09997   0.10147
 Alpha virt. eigenvalues --    0.10834   0.11014   0.12003   0.12295   0.12401
 Alpha virt. eigenvalues --    0.12807   0.13130   0.13286   0.13769   0.14335
 Alpha virt. eigenvalues --    0.14439   0.14564   0.14816   0.14955   0.15466
 Alpha virt. eigenvalues --    0.15597   0.16300   0.17259   0.17557   0.18219
 Alpha virt. eigenvalues --    0.18514   0.18761   0.18956   0.19108   0.19286
 Alpha virt. eigenvalues --    0.19688   0.20149   0.20879   0.21234   0.21767
 Alpha virt. eigenvalues --    0.21950   0.22045   0.22733   0.23243   0.23457
 Alpha virt. eigenvalues --    0.24119   0.24421   0.24811   0.25271   0.25394
 Alpha virt. eigenvalues --    0.26004   0.26046   0.26185   0.26841   0.27102
 Alpha virt. eigenvalues --    0.27573   0.27988   0.29382   0.29661   0.29824
 Alpha virt. eigenvalues --    0.30298   0.30963   0.32312   0.32994   0.33121
 Alpha virt. eigenvalues --    0.33917   0.34699   0.35204   0.35461   0.37688
 Alpha virt. eigenvalues --    0.39536   0.39781   0.40895   0.41243   0.42449
 Alpha virt. eigenvalues --    0.42689   0.42716   0.42845   0.43278   0.44504
 Alpha virt. eigenvalues --    0.44784   0.45142   0.45413   0.46569   0.46775
 Alpha virt. eigenvalues --    0.47320   0.47528   0.47890   0.48075   0.49175
 Alpha virt. eigenvalues --    0.49286   0.49824   0.50999   0.51797   0.52092
 Alpha virt. eigenvalues --    0.53048   0.53367   0.54257   0.54858   0.56410
 Alpha virt. eigenvalues --    0.56928   0.57327   0.58191   0.58203   0.58951
 Alpha virt. eigenvalues --    0.59306   0.59901   0.60187   0.60864   0.61235
 Alpha virt. eigenvalues --    0.61314   0.62012   0.63517   0.64558   0.65201
 Alpha virt. eigenvalues --    0.65316   0.65886   0.67627   0.69256   0.69403
 Alpha virt. eigenvalues --    0.70250   0.71751   0.75309   0.75540   0.76773
 Alpha virt. eigenvalues --    0.78720   0.79202   0.80003   0.81118   0.81614
 Alpha virt. eigenvalues --    0.81726   0.83490   0.83662   0.83976   0.84333
 Alpha virt. eigenvalues --    0.84448   0.84606   0.85325   0.85618   0.85998
 Alpha virt. eigenvalues --    0.86109   0.86653   0.86836   0.87534   0.87807
 Alpha virt. eigenvalues --    0.88292   0.89263   0.89507   0.89611   0.90417
 Alpha virt. eigenvalues --    0.91501   0.92166   0.92947   0.93419   0.94008
 Alpha virt. eigenvalues --    0.94616   0.95113   0.95165   0.95256   0.95676
 Alpha virt. eigenvalues --    0.96055   0.96383   0.96672   0.97089   0.98511
 Alpha virt. eigenvalues --    0.99541   1.00573   1.01547   1.02548   1.02885
 Alpha virt. eigenvalues --    1.04868   1.04952   1.07051   1.07966   1.10181
 Alpha virt. eigenvalues --    1.11621   1.14891   1.16548   1.19047   1.19059
 Alpha virt. eigenvalues --    1.20217   1.21359   1.21835   1.22612   1.23857
 Alpha virt. eigenvalues --    1.23895   1.25922   1.26148   1.26873   1.27422
 Alpha virt. eigenvalues --    1.27759   1.28656   1.28718   1.29529   1.30873
 Alpha virt. eigenvalues --    1.30993   1.34400   1.38316   1.40309   1.45490
 Alpha virt. eigenvalues --    1.47159   1.49109   1.50083   1.50751   1.53449
 Alpha virt. eigenvalues --    1.55728   1.56519   1.58963   1.59627   1.62363
 Alpha virt. eigenvalues --    1.65951   1.66500   1.68373   1.71533   1.73124
 Alpha virt. eigenvalues --    1.75075   1.75214   1.77570   1.81119   1.82026
 Alpha virt. eigenvalues --    1.82830   1.84258   1.84791   1.85464   1.85909
 Alpha virt. eigenvalues --    1.86538   1.87442   1.88095   1.88934   1.93869
 Alpha virt. eigenvalues --    1.96311   1.96807   1.99068   2.01848   2.03572
 Alpha virt. eigenvalues --    2.07841   2.12070   2.14385   2.16879   2.18150
 Alpha virt. eigenvalues --    2.19470   2.20498   2.21999   2.22912   2.23391
 Alpha virt. eigenvalues --    2.24827   2.26274   2.27394   2.27715   2.28924
 Alpha virt. eigenvalues --    2.29120   2.29288   2.32013   2.32533   2.34996
 Alpha virt. eigenvalues --    2.36392   2.37648   2.41026   2.41903   2.43297
 Alpha virt. eigenvalues --    2.44111   2.45227   2.46413   2.52285   2.53318
 Alpha virt. eigenvalues --    2.53510   2.55610   2.57260   2.58745   2.58923
 Alpha virt. eigenvalues --    2.60249   2.60708   2.61059   2.63587   2.66266
 Alpha virt. eigenvalues --    2.69021   2.72544   2.73077   2.73430   2.73836
 Alpha virt. eigenvalues --    2.74119   2.76454   2.77700   2.79715   2.80208
 Alpha virt. eigenvalues --    2.84137   2.85352   2.86555   2.87817   2.91447
 Alpha virt. eigenvalues --    3.04587   3.04957   3.06573   3.09526   3.10626
 Alpha virt. eigenvalues --    3.14679   3.15345   3.19155   3.21435   3.22862
 Alpha virt. eigenvalues --    3.27004   3.32392   3.34967   3.37994   3.43165
 Alpha virt. eigenvalues --    3.51781   3.59279   3.66430   3.69519   3.75526
 Alpha virt. eigenvalues --    3.84540   3.90513   4.01742   4.05644   4.11410
 Alpha virt. eigenvalues --    4.79242   4.80874   9.67804   9.75994   9.76755
 Alpha virt. eigenvalues --    9.78790   9.80880   9.84060   9.97827  23.28423
 Alpha virt. eigenvalues --   23.36242  23.77657  23.82106  23.83521  23.87000
 Alpha virt. eigenvalues --   23.92575  23.96305  23.96854  23.98789  24.04180
 Alpha virt. eigenvalues --   24.10241  25.73678  25.77600  25.78192  25.81213
 Alpha virt. eigenvalues --   25.86628  25.87370  25.98503  26.08228  26.11866
 Alpha virt. eigenvalues --   26.13739  26.20571  26.22125  26.34554  26.48214
 Alpha virt. eigenvalues --   26.56521  26.62213  26.71702  26.78662  26.95395
 Alpha virt. eigenvalues --   26.97274  27.02481 215.68476 215.75326 215.76638
 Alpha virt. eigenvalues --  215.79049 215.81016 215.84619 216.04178
          Condensed to atoms (all electrons):
               1          2          3          4          5          6
     1  C   27.896237  -1.056372  -7.542315   6.699936  -7.000863  -1.181209
     2  C   -1.056372  15.610370  -0.876652  -6.253690   2.343294  -0.693974
     3  C   -7.542315  -0.876652  24.273836  -7.337854  -4.864017   5.395709
     4  C    6.699936  -6.253690  -7.337854  24.826888  -2.261945  -8.213540
     5  C   -7.000863   2.343294  -4.864017  -2.261945  21.573282  -3.778064
     6  C   -1.181209  -0.693974   5.395709  -8.213540  -3.778064  29.458958
     7  C    4.072421  -1.734926  -4.759507   0.534247  -3.026257  -3.719011
     8  C   -1.129275   1.308026  -0.776412   0.522348   0.436716  -2.404565
     9  C    0.569030  -0.440343   0.548335   0.251048  -0.196349  -0.043156
    10  C   -0.245685   0.378335  -0.046350   0.030071   0.074201  -0.818395
    11  C   -4.085983   0.091284  -0.446260   0.007255   0.128488  -0.191834
    12  C   -3.390590  -1.090989   0.353341   0.147417   0.815626  -4.116490
    13  H   -0.032389   0.043050   0.109095   0.146925  -0.039424   0.081756
    14  H    0.018300   0.022395   0.001141   0.000080  -0.005319  -0.004950
    15  H   -0.006955   0.004114   0.000455   0.000296   0.000231  -0.000296
    16  Cl   5.744454   1.268797  -1.250896   1.230436  -3.561107  14.966429
    17  Cl -11.393039  -2.031299   3.309278  -1.911356   5.043211 -18.693330
    18  Cl  -0.042666  -0.074603  -0.000657  -0.002162  -0.024816  -0.062898
    19  Cl  -0.390697   0.388708  -0.388116  -0.866758  -0.162268   0.777363
    20  Cl  -0.114601   0.000555  -0.003638   0.000541  -0.002611  -0.003983
    21  Cl  -0.595289   0.756257  -0.298164  -0.829785  -0.163327   0.505674
    22  Cl  -0.163234  -1.255344   0.169811   0.206496   0.586783   0.097053
               7          8          9         10         11         12
     1  C    4.072421  -1.129275   0.569030  -0.245685  -4.085983  -3.390590
     2  C   -1.734926   1.308026  -0.440343   0.378335   0.091284  -1.090989
     3  C   -4.759507  -0.776412   0.548335  -0.046350  -0.446260   0.353341
     4  C    0.534247   0.522348   0.251048   0.030071   0.007255   0.147417
     5  C   -3.026257   0.436716  -0.196349   0.074201   0.128488   0.815626
     6  C   -3.719011  -2.404565  -0.043156  -0.818395  -0.191834  -4.116490
     7  C   28.349279  -2.825775  -2.411890   1.525040  -3.355100   0.771075
     8  C   -2.825775  21.811465  -3.290683  -1.070877   1.642623  -7.447737
     9  C   -2.411890  -3.290683  20.852086  -1.573585 -10.901947   2.551566
    10  C    1.525040  -1.070877  -1.573585  21.148902  -6.312913  -4.644083
    11  C   -3.355100   1.642623 -10.901947  -6.312913  29.782695  -2.674907
    12  C    0.771075  -7.447737   2.551566  -4.644083  -2.674907  29.591780
    13  H    0.000785  -0.001546  -0.000209   0.000026   0.000082   0.002373
    14  H   -0.045605   0.256097   0.064728  -0.015095  -0.032544   0.081677
    15  H   -0.036986  -0.087600   0.306744   0.072623  -0.004707   0.081403
    16  Cl -10.961807  -0.427277   1.144330  -2.808580   5.148999 -19.560796
    17  Cl   5.238157   0.054706  -0.822542   1.910167  -2.175140  15.138424
    18  Cl  -0.572034   0.393577   0.346949  -1.071009  -1.011139   1.133440
    19  Cl  -0.049875   0.011894   0.000835   0.008082   0.011939  -0.112658
    20  Cl  -0.404752  -0.212236  -0.102362  -0.868023   0.974425  -0.131374
    21  Cl  -0.054652  -0.049066  -0.010789  -0.005830  -0.000277  -0.016045
    22  Cl  -0.019311  -0.296134  -0.479912  -0.098654   0.083752  -0.056651
              13         14         15         16         17         18
     1  C   -0.032389   0.018300  -0.006955   5.744454 -11.393039  -0.042666
     2  C    0.043050   0.022395   0.004114   1.268797  -2.031299  -0.074603
     3  C    0.109095   0.001141   0.000455  -1.250896   3.309278  -0.000657
     4  C    0.146925   0.000080   0.000296   1.230436  -1.911356  -0.002162
     5  C   -0.039424  -0.005319   0.000231  -3.561107   5.043211  -0.024816
     6  C    0.081756  -0.004950  -0.000296  14.966429 -18.693330  -0.062898
     7  C    0.000785  -0.045605  -0.036986 -10.961807   5.238157  -0.572034
     8  C   -0.001546   0.256097  -0.087600  -0.427277   0.054706   0.393577
     9  C   -0.000209   0.064728   0.306744   1.144330  -0.822542   0.346949
    10  C    0.000026  -0.015095   0.072623  -2.808580   1.910167  -1.071009
    11  C    0.000082  -0.032544  -0.004707   5.148999  -2.175140  -1.011139
    12  C    0.002373   0.081677   0.081403 -19.560796  15.138424   1.133440
    13  H    0.495976  -0.000001  -0.000000  -0.006833   0.030006  -0.000000
    14  H   -0.000001   0.586736  -0.008106   0.034731  -0.021777   0.001047
    15  H   -0.000000  -0.008106   0.521088   0.017901  -0.004523  -0.002660
    16  Cl  -0.006833   0.034731   0.017901  83.276804 -58.085891  -0.247428
    17  Cl   0.030006  -0.021777  -0.004523 -58.085891  80.719343  -0.494349
    18  Cl  -0.000000   0.001047  -0.002660  -0.247428  -0.494349  18.276243
    19  Cl  -0.002243   0.000024  -0.000001  -0.432461  -0.168991  -0.003642
    20  Cl  -0.000000   0.000747  -0.001293   0.187331  -0.052016  -0.248950
    21  Cl   0.002511   0.001660  -0.000021  -0.017152   0.052311   0.000094
    22  Cl   0.001542  -0.075488  -0.000612  -0.086722   0.084043   0.002006
              19         20         21         22
     1  C   -0.390697  -0.114601  -0.595289  -0.163234
     2  C    0.388708   0.000555   0.756257  -1.255344
     3  C   -0.388116  -0.003638  -0.298164   0.169811
     4  C   -0.866758   0.000541  -0.829785   0.206496
     5  C   -0.162268  -0.002611  -0.163327   0.586783
     6  C    0.777363  -0.003983   0.505674   0.097053
     7  C   -0.049875  -0.404752  -0.054652  -0.019311
     8  C    0.011894  -0.212236  -0.049066  -0.296134
     9  C    0.000835  -0.102362  -0.010789  -0.479912
    10  C    0.008082  -0.868023  -0.005830  -0.098654
    11  C    0.011939   0.974425  -0.000277   0.083752
    12  C   -0.112658  -0.131374  -0.016045  -0.056651
    13  H   -0.002243  -0.000000   0.002511   0.001542
    14  H    0.000024   0.000747   0.001660  -0.075488
    15  H   -0.000001  -0.001293  -0.000021  -0.000612
    16  Cl  -0.432461   0.187331  -0.017152  -0.086722
    17  Cl  -0.168991  -0.052016   0.052311   0.084043
    18  Cl  -0.003642  -0.248950   0.000094   0.002006
    19  Cl  17.878530  -0.000069  -0.030844   0.005373
    20  Cl  -0.000069  17.490394  -0.000034  -0.001577
    21  Cl  -0.030844  -0.000034  17.444436  -0.211186
    22  Cl   0.005373  -0.001577  -0.211186  17.838222
 Mulliken charges:
               1
     1  C   -0.629216
     2  C   -0.706993
     3  C    0.429838
     4  C   -0.926894
     5  C    0.084535
     6  C   -1.357249
     7  C   -0.513515
     8  C   -0.418270
     9  C   -0.361884
    10  C    0.431633
    11  C   -0.678790
    12  C   -1.425803
    13  H    0.168519
    14  H    0.139523
    15  H    0.148904
    16  Cl   1.426740
    17  Cl   1.274605
    18  Cl   0.705657
    19  Cl   0.525877
    20  Cl   0.493524
    21  Cl   0.519518
    22  Cl   0.669742
 Sum of Mulliken charges =  -0.00000
 Mulliken charges with hydrogens summed into heavy atoms:
               1
     1  C   -0.629216
     2  C   -0.706993
     3  C    0.429838
     4  C   -0.758375
     5  C    0.084535
     6  C   -1.357249
     7  C   -0.513515
     8  C   -0.278747
     9  C   -0.212980
    10  C    0.431633
    11  C   -0.678790
    12  C   -1.425803
    16  Cl   1.426740
    17  Cl   1.274605
    18  Cl   0.705657
    19  Cl   0.525877
    20  Cl   0.493524
    21  Cl   0.519518
    22  Cl   0.669742
 Electronic spatial extent (au):  <R**2>=          10053.9639
 Charge=             -0.0000 electrons
 Dipole moment (field-independent basis, Debye):
    X=              1.2107    Y=             -0.8224    Z=              0.0000  Tot=              1.4636
 Quadrupole moment (field-independent basis, Debye-Ang):
   XX=           -170.1195   YY=           -152.5880   ZZ=           -159.1022
   XY=             -2.8388   XZ=             -0.0000   YZ=              0.0000
 Traceless Quadrupole moment (field-independent basis, Debye-Ang):
   XX=             -9.5162   YY=              8.0152   ZZ=              1.5010
   XY=             -2.8388   XZ=             -0.0000   YZ=              0.0000
 Octapole moment (field-independent basis, Debye-Ang**2):
  XXX=             66.3455  YYY=             -8.6312  ZZZ=             -0.0001  XYY=            -29.2242
  XXY=             -2.4857  XXZ=             -0.0000  XZZ=             -1.5263  YZZ=             -9.6391
  YYZ=             -0.0000  XYZ=              0.0000
 Hexadecapole moment (field-independent basis, Debye-Ang**3):
 XXXX=          -9531.0014 YYYY=          -3533.1117 ZZZZ=           -185.9777 XXXY=             25.0046
 XXXZ=              0.0000 YYYX=             17.2701 YYYZ=              0.0001 ZZZX=              0.0001
 ZZZY=             -0.0001 XXYY=          -2211.3088 XXZZ=          -1635.7064 YYZZ=           -657.4827
 XXYZ=              0.0001 YYXZ=             -0.0001 ZZXY=             16.2363
 N-N= 2.356812688972D+03 E-N=-1.343425131735D+04  KE= 3.672604780471D+03
 Calling FoFJK, ICntrl=      2127 FMM=F ISym2X=0 I1Cent= 0 IOpClX= 0 NMat=1 NMatS=1 NMatT=0.
 ***** Axes restored to original set *****
 -------------------------------------------------------------------
 Center     Atomic                   Forces (Hartrees/Bohr)
 Number     Number              X              Y              Z
 -------------------------------------------------------------------
      1        6          -0.018830891   -0.007945367    0.004711958
      2        6          -0.018636781    0.001588064    0.006438301
      3        6          -0.003778720    0.001866455    0.001595521
      4        6          -0.006188423   -0.008090441    0.000519153
      5        6           0.001124883   -0.014898414   -0.003168411
      6        6           0.076085600    0.007843433   -0.023593752
      7        6          -0.007128433    0.021118260    0.006314485
      8        6          -0.021904557   -0.001899796    0.006859962
      9        6          -0.009640105    0.013948635    0.005795643
     10        6           0.003765414    0.001983051   -0.000868110
     11        6           0.005994283    0.011341224    0.000155132
     12        6           0.027313016   -0.077075543   -0.023473988
     13        1           0.005586101    0.007525587   -0.000427044
     14        1          -0.003626526   -0.005691444    0.000125719
     15        1           0.003148885   -0.008537977   -0.002640942
     16       17          -0.285920560   -0.430308899    0.013386210
     17       17           0.233831843    0.467257001    0.010713857
     18       17          -0.004964330   -0.004862336    0.000722291
     19       17           0.006183535    0.007223416   -0.000680545
     20       17           0.004602476   -0.000612469   -0.001631360
     21       17          -0.004227219    0.004757980    0.002286318
     22       17           0.017210511    0.013469580   -0.003140398
 -------------------------------------------------------------------
 Cartesian Forces:  Max     0.467257001 RMS     0.091910910

 GradGradGradGradGradGradGradGradGradGradGradGradGradGradGradGradGradGrad
 Berny optimization.
 FormGI is forming the generalized inverse of G from B-inverse, IUseBI=4.
 Internal  Forces:  Max     0.560451062 RMS     0.058540747
 Search for a local minimum.
 Step number   1 out of a maximum of  112
 All quantities printed in internal units (Hartrees-Bohrs-Radians)
 Mixed Optimization -- RFO/linear search
 Second derivative matrix not updated -- first step.
 ITU=  0
     Eigenvalues ---    0.00238   0.00238   0.01655   0.01655   0.02070
     Eigenvalues ---    0.02070   0.02070   0.02070   0.02070   0.02070
     Eigenvalues ---    0.02070   0.02070   0.02070   0.02070   0.02070
     Eigenvalues ---    0.02070   0.02070   0.02070   0.04244   0.16000
     Eigenvalues ---    0.16000   0.16000   0.22422   0.23454   0.24427
     Eigenvalues ---    0.25000   0.25000   0.25000   0.25000   0.25000
     Eigenvalues ---    0.25000   0.25000   0.25000   0.25000   0.25000
     Eigenvalues ---    0.25000   0.25000   0.29539   0.29539   0.29539
     Eigenvalues ---    0.29539   0.29539   0.29539   0.29539   0.37230
     Eigenvalues ---    0.37230   0.37230   0.41541   0.41797   0.42057
     Eigenvalues ---    0.42141   0.45389   0.45389   0.45389   0.45389
     Eigenvalues ---    0.45389   0.45389   0.45389   0.45389   1.29765
 RFO step:  Lambda=-2.67050772D-01 EMin= 2.37798964D-03
 Linear search not attempted -- first point.
 Maximum step size (   0.300) exceeded in Quadratic search.
    -- Step size scaled by   0.596
 Iteration  1 RMS(Cart)=  0.37039873 RMS(Int)=  0.01076064
 Iteration  2 RMS(Cart)=  0.06987345 RMS(Int)=  0.00039918
 Iteration  3 RMS(Cart)=  0.00097368 RMS(Int)=  0.00002133
 Iteration  4 RMS(Cart)=  0.00000014 RMS(Int)=  0.00002133
 Variable       Old X    -DE/DX   Delta X   Delta X   Delta X     New X
                                 (Linear)    (Quad)   (Total)
    R1        2.64826   0.01348   0.00000   0.01174   0.01177   2.66004
    R2        2.64826  -0.00066   0.00000  -0.00004   0.00001   2.64827
    R3        2.64826  -0.00125   0.00000  -0.00096  -0.00097   2.64729
    R4        3.32592  -0.00271   0.00000  -0.00287  -0.00287   3.32304
    R5        2.64826  -0.02712   0.00000  -0.02294  -0.02299   2.62528
    R6        3.32592  -0.00462   0.00000  -0.00490  -0.00490   3.32102
    R7        2.64826  -0.02482   0.00000  -0.02112  -0.02115   2.62711
    R8        2.02201   0.00932   0.00000   0.00869   0.00869   2.03070
    R9        2.64826  -0.00080   0.00000  -0.00074  -0.00073   2.64754
   R10        3.32592   0.00312   0.00000   0.00330   0.00330   3.32922
   R11        3.32592   0.05691   0.00000   0.06034   0.06034   3.38626
   R12        2.64826  -0.00385   0.00000  -0.00327  -0.00326   2.64500
   R13        2.64826  -0.02215   0.00000  -0.01826  -0.01824   2.63002
   R14        2.64826  -0.00946   0.00000  -0.00797  -0.00797   2.64029
   R15        2.02201  -0.00361   0.00000  -0.00337  -0.00337   2.01864
   R16        2.64826  -0.01976   0.00000  -0.01640  -0.01642   2.63184
   R17        2.02201   0.00939   0.00000   0.00876   0.00876   2.03077
   R18        2.64826  -0.00834   0.00000  -0.00682  -0.00682   2.64144
   R19        3.32592  -0.00180   0.00000  -0.00191  -0.00191   3.32401
   R20        2.64826  -0.00344   0.00000  -0.00271  -0.00270   2.64556
   R21        3.32592   0.00505   0.00000   0.00535   0.00535   3.33127
   R22        3.32592   0.04387   0.00000   0.04652   0.04652   3.37243
   R23        3.16945   0.56045   0.00000   0.21359   0.21359   3.38304
    A1        2.09440  -0.03248   0.00000  -0.03513  -0.03502   2.05937
    A2        2.09440   0.01133   0.00000   0.01401   0.01402   2.10842
    A3        2.09440   0.03077   0.00000   0.03502   0.03501   2.12941
    A4        2.09440  -0.04210   0.00000  -0.04903  -0.04904   2.04536
    A5        2.09440   0.00814   0.00000   0.00876   0.00870   2.10309
    A6        2.09440   0.00414   0.00000   0.00508   0.00511   2.09951
    A7        2.09440  -0.01227   0.00000  -0.01384  -0.01381   2.08058
    A8        2.09440  -0.00884   0.00000  -0.01249  -0.01257   2.08182
    A9        2.09440   0.00332   0.00000   0.00470   0.00475   2.09914
   A10        2.09440   0.00552   0.00000   0.00778   0.00783   2.10222
   A11        2.09440   0.01006   0.00000   0.01064   0.01061   2.10501
   A12        2.09440  -0.02001   0.00000  -0.02260  -0.02259   2.07181
   A13        2.09440   0.00995   0.00000   0.01196   0.01197   2.10637
   A14        2.09440   0.01180   0.00000   0.01421   0.01426   2.10866
   A15        2.09440   0.02680   0.00000   0.03061   0.03058   2.12498
   A16        2.09440  -0.03860   0.00000  -0.04482  -0.04484   2.04955
   A17        2.09440  -0.02241   0.00000  -0.02611  -0.02607   2.06832
   A18        2.09440   0.01326   0.00000   0.01574   0.01574   2.11013
   A19        2.09440  -0.00086   0.00000   0.00018   0.00018   2.09458
   A20        2.09440  -0.01240   0.00000  -0.01592  -0.01592   2.07847
   A21        2.09440   0.00164   0.00000   0.00154   0.00151   2.09591
   A22        2.09440   0.00043   0.00000   0.00097   0.00099   2.09538
   A23        2.09440  -0.00207   0.00000  -0.00252  -0.00250   2.09190
   A24        2.09440  -0.00626   0.00000  -0.00735  -0.00738   2.08702
   A25        2.09440  -0.00448   0.00000  -0.00511  -0.00509   2.08930
   A26        2.09440   0.01074   0.00000   0.01245   0.01247   2.10686
   A27        2.09440  -0.00276   0.00000  -0.00303  -0.00303   2.09136
   A28        2.09440  -0.00665   0.00000  -0.00775  -0.00775   2.08665
   A29        2.09440   0.00942   0.00000   0.01078   0.01078   2.10517
   A30        2.09440   0.01654   0.00000   0.01920   0.01923   2.11362
   A31        2.09440  -0.00893   0.00000  -0.01037  -0.01038   2.08401
   A32        2.09440  -0.00760   0.00000  -0.00883  -0.00885   2.08555
   A33        2.09440   0.08569   0.00000   0.09883   0.09883   2.19322
   A34        2.09440   0.10638   0.00000   0.12268   0.12268   2.21708
    D1        0.00000  -0.00000   0.00000  -0.00000  -0.00000   0.00000
    D2        3.14159  -0.00000   0.00000  -0.00000  -0.00000   3.14159
    D3       -0.00000  -0.00000   0.00000  -0.00000  -0.00000  -0.00000
    D4        3.14159   0.00000   0.00000   0.00000   0.00000   3.14159
    D5        0.00000   0.00000   0.00000   0.00000   0.00000   0.00000
    D6        3.14159  -0.00000   0.00000  -0.00000  -0.00000   3.14159
    D7       -3.14159  -0.00000   0.00000  -0.00000  -0.00000  -3.14159
    D8        0.00000  -0.00000   0.00000  -0.00000  -0.00000   0.00000
    D9       -0.00000   0.00000   0.00000   0.00000   0.00000  -0.00000
   D10        3.14159  -0.00000   0.00000  -0.00000  -0.00000   3.14159
   D11        3.14159   0.00000   0.00000   0.00000   0.00000   3.14159
   D12        0.00000   0.00000   0.00000   0.00000   0.00000   0.00000
   D13        0.00000  -0.00000   0.00000  -0.00000  -0.00000   0.00000
   D14       -3.14159  -0.00000   0.00000  -0.00000  -0.00000  -3.14159
   D15       -3.14159  -0.00000   0.00000  -0.00000  -0.00000  -3.14159
   D16        0.00000  -0.00000   0.00000  -0.00000  -0.00000   0.00000
   D17       -0.00000   0.00000   0.00000   0.00000   0.00000  -0.00000
   D18        3.14159  -0.00000   0.00000  -0.00000  -0.00000   3.14159
   D19        3.14159   0.00000   0.00000   0.00000   0.00000   3.14159
   D20       -0.00000  -0.00000   0.00000  -0.00000  -0.00000  -0.00000
   D21        0.00001  -0.00000   0.00000  -0.00000  -0.00000   0.00001
   D22       -3.14159  -0.00000   0.00000  -0.00000  -0.00000  -3.14159
   D23        0.00000   0.00000   0.00000   0.00000   0.00000   0.00000
   D24       -3.14159  -0.00000   0.00000  -0.00000  -0.00000  -3.14159
   D25       -0.00000  -0.00000   0.00000  -0.00000  -0.00000  -0.00000
   D26        3.14159   0.00000   0.00000   0.00000   0.00000   3.14159
   D27       -0.00000  -0.00000   0.00000  -0.00000  -0.00000  -0.00000
   D28        3.14159  -0.00000   0.00000  -0.00000  -0.00000   3.14159
   D29        3.14159   0.00000   0.00000   0.00000   0.00000   3.14159
   D30       -0.00000   0.00000   0.00000   0.00000   0.00000  -0.00000
   D31       -0.00000   0.00000   0.00000   0.00000   0.00000  -0.00000
   D32       -3.14159  -0.00000   0.00000  -0.00000  -0.00000  -3.14159
   D33        3.14159   0.00000   0.00000   0.00000   0.00000   3.14159
   D34        0.00000  -0.00000   0.00000  -0.00000  -0.00000   0.00000
   D35        0.00000  -0.00000   0.00000  -0.00000  -0.00000   0.00000
   D36       -3.14159  -0.00000   0.00000  -0.00000  -0.00000  -3.14159
   D37        3.14159   0.00000   0.00000   0.00000   0.00000   3.14159
   D38        0.00000  -0.00000   0.00000  -0.00000  -0.00000   0.00000
   D39        0.00000   0.00000   0.00000   0.00000   0.00000   0.00000
   D40       -3.14159  -0.00000   0.00000  -0.00000  -0.00000  -3.14159
   D41        3.14159   0.00000   0.00000   0.00000   0.00000   3.14159
   D42       -0.00000  -0.00000   0.00000  -0.00000  -0.00000  -0.00000
   D43        0.00001  -0.00000   0.00000  -0.00000  -0.00000   0.00001
   D44       -3.14159  -0.00000   0.00000  -0.00000  -0.00000  -3.14159
   D45       -0.00001  -0.00000   0.00000  -0.00000  -0.00000  -0.00001
         Item               Value     Threshold  Converged?
 Maximum Force            0.560451     0.000450     NO 
 RMS     Force            0.058541     0.000300     NO 
 Maximum Displacement     1.440565     0.001800     NO 
 RMS     Displacement     0.437210     0.001200     NO 
 Predicted change in Energy=-1.237827D-01
 GradGradGradGradGradGradGradGradGradGradGradGradGradGradGradGradGradGrad

                          Input orientation:                          
 ---------------------------------------------------------------------
 Center     Atomic      Atomic             Coordinates (Angstroms)
 Number     Number       Type             X           Y           Z
 ---------------------------------------------------------------------
      1          6           0       -0.813016    3.702228   -1.139690
      2          6           0        0.515501    3.955851   -1.529742
      3          6           0        1.048401    5.249665   -1.462321
      4          6           0        0.272789    6.308852   -1.007869
      5          6           0       -1.040908    6.072033   -0.619545
      6          6           0       -1.582081    4.781349   -0.683653
      7          6           0       -2.313522    1.319733   -1.092803
      8          6           0       -1.860594    0.053199   -1.479892
      9          6           0       -2.700945   -1.060960   -1.412280
     10          6           0       -4.009154   -0.922042   -0.955186
     11          6           0       -4.473799    0.337371   -0.565574
     12          6           0       -3.622626    1.446525   -0.637691
     13          1           0        0.685270    7.299861   -0.957643
     14          1           0       -0.860150   -0.071576   -1.832931
     15          1           0       -2.339054   -2.027122   -1.712964
     16         17           0       -4.225099    3.050325   -0.137989
     17         17           0       -3.283735    4.572877   -0.162190
     18         17           0       -6.129770    0.512561    0.012910
     19         17           0       -2.010856    7.426153   -0.045681
     20         17           0       -5.058529   -2.331398   -0.874147
     21         17           0        2.708845    5.551147   -1.952739
     22         17           0        1.573791    2.680572   -2.117904
 ---------------------------------------------------------------------
                    Distance matrix (angstroms):
                    1          2          3          4          5
     1  C    0.000000
     2  C    1.407630   0.000000
     3  C    2.442033   1.400886   0.000000
     4  C    2.826806   2.422369   1.389237   0.000000
     5  C    2.436896   2.780125   2.398286   1.390208   0.000000
     6  C    1.401403   2.407730   2.782999   2.424649   1.401016
     7  C    2.816025   3.891453   5.184924   5.620277   4.942457
     8  C    3.811636   4.569355   5.955318   6.626259   6.135018
     9  C    5.130940   5.960513   7.340578   7.957434   7.366393
    10  C    5.624341   6.678058   7.995375   8.403787   7.605277
    11  C    5.005318   6.238280   7.445098   7.640962   6.683862
    12  C    3.637871   4.921033   6.079670   6.241275   5.297257
    13  H    3.901405   3.396840   2.142398   1.074599   2.145125
    14  H    3.837239   4.266675   5.665291   6.532544   6.264896
    15  H    5.956751   6.631592   8.030523   8.763979   8.275087
    16  Cl   3.615341   5.022971   5.865215   5.621893   4.416072
    17  Cl   2.796066   4.084741   4.573378   4.046930   2.736224
    18  Cl   6.306373   7.641705   8.725973   8.696651   7.563350
    19  Cl   4.061932   4.541796   4.012857   2.718308   1.761749
    20  Cl   7.382380   8.427877   9.752592  10.153558   9.317927
    21  Cl   4.059933   2.744932   1.757406   2.720527   4.013649
    22  Cl   2.774442   1.758479   2.702972   4.011134   4.536930
                    6          7          8          9         10
     6  C    0.000000
     7  C    3.561627   0.000000
     8  C    4.802808   1.399675   0.000000
     9  C    5.992939   2.433077   1.397180   0.000000
    10  C    6.204279   2.814190   2.417173   1.392711   0.000000
    11  C    5.303293   2.431009   2.783087   2.411484   1.397789
    12  C    3.909857   1.391746   2.399045   2.781540   2.420809
    13  H    3.399832   6.691259   7.698589   9.031970   9.467699
    14  H    5.039137   2.143787   1.068219   2.131748   3.377862
    15  H    6.927319   3.403923   2.147320   1.074637   2.141182
    16  Cl   3.206202   2.749680   4.046523   4.566128   4.061298
    17  Cl   1.791929   3.519985   4.918247   5.800214   5.599036
    18  Cl   6.276084   4.054365   4.545915   4.032862   2.737209
    19  Cl   2.754241   6.202937   7.512655   8.624088   8.632077
    20  Cl   7.919163   4.573143   4.034851   2.731630   1.758988
    21  Cl   4.540398   6.623331   7.164550   8.560250   9.382366
    22  Cl   4.053377   4.244280   4.370943   5.724537   6.745370
                   11         12         13         14         15
    11  C    0.000000
    12  C    1.399971   0.000000
    13  H    8.674445   7.274743   0.000000
    14  H    3.851219   3.371128   7.582384   0.000000
    15  H    3.385922   3.856163   9.834107   2.454731   0.000000
    16  Cl   2.757681   1.784615   6.545389   4.893053   5.640760
    17  Cl   4.417973   3.180412   4.880798   5.498734   6.845239
    18  Cl   1.762832   2.753424   9.667171   5.614022   4.878336
    19  Cl   7.522447   6.221272   2.848986   7.793223   9.604788
    20  Cl   2.749446   4.048510  11.214248   4.863378   2.862122
    21  Cl   8.983210   7.659295   2.853607   6.660863   9.108728
    22  Cl   6.668858   5.542260   4.844946   3.685051   6.134876
                   16         17         18         19         20
    16  Cl   0.000000
    17  Cl   1.790228   0.000000
    18  Cl   3.176601   4.961526   0.000000
    19  Cl   4.905024   3.126496   8.047773   0.000000
    20  Cl   5.495405   7.164202   3.165838  10.255948   0.000000
    21  Cl   7.591245   6.330410  10.362058   5.424767  11.118901
    22  Cl   6.138721   5.567871   8.281636   6.297963   8.405619
                   21         22
    21  Cl   0.000000
    22  Cl   3.091250   0.000000
 Stoichiometry    C12H3Cl7
 Framework group  C1[X(C12H3Cl7)]
 Deg. of freedom    60
 Full point group                 C1      NOp   1
 Largest Abelian subgroup         C1      NOp   1
 Largest concise Abelian subgroup C1      NOp   1
                         Standard orientation:                         
 ---------------------------------------------------------------------
 Center     Atomic      Atomic             Coordinates (Angstroms)
 Number     Number       Type             X           Y           Z
 ---------------------------------------------------------------------
      1          6           0        1.482688    0.430769   -0.000001
      2          6           0        2.581564    1.310481   -0.000002
      3          6           0        3.893585    0.819481   -0.000002
      4          6           0        4.134369   -0.548730   -0.000001
      5          6           0        3.057966   -1.428521    0.000002
      6          6           0        1.742542   -0.946332    0.000002
      7          6           0       -1.290345    0.920962    0.000010
      8          6           0       -1.904553    2.178674    0.000015
      9          6           0       -3.296683    2.297359    0.000013
     10          6           0       -4.094706    1.155955    0.000006
     11          6           0       -3.493760   -0.106058    0.000000
     12          6           0       -2.097846   -0.212572    0.000003
     13          1           0        5.142283   -0.921388   -0.000001
     14          1           0       -1.307820    3.064677    0.000018
     15          1           0       -3.753962    3.269851    0.000016
     16         17           0       -1.339976   -1.828271   -0.000005
     17         17           0        0.420088   -2.155516    0.000004
     18         17           0       -4.504402   -1.550419   -0.000013
     19         17           0        3.380673   -3.160462    0.000007
     20         17           0       -5.846311    1.316952    0.000000
     21         17           0        5.255679    1.929965   -0.000005
     22         17           0        2.377223    3.057047   -0.000007
 ---------------------------------------------------------------------
 Rotational constants (GHZ):           0.3442538           0.1049346           0.0804209
 Standard basis: 6-311+G(d,p) (5D, 7F)
 There are   511 symmetry adapted cartesian basis functions of A   symmetry.
 There are   492 symmetry adapted basis functions of A   symmetry.
   492 basis functions,   827 primitive gaussians,   511 cartesian basis functions
    97 alpha electrons       97 beta electrons
       nuclear repulsion energy      2269.4742487151 Hartrees.
 NAtoms=   22 NActive=   22 NUniq=   22 SFac= 1.00D+00 NAtFMM=   60 NAOKFM=F Big=F
 Integral buffers will be    131072 words long.
 Raffenetti 2 integral format.
 Two-electron integral symmetry is turned on.
 One-electron integrals computed using PRISM.
 NBasis=   492 RedAO= T EigKep=  1.59D-06  NBF=   492
 NBsUse=   486 1.00D-06 EigRej=  9.06D-07 NBFU=   486
 Initial guess from the checkpoint file:  "./Gau-388721.chk"
 B after Tr=    -0.000000   -0.000000    0.000000
         Rot=    0.999730    0.000000    0.000000    0.023216 Ang=   2.66 deg.
 ExpMin= 4.38D-02 ExpMax= 1.06D+05 ExpMxC= 3.62D+03 IAcc=3 IRadAn=         5 AccDes= 0.00D+00
 Harris functional with IExCor=  402 and IRadAn=       5 diagonalized for initial guess.
 HarFok:  IExCor=  402 AccDes= 0.00D+00 IRadAn=         5 IDoV= 1 UseB2=F ITyADJ=14
 ICtDFT=  3500011 ScaDFX=  1.000000  1.000000  1.000000  1.000000
 FoFCou: FMM=F IPFlag=           0 FMFlag=      100000 FMFlg1=           0
         NFxFlg=           0 DoJE=T BraDBF=F KetDBF=T FulRan=T
         wScrn=  0.000000 ICntrl=       500 IOpCl=  0 I1Cent=   200000004 NGrid=           0
         NMat0=    1 NMatS0=      1 NMatT0=    0 NMatD0=    1 NMtDS0=    0 NMtDT0=    0
 Petite list used in FoFCou.
 Requested convergence on RMS density matrix=1.00D-08 within  32 cycles.
 Requested convergence on MAX density matrix=1.00D-06.
 Requested convergence on             energy=1.00D-06.
 No special actions if energy rises.
 Restarting incremental Fock formation.
 SCF Done:  E(RB3LYP) =  -3680.27356876     A.U. after   22 cycles
            NFock= 22  Conv=0.38D-08     -V/T= 2.0023
 QCSCF skips out because SCF is already converged.
 Calling FoFJK, ICntrl=      2127 FMM=F ISym2X=0 I1Cent= 0 IOpClX= 0 NMat=1 NMatS=1 NMatT=0.
 ***** Axes restored to original set *****
 -------------------------------------------------------------------
 Center     Atomic                   Forces (Hartrees/Bohr)
 Number     Number              X              Y              Z
 -------------------------------------------------------------------
      1        6          -0.009447007    0.034089563    0.009514481
      2        6          -0.018019286   -0.008543963    0.004331952
      3        6           0.002073949   -0.000749293   -0.000823857
      4        6          -0.002323454   -0.003851578    0.000041892
      5        6          -0.009736625   -0.004228295    0.002413824
      6        6           0.076142894   -0.017815898   -0.028431278
      7        6          -0.029672025   -0.004426050    0.008944591
      8        6          -0.008945957    0.011557073    0.005118024
      9        6          -0.000755449    0.007212377    0.001603354
     10        6           0.001733355   -0.001625185   -0.000876236
     11        6          -0.009414407    0.012160028    0.005385520
     12        6           0.048671018   -0.047988245   -0.025048128
     13        1           0.001138005    0.004337803    0.000439728
     14        1           0.011005817   -0.000924460   -0.003799683
     15        1           0.001237638   -0.005800881   -0.001497197
     16       17          -0.187464824   -0.241878942    0.016337117
     17       17           0.138545739    0.262137240    0.003584296
     18       17          -0.001096554   -0.001142674    0.000146596
     19       17           0.002015533    0.005509886    0.000370807
     20       17           0.004840590    0.003679533   -0.000903775
     21       17          -0.003794709    0.004853508    0.002161715
     22       17          -0.006734241   -0.006561549    0.000986259
 -------------------------------------------------------------------
 Cartesian Forces:  Max     0.262137240 RMS     0.054760117

 GradGradGradGradGradGradGradGradGradGradGradGradGradGradGradGradGradGrad
 Berny optimization.
 Using GEDIIS/GDIIS optimizer.
 FormGI is forming the generalized inverse of G from B-inverse, IUseBI=4.
 Internal  Forces:  Max     0.318321665 RMS     0.033681400
 Search for a local minimum.
 Step number   2 out of a maximum of  112
 All quantities printed in internal units (Hartrees-Bohrs-Radians)
 Mixed Optimization -- RFO/linear search
 Update second derivatives using D2CorX and points    1    2
 DE= -8.95D-02 DEPred=-1.24D-01 R= 7.23D-01
 TightC=F SS=  1.41D+00  RLast= 3.00D-01 DXNew= 5.0454D-01 9.0000D-01
 Trust test= 7.23D-01 RLast= 3.00D-01 DXMaxT set to 5.05D-01
 ITU=  1  0
 Use linear search instead of GDIIS.
     Eigenvalues ---    0.00238   0.00238   0.01657   0.01665   0.02070
     Eigenvalues ---    0.02070   0.02070   0.02070   0.02070   0.02070
     Eigenvalues ---    0.02070   0.02070   0.02070   0.02070   0.02070
     Eigenvalues ---    0.02070   0.02070   0.02070   0.04244   0.15999
     Eigenvalues ---    0.16000   0.16010   0.22418   0.23480   0.23898
     Eigenvalues ---    0.24445   0.25000   0.25000   0.25000   0.25000
     Eigenvalues ---    0.25000   0.25000   0.25000   0.25000   0.25000
     Eigenvalues ---    0.25000   0.27606   0.29529   0.29539   0.29539
     Eigenvalues ---    0.29539   0.29539   0.29539   0.36924   0.37133
     Eigenvalues ---    0.37230   0.38623   0.41158   0.41483   0.41928
     Eigenvalues ---    0.42811   0.45274   0.45389   0.45389   0.45389
     Eigenvalues ---    0.45389   0.45389   0.45389   0.48014   1.27292
 RFO step:  Lambda=-2.10900588D-01 EMin= 2.37798964D-03
 Quartic linear search produced a step of  1.26820.
 Maximum step size (   0.505) exceeded in Quadratic search.
    -- Step size scaled by   0.813
 Iteration  1 RMS(Cart)=  0.16594022 RMS(Int)=  0.03633898
 Iteration  2 RMS(Cart)=  0.04553147 RMS(Int)=  0.01609788
 Iteration  3 RMS(Cart)=  0.03772616 RMS(Int)=  0.00019760
 Iteration  4 RMS(Cart)=  0.00000414 RMS(Int)=  0.00019759
 Iteration  5 RMS(Cart)=  0.00000000 RMS(Int)=  0.00019759
 Variable       Old X    -DE/DX   Delta X   Delta X   Delta X     New X
                                 (Linear)    (Quad)   (Total)
    R1        2.66004  -0.02765   0.01493  -0.07722  -0.06243   2.59761
    R2        2.64827  -0.04577   0.00001  -0.12567  -0.12540   2.52287
    R3        2.64729   0.00727  -0.00123   0.02098   0.01937   2.66666
    R4        3.32304   0.00038  -0.00364   0.00130  -0.00235   3.32070
    R5        2.62528   0.00298  -0.02915   0.01390  -0.01550   2.60977
    R6        3.32102  -0.00336  -0.00622  -0.01188  -0.01810   3.30292
    R7        2.62711  -0.00230  -0.02682  -0.00186  -0.02855   2.59856
    R8        2.03070   0.00446   0.01102   0.01304   0.02406   2.05476
    R9        2.64754  -0.00572  -0.00092  -0.01658  -0.01712   2.63042
   R10        3.32922   0.00325   0.00419   0.01147   0.01566   3.34489
   R11        3.38626   0.03318   0.07652   0.11756   0.19408   3.58033
   R12        2.64500  -0.01336  -0.00413  -0.03667  -0.04091   2.60410
   R13        2.63002  -0.03082  -0.02314  -0.08218  -0.10511   2.52491
   R14        2.64029  -0.00306  -0.01011  -0.00652  -0.01693   2.62336
   R15        2.01864   0.01167  -0.00427   0.03594   0.03167   2.05031
   R16        2.63184   0.00123  -0.02082   0.00740  -0.01362   2.61822
   R17        2.03077   0.00605   0.01111   0.01791   0.02902   2.05979
   R18        2.64144   0.00372  -0.00865   0.01215   0.00360   2.64503
   R19        3.32401  -0.00588  -0.00242  -0.02073  -0.02316   3.30085
   R20        2.64556  -0.00614  -0.00342  -0.01677  -0.01989   2.62567
   R21        3.33127   0.00096   0.00679   0.00346   0.01024   3.34151
   R22        3.37243   0.03353   0.05899   0.11866   0.17765   3.55009
   R23        3.38304   0.31832   0.27088   0.29317   0.56404   3.94708
    A1        2.05937   0.01076  -0.04442   0.03030  -0.01394   2.04543
    A2        2.10842  -0.00677   0.01778  -0.02489  -0.00762   2.10080
    A3        2.12941  -0.01231   0.04441  -0.04539  -0.00073   2.12868
    A4        2.04536   0.01908  -0.06219   0.07028   0.00834   2.05370
    A5        2.10309  -0.00320   0.01103  -0.00506   0.00534   2.10843
    A6        2.09951   0.01090   0.00648   0.03919   0.04599   2.14550
    A7        2.08058  -0.00770  -0.01752  -0.03413  -0.05133   2.02925
    A8        2.08182  -0.00175  -0.01594  -0.00115  -0.01723   2.06460
    A9        2.09914   0.00154   0.00602   0.00343   0.00952   2.10866
   A10        2.10222   0.00021   0.00993  -0.00228   0.00771   2.10993
   A11        2.10501  -0.01260   0.01346  -0.04715  -0.03319   2.07182
   A12        2.07181  -0.00186  -0.02864  -0.00922  -0.03811   2.03369
   A13        2.10637   0.01446   0.01518   0.05637   0.07130   2.17767
   A14        2.10866   0.01356   0.01809   0.04795   0.06664   2.17529
   A15        2.12498  -0.03191   0.03879  -0.11866  -0.08017   2.04481
   A16        2.04955   0.01836  -0.05687   0.07070   0.01353   2.06308
   A17        2.06832   0.00865  -0.03307   0.02536  -0.00756   2.06076
   A18        2.11013  -0.00656   0.01996  -0.02578  -0.00624   2.10390
   A19        2.09458   0.00283   0.00023   0.01257   0.01301   2.10759
   A20        2.07847   0.00373  -0.02019   0.01321  -0.00677   2.07170
   A21        2.09591  -0.00119   0.00192  -0.00018   0.00123   2.09714
   A22        2.09538   0.00151   0.00125   0.00489   0.00639   2.10178
   A23        2.09190  -0.00032  -0.00317  -0.00471  -0.00762   2.08427
   A24        2.08702   0.00202  -0.00935   0.01253   0.00307   2.09009
   A25        2.08930  -0.00400  -0.00646  -0.01846  -0.02486   2.06444
   A26        2.10686   0.00198   0.01581   0.00593   0.02179   2.12865
   A27        2.09136  -0.01343  -0.00384  -0.05073  -0.05416   2.03720
   A28        2.08665   0.00461  -0.00983   0.01657   0.00653   2.09318
   A29        2.10517   0.00882   0.01367   0.03416   0.04763   2.15280
   A30        2.11362   0.01050   0.02438   0.03880   0.06366   2.17728
   A31        2.08401  -0.01827  -0.01317  -0.06984  -0.08325   2.00077
   A32        2.08555   0.00777  -0.01122   0.03104   0.01958   2.10513
   A33        2.19322  -0.04984   0.12533  -0.18607  -0.06074   2.13249
   A34        2.21708  -0.03926   0.15559  -0.14344   0.01215   2.22922
    D1        0.00000  -0.00000  -0.00000  -0.00000  -0.00000   0.00000
    D2        3.14159   0.00000  -0.00000   0.00000   0.00000   3.14159
    D3       -0.00000   0.00000  -0.00000   0.00000  -0.00000  -0.00000
    D4        3.14159  -0.00000   0.00000  -0.00000   0.00000  -3.14159
    D5        0.00000  -0.00000   0.00000  -0.00000  -0.00000   0.00000
    D6        3.14159   0.00000  -0.00000   0.00000   0.00000   3.14159
    D7       -3.14159  -0.00000  -0.00000  -0.00000  -0.00000  -3.14159
    D8        0.00000  -0.00000  -0.00000  -0.00000  -0.00000   0.00000
    D9       -0.00000   0.00000   0.00000   0.00000   0.00000  -0.00000
   D10        3.14159   0.00000  -0.00000   0.00000   0.00000   3.14159
   D11        3.14159   0.00000   0.00000   0.00000   0.00000   3.14159
   D12        0.00000  -0.00000   0.00000  -0.00000  -0.00000   0.00000
   D13        0.00000  -0.00000  -0.00000  -0.00000  -0.00000   0.00000
   D14       -3.14159  -0.00000  -0.00000  -0.00000  -0.00000  -3.14159
   D15       -3.14159  -0.00000  -0.00000  -0.00000  -0.00000   3.14159
   D16        0.00000  -0.00000  -0.00000  -0.00000  -0.00000   0.00000
   D17       -0.00000   0.00000   0.00000   0.00000   0.00000   0.00000
   D18        3.14159   0.00000  -0.00000   0.00000   0.00000   3.14159
   D19        3.14159   0.00000   0.00000   0.00000   0.00000   3.14159
   D20       -0.00000   0.00000  -0.00000   0.00000  -0.00000  -0.00000
   D21        0.00001   0.00000  -0.00000   0.00000  -0.00000   0.00001
   D22       -3.14159   0.00000  -0.00000   0.00000   0.00000  -3.14159
   D23        0.00000   0.00000   0.00000   0.00000   0.00000   0.00000
   D24       -3.14159  -0.00000  -0.00000  -0.00000  -0.00000  -3.14159
   D25       -0.00000  -0.00000  -0.00000  -0.00000  -0.00000  -0.00000
   D26        3.14159  -0.00000   0.00000   0.00000   0.00000   3.14159
   D27       -0.00000  -0.00000  -0.00000  -0.00000  -0.00000  -0.00000
   D28        3.14159  -0.00000  -0.00000  -0.00000  -0.00000   3.14159
   D29        3.14159   0.00000   0.00000   0.00000   0.00000   3.14159
   D30       -0.00000   0.00000   0.00000   0.00000   0.00000  -0.00000
   D31       -0.00000   0.00000   0.00000   0.00000   0.00000   0.00000
   D32       -3.14159  -0.00000  -0.00000  -0.00000  -0.00000  -3.14159
   D33        3.14159   0.00000   0.00000   0.00000   0.00000  -3.14159
   D34        0.00000  -0.00000  -0.00000  -0.00000  -0.00000   0.00000
   D35        0.00000   0.00000  -0.00000  -0.00000  -0.00000  -0.00000
   D36       -3.14159  -0.00000  -0.00000  -0.00000  -0.00000  -3.14159
   D37        3.14159   0.00000   0.00000   0.00000   0.00000   3.14159
   D38        0.00000  -0.00000  -0.00000  -0.00000  -0.00000   0.00000
   D39        0.00000  -0.00000   0.00000  -0.00000   0.00000   0.00000
   D40       -3.14159  -0.00000  -0.00000  -0.00000  -0.00000   3.14159
   D41        3.14159   0.00000   0.00000   0.00000   0.00000   3.14159
   D42       -0.00000   0.00000  -0.00000   0.00000  -0.00000  -0.00000
   D43        0.00001   0.00000  -0.00000   0.00000  -0.00000   0.00001
   D44       -3.14159   0.00000  -0.00000   0.00000   0.00000  -3.14159
   D45       -0.00001   0.00000  -0.00001  -0.00000  -0.00001  -0.00002
         Item               Value     Threshold  Converged?
 Maximum Force            0.318322     0.000450     NO 
 RMS     Force            0.033681     0.000300     NO 
 Maximum Displacement     0.602102     0.001800     NO 
 RMS     Displacement     0.169818     0.001200     NO 
 Predicted change in Energy=-1.011603D-01
 GradGradGradGradGradGradGradGradGradGradGradGradGradGradGradGradGradGrad

                          Input orientation:                          
 ---------------------------------------------------------------------
 Center     Atomic      Atomic             Coordinates (Angstroms)
 Number     Number       Type             X           Y           Z
 ---------------------------------------------------------------------
      1          6           0       -0.873557    3.810333   -1.099433
      2          6           0        0.433144    3.942573   -1.505093
      3          6           0        1.064860    5.204082   -1.476300
      4          6           0        0.385696    6.325392   -1.041964
      5          6           0       -0.920936    6.180506   -0.638704
      6          6           0       -1.498830    4.915062   -0.685968
      7          6           0       -2.498754    1.348684   -1.026344
      8          6           0       -1.926887    0.164155   -1.437222
      9          6           0       -2.657637   -1.016012   -1.418113
     10          6           0       -3.973388   -1.013024   -0.984056
     11          6           0       -4.563741    0.184756   -0.564598
     12          6           0       -3.768953    1.323425   -0.612599
     13          1           0        0.872253    7.297532   -1.019692
     14          1           0       -0.898436    0.134650   -1.781602
[...]
                 (A) (A) (A) (A) (A) (A) (A) (A) (A) (A) (A) (A)
                 (A) (A) (A) (A) (A) (A) (A) (A) (A) (A) (A) (A)
                 (A) (A) (A) (A) (A) (A) (A) (A) (A) (A) (A) (A)
                 (A) (A) (A) (A) (A) (A) (A) (A) (A) (A) (A) (A)
                 (A) (A) (A) (A) (A) (A) (A) (A) (A) (A) (A) (A)
                 (A) (A) (A) (A) (A) (A) (A) (A) (A) (A) (A) (A)
                 (A) (A) (A) (A) (A) (A) (A) (A) (A) (A) (A) (A)
                 (A) (A) (A) (A) (A) (A) (A) (A) (A) (A) (A) (A)
                 (A) (A) (A) (A) (A) (A) (A) (A) (A) (A) (A) (A)
                 (A) (A) (A) (A) (A) (A) (A) (A) (A) (A) (A) (A)
                 (A) (A) (A) (A) (A) (A) (A) (A) (A) (A) (A) (A)
                 (A) (A) (A) (A) (A) (A) (A) (A) (A) (A) (A) (A)
                 (A) (A) (A) (A) (A) (A) (A) (A) (A) (A) (A) (A)
                 (A) (A) (A) (A) (A) (A) (A) (A) (A) (A) (A) (A)
                 (A) (A) (A) (A) (A) (A) (A) (A) (A) (A) (A) (A)
                 (A) (A) (A) (A) (A) (A) (A) (A) (A) (A) (A) (A)
                 (A) (A) (A) (A) (A) (A) (A) (A) (A) (A) (A) (A)
                 (A) (A) (A) (A) (A) (A) (A) (A) (A) (A) (A) (A)
                 (A) (A) (A) (A) (A) (A) (A) (A) (A) (A) (A) (A)
                 (A) (A) (A) (A) (A) (A)
 The electronic state is 1-A.
 Alpha  occ. eigenvalues -- -101.58114-101.58114-101.58058-101.58057-101.57660
 Alpha  occ. eigenvalues -- -101.57643-101.57569 -10.28043 -10.28042 -10.27850
 Alpha  occ. eigenvalues --  -10.27849 -10.27653 -10.27594 -10.27302 -10.24635
 Alpha  occ. eigenvalues --  -10.23395 -10.22879 -10.21685 -10.21602  -9.49571
 Alpha  occ. eigenvalues --   -9.49570  -9.49531  -9.49529  -9.49138  -9.49108
 Alpha  occ. eigenvalues --   -9.49028  -7.26063  -7.26063  -7.26021  -7.26020
 Alpha  occ. eigenvalues --   -7.25623  -7.25609  -7.25514  -7.25047  -7.25046
 Alpha  occ. eigenvalues --   -7.25011  -7.25010  -7.24988  -7.24987  -7.24938
 Alpha  occ. eigenvalues --   -7.24937  -7.24619  -7.24590  -7.24551  -7.24509
 Alpha  occ. eigenvalues --   -7.24506  -7.24446  -0.96459  -0.94981  -0.92330
 Alpha  occ. eigenvalues --   -0.90554  -0.89372  -0.88006  -0.87607  -0.85551
 Alpha  occ. eigenvalues --   -0.84347  -0.79791  -0.76330  -0.75196  -0.74504
 Alpha  occ. eigenvalues --   -0.67400  -0.64264  -0.62677  -0.62150  -0.55222
 Alpha  occ. eigenvalues --   -0.55207  -0.53557  -0.53131  -0.49932  -0.48520
 Alpha  occ. eigenvalues --   -0.47245  -0.47012  -0.46765  -0.46039  -0.45266
 Alpha  occ. eigenvalues --   -0.43986  -0.42843  -0.41453  -0.41182  -0.41135
 Alpha  occ. eigenvalues --   -0.38693  -0.37854  -0.36641  -0.36399  -0.35899
 Alpha  occ. eigenvalues --   -0.35211  -0.34902  -0.34436  -0.34180  -0.33505
 Alpha  occ. eigenvalues --   -0.33205  -0.32807  -0.31949  -0.28519  -0.27484
 Alpha  occ. eigenvalues --   -0.27251  -0.26748
 Alpha virt. eigenvalues --   -0.06562  -0.06187  -0.05722  -0.05124  -0.04677
 Alpha virt. eigenvalues --   -0.03490  -0.01036  -0.00795   0.00273   0.01190
 Alpha virt. eigenvalues --    0.01410   0.02043   0.02359   0.02583   0.02882
 Alpha virt. eigenvalues --    0.03148   0.04353   0.04791   0.05536   0.05544
 Alpha virt. eigenvalues --    0.05798   0.05994   0.06532   0.07225   0.07556
 Alpha virt. eigenvalues --    0.07900   0.08074   0.08343   0.08678   0.09087
 Alpha virt. eigenvalues --    0.09399   0.09453   0.10368   0.10678   0.10948
 Alpha virt. eigenvalues --    0.11443   0.11625   0.11914   0.11975   0.12126
 Alpha virt. eigenvalues --    0.12564   0.13645   0.13660   0.13976   0.14236
 Alpha virt. eigenvalues --    0.14428   0.14449   0.15310   0.15435   0.15898
 Alpha virt. eigenvalues --    0.16771   0.16905   0.17234   0.17563   0.17662
 Alpha virt. eigenvalues --    0.18342   0.18350   0.18930   0.19153   0.20095
 Alpha virt. eigenvalues --    0.20141   0.20325   0.20588   0.20596   0.20876
 Alpha virt. eigenvalues --    0.21591   0.21857   0.22106   0.22368   0.22793
 Alpha virt. eigenvalues --    0.23317   0.23572   0.23925   0.24184   0.25060
 Alpha virt. eigenvalues --    0.25609   0.25782   0.25821   0.25950   0.26915
 Alpha virt. eigenvalues --    0.27043   0.27601   0.28416   0.28464   0.28952
 Alpha virt. eigenvalues --    0.28954   0.29406   0.29532   0.29851   0.30137
 Alpha virt. eigenvalues --    0.31175   0.31782   0.32093   0.32735   0.34351
 Alpha virt. eigenvalues --    0.35600   0.39402   0.40800   0.41971   0.42577
 Alpha virt. eigenvalues --    0.43020   0.44019   0.44384   0.44922   0.45179
 Alpha virt. eigenvalues --    0.45559   0.45738   0.45920   0.46272   0.47230
 Alpha virt. eigenvalues --    0.47270   0.47762   0.48209   0.48385   0.49064
 Alpha virt. eigenvalues --    0.49855   0.50916   0.51182   0.51413   0.52324
 Alpha virt. eigenvalues --    0.53262   0.53929   0.56493   0.56776   0.56990
 Alpha virt. eigenvalues --    0.57686   0.58166   0.58517   0.59244   0.59628
 Alpha virt. eigenvalues --    0.59639   0.61236   0.61458   0.62115   0.62569
 Alpha virt. eigenvalues --    0.62897   0.63574   0.65157   0.65416   0.65559
 Alpha virt. eigenvalues --    0.66116   0.67073   0.68091   0.68681   0.69124
 Alpha virt. eigenvalues --    0.69475   0.70107   0.71998   0.74880   0.77634
 Alpha virt. eigenvalues --    0.78895   0.79213   0.79717   0.81472   0.81995
 Alpha virt. eigenvalues --    0.82537   0.83412   0.83456   0.83603   0.83725
 Alpha virt. eigenvalues --    0.83748   0.84012   0.84140   0.84665   0.84936
 Alpha virt. eigenvalues --    0.85648   0.85867   0.85971   0.86822   0.87144
 Alpha virt. eigenvalues --    0.87996   0.88445   0.88900   0.89150   0.89417
 Alpha virt. eigenvalues --    0.89968   0.90304   0.91704   0.92328   0.93240
 Alpha virt. eigenvalues --    0.93474   0.94013   0.94500   0.94528   0.94990
 Alpha virt. eigenvalues --    0.95795   0.96239   0.96555   0.96656   0.97630
 Alpha virt. eigenvalues --    0.97988   0.99588   1.00198   1.00628   1.01188
 Alpha virt. eigenvalues --    1.02466   1.05393   1.05662   1.07137   1.08055
 Alpha virt. eigenvalues --    1.09854   1.13355   1.15816   1.16536   1.17382
 Alpha virt. eigenvalues --    1.19484   1.22226   1.22265   1.22681   1.23524
 Alpha virt. eigenvalues --    1.25464   1.26233   1.27020   1.27434   1.27454
 Alpha virt. eigenvalues --    1.28189   1.29650   1.30486   1.30826   1.31874
 Alpha virt. eigenvalues --    1.35028   1.36479   1.37654   1.37655   1.41908
 Alpha virt. eigenvalues --    1.43964   1.46417   1.47602   1.48252   1.53065
 Alpha virt. eigenvalues --    1.55169   1.56490   1.57565   1.58611   1.61087
 Alpha virt. eigenvalues --    1.63210   1.64908   1.68153   1.68364   1.72335
 Alpha virt. eigenvalues --    1.73055   1.74675   1.74702   1.78315   1.78458
 Alpha virt. eigenvalues --    1.79386   1.80749   1.83333   1.84998   1.85327
 Alpha virt. eigenvalues --    1.87194   1.88891   1.91990   1.92075   1.95119
 Alpha virt. eigenvalues --    1.95447   1.96973   1.99028   1.99811   2.02528
 Alpha virt. eigenvalues --    2.04835   2.10170   2.11755   2.12691   2.18151
 Alpha virt. eigenvalues --    2.18891   2.22772   2.22978   2.23485   2.24122
 Alpha virt. eigenvalues --    2.25002   2.26119   2.26377   2.29063   2.29964
 Alpha virt. eigenvalues --    2.31575   2.32056   2.33687   2.33803   2.34837
 Alpha virt. eigenvalues --    2.37828   2.39695   2.40557   2.41830   2.44649
 Alpha virt. eigenvalues --    2.45839   2.46148   2.46849   2.48700   2.49948
 Alpha virt. eigenvalues --    2.52301   2.52872   2.54043   2.55720   2.58830
 Alpha virt. eigenvalues --    2.60680   2.62126   2.64522   2.65384   2.65656
 Alpha virt. eigenvalues --    2.68692   2.68751   2.70466   2.72840   2.74046
 Alpha virt. eigenvalues --    2.74120   2.76682   2.77313   2.81673   2.82055
 Alpha virt. eigenvalues --    2.83406   2.85680   2.89405   2.96034   2.96829
 Alpha virt. eigenvalues --    3.05110   3.08206   3.08597   3.11748   3.12123
 Alpha virt. eigenvalues --    3.12245   3.12553   3.17194   3.20746   3.23336
 Alpha virt. eigenvalues --    3.24909   3.27363   3.35260   3.37209   3.43495
 Alpha virt. eigenvalues --    3.51678   3.54970   3.65673   3.69247   3.78425
 Alpha virt. eigenvalues --    3.81487   3.89156   3.98123   4.02058   4.06989
 Alpha virt. eigenvalues --    4.30963   4.80078   4.80851   9.75858   9.76195
 Alpha virt. eigenvalues --    9.78128   9.79777   9.81004   9.83635   9.85471
 Alpha virt. eigenvalues --   23.31527  23.47378  23.78538  23.84335  23.85878
 Alpha virt. eigenvalues --   23.88097  23.93421  23.93967  23.95776  24.05590
 Alpha virt. eigenvalues --   24.07801  24.13867  25.77779  25.78819  25.80122
 Alpha virt. eigenvalues --   25.83327  25.88709  25.95023  25.98660  26.08989
 Alpha virt. eigenvalues --   26.11992  26.15786  26.16473  26.20780  26.35426
 Alpha virt. eigenvalues --   26.37039  26.51048  26.52757  26.62694  26.67105
 Alpha virt. eigenvalues --   26.76448  26.87931  27.06797 215.75105 215.75340
 Alpha virt. eigenvalues --  215.77564 215.79421 215.80993 215.84700 215.86154
          Condensed to atoms (all electrons):
               1          2          3          4          5          6
     1  C   19.729925  -1.167753  -6.460026   0.967150  -6.467800  -1.152031
     2  C   -1.167753  47.233782 -14.743532 -12.553435   9.933459 -14.009809
     3  C   -6.460026 -14.743532  33.045566   1.692354  -8.126931   9.920921
     4  C    0.967150 -12.553435   1.692354  31.048146   1.697113 -12.560286
     5  C   -6.467800   9.933459  -8.126931   1.697113  33.066527 -14.756463
     6  C   -1.152031 -14.009809   9.920921 -12.560286 -14.756463  47.230294
     7  C    6.065377  -0.846262  -6.296250  -4.003106  -6.307667  -0.829899
     8  C   -0.926989  -1.389415  -0.216760   0.068120  -0.218065  -1.387539
     9  C    1.151048   0.342665   0.278256  -0.134371   0.278838   0.343103
    10  C   -0.731619  -0.105213  -0.045546  -0.002474  -0.046185  -0.104633
    11  C   -3.764323  -1.601900  -0.446246  -0.014115  -0.446308  -1.602889
    12  C    0.437665  -2.795932  -2.219876   0.677377  -2.224318  -2.794636
    13  H    0.070744   0.117972  -0.006748   0.033715  -0.006881   0.118146
    14  H    0.045244   0.088978   0.028321   0.007541   0.028359   0.088961
    15  H   -0.007278   0.002397  -0.000070   0.000191  -0.000070   0.002396
    16  Cl  -0.042911   0.356529  -0.128875  -0.603557  -0.128619   0.358053
    17  Cl  -0.020555  -1.413463   0.931095   0.225128  -1.572501  -0.736681
    18  Cl  -0.154415  -0.084499  -0.012585  -0.000147  -0.012600  -0.084539
    19  Cl  -0.568461   0.445223  -0.244179  -0.177570  -0.097678   0.278997
    20  Cl  -0.021520  -0.046230  -0.005433  -0.003668  -0.005442  -0.046214
    21  Cl  -0.567997   0.280015  -0.098248  -0.178058  -0.244272   0.444860
    22  Cl  -0.021219  -0.735801  -1.570931   0.224478   0.931628  -1.412328
               7          8          9         10         11         12
     1  C    6.065377  -0.926989   1.151048  -0.731619  -3.764323   0.437665
     2  C   -0.846262  -1.389415   0.342665  -0.105213  -1.601900  -2.795932
     3  C   -6.296250  -0.216760   0.278256  -0.045546  -0.446246  -2.219876
     4  C   -4.003106   0.068120  -0.134371  -0.002474  -0.014115   0.677377
     5  C   -6.307667  -0.218065   0.278838  -0.046185  -0.446308  -2.224318
     6  C   -0.829899  -1.387539   0.343103  -0.104633  -1.602889  -2.794636
     7  C   23.910089  -5.473934  -1.671258   0.374186  -1.799270   3.194243
     8  C   -5.473934  22.153145  -2.191414   0.378547   0.629746  -6.622276
     9  C   -1.671258  -2.191414  18.483972  -4.216436  -7.535153   1.076723
    10  C    0.374186   0.378547  -4.216436  17.387400  -0.646812  -5.807665
    11  C   -1.799270   0.629746  -7.535153  -0.646812  22.093123   0.412424
    12  C    3.194243  -6.622276   1.076723  -5.807665   0.412424  26.550610
    13  H    0.022127  -0.001058  -0.000169   0.000054   0.000156   0.002284
    14  H   -0.031335   0.299382  -0.048493  -0.025055  -0.054133  -0.055885
    15  H    0.026834  -0.026597   0.306813   0.045544  -0.000418   0.002597
    16  Cl   0.191526   0.412507   0.292523   0.178394   0.158344  -2.902362
    17  Cl   0.366160   0.289230   0.127508   0.012873   0.028876   0.041938
    18  Cl  -0.625839   0.223023   0.153421  -0.548956  -0.481098   1.040612
    19  Cl  -0.145241  -0.002323   0.006148  -0.000335  -0.006269  -0.067734
    20  Cl  -0.257865   0.079547  -0.146312  -0.568347   0.668358  -0.346411
    21  Cl  -0.145217  -0.002300   0.006152  -0.000331  -0.006279  -0.067684
    22  Cl   0.364867   0.289435   0.127651   0.012714   0.028890   0.039645
              13         14         15         16         17         18
     1  C    0.070744   0.045244  -0.007278  -0.042911  -0.020555  -0.154415
     2  C    0.117972   0.088978   0.002397   0.356529  -1.413463  -0.084499
     3  C   -0.006748   0.028321  -0.000070  -0.128875   0.931095  -0.012585
     4  C    0.033715   0.007541   0.000191  -0.603557   0.225128  -0.000147
     5  C   -0.006881   0.028359  -0.000070  -0.128619  -1.572501  -0.012600
     6  C    0.118146   0.088961   0.002396   0.358053  -0.736681  -0.084539
     7  C    0.022127  -0.031335   0.026834   0.191526   0.366160  -0.625839
     8  C   -0.001058   0.299382  -0.026597   0.412507   0.289230   0.223023
     9  C   -0.000169  -0.048493   0.306813   0.292523   0.127508   0.153421
    10  C    0.000054  -0.025055   0.045544   0.178394   0.012873  -0.548956
    11  C    0.000156  -0.054133  -0.000418   0.158344   0.028876  -0.481098
    12  C    0.002284  -0.055885   0.002597  -2.902362   0.041938   1.040612
    13  H    0.488267  -0.000004  -0.000000  -0.000190  -0.000927  -0.000000
    14  H   -0.000004   0.529236  -0.006752  -0.002046  -0.013115  -0.000126
    15  H   -0.000000  -0.006752   0.504518   0.001542  -0.001090  -0.000848
    16  Cl  -0.000190  -0.002046   0.001542  18.415907   0.138447  -0.322706
    17  Cl  -0.000927  -0.013115  -0.001090   0.138447  18.484660   0.000484
    18  Cl  -0.000000  -0.000126  -0.000848  -0.322706   0.000484  17.459260
    19  Cl  -0.005090   0.000491  -0.000002   0.001831  -0.299572  -0.000065
    20  Cl   0.000000  -0.002174  -0.007128  -0.020020   0.009706  -0.136707
    21  Cl  -0.005095   0.000491  -0.000002   0.001810   0.008977  -0.000065
    22  Cl  -0.000927  -0.013110  -0.001090   0.139070  -0.158444   0.000455
              19         20         21         22
     1  C   -0.568461  -0.021520  -0.567997  -0.021219
     2  C    0.445223  -0.046230   0.280015  -0.735801
     3  C   -0.244179  -0.005433  -0.098248  -1.570931
     4  C   -0.177570  -0.003668  -0.178058   0.224478
     5  C   -0.097678  -0.005442  -0.244272   0.931628
     6  C    0.278997  -0.046214   0.444860  -1.412328
     7  C   -0.145241  -0.257865  -0.145217   0.364867
     8  C   -0.002323   0.079547  -0.002300   0.289435
     9  C    0.006148  -0.146312   0.006152   0.127651
    10  C   -0.000335  -0.568347  -0.000331   0.012714
    11  C   -0.006269   0.668358  -0.006279   0.028890
    12  C   -0.067734  -0.346411  -0.067684   0.039645
    13  H   -0.005090   0.000000  -0.005095  -0.000927
    14  H    0.000491  -0.002174   0.000491  -0.013110
    15  H   -0.000002  -0.007128  -0.000002  -0.001090
    16  Cl   0.001831  -0.020020   0.001810   0.139070
    17  Cl  -0.299572   0.009706   0.008977  -0.158444
    18  Cl  -0.000065  -0.136707  -0.000065   0.000455
    19  Cl  17.402877   0.000043  -0.027592   0.008990
    20  Cl   0.000043  17.333358   0.000043   0.009699
    21  Cl  -0.027592   0.000043  17.402844  -0.299566
    22  Cl   0.008990   0.009699  -0.299566  18.484619
 Mulliken charges:
               1
     1  C   -0.392255
     2  C   -1.307775
     3  C    0.725722
     4  C   -0.410526
     5  C    0.725877
     6  C   -1.307783
     7  C   -0.082266
     8  C   -0.364013
     9  C   -1.031215
    10  C    0.459896
    11  C    0.385296
    12  C   -1.571338
    13  H    0.173624
    14  H    0.135224
    15  H    0.158512
    16  Cl   0.504802
    17  Cl   0.551267
    18  Cl   0.587938
    19  Cl   0.497511
    20  Cl   0.512717
    21  Cl   0.497512
    22  Cl   0.551275
 Sum of Mulliken charges =  -0.00000
 Mulliken charges with hydrogens summed into heavy atoms:
               1
     1  C   -0.392255
     2  C   -1.307775
     3  C    0.725722
     4  C   -0.236902
     5  C    0.725877
     6  C   -1.307783
     7  C   -0.082266
     8  C   -0.228789
     9  C   -0.872704
    10  C    0.459896
    11  C    0.385296
    12  C   -1.571338
    16  Cl   0.504802
    17  Cl   0.551267
    18  Cl   0.587938
    19  Cl   0.497511
    20  Cl   0.512717
    21  Cl   0.497512
    22  Cl   0.551275
 Electronic spatial extent (au):  <R**2>=           9083.9023
 Charge=              0.0000 electrons
 Dipole moment (field-independent basis, Debye):
    X=              1.1998    Y=             -0.0003    Z=              1.8443  Tot=              2.2002
 Quadrupole moment (field-independent basis, Debye-Ang):
   XX=           -156.3325   YY=           -161.2161   ZZ=           -152.0789
   XY=              0.0010   XZ=             -3.2770   YZ=             -0.0012
 Traceless Quadrupole moment (field-independent basis, Debye-Ang):
   XX=              0.2100   YY=             -4.6736   ZZ=              4.4636
   XY=              0.0010   XZ=             -3.2770   YZ=             -0.0012
 Octapole moment (field-independent basis, Debye-Ang**2):
  XXX=             41.4121  YYY=              0.0041  ZZZ=              0.3530  XYY=             -7.6993
  XXY=              0.0043  XXZ=             -4.4529  XZZ=            -13.6276  YZZ=             -0.0000
  YYZ=             -7.1154  XYZ=              0.0016
 Hexadecapole moment (field-independent basis, Debye-Ang**3):
 XXXX=          -7925.9641 YYYY=          -2505.6903 ZZZZ=          -1173.0528 XXXY=              0.0020
 XXXZ=              6.4686 YYYX=              0.0103 YYYZ=              0.0111 ZZZX=             -6.8293
 ZZZY=             -0.0188 XXYY=          -1786.1138 XXZZ=          -1533.4504 YYZZ=           -658.2349
 XXYZ=             -0.0001 YYXZ=              2.5723 ZZXY=              0.0009
 N-N= 2.373551160226D+03 E-N=-1.346847949617D+04  KE= 3.671258385821D+03
 1\1\GINC-CN128\FOpt\RB3LYP\6-311+G(d,p)\C12H3Cl7\20CY91R06\03-Apr-2022
 \0\\# opt b3lyp/6-311+g(d,p) scf=xqc\\Title Card Required\\0,1\C,-1.37
 64476501,3.2794860919,-0.9944370935\C,-0.0486231729,3.2524444812,-0.54
 21259531\C,0.7055734324,4.429404943,-0.4940192708\C,0.1427702915,5.633
 4055407,-0.8964812058\C,-1.1700619907,5.6753348455,-1.3475562451\C,-1.
 9312691391,4.5032351076,-1.3989937202\C,-2.1770467207,2.0211173833,-1.
 0720905036\C,-2.1518140564,1.2589630392,-2.2401462754\C,-2.8836995661,
 0.0858822269,-2.344305886\C,-3.6579796956,-0.3451043596,-1.2720353535\
 C,-3.7050436295,0.3970092993,-0.0851193564\C,-2.9577278371,1.582121918
 2,0.0027600673\H,0.728343075,6.5413933608,-0.8582086597\H,-1.549768811
 ,1.5921718742,-3.0765694357\H,-2.8609378404,-0.5018630238,-3.252266875
 2\Cl,-2.9941003205,2.5295982674,1.466559235\Cl,-3.5800282542,4.5511677
 334,-1.959893118\Cl,-4.6710537291,-0.139893981,1.2541845018\Cl,-1.8251
 155936,7.2133089838,-1.8418295479\Cl,-4.5644523549,-1.8264690114,-1.44
 26865793\Cl,2.3578531062,4.4343803325,0.0615305987\Cl,0.6513898367,1.7
 401079469,-0.0337929336\\Version=EM64L-G16RevB.01\State=1-A\HF=-3680.7
 45554\RMSD=3.780e-09\RMSF=2.630e-05\Dipole=0.4559678,0.2017857,-0.7075
 801\Quadrupole=-2.5531893,0.397162,2.1560274,1.1020752,-0.4156462,3.23
 13385\PG=C01 [X(C12H3Cl7)]\\@


 THE THINKER DIES, BUT HIS THOUGHTS ARE BEYOND THE 
 REACH OF DESTRUCTION.  MEN ARE MORTAL; BUT IDEAS 
 ARE IMMORTAL.
                              -- WALTER LIPPMANN
 Job cpu time:       1 days 12 hours 11 minutes 36.3 seconds.
 Elapsed time:       0 days  2 hours 57 minutes 21.4 seconds.
 File lengths (MBytes):  RWF=    161 Int=      0 D2E=      0 Chk=     25 Scr=      1
 Normal termination of Gaussian 16 at Sun Apr  3 03:33:46 2022.
