 Entering Gaussian System, Link 0=g16
 Input=2,2prime,3,4,5,5prime-Hexachlorobiphenyl.gjf
 Output=2,2prime,3,4,5,5prime-Hexachlorobiphenyl.log
 Initial command:
 /opt/g16/l1.exe "/scratch/gour/Gau-78374.inp" -scrdir="/scratch/gour/"
 Entering Link 1 = /opt/g16/l1.exe PID=     78375.
  
 Copyright (c) 1988-2017, Gaussian, Inc.  All Rights Reserved.
  
 This is part of the Gaussian(R) 16 program.  It is based on
 the Gaussian(R) 09 system (copyright 2009, Gaussian, Inc.),
 the Gaussian(R) 03 system (copyright 2003, Gaussian, Inc.),
 the Gaussian(R) 98 system (copyright 1998, Gaussian, Inc.),
 the Gaussian(R) 94 system (copyright 1995, Gaussian, Inc.),
 the Gaussian 92(TM) system (copyright 1992, Gaussian, Inc.),
 the Gaussian 90(TM) system (copyright 1990, Gaussian, Inc.),
 the Gaussian 88(TM) system (copyright 1988, Gaussian, Inc.),
 the Gaussian 86(TM) system (copyright 1986, Carnegie Mellon
 University), and the Gaussian 82(TM) system (copyright 1983,
 Carnegie Mellon University). Gaussian is a federally registered
 trademark of Gaussian, Inc.
  
 This software contains proprietary and confidential information,
 including trade secrets, belonging to Gaussian, Inc.
  
 This software is provided under written license and may be
 used, copied, transmitted, or stored only in accord with that
 written license.
  
 The following legend is applicable only to US Government
 contracts under FAR:
  
                    RESTRICTED RIGHTS LEGEND
  
 Use, reproduction and disclosure by the US Government is
 subject to restrictions as set forth in subparagraphs (a)
 and (c) of the Commercial Computer Software - Restricted
 Rights clause in FAR 52.227-19.
  
 Gaussian, Inc.
 340 Quinnipiac St., Bldg. 40, Wallingford CT 06492
  
  
 ---------------------------------------------------------------
 Warning -- This program may not be used in any manner that
 competes with the business of Gaussian, Inc. or will provide
 assistance to any competitor of Gaussian, Inc.  The licensee
 of this program is prohibited from giving any competitor of
 Gaussian, Inc. access to this program.  By using this program,
 the user acknowledges that Gaussian, Inc. is engaged in the
 business of creating and licensing software in the field of
 computational chemistry and represents and warrants to the
 licensee that it is not a competitor of Gaussian, Inc. and that
 it will not use this program in any manner prohibited above.
 ---------------------------------------------------------------
  

 Cite this work as:
 Gaussian 16, Revision B.01,
 M. J. Frisch, G. W. Trucks, H. B. Schlegel, G. E. Scuseria, 
 M. A. Robb, J. R. Cheeseman, G. Scalmani, V. Barone, 
 G. A. Petersson, H. Nakatsuji, X. Li, M. Caricato, A. V. Marenich, 
 J. Bloino, B. G. Janesko, R. Gomperts, B. Mennucci, H. P. Hratchian, 
 J. V. Ortiz, A. F. Izmaylov, J. L. Sonnenberg, D. Williams-Young, 
 F. Ding, F. Lipparini, F. Egidi, J. Goings, B. Peng, A. Petrone, 
 T. Henderson, D. Ranasinghe, V. G. Zakrzewski, J. Gao, N. Rega, 
 G. Zheng, W. Liang, M. Hada, M. Ehara, K. Toyota, R. Fukuda, 
 J. Hasegawa, M. Ishida, T. Nakajima, Y. Honda, O. Kitao, H. Nakai, 
 T. Vreven, K. Throssell, J. A. Montgomery, Jr., J. E. Peralta, 
 F. Ogliaro, M. J. Bearpark, J. J. Heyd, E. N. Brothers, K. N. Kudin, 
 V. N. Staroverov, T. A. Keith, R. Kobayashi, J. Normand, 
 K. Raghavachari, A. P. Rendell, J. C. Burant, S. S. Iyengar, 
 J. Tomasi, M. Cossi, J. M. Millam, M. Klene, C. Adamo, R. Cammi, 
 J. W. Ochterski, R. L. Martin, K. Morokuma, O. Farkas, 
 J. B. Foresman, and D. J. Fox, Gaussian, Inc., Wallingford CT, 2016.
 
 ******************************************
 Gaussian 16:  EM64L-G16RevB.01 20-Dec-2017
                16-Mar-2022 
 ******************************************
 %mem=10GB
 %nprocshared=4
 Will use up to    4 processors via shared memory.
 --------------------------------
 # opt b3lyp/6-311+g(d,p) scf=xqc
 --------------------------------
 1/18=20,19=15,26=3,38=1/1,3;
 2/9=110,12=2,17=6,18=5,40=1/2;
 3/5=4,6=6,7=111,11=2,25=1,30=1,71=1,74=-5/1,2,3;
 4//1;
 5/5=2,8=3,13=1,38=5/2,8;
 6/7=2,8=2,9=2,10=2,28=1/1;
 7//1,2,3,16;
 1/18=20,19=15,26=3/3(2);
 2/9=110/2;
 99//99;
 2/9=110/2;
 3/5=4,6=6,7=111,11=2,25=1,30=1,71=1,74=-5/1,2,3;
 4/5=5,16=3,69=1/1;
 5/5=2,8=3,13=1,38=5/2,8;
 7//1,2,3,16;
 1/18=20,19=15,26=3/3(-5);
 2/9=110/2;
 6/7=2,8=2,9=2,10=2,19=2,28=1/1;
 99/9=1/99;
 -------------------
 Title Card Required
 -------------------
 Symbolic Z-matrix:
 Charge =  0 Multiplicity = 1
 C                    -0.42463  -0.27718  -0.00285 
 C                     0.90775  -0.24729  -0.4362 
 C                     1.61564   0.96216  -0.44227 
 C                     0.99115   2.14172  -0.015 
 C                    -0.34123   2.11184   0.41835 
 C                    -1.04912   0.90238   0.42442 
 C                    -1.20254  -1.60625   0.00382 
 C                    -0.57805  -2.78581  -0.42345 
 C                    -1.28594  -3.99526  -0.41738 
 C                    -2.61832  -4.02515   0.01597 
 C                    -3.24281  -2.84559   0.44325 
 C                    -2.53492  -1.63613   0.43717 
 H                     1.38456  -1.14792  -0.76243 
 H                     1.53165   3.06516  -0.01963 
 H                    -0.81804   3.01246   0.74458 
 H                     0.43925  -2.76299  -0.75432 
 Cl                   -3.3192   -0.15473   0.97378 
 Cl                   -2.72244   0.86485   0.96866 
 Cl                   -4.91613  -2.88312   0.98749 
 Cl                   -3.50736  -5.54409   0.0236 
 Cl                   -0.50166  -5.47666  -0.95399 
 Cl                    3.28896   0.99969  -0.9865 
 

 GradGradGradGradGradGradGradGradGradGradGradGradGradGradGradGradGradGrad
 Berny optimization.
 Initialization pass.
                           ----------------------------
                           !    Initial Parameters    !
                           ! (Angstroms and Degrees)  !
 --------------------------                            --------------------------
 ! Name  Definition              Value          Derivative Info.                !
 --------------------------------------------------------------------------------
 ! R1    R(1,2)                  1.4014         estimate D2E/DX2                !
 ! R2    R(1,6)                  1.4014         estimate D2E/DX2                !
 ! R3    R(1,7)                  1.54           estimate D2E/DX2                !
 ! R4    R(2,3)                  1.4014         estimate D2E/DX2                !
 ! R5    R(2,13)                 1.07           estimate D2E/DX2                !
 ! R6    R(3,4)                  1.4014         estimate D2E/DX2                !
 ! R7    R(3,22)                 1.76           estimate D2E/DX2                !
 ! R8    R(4,5)                  1.4014         estimate D2E/DX2                !
 ! R9    R(4,14)                 1.07           estimate D2E/DX2                !
 ! R10   R(5,6)                  1.4014         estimate D2E/DX2                !
 ! R11   R(5,15)                 1.07           estimate D2E/DX2                !
 ! R12   R(6,18)                 1.76           estimate D2E/DX2                !
 ! R13   R(7,8)                  1.4014         estimate D2E/DX2                !
 ! R14   R(7,12)                 1.4014         estimate D2E/DX2                !
 ! R15   R(8,9)                  1.4014         estimate D2E/DX2                !
 ! R16   R(8,16)                 1.07           estimate D2E/DX2                !
 ! R17   R(9,10)                 1.4014         estimate D2E/DX2                !
 ! R18   R(9,21)                 1.76           estimate D2E/DX2                !
 ! R19   R(10,11)                1.4014         estimate D2E/DX2                !
 ! R20   R(10,20)                1.76           estimate D2E/DX2                !
 ! R21   R(11,12)                1.4014         estimate D2E/DX2                !
 ! R22   R(11,19)                1.76           estimate D2E/DX2                !
 ! R23   R(12,17)                1.76           estimate D2E/DX2                !
 ! R24   R(17,18)                1.1814         estimate D2E/DX2                !
 ! A1    A(2,1,6)              120.0            estimate D2E/DX2                !
 ! A2    A(2,1,7)              120.0            estimate D2E/DX2                !
 ! A3    A(6,1,7)              120.0            estimate D2E/DX2                !
 ! A4    A(1,2,3)              120.0            estimate D2E/DX2                !
 ! A5    A(1,2,13)             120.0            estimate D2E/DX2                !
 ! A6    A(3,2,13)             120.0            estimate D2E/DX2                !
 ! A7    A(2,3,4)              120.0            estimate D2E/DX2                !
 ! A8    A(2,3,22)             120.0            estimate D2E/DX2                !
 ! A9    A(4,3,22)             120.0            estimate D2E/DX2                !
 ! A10   A(3,4,5)              120.0            estimate D2E/DX2                !
 ! A11   A(3,4,14)             120.0            estimate D2E/DX2                !
 ! A12   A(5,4,14)             120.0            estimate D2E/DX2                !
 ! A13   A(4,5,6)              120.0            estimate D2E/DX2                !
 ! A14   A(4,5,15)             120.0            estimate D2E/DX2                !
 ! A15   A(6,5,15)             120.0            estimate D2E/DX2                !
 ! A16   A(1,6,5)              120.0            estimate D2E/DX2                !
 ! A17   A(1,6,18)             120.0            estimate D2E/DX2                !
 ! A18   A(5,6,18)             120.0            estimate D2E/DX2                !
 ! A19   A(1,7,8)              120.0            estimate D2E/DX2                !
 ! A20   A(1,7,12)             120.0            estimate D2E/DX2                !
 ! A21   A(8,7,12)             120.0            estimate D2E/DX2                !
 ! A22   A(7,8,9)              120.0            estimate D2E/DX2                !
 ! A23   A(7,8,16)             120.0            estimate D2E/DX2                !
 ! A24   A(9,8,16)             120.0            estimate D2E/DX2                !
 ! A25   A(8,9,10)             120.0            estimate D2E/DX2                !
 ! A26   A(8,9,21)             120.0            estimate D2E/DX2                !
 ! A27   A(10,9,21)            120.0            estimate D2E/DX2                !
 ! A28   A(9,10,11)            120.0            estimate D2E/DX2                !
 ! A29   A(9,10,20)            120.0            estimate D2E/DX2                !
 ! A30   A(11,10,20)           120.0            estimate D2E/DX2                !
 ! A31   A(10,11,12)           120.0            estimate D2E/DX2                !
 ! A32   A(10,11,19)           120.0            estimate D2E/DX2                !
 ! A33   A(12,11,19)           120.0            estimate D2E/DX2                !
 ! A34   A(7,12,11)            120.0            estimate D2E/DX2                !
 ! A35   A(7,12,17)            120.0            estimate D2E/DX2                !
 ! A36   A(11,12,17)           120.0            estimate D2E/DX2                !
 ! A37   A(12,17,18)           120.0            estimate D2E/DX2                !
 ! A38   A(6,18,17)            120.0            estimate D2E/DX2                !
 ! D1    D(6,1,2,3)              0.0001         estimate D2E/DX2                !
 ! D2    D(6,1,2,13)           180.0            estimate D2E/DX2                !
 ! D3    D(7,1,2,3)           -180.0            estimate D2E/DX2                !
 ! D4    D(7,1,2,13)            -0.0001         estimate D2E/DX2                !
 ! D5    D(2,1,6,5)             -0.0001         estimate D2E/DX2                !
 ! D6    D(2,1,6,18)           180.0            estimate D2E/DX2                !
 ! D7    D(7,1,6,5)            180.0            estimate D2E/DX2                !
 ! D8    D(7,1,6,18)             0.0            estimate D2E/DX2                !
 ! D9    D(2,1,7,8)             -0.0001         estimate D2E/DX2                !
 ! D10   D(2,1,7,12)           179.9998         estimate D2E/DX2                !
 ! D11   D(6,1,7,8)            179.9999         estimate D2E/DX2                !
 ! D12   D(6,1,7,12)            -0.0002         estimate D2E/DX2                !
 ! D13   D(1,2,3,4)              0.0            estimate D2E/DX2                !
 ! D14   D(1,2,3,22)           180.0            estimate D2E/DX2                !
 ! D15   D(13,2,3,4)          -179.9999         estimate D2E/DX2                !
 ! D16   D(13,2,3,22)            0.0001         estimate D2E/DX2                !
 ! D17   D(2,3,4,5)             -0.0001         estimate D2E/DX2                !
 ! D18   D(2,3,4,14)           180.0            estimate D2E/DX2                !
 ! D19   D(22,3,4,5)           179.9999         estimate D2E/DX2                !
 ! D20   D(22,3,4,14)            0.0            estimate D2E/DX2                !
 ! D21   D(3,4,5,6)              0.0001         estimate D2E/DX2                !
 ! D22   D(3,4,5,15)          -179.9999         estimate D2E/DX2                !
 ! D23   D(14,4,5,6)          -180.0            estimate D2E/DX2                !
 ! D24   D(14,4,5,15)            0.0            estimate D2E/DX2                !
 ! D25   D(4,5,6,1)              0.0            estimate D2E/DX2                !
 ! D26   D(4,5,6,18)           179.9999         estimate D2E/DX2                !
 ! D27   D(15,5,6,1)           180.0            estimate D2E/DX2                !
 ! D28   D(15,5,6,18)           -0.0001         estimate D2E/DX2                !
 ! D29   D(1,6,18,17)            0.0006         estimate D2E/DX2                !
 ! D30   D(5,6,18,17)         -179.9994         estimate D2E/DX2                !
 ! D31   D(1,7,8,9)            179.9999         estimate D2E/DX2                !
 ! D32   D(1,7,8,16)             0.0001         estimate D2E/DX2                !
 ! D33   D(12,7,8,9)             0.0001         estimate D2E/DX2                !
 ! D34   D(12,7,8,16)         -179.9998         estimate D2E/DX2                !
 ! D35   D(1,7,12,11)         -179.9999         estimate D2E/DX2                !
 ! D36   D(1,7,12,17)            0.0            estimate D2E/DX2                !
 ! D37   D(8,7,12,11)           -0.0001         estimate D2E/DX2                !
 ! D38   D(8,7,12,17)          179.9999         estimate D2E/DX2                !
 ! D39   D(7,8,9,10)             0.0            estimate D2E/DX2                !
 ! D40   D(7,8,9,21)           180.0            estimate D2E/DX2                !
 ! D41   D(16,8,9,10)          179.9998         estimate D2E/DX2                !
 ! D42   D(16,8,9,21)           -0.0002         estimate D2E/DX2                !
 ! D43   D(8,9,10,11)            0.0            estimate D2E/DX2                !
 ! D44   D(8,9,10,20)         -179.9999         estimate D2E/DX2                !
 ! D45   D(21,9,10,11)         180.0            estimate D2E/DX2                !
 ! D46   D(21,9,10,20)           0.0001         estimate D2E/DX2                !
 ! D47   D(9,10,11,12)           0.0            estimate D2E/DX2                !
 ! D48   D(9,10,11,19)        -179.9998         estimate D2E/DX2                !
 ! D49   D(20,10,11,12)        179.9999         estimate D2E/DX2                !
 ! D50   D(20,10,11,19)          0.0001         estimate D2E/DX2                !
 ! D51   D(10,11,12,7)           0.0            estimate D2E/DX2                !
 ! D52   D(10,11,12,17)       -179.9999         estimate D2E/DX2                !
 ! D53   D(19,11,12,7)         179.9999         estimate D2E/DX2                !
 ! D54   D(19,11,12,17)         -0.0001         estimate D2E/DX2                !
 ! D55   D(7,12,17,18)           0.0005         estimate D2E/DX2                !
 ! D56   D(11,12,17,18)       -179.9995         estimate D2E/DX2                !
 ! D57   D(12,17,18,6)          -0.0008         estimate D2E/DX2                !
 --------------------------------------------------------------------------------
 Trust Radius=3.00D-01 FncErr=1.00D-07 GrdErr=1.00D-06 EigMax=2.50D+02 EigMin=1.00D-04
 Number of steps in this run=    129 maximum allowed number of steps=    132.
 GradGradGradGradGradGradGradGradGradGradGradGradGradGradGradGradGradGrad

                          Input orientation:                          
 ---------------------------------------------------------------------
 Center     Atomic      Atomic             Coordinates (Angstroms)
 Number     Number       Type             X           Y           Z
 ---------------------------------------------------------------------
      1          6           0       -0.424633   -0.277181   -0.002851
      2          6           0        0.907748   -0.247295   -0.436198
      3          6           0        1.615642    0.962156   -0.442270
      4          6           0        0.991154    2.141721   -0.014995
      5          6           0       -0.341228    2.111836    0.418349
      6          6           0       -1.049121    0.902385    0.424422
      7          6           0       -1.202538   -1.606248    0.003823
      8          6           0       -0.578051   -2.785813   -0.423452
      9          6           0       -1.285943   -3.995264   -0.417378
     10          6           0       -2.618324   -4.025151    0.015972
     11          6           0       -3.242811   -2.845586    0.443247
     12          6           0       -2.534918   -1.636134    0.437173
     13          1           0        1.384559   -1.147919   -0.762429
     14          1           0        1.531647    3.065164   -0.019631
     15          1           0       -0.818038    3.012460    0.744581
     16          1           0        0.439252   -2.762994   -0.754322
     17         17           0       -3.319203   -0.154734    0.973785
     18         17           0       -2.722442    0.864852    0.968655
     19         17           0       -4.916128   -2.883120    0.987490
     20         17           0       -3.507356   -5.544085    0.023603
     21         17           0       -0.501658   -5.476664   -0.953987
     22         17           0        3.288962    0.999689   -0.986503
 ---------------------------------------------------------------------
                    Distance matrix (angstroms):
                    1          2          3          4          5
     1  C    0.000000
     2  C    1.401400   0.000000
     3  C    2.427296   1.401400   0.000000
     4  C    2.802800   2.427296   1.401400   0.000000
     5  C    2.427296   2.802800   2.427296   1.401400   0.000000
     6  C    1.401400   2.427296   2.802800   2.427296   1.401400
     7  C    1.540000   2.548270   3.838989   4.342800   3.838989
     8  C    2.548270   2.941400   4.342800   5.187469   4.975106
     9  C    3.838989   4.342800   5.744200   6.558176   6.235992
    10  C    4.342800   5.187469   6.558176   7.145600   6.558176
    11  C    3.838989   4.975106   6.235992   6.558176   5.744200
    12  C    2.548270   3.813607   4.975106   5.187469   4.342800
    13  H    2.146700   1.070000   2.146700   3.396345   3.872800
    14  H    3.872800   3.396345   2.146700   1.070000   2.146700
    15  H    3.396345   3.872800   3.396345   2.146700   1.070000
    16  H    2.736837   2.578650   3.918930   4.990735   5.074276
    17  Cl   3.057342   4.456874   5.254079   4.983028   3.783409
    18  Cl   2.743718   4.048303   4.562800   4.048303   2.743718
    19  Cl   5.286324   6.549198   7.713260   7.819846   6.797295
    20  Cl   6.102800   6.910901   8.294174   8.905600   8.294174
    21  Cl   5.286324   5.440665   6.797295   7.819846   7.713260
    22  Cl   4.048303   2.743718   1.760000   2.743718   4.048303
                    6          7          8          9         10
     6  C    0.000000
     7  C    2.548270   0.000000
     8  C    3.813607   1.401400   0.000000
     9  C    4.975106   2.427296   1.401400   0.000000
    10  C    5.187469   2.802800   2.427296   1.401400   0.000000
    11  C    4.342800   2.427296   2.802800   2.427296   1.401400
    12  C    2.941400   1.401400   2.427296   2.802800   2.427296
    13  H    3.396345   2.736837   2.578650   3.918930   4.990735
    14  H    3.396345   5.412800   6.232802   7.612271   8.215600
    15  H    2.146700   4.693509   5.919617   7.118798   7.300676
    16  H    4.127917   2.146700   1.070000   2.146700   3.396345
    17  Cl   2.563702   2.743718   4.048303   4.562800   4.048303
    18  Cl   1.760000   3.057342   4.456874   5.254079   4.983028
    19  Cl   5.440665   4.048303   4.562800   4.048303   2.743718
    20  Cl   6.910901   4.562800   4.048303   2.743718   1.760000
    21  Cl   6.549198   4.048303   2.743718   1.760000   2.743718
    22  Cl   4.562800   5.286324   5.440665   6.797295   7.819846
                   11         12         13         14         15
    11  C    0.000000
    12  C    1.401400   0.000000
    13  H    5.074276   4.127917   0.000000
    14  H    7.612271   6.232802   4.280590   0.000000
    15  H    6.347206   4.965039   4.942800   2.471400   0.000000
    16  H    3.872800   3.396345   1.871400   5.974992   6.097816
    17  Cl   2.743718   1.760000   5.111382   5.906383   4.042212
    18  Cl   3.783409   2.563702   4.890332   4.890332   2.879094
    19  Cl   1.760000   2.743718   6.765486   8.830073   7.184095
    20  Cl   2.743718   4.048303   6.623817   9.975600   8.998151
    21  Cl   4.048303   4.562800   4.725732   8.830073   8.663168
    22  Cl   7.713260   6.549198   2.879094   2.879094   4.890332
                   16         17         18         19         20
    16  H    0.000000
    17  Cl   4.890332   0.000000
    18  Cl   5.111382   1.181400   0.000000
    19  Cl   5.632800   3.161400   4.342800   0.000000
    20  Cl   4.890332   5.475705   6.525618   3.161400   0.000000
    21  Cl   2.879094   6.322800   6.988795   5.475705   3.161400
    22  Cl   4.725732   6.988795   6.322800   9.289584   9.488480
                   21         22
    21  Cl   0.000000
    22  Cl   7.504200   0.000000
 Stoichiometry    C12H4Cl6
 Framework group  C1[X(C12H4Cl6)]
 Deg. of freedom    60
 Full point group                 C1      NOp   1
 Largest Abelian subgroup         C1      NOp   1
 Largest concise Abelian subgroup C1      NOp   1
                         Standard orientation:                         
 ---------------------------------------------------------------------
 Center     Atomic      Atomic             Coordinates (Angstroms)
 Number     Number       Type             X           Y           Z
 ---------------------------------------------------------------------
      1          6           0        1.611851    0.003650    0.000002
      2          6           0        2.489465    1.096222    0.000000
      3          6           0        3.874468    0.882472   -0.000002
      4          6           0        4.381857   -0.423850   -0.000002
      5          6           0        3.504242   -1.516423    0.000002
      6          6           0        2.119240   -1.302673    0.000004
      7          6           0        0.089870    0.238540    0.000003
      8          6           0       -0.417519    1.544862    0.000003
      9          6           0       -1.802521    1.758612    0.000003
     10          6           0       -2.680136    0.666040    0.000001
     11          6           0       -2.172747   -0.640283    0.000000
     12          6           0       -0.787744   -0.854033    0.000001
     13          1           0        2.102063    2.093629   -0.000002
     14          1           0        5.439337   -0.587053   -0.000004
     15          1           0        3.891645   -2.513829    0.000004
     16          1           0        0.252559    2.379066    0.000002
     17         17           0       -0.150522   -2.494627   -0.000003
     18         17           0        1.017055   -2.674821    0.000007
     19         17           0       -3.274932   -2.012431   -0.000006
     20         17           0       -4.419543    0.934486   -0.000002
     21         17           0       -2.439744    3.399206    0.000004
     22         17           0        4.976653    2.254620   -0.000005
 ---------------------------------------------------------------------
 Rotational constants (GHZ):           0.3615422           0.1616155           0.1116887
 Standard basis: 6-311+G(d,p) (5D, 7F)
 There are   486 symmetry adapted cartesian basis functions of A   symmetry.
 There are   468 symmetry adapted basis functions of A   symmetry.
   468 basis functions,   782 primitive gaussians,   486 cartesian basis functions
    89 alpha electrons       89 beta electrons
       nuclear repulsion energy      2113.4869734465 Hartrees.
 NAtoms=   22 NActive=   22 NUniq=   22 SFac= 1.00D+00 NAtFMM=   60 NAOKFM=F Big=F
 Integral buffers will be    131072 words long.
 Raffenetti 2 integral format.
 Two-electron integral symmetry is turned on.
 One-electron integrals computed using PRISM.
 NBasis=   468 RedAO= T EigKep=  1.24D-06  NBF=   468
 NBsUse=   461 1.00D-06 EigRej=  8.57D-07 NBFU=   461
 ExpMin= 4.38D-02 ExpMax= 1.06D+05 ExpMxC= 3.62D+03 IAcc=3 IRadAn=         5 AccDes= 0.00D+00
 Harris functional with IExCor=  402 and IRadAn=       5 diagonalized for initial guess.
 HarFok:  IExCor=  402 AccDes= 0.00D+00 IRadAn=         5 IDoV= 1 UseB2=F ITyADJ=14
 ICtDFT=  3500011 ScaDFX=  1.000000  1.000000  1.000000  1.000000
 FoFCou: FMM=F IPFlag=           0 FMFlag=      100000 FMFlg1=           0
         NFxFlg=           0 DoJE=T BraDBF=F KetDBF=T FulRan=T
         wScrn=  0.000000 ICntrl=       500 IOpCl=  0 I1Cent=   200000004 NGrid=           0
         NMat0=    1 NMatS0=      1 NMatT0=    0 NMatD0=    1 NMtDS0=    0 NMtDT0=    0
 Petite list used in FoFCou.
 Requested convergence on RMS density matrix=1.00D-08 within  32 cycles.
 Requested convergence on MAX density matrix=1.00D-06.
 Requested convergence on             energy=1.00D-06.
 No special actions if energy rises.
 SCF Done:  E(RB3LYP) =  -3219.51479908     A.U. after   20 cycles
            NFock= 20  Conv=0.77D-08     -V/T= 2.0002
 QCSCF skips out because SCF is already converged.

 **********************************************************************

            Population analysis using the SCF Density.

 **********************************************************************

 Orbital symmetries:
       Occupied  (A) (A) (A) (A) (A) (A) (A) (A) (A) (A) (A) (A)
                 (A) (A) (A) (A) (A) (A) (A) (A) (A) (A) (A) (A)
                 (A) (A) (A) (A) (A) (A) (A) (A) (A) (A) (A) (A)
                 (A) (A) (A) (A) (A) (A) (A) (A) (A) (A) (A) (A)
                 (A) (A) (A) (A) (A) (A) (A) (A) (A) (A) (A) (A)
                 (A) (A) (A) (A) (A) (A) (A) (A) (A) (A) (A) (A)
                 (A) (A) (A) (A) (A) (A) (A) (A) (A) (A) (A) (A)
                 (A) (A) (A) (A) (A)
       Virtual   (A) (A) (A) (A) (A) (A) (A) (A) (A) (A) (A) (A)
                 (A) (A) (A) (A) (A) (A) (A) (A) (A) (A) (A) (A)
                 (A) (A) (A) (A) (A) (A) (A) (A) (A) (A) (A) (A)
                 (A) (A) (A) (A) (A) (A) (A) (A) (A) (A) (A) (A)
                 (A) (A) (A) (A) (A) (A) (A) (A) (A) (A) (A) (A)
                 (A) (A) (A) (A) (A) (A) (A) (A) (A) (A) (A) (A)
                 (A) (A) (A) (A) (A) (A) (A) (A) (A) (A) (A) (A)
                 (A) (A) (A) (A) (A) (A) (A) (A) (A) (A) (A) (A)
                 (A) (A) (A) (A) (A) (A) (A) (A) (A) (A) (A) (A)
                 (A) (A) (A) (A) (A) (A) (A) (A) (A) (A) (A) (A)
                 (A) (A) (A) (A) (A) (A) (A) (A) (A) (A) (A) (A)
                 (A) (A) (A) (A) (A) (A) (A) (A) (A) (A) (A) (A)
                 (A) (A) (A) (A) (A) (A) (A) (A) (A) (A) (A) (A)
                 (A) (A) (A) (A) (A) (A) (A) (A) (A) (A) (A) (A)
                 (A) (A) (A) (A) (A) (A) (A) (A) (A) (A) (A) (A)
                 (A) (A) (A) (A) (A) (A) (A) (A) (A) (A) (A) (A)
                 (A) (A) (A) (A) (A) (A) (A) (A) (A) (A) (A) (A)
                 (A) (A) (A) (A) (A) (A) (A) (A) (A) (A) (A) (A)
                 (A) (A) (A) (A) (A) (A) (A) (A) (A) (A) (A) (A)
                 (A) (A) (A) (A) (A) (A) (A) (A) (A) (A) (A) (A)
                 (A) (A) (A) (A) (A) (A) (A) (A) (A) (A) (A) (A)
                 (A) (A) (A) (A) (A) (A) (A) (A) (A) (A) (A) (A)
                 (A) (A) (A) (A) (A) (A) (A) (A) (A) (A) (A) (A)
                 (A) (A) (A) (A) (A) (A) (A) (A) (A) (A) (A) (A)
                 (A) (A) (A) (A) (A) (A) (A) (A) (A) (A) (A) (A)
                 (A) (A) (A) (A) (A) (A) (A) (A) (A) (A) (A) (A)
                 (A) (A) (A) (A) (A) (A) (A) (A) (A) (A) (A) (A)
                 (A) (A) (A) (A) (A) (A) (A) (A) (A) (A) (A) (A)
                 (A) (A) (A) (A) (A) (A) (A) (A) (A) (A) (A) (A)
                 (A) (A) (A) (A) (A) (A) (A) (A) (A) (A) (A) (A)
                 (A) (A) (A) (A) (A) (A) (A) (A) (A) (A) (A) (A)
 The electronic state is 1-A.
 Alpha  occ. eigenvalues -- -101.66889-101.66410-101.56885-101.56630-101.56431
 Alpha  occ. eigenvalues -- -101.56323 -10.26501 -10.26264 -10.26248 -10.25423
 Alpha  occ. eigenvalues --  -10.22140 -10.21787 -10.20626 -10.20467 -10.20414
 Alpha  occ. eigenvalues --  -10.20275 -10.18547 -10.18255  -9.65498  -9.63339
 Alpha  occ. eigenvalues --   -9.48346  -9.48056  -9.47868  -9.47764  -7.43883
 Alpha  occ. eigenvalues --   -7.38973  -7.38865  -7.38498  -7.38237  -7.37777
 Alpha  occ. eigenvalues --   -7.24803  -7.24549  -7.24333  -7.24254  -7.23837
 Alpha  occ. eigenvalues --   -7.23783  -7.23535  -7.23480  -7.23349  -7.23317
 Alpha  occ. eigenvalues --   -7.23256  -7.23173  -1.39927  -0.93736  -0.90945
 Alpha  occ. eigenvalues --   -0.89037  -0.87602  -0.86332  -0.84665  -0.81070
 Alpha  occ. eigenvalues --   -0.80536  -0.78767  -0.74446  -0.73102  -0.72233
 Alpha  occ. eigenvalues --   -0.70851  -0.66708  -0.63632  -0.61562  -0.59998
 Alpha  occ. eigenvalues --   -0.57903  -0.52342  -0.51311  -0.50163  -0.48719
 Alpha  occ. eigenvalues --   -0.48114  -0.46113  -0.45332  -0.44159  -0.43297
 Alpha  occ. eigenvalues --   -0.42197  -0.41609  -0.40805  -0.38275  -0.37831
 Alpha  occ. eigenvalues --   -0.36788  -0.36421  -0.35317  -0.34276  -0.33886
 Alpha  occ. eigenvalues --   -0.33411  -0.32654  -0.30857  -0.29775  -0.29206
 Alpha  occ. eigenvalues --   -0.27220  -0.25520  -0.21664  -0.16922
 Alpha virt. eigenvalues --   -0.07370  -0.06125  -0.03575  -0.02673  -0.02663
 Alpha virt. eigenvalues --   -0.00379  -0.00047   0.00222   0.00804   0.01355
 Alpha virt. eigenvalues --    0.01623   0.01975   0.02459   0.03046   0.03417
 Alpha virt. eigenvalues --    0.04555   0.04909   0.05711   0.06046   0.06071
 Alpha virt. eigenvalues --    0.06514   0.07277   0.07521   0.08030   0.08064
 Alpha virt. eigenvalues --    0.09139   0.09504   0.09594   0.09748   0.09841
 Alpha virt. eigenvalues --    0.10547   0.11148   0.11182   0.11306   0.11746
 Alpha virt. eigenvalues --    0.12352   0.12588   0.13047   0.13412   0.14122
 Alpha virt. eigenvalues --    0.14493   0.14909   0.15173   0.15471   0.15757
 Alpha virt. eigenvalues --    0.15808   0.16162   0.16484   0.16860   0.17124
 Alpha virt. eigenvalues --    0.17449   0.18188   0.18701   0.19061   0.19202
 Alpha virt. eigenvalues --    0.19204   0.19875   0.19878   0.20583   0.21441
 Alpha virt. eigenvalues --    0.21547   0.21551   0.21719   0.22379   0.23266
 Alpha virt. eigenvalues --    0.23581   0.24277   0.24919   0.25190   0.25267
 Alpha virt. eigenvalues --    0.25722   0.25830   0.26404   0.26949   0.27336
 Alpha virt. eigenvalues --    0.27699   0.27940   0.28311   0.29181   0.29492
 Alpha virt. eigenvalues --    0.29933   0.30389   0.31490   0.31861   0.32580
 Alpha virt. eigenvalues --    0.32774   0.33801   0.33902   0.35731   0.36376
 Alpha virt. eigenvalues --    0.37360   0.38965   0.41420   0.42745   0.42815
 Alpha virt. eigenvalues --    0.43945   0.44273   0.44809   0.45395   0.45539
 Alpha virt. eigenvalues --    0.45751   0.45969   0.46430   0.46957   0.48111
 Alpha virt. eigenvalues --    0.48240   0.48650   0.49770   0.50301   0.50503
 Alpha virt. eigenvalues --    0.51072   0.51947   0.52350   0.53964   0.54559
 Alpha virt. eigenvalues --    0.54671   0.55720   0.56249   0.56438   0.58610
 Alpha virt. eigenvalues --    0.58757   0.58878   0.60226   0.61107   0.61213
 Alpha virt. eigenvalues --    0.61708   0.62514   0.62598   0.64109   0.64873
 Alpha virt. eigenvalues --    0.64975   0.66210   0.66719   0.67452   0.67695
 Alpha virt. eigenvalues --    0.70134   0.70325   0.70682   0.71004   0.71384
 Alpha virt. eigenvalues --    0.72126   0.76374   0.78102   0.78965   0.80446
 Alpha virt. eigenvalues --    0.81603   0.82655   0.83302   0.83698   0.83985
 Alpha virt. eigenvalues --    0.84687   0.85002   0.85196   0.85788   0.85917
 Alpha virt. eigenvalues --    0.86063   0.86128   0.86246   0.86784   0.87718
 Alpha virt. eigenvalues --    0.88525   0.89588   0.89945   0.90629   0.90803
 Alpha virt. eigenvalues --    0.91989   0.92339   0.93228   0.94381   0.94595
 Alpha virt. eigenvalues --    0.95060   0.95837   0.95879   0.96888   0.97324
 Alpha virt. eigenvalues --    0.97740   0.99292   0.99724   1.00100   1.00912
 Alpha virt. eigenvalues --    1.02291   1.04000   1.04701   1.06069   1.06791
 Alpha virt. eigenvalues --    1.08825   1.10157   1.12018   1.13709   1.15611
 Alpha virt. eigenvalues --    1.17040   1.18369   1.21083   1.23306   1.23455
 Alpha virt. eigenvalues --    1.24383   1.26089   1.26397   1.27173   1.27944
 Alpha virt. eigenvalues --    1.28324   1.29700   1.30292   1.31131   1.34141
 Alpha virt. eigenvalues --    1.34617   1.37582   1.39283   1.43102   1.43533
 Alpha virt. eigenvalues --    1.45028   1.47713   1.49493   1.50004   1.51726
 Alpha virt. eigenvalues --    1.52783   1.55178   1.57265   1.59717   1.59784
 Alpha virt. eigenvalues --    1.61464   1.65566   1.65835   1.68554   1.68585
 Alpha virt. eigenvalues --    1.70146   1.71773   1.74266   1.76922   1.79124
 Alpha virt. eigenvalues --    1.82496   1.82630   1.83860   1.85121   1.87421
 Alpha virt. eigenvalues --    1.88112   1.88865   1.90002   1.92238   1.93024
 Alpha virt. eigenvalues --    1.93987   1.95646   1.97419   1.98388   1.99609
 Alpha virt. eigenvalues --    2.02757   2.03417   2.07639   2.08200   2.11245
 Alpha virt. eigenvalues --    2.12098   2.16467   2.17893   2.20508   2.21520
 Alpha virt. eigenvalues --    2.23122   2.25116   2.25360   2.27036   2.27054
 Alpha virt. eigenvalues --    2.27887   2.29110   2.31214   2.32990   2.33587
 Alpha virt. eigenvalues --    2.35145   2.35376   2.37147   2.39873   2.42053
 Alpha virt. eigenvalues --    2.42846   2.43827   2.44434   2.46116   2.47686
 Alpha virt. eigenvalues --    2.50684   2.52378   2.54669   2.55810   2.60428
 Alpha virt. eigenvalues --    2.60960   2.62853   2.63498   2.65156   2.68431
 Alpha virt. eigenvalues --    2.70382   2.71768   2.73076   2.73460   2.75255
 Alpha virt. eigenvalues --    2.75474   2.75686   2.79398   2.80567   2.82025
 Alpha virt. eigenvalues --    2.84258   2.85176   2.85968   2.90124   2.92292
 Alpha virt. eigenvalues --    2.95304   3.00024   3.05231   3.06562   3.08348
 Alpha virt. eigenvalues --    3.11768   3.13970   3.15499   3.16992   3.19665
 Alpha virt. eigenvalues --    3.22191   3.24101   3.33186   3.36063   3.40054
 Alpha virt. eigenvalues --    3.43581   3.52440   3.55302   3.60133   3.68819
 Alpha virt. eigenvalues --    3.71498   3.77999   3.88814   3.93566   4.05805
 Alpha virt. eigenvalues --    4.07374   4.19482   4.46545   4.80583   4.84323
 Alpha virt. eigenvalues --    9.72653   9.77832   9.78452   9.80843   9.82160
 Alpha virt. eigenvalues --   10.54445  23.33797  23.54368  23.82462  23.84761
 Alpha virt. eigenvalues --   23.86006  23.92790  23.96033  24.00628  24.01624
 Alpha virt. eigenvalues --   24.05109  24.08314  24.12135  25.40547  25.77265
 Alpha virt. eigenvalues --   25.81996  25.82122  25.89435  25.97035  26.11958
 Alpha virt. eigenvalues --   26.14031  26.14846  26.20584  26.24578  26.48818
 Alpha virt. eigenvalues --   26.59914  26.64982  26.86282  27.11699  27.41289
 Alpha virt. eigenvalues --   28.45319 215.72275 215.76998 215.78819 215.81140
 Alpha virt. eigenvalues --  215.90577 216.86348
          Condensed to atoms (all electrons):
               1          2          3          4          5          6
     1  C   17.376856   2.047719  -6.831815  -0.246624  -0.598332   0.032104
     2  C    2.047719  16.687362  -0.897220  -5.679796   4.884681  -5.270317
     3  C   -6.831815  -0.897220  23.827393  -5.335096  -5.706696   5.338950
     4  C   -0.246624  -5.679796  -5.335096  18.776362   4.846381  -7.611131
     5  C   -0.598332   4.884681  -5.706696   4.846381  45.339671 -47.452377
     6  C    0.032104  -5.270317   5.338950  -7.611131 -47.452377  80.362662
     7  C    3.196931  -3.096444   0.574816   0.290420  -4.834144   2.661459
     8  C   -0.742129  -0.861363  -2.890007  -0.020919   2.347662  -4.246803
     9  C   -2.868218  -0.104291   0.945737   0.098185  -1.873808  -1.425358
    10  C   -1.894457  -0.491697  -1.471938   0.065956   1.791071  -0.911617
    11  C   -1.539875  -0.390154   0.198044  -0.123612   0.507578  -0.932114
    12  C    2.829882  -0.771631   1.286633  -1.017373 -15.047911  14.884306
    13  H    0.177411   0.271858  -0.311338   0.086563   0.041148  -0.098561
    14  H    0.080863   0.109158   0.039663   0.339892  -0.003015  -0.222399
    15  H    0.107367  -0.043075  -0.062621   0.009850   0.120974   0.275866
    16  H    0.136149   0.044945  -0.077536  -0.014959   0.030461   0.045966
    17  Cl  -2.327479  -0.314115  -1.628017   0.654292   6.272636  -7.597671
    18  Cl  -1.726403   0.282899  -1.688072   1.969345  16.751452 -22.931199
    19  Cl   0.445233   0.049015   0.093131  -0.031999  -0.541366   0.276207
    20  Cl  -0.119957  -0.073195  -0.029355   0.000700   0.042458  -0.005727
    21  Cl  -0.272634  -0.011228   0.106019   0.009457  -0.055635  -0.129346
    22  Cl  -0.628736   0.254849  -0.505826  -0.208639   0.021670   0.490738
               7          8          9         10         11         12
     1  C    3.196931  -0.742129  -2.868218  -1.894457  -1.539875   2.829882
     2  C   -3.096444  -0.861363  -0.104291  -0.491697  -0.390154  -0.771631
     3  C    0.574816  -2.890007   0.945737  -1.471938   0.198044   1.286633
     4  C    0.290420  -0.020919   0.098185   0.065956  -0.123612  -1.017373
     5  C   -4.834144   2.347662  -1.873808   1.791071   0.507578 -15.047911
     6  C    2.661459  -4.246803  -1.425358  -0.911617  -0.932114  14.884306
     7  C   19.805692  -1.699166  -5.525949   1.971481  -0.056650  -3.890959
     8  C   -1.699166  12.689887   2.175375  -4.886406   2.529744  -0.466988
     9  C   -5.525949   2.175375  19.756283 -10.213348   0.526316   8.310734
    10  C    1.971481  -4.886406 -10.213348  33.840430  -4.161282 -11.829847
    11  C   -0.056650   2.529744   0.526316  -4.161282  16.777653  -8.623031
    12  C   -3.890959  -0.466988   8.310734 -11.829847  -8.623031  54.822791
    13  H    0.009112   0.117040  -0.010616   0.027049  -0.019990   0.015993
    14  H   -0.001299   0.005312  -0.000169   0.000257   0.000078  -0.002337
    15  H    0.022421  -0.001977   0.000986  -0.000968  -0.000817   0.030588
    16  H    0.066478   0.331525  -0.251738   0.088325  -0.048206  -0.046193
    17  Cl  -0.170907   1.216385  -3.198641   4.641834   3.680461 -22.925683
    18  Cl  -0.924893   1.100518  -1.051061   1.738073   1.094724 -17.157782
    19  Cl  -0.972762   0.239013   1.495246  -2.780487  -3.142247   6.785734
    20  Cl   0.255088  -0.531283  -1.233535   1.432412   0.304319  -1.077818
    21  Cl  -0.930583   0.393042   0.616146  -1.014869   0.133699   0.357629
    22  Cl  -0.068600  -0.112581  -0.008422  -0.016981   0.002012  -0.034630
              13         14         15         16         17         18
     1  C    0.177411   0.080863   0.107367   0.136149  -2.327479  -1.726403
     2  C    0.271858   0.109158  -0.043075   0.044945  -0.314115   0.282899
     3  C   -0.311338   0.039663  -0.062621  -0.077536  -1.628017  -1.688072
     4  C    0.086563   0.339892   0.009850  -0.014959   0.654292   1.969345
     5  C    0.041148  -0.003015   0.120974   0.030461   6.272636  16.751452
     6  C   -0.098561  -0.222399   0.275866   0.045966  -7.597671 -22.931199
     7  C    0.009112  -0.001299   0.022421   0.066478  -0.170907  -0.924893
     8  C    0.117040   0.005312  -0.001977   0.331525   1.216385   1.100518
     9  C   -0.010616  -0.000169   0.000986  -0.251738  -3.198641  -1.051061
    10  C    0.027049   0.000257  -0.000968   0.088325   4.641834   1.738073
    11  C   -0.019990   0.000078  -0.000817  -0.048206   3.680461   1.094724
    12  C    0.015993  -0.002337   0.030588  -0.046193 -22.925683 -17.157782
    13  H    0.557174  -0.000224   0.000039   0.006589   0.013524   0.017063
    14  H   -0.000224   0.520592  -0.009403   0.000002   0.001032   0.011664
    15  H    0.000039  -0.009403   0.530304  -0.000004  -0.006322  -0.110975
    16  H    0.006589   0.000002  -0.000004   0.552889   0.020934   0.013212
    17  Cl   0.013524   0.001032  -0.006322   0.020934  33.600552   7.468047
    18  Cl   0.017063   0.011664  -0.110975   0.013212   7.468047  33.367630
    19  Cl  -0.000701  -0.000010   0.000253  -0.001757  -3.543473  -1.686008
    20  Cl   0.000503   0.000001  -0.000007   0.001732   0.433168   0.092432
    21  Cl  -0.002024  -0.000002   0.000008  -0.034293  -0.109555  -0.020900
    22  Cl  -0.031894  -0.015043   0.001728   0.000302  -0.023901  -0.030161
              19         20         21         22
     1  C    0.445233  -0.119957  -0.272634  -0.628736
     2  C    0.049015  -0.073195  -0.011228   0.254849
     3  C    0.093131  -0.029355   0.106019  -0.505826
     4  C   -0.031999   0.000700   0.009457  -0.208639
     5  C   -0.541366   0.042458  -0.055635   0.021670
     6  C    0.276207  -0.005727  -0.129346   0.490738
     7  C   -0.972762   0.255088  -0.930583  -0.068600
     8  C    0.239013  -0.531283   0.393042  -0.112581
     9  C    1.495246  -1.233535   0.616146  -0.008422
    10  C   -2.780487   1.432412  -1.014869  -0.016981
    11  C   -3.142247   0.304319   0.133699   0.002012
    12  C    6.785734  -1.077818   0.357629  -0.034630
    13  H   -0.000701   0.000503  -0.002024  -0.031894
    14  H   -0.000010   0.000001  -0.000002  -0.015043
    15  H    0.000253  -0.000007   0.000008   0.001728
    16  H   -0.001757   0.001732  -0.034293   0.000302
    17  Cl  -3.543473   0.433168  -0.109555  -0.023901
    18  Cl  -1.686008   0.092432  -0.020900  -0.030161
    19  Cl  20.445565  -0.890331   0.084760   0.000168
    20  Cl  -0.890331  18.098793  -0.340504  -0.000114
    21  Cl   0.084760  -0.340504  17.666400   0.000002
    22  Cl   0.000168  -0.000114   0.000002  17.488303
 Mulliken charges:
               1
     1  C   -0.633854
     2  C   -0.627963
     3  C    1.025149
     4  C   -0.857256
     5  C   -0.884557
     6  C    0.466365
     7  C   -0.681543
     8  C   -0.685881
     9  C   -0.159852
    10  C    0.077010
    11  C   -0.716647
    12  C   -0.432106
    13  H    0.134283
    14  H    0.145388
    15  H    0.135786
    16  H    0.135180
    17  Cl   0.842900
    18  Cl   0.420394
    19  Cl   0.676817
    20  Cl   0.640221
    21  Cl   0.554412
    22  Cl   0.425755
 Sum of Mulliken charges =  -0.00000
 Mulliken charges with hydrogens summed into heavy atoms:
               1
     1  C   -0.633854
     2  C   -0.493680
     3  C    1.025149
     4  C   -0.711868
     5  C   -0.748771
     6  C    0.466365
     7  C   -0.681543
     8  C   -0.550702
     9  C   -0.159852
    10  C    0.077010
    11  C   -0.716647
    12  C   -0.432106
    17  Cl   0.842900
    18  Cl   0.420394
    19  Cl   0.676817
    20  Cl   0.640221
    21  Cl   0.554412
    22  Cl   0.425755
 Electronic spatial extent (au):  <R**2>=           8354.8460
 Charge=             -0.0000 electrons
 Dipole moment (field-independent basis, Debye):
    X=              2.3672    Y=             -3.9619    Z=              0.0000  Tot=              4.6152
 Quadrupole moment (field-independent basis, Debye-Ang):
   XX=           -156.2296   YY=           -134.9511   ZZ=           -146.2614
   XY=             -5.2971   XZ=              0.0000   YZ=             -0.0000
 Traceless Quadrupole moment (field-independent basis, Debye-Ang):
   XX=            -10.4155   YY=             10.8629   ZZ=             -0.4474
   XY=             -5.2971   XZ=              0.0000   YZ=             -0.0000
 Octapole moment (field-independent basis, Debye-Ang**2):
  XXX=             -0.6030  YYY=            -55.2341  ZZZ=             -0.0000  XYY=              3.5993
  XXY=            -38.1213  XXZ=             -0.0000  XZZ=            -12.8357  YZZ=             -8.4395
  YYZ=              0.0000  XYZ=             -0.0000
 Hexadecapole moment (field-independent basis, Debye-Ang**3):
 XXXX=          -7563.3888 YYYY=          -3112.2803 ZZZZ=           -173.2726 XXXY=           -140.2975
 XXXZ=              0.0002 YYYX=              7.2162 YYYZ=             -0.0001 ZZZX=              0.0000
 ZZZY=             -0.0001 XXYY=          -1821.0678 XXZZ=          -1338.7384 YYZZ=           -583.4689
 XXYZ=             -0.0000 YYXZ=              0.0001 ZZXY=              5.8557
 N-N= 2.113486973446D+03 E-N=-1.185591859346D+04  KE= 3.218849984108D+03
 Calling FoFJK, ICntrl=      2127 FMM=F ISym2X=0 I1Cent= 0 IOpClX= 0 NMat=1 NMatS=1 NMatT=0.
 ***** Axes restored to original set *****
 -------------------------------------------------------------------
 Center     Atomic                   Forces (Hartrees/Bohr)
 Number     Number              X              Y              Z
 -------------------------------------------------------------------
      1        6           0.003545806   -0.025703008   -0.005995430
      2        6           0.000035074    0.013731406    0.002567538
      3        6          -0.012356412   -0.000758097    0.003928616
      4        6          -0.004373264   -0.008129670   -0.000086244
      5        6           0.006652699   -0.024139525   -0.006725252
      6        6           0.099870259   -0.006547228   -0.034133004
      7        6           0.023548258    0.006289192   -0.006576973
      8        6          -0.014163166   -0.003353123    0.004036399
      9        6           0.001450078    0.004122061    0.000296385
     10        6          -0.006354784   -0.007888289    0.000612172
     11        6           0.021669798    0.010132902   -0.005236178
     12        6           0.052295397   -0.104185436   -0.036795610
     13        1           0.007003093   -0.004058914   -0.003069567
     14        1           0.005610986    0.007893881   -0.000366013
     15        1          -0.005460990    0.011111525    0.003886027
     16        1           0.006618952   -0.005272321   -0.003170938
     17       17          -1.719592131   -2.706575465    0.058237639
     18       17           1.537044202    2.829597409    0.025008563
     19       17          -0.002489077    0.002693241    0.001325848
     20       17           0.002321342    0.003601972   -0.000088364
     21       17           0.000252007    0.007479124    0.001321636
     22       17          -0.003128128   -0.000041639    0.001022750
 -------------------------------------------------------------------
 Cartesian Forces:  Max     2.829597409 RMS     0.559839742

 GradGradGradGradGradGradGradGradGradGradGradGradGradGradGradGradGradGrad
 Berny optimization.
 FormGI is forming the generalized inverse of G from B-inverse, IUseBI=4.
 Internal  Forces:  Max     3.118130375 RMS     0.292627486
 Search for a local minimum.
 Step number   1 out of a maximum of  129
 All quantities printed in internal units (Hartrees-Bohrs-Radians)
 Mixed Optimization -- RFO/linear search
 Second derivative matrix not updated -- first step.
 ITU=  0
     Eigenvalues ---    0.01035   0.01214   0.01489   0.01712   0.01738
     Eigenvalues ---    0.01829   0.02070   0.02070   0.02070   0.02070
     Eigenvalues ---    0.02070   0.02070   0.02070   0.02070   0.02070
     Eigenvalues ---    0.02070   0.02070   0.02070   0.03966   0.16000
     Eigenvalues ---    0.16000   0.16000   0.16000   0.22443   0.23501
     Eigenvalues ---    0.23548   0.24620   0.25000   0.25000   0.25000
     Eigenvalues ---    0.25000   0.25000   0.25000   0.25000   0.25000
     Eigenvalues ---    0.25000   0.28335   0.29045   0.29447   0.29539
     Eigenvalues ---    0.29539   0.29539   0.29539   0.37230   0.37230
     Eigenvalues ---    0.37230   0.37230   0.40088   0.40900   0.41437
     Eigenvalues ---    0.41634   0.44583   0.45130   0.45389   0.45389
     Eigenvalues ---    0.45389   0.45389   0.45389   0.45389  16.61567
 RFO step:  Lambda=-6.28638808D-01 EMin= 1.03510893D-02
 Linear search not attempted -- first point.
 Iteration  1 RMS(Cart)=  0.03416007 RMS(Int)=  0.00053190
 Iteration  2 RMS(Cart)=  0.00132139 RMS(Int)=  0.00023962
 Iteration  3 RMS(Cart)=  0.00000069 RMS(Int)=  0.00023962
 Variable       Old X    -DE/DX   Delta X   Delta X   Delta X     New X
                                 (Linear)    (Quad)   (Total)
    R1        2.64826   0.01760   0.00000   0.00169   0.00163   2.64989
    R2        2.64826   0.10202   0.00000   0.01681   0.01649   2.66475
    R3        2.91018   0.11795   0.00000  -0.01442  -0.01495   2.89523
    R4        2.64826  -0.01227   0.00000  -0.00905  -0.00904   2.63922
    R5        2.02201   0.00747   0.00000   0.00747   0.00747   2.02947
    R6        2.64826  -0.03056   0.00000  -0.01138  -0.01130   2.63696
    R7        3.32592  -0.00329   0.00000  -0.00356  -0.00356   3.32236
    R8        2.64826  -0.02550   0.00000  -0.00900  -0.00893   2.63933
    R9        2.02201   0.00965   0.00000   0.00964   0.00964   2.03165
   R10        2.64826  -0.00646   0.00000  -0.00826  -0.00827   2.64000
   R11        2.02201   0.01297   0.00000   0.01296   0.01296   2.03497
   R12        3.32592   0.04493   0.00000   0.11956   0.11982   3.44574
   R13        2.64826   0.01494   0.00000  -0.00090  -0.00097   2.64729
   R14        2.64826   0.10065   0.00000   0.01544   0.01508   2.66334
   R15        2.64826  -0.01347   0.00000  -0.01016  -0.01015   2.63811
   R16        2.02201   0.00716   0.00000   0.00715   0.00715   2.02916
   R17        2.64826  -0.02342   0.00000  -0.00465  -0.00456   2.64370
   R18        3.32592  -0.00659   0.00000  -0.00713  -0.00713   3.31879
   R19        2.64826  -0.01916   0.00000  -0.00299  -0.00292   2.64534
   R20        3.32592  -0.00428   0.00000  -0.00463  -0.00463   3.32128
   R21        2.64826  -0.01243   0.00000  -0.01376  -0.01377   2.63449
   R22        3.32592   0.00272   0.00000   0.00294   0.00294   3.32886
   R23        3.32592   0.06514   0.00000   0.14147   0.14169   3.46761
   R24        2.23252   3.11813   0.00000   0.18083   0.18135   2.41387
    A1        2.09440  -0.07937   0.00000  -0.00948  -0.00919   2.08520
    A2        2.09440  -0.16857   0.00000  -0.00430  -0.00363   2.09076
    A3        2.09440   0.24794   0.00000   0.01377   0.01282   2.10722
    A4        2.09440   0.04372   0.00000   0.00275   0.00258   2.09698
    A5        2.09440  -0.01744   0.00000   0.00423   0.00431   2.09871
    A6        2.09440  -0.02628   0.00000  -0.00697  -0.00689   2.08750
    A7        2.09440   0.01269   0.00000   0.00678   0.00676   2.10115
    A8        2.09440  -0.00630   0.00000  -0.00334  -0.00332   2.09107
    A9        2.09440  -0.00639   0.00000  -0.00345  -0.00343   2.09096
   A10        2.09440  -0.01142   0.00000  -0.00542  -0.00538   2.08901
   A11        2.09440   0.00478   0.00000   0.00154   0.00152   2.09591
   A12        2.09440   0.00663   0.00000   0.00388   0.00386   2.09826
   A13        2.09440   0.02220   0.00000   0.00932   0.00926   2.10366
   A14        2.09440  -0.01148   0.00000  -0.00515  -0.00512   2.08928
   A15        2.09440  -0.01072   0.00000  -0.00417  -0.00414   2.09025
   A16        2.09440   0.01217   0.00000  -0.00395  -0.00402   2.09037
   A17        2.09440   0.07138   0.00000   0.03328   0.03312   2.12752
   A18        2.09440  -0.08355   0.00000  -0.02932  -0.02910   2.06530
   A19        2.09440  -0.16995   0.00000  -0.00572  -0.00502   2.08937
   A20        2.09440   0.24645   0.00000   0.01228   0.01131   2.10570
   A21        2.09440  -0.07650   0.00000  -0.00656  -0.00629   2.08811
   A22        2.09440   0.04627   0.00000   0.00558   0.00540   2.09980
   A23        2.09440  -0.01756   0.00000   0.00427   0.00437   2.09876
   A24        2.09440  -0.02871   0.00000  -0.00986  -0.00977   2.08463
   A25        2.09440   0.00900   0.00000   0.00277   0.00274   2.09714
   A26        2.09440  -0.01080   0.00000  -0.00856  -0.00855   2.08585
   A27        2.09440   0.00181   0.00000   0.00579   0.00581   2.10020
   A28        2.09440  -0.01398   0.00000  -0.00778  -0.00775   2.08665
   A29        2.09440   0.00666   0.00000   0.00352   0.00350   2.09790
   A30        2.09440   0.00732   0.00000   0.00426   0.00424   2.09864
   A31        2.09440   0.02544   0.00000   0.01289   0.01283   2.10722
   A32        2.09440  -0.00807   0.00000  -0.00115  -0.00112   2.09327
   A33        2.09440  -0.01737   0.00000  -0.01173  -0.01171   2.08269
   A34        2.09440   0.00976   0.00000  -0.00689  -0.00694   2.08746
   A35        2.09440   0.06610   0.00000   0.02743   0.02720   2.12160
   A36        2.09440  -0.07587   0.00000  -0.02054  -0.02026   2.07413
   A37        2.09440  -0.31571   0.00000  -0.04309  -0.04196   2.05243
   A38        2.09440  -0.31617   0.00000  -0.04367  -0.04249   2.05190
    D1        0.00000   0.00000   0.00000   0.00000   0.00000   0.00000
    D2        3.14159   0.00000   0.00000   0.00000   0.00000   3.14159
    D3       -3.14159   0.00000   0.00000   0.00000   0.00000  -3.14159
    D4       -0.00000   0.00000   0.00000   0.00000   0.00000  -0.00000
    D5       -0.00000  -0.00000   0.00000  -0.00000  -0.00000  -0.00000
    D6        3.14159  -0.00000   0.00000   0.00000   0.00000   3.14159
    D7        3.14159  -0.00000   0.00000  -0.00000  -0.00000   3.14159
    D8        0.00000  -0.00000   0.00000   0.00000   0.00000   0.00000
    D9       -0.00000  -0.00000   0.00000  -0.00000  -0.00000  -0.00000
   D10        3.14159  -0.00000   0.00000  -0.00000  -0.00000   3.14159
   D11        3.14159  -0.00000   0.00000  -0.00000  -0.00000   3.14159
   D12       -0.00000  -0.00000   0.00000  -0.00000  -0.00000  -0.00000
   D13        0.00000  -0.00000   0.00000   0.00000   0.00000   0.00000
   D14        3.14159  -0.00000   0.00000   0.00000   0.00000   3.14159
   D15       -3.14159   0.00000   0.00000  -0.00000  -0.00000  -3.14159
   D16        0.00000   0.00000   0.00000  -0.00000  -0.00000   0.00000
   D17       -0.00000  -0.00000   0.00000   0.00000   0.00000  -0.00000
   D18        3.14159   0.00000   0.00000  -0.00000  -0.00000   3.14159
   D19        3.14159  -0.00000   0.00000   0.00000   0.00000   3.14159
   D20        0.00000   0.00000   0.00000  -0.00000  -0.00000   0.00000
   D21        0.00000   0.00000   0.00000  -0.00000  -0.00000   0.00000
   D22       -3.14159   0.00000   0.00000  -0.00000  -0.00000  -3.14159
   D23       -3.14159  -0.00000   0.00000  -0.00000  -0.00000  -3.14159
   D24        0.00000   0.00000   0.00000  -0.00000  -0.00000   0.00000
   D25       -0.00000   0.00000   0.00000   0.00000   0.00000  -0.00000
   D26        3.14159   0.00000   0.00000   0.00000   0.00000   3.14159
   D27        3.14159  -0.00000   0.00000   0.00000   0.00000   3.14159
   D28       -0.00000   0.00000   0.00000  -0.00000  -0.00000  -0.00000
   D29        0.00001  -0.00000   0.00000  -0.00000  -0.00000   0.00001
   D30       -3.14158  -0.00000   0.00000  -0.00000  -0.00000  -3.14158
   D31        3.14159   0.00000   0.00000   0.00000   0.00000   3.14159
   D32        0.00000   0.00000   0.00000   0.00000   0.00000   0.00000
   D33        0.00000   0.00000   0.00000   0.00000   0.00000   0.00000
   D34       -3.14159   0.00000   0.00000  -0.00000  -0.00000  -3.14159
   D35       -3.14159  -0.00000   0.00000  -0.00000  -0.00000  -3.14159
   D36        0.00000  -0.00000   0.00000   0.00000   0.00000   0.00000
   D37       -0.00000  -0.00000   0.00000  -0.00000  -0.00000  -0.00000
   D38        3.14159  -0.00000   0.00000   0.00000   0.00000   3.14159
   D39       -0.00000  -0.00000   0.00000  -0.00000  -0.00000  -0.00000
   D40        3.14159  -0.00000   0.00000  -0.00000  -0.00000   3.14159
   D41        3.14159   0.00000   0.00000   0.00000   0.00000   3.14159
   D42       -0.00000   0.00000   0.00000   0.00000   0.00000  -0.00000
   D43       -0.00000  -0.00000   0.00000  -0.00000  -0.00000  -0.00000
   D44       -3.14159  -0.00000   0.00000  -0.00000  -0.00000  -3.14159
   D45        3.14159  -0.00000   0.00000   0.00000   0.00000   3.14159
   D46        0.00000   0.00000   0.00000  -0.00000  -0.00000   0.00000
   D47        0.00000   0.00000   0.00000  -0.00000  -0.00000   0.00000
   D48       -3.14159   0.00000   0.00000  -0.00000  -0.00000  -3.14159
   D49        3.14159  -0.00000   0.00000   0.00000   0.00000   3.14159
   D50        0.00000   0.00000   0.00000   0.00000   0.00000   0.00000
   D51        0.00000   0.00000   0.00000   0.00000   0.00000   0.00000
   D52       -3.14159   0.00000   0.00000  -0.00000  -0.00000  -3.14159
   D53        3.14159   0.00000   0.00000   0.00000   0.00000   3.14159
   D54       -0.00000   0.00000   0.00000  -0.00000  -0.00000  -0.00000
   D55        0.00001  -0.00000   0.00000  -0.00000  -0.00000   0.00001
   D56       -3.14158  -0.00000   0.00000  -0.00000  -0.00000  -3.14158
   D57       -0.00001   0.00000   0.00000   0.00000   0.00000  -0.00001
         Item               Value     Threshold  Converged?
 Maximum Force            3.118130     0.000450     NO 
 RMS     Force            0.292627     0.000300     NO 
 Maximum Displacement     0.198663     0.001800     NO 
 RMS     Displacement     0.033378     0.001200     NO 
 Predicted change in Energy=-3.369597D-01
 GradGradGradGradGradGradGradGradGradGradGradGradGradGradGradGradGradGrad

                          Input orientation:                          
 ---------------------------------------------------------------------
 Center     Atomic      Atomic             Coordinates (Angstroms)
 Number     Number       Type             X           Y           Z
 ---------------------------------------------------------------------
      1          6           0       -0.433714   -0.280320   -0.000449
      2          6           0        0.899269   -0.256298   -0.435095
      3          6           0        1.612434    0.944468   -0.444535
      4          6           0        1.006624    2.128581   -0.022560
      5          6           0       -0.320825    2.110094    0.411300
      6          6           0       -1.046086    0.916168    0.426010
      7          6           0       -1.208401   -1.602104    0.006533
      8          6           0       -0.578978   -2.778084   -0.421695
      9          6           0       -1.273103   -3.989316   -0.420491
     10          6           0       -2.603686   -4.036405    0.009036
     11          6           0       -3.233110   -2.861577    0.437048
     12          6           0       -2.548807   -1.646971    0.439714
     13          1           0        1.377885   -1.160221   -0.762541
     14          1           0        1.560126    3.050205   -0.031824
     15          1           0       -0.788578    3.023742    0.736994
     16          1           0        0.441925   -2.755157   -0.753731
     17         17           0       -3.424330   -0.139049    1.011366
     18         17           0       -2.774893    0.960880    1.003971
     19         17           0       -4.908237   -2.909393    0.979956
     20         17           0       -3.478646   -5.560680    0.011028
     21         17           0       -0.463561   -5.450851   -0.961690
     22         17           0        3.283262    0.964364   -0.991260
 ---------------------------------------------------------------------
                    Distance matrix (angstroms):
                    1          2          3          4          5
     1  C    0.000000
     2  C    1.402262   0.000000
     3  C    2.425704   1.396615   0.000000
     4  C    2.806754   2.422676   1.395418   0.000000
     5  C    2.428243   2.793712   2.414256   1.396674   0.000000
     6  C    1.410125   2.429113   2.797567   2.425856   1.397025
     7  C    1.532091   2.539391   3.826958   4.338801   3.838235
     8  C    2.537198   2.923148   4.319745   5.171924   4.965361
     9  C    3.825919   4.319124   5.715691   6.540961   6.229087
    10  C    4.337861   5.172732   6.541444   7.144395   6.569073
    11  C    3.832872   4.962325   6.224345   6.564165   5.761908
    12  C    2.556383   3.819488   4.981303   5.206686   4.368095
    13  H    2.153346   1.073951   2.141461   3.391405   3.867620
    14  H    3.881853   3.395928   2.146438   1.075101   2.148987
    15  H    3.403907   3.870567   3.388843   2.144991   1.076857
    16  H    2.731116   2.560271   3.892675   4.970351   5.060609
    17  Cl   3.160303   4.560648   5.353752   5.083749   3.879494
    18  Cl   2.833824   4.129395   4.620291   4.088663   2.773879
    19  Cl   5.281531   6.539756   7.707176   7.834015   6.823706
    20  Cl   6.095404   6.892143   8.273064   8.901883   8.304989
    21  Cl   5.259207   5.396108   6.743686   7.777608   7.685920
    22  Cl   4.043125   2.735463   1.758115   2.734385   4.033524
                    6          7          8          9         10
     6  C    0.000000
     7  C    2.558125   0.000000
     8  C    3.818939   1.400886   0.000000
     9  C    4.983159   2.425967   1.396028   0.000000
    10  C    5.208451   2.805823   2.422467   1.398986   0.000000
    11  C    4.365152   2.423027   2.790848   2.418429   1.399854
    12  C    2.971202   1.409378   2.429335   2.802491   2.428557
    13  H    3.405831   2.734157   2.561829   3.892109   4.971989
    14  H    3.399422   5.413890   6.220669   7.598231   8.219431
    15  H    2.145901   4.701945   5.920108   7.124431   7.325996
    16  H    4.133352   2.152002   1.073786   2.139046   3.391041
    17  Cl   2.666865   2.839113   4.136932   4.637085   4.107007
    18  Cl   1.823407   3.165070   4.564474   5.365529   5.098241
    19  Cl   5.464246   4.042937   4.552401   4.042485   2.742954
    20  Cl   6.931026   4.563371   4.042050   2.742228   1.757548
    21  Cl   6.542475   4.037956   2.729212   1.756228   2.742827
    22  Cl   4.555681   5.268528   5.408070   6.754642   7.788738
                   11         12         13         14         15
    11  C    0.000000
    12  C    1.394111   0.000000
    13  H    5.059140   4.135366   0.000000
    14  H    7.625229   6.258526   4.277248   0.000000
    15  H    6.379866   5.000234   4.944463   2.471476   0.000000
    16  H    3.864604   3.405417   1.849302   5.955985   6.093610
    17  Cl   2.789008   1.834982   5.220231   6.008693   4.126223
    18  Cl   3.891341   2.677758   4.986502   4.922453   2.876130
    19  Cl   1.761557   2.729923   6.753608   8.853261   7.227220
    20  Cl   2.743527   4.045429   6.599117   9.976894   9.025287
    21  Cl   4.041190   4.558693   4.673337   8.787941   8.649271
    22  Cl   7.690318   6.548266   2.862977   2.870618   4.879322
                   16         17         18         19         20
    16  H    0.000000
    17  Cl   4.990744   0.000000
    18  Cl   5.219806   1.277367   0.000000
    19  Cl   5.626161   3.142892   4.419360   0.000000
    20  Cl   4.881260   5.513413   6.634151   3.164155   0.000000
    21  Cl   2.851300   6.393305   7.093403   5.475778   3.170013
    22  Cl   4.686625   7.086595   6.378260   9.273205   9.450089
                   21         22
    21  Cl   0.000000
    22  Cl   7.429302   0.000000
 Stoichiometry    C12H4Cl6
 Framework group  C1[X(C12H4Cl6)]
 Deg. of freedom    60
 Full point group                 C1      NOp   1
 Largest Abelian subgroup         C1      NOp   1
 Largest concise Abelian subgroup C1      NOp   1
                         Standard orientation:                         
 ---------------------------------------------------------------------
 Center     Atomic      Atomic             Coordinates (Angstroms)
 Number     Number       Type             X           Y           Z
 ---------------------------------------------------------------------
      1          6           0        1.605079    0.009595    0.000002
      2          6           0        2.476507    1.108208   -0.000000
      3          6           0        3.858586    0.907230   -0.000002
      4          6           0        4.383880   -0.385541   -0.000002
      5          6           0        3.520261   -1.483202    0.000002
      6          6           0        2.135716   -1.296880    0.000004
      7          6           0        0.090334    0.239485    0.000003
      8          6           0       -0.413581    1.546600    0.000003
      9          6           0       -1.791546    1.770447    0.000003
     10          6           0       -2.679222    0.689155    0.000001
     11          6           0       -2.176196   -0.617197    0.000000
     12          6           0       -0.801914   -0.851496    0.000001
     13          1           0        2.085847    2.108586   -0.000002
     14          1           0        5.448587   -0.534676   -0.000004
     15          1           0        3.925369   -2.480954    0.000004
     16          1           0        0.257319    2.384998    0.000002
     17         17           0       -0.199547   -2.584791   -0.000003
     18         17           0        1.064012   -2.772096    0.000007
     19         17           0       -3.284889   -1.986095   -0.000006
     20         17           0       -4.414243    0.969651   -0.000002
     21         17           0       -2.400367    3.417770    0.000004
     22         17           0        4.943003    2.291069   -0.000005
 ---------------------------------------------------------------------
 Rotational constants (GHZ):           0.3507675           0.1623215           0.1109693
 Standard basis: 6-311+G(d,p) (5D, 7F)
 There are   486 symmetry adapted cartesian basis functions of A   symmetry.
 There are   468 symmetry adapted basis functions of A   symmetry.
   468 basis functions,   782 primitive gaussians,   486 cartesian basis functions
    89 alpha electrons       89 beta electrons
       nuclear repulsion energy      2092.9229994020 Hartrees.
 NAtoms=   22 NActive=   22 NUniq=   22 SFac= 1.00D+00 NAtFMM=   60 NAOKFM=F Big=F
 Integral buffers will be    131072 words long.
 Raffenetti 2 integral format.
 Two-electron integral symmetry is turned on.
 One-electron integrals computed using PRISM.
 NBasis=   468 RedAO= T EigKep=  1.04D-06  NBF=   468
 NBsUse=   462 1.00D-06 EigRej=  6.15D-07 NBFU=   462
 Initial guess from the checkpoint file:  "/scratch/gour/Gau-78375.chk"
 B after Tr=    -0.000000   -0.000000    0.000000
         Rot=    1.000000   -0.000000   -0.000000    0.000457 Ang=  -0.05 deg.
 ExpMin= 4.38D-02 ExpMax= 1.06D+05 ExpMxC= 3.62D+03 IAcc=3 IRadAn=         5 AccDes= 0.00D+00
 Harris functional with IExCor=  402 and IRadAn=       5 diagonalized for initial guess.
 HarFok:  IExCor=  402 AccDes= 0.00D+00 IRadAn=         5 IDoV= 1 UseB2=F ITyADJ=14
 ICtDFT=  3500011 ScaDFX=  1.000000  1.000000  1.000000  1.000000
 FoFCou: FMM=F IPFlag=           0 FMFlag=      100000 FMFlg1=           0
         NFxFlg=           0 DoJE=T BraDBF=F KetDBF=T FulRan=T
         wScrn=  0.000000 ICntrl=       500 IOpCl=  0 I1Cent=   200000004 NGrid=           0
         NMat0=    1 NMatS0=      1 NMatT0=    0 NMatD0=    1 NMtDS0=    0 NMtDT0=    0
 Petite list used in FoFCou.
 Requested convergence on RMS density matrix=1.00D-08 within  32 cycles.
 Requested convergence on MAX density matrix=1.00D-06.
 Requested convergence on             energy=1.00D-06.
 No special actions if energy rises.
 SCF Done:  E(RB3LYP) =  -3220.02465914     A.U. after   16 cycles
            NFock= 16  Conv=0.87D-08     -V/T= 2.0009
 QCSCF skips out because SCF is already converged.
 Calling FoFJK, ICntrl=      2127 FMM=F ISym2X=0 I1Cent= 0 IOpClX= 0 NMat=1 NMatS=1 NMatT=0.
 ***** Axes restored to original set *****
 -------------------------------------------------------------------
 Center     Atomic                   Forces (Hartrees/Bohr)
 Number     Number              X              Y              Z
 -------------------------------------------------------------------
      1        6          -0.000901474   -0.020923399   -0.003632631
      2        6           0.000436605    0.009697523    0.001677621
      3        6          -0.008676556   -0.001454203    0.002585531
      4        6          -0.000936739   -0.002315657   -0.000126494
      5        6          -0.000652274   -0.017256088   -0.003025847
      6        6           0.082370983   -0.017777625   -0.030476773
      7        6           0.016986236    0.008462054   -0.004006934
      8        6          -0.009295453   -0.001952428    0.002695789
      9        6           0.001124330    0.002592462    0.000116427
     10        6          -0.006290127   -0.008288986    0.000515618
     11        6           0.018574569    0.011014253   -0.004050888
     12        6           0.054735606   -0.081919235   -0.033417937
     13        1           0.005202616   -0.001825637   -0.002056956
     14        1           0.003595602    0.004735365   -0.000295237
     15        1          -0.003235934    0.007547045    0.002483540
     16        1           0.004008588   -0.004757822   -0.002214321
     17       17          -1.110882783   -1.683924048    0.049747722
     18       17           0.957587926    1.788899434    0.020471577
     19       17          -0.004380347    0.001667062    0.001756207
     20       17           0.001933207    0.002734833   -0.000123342
     21       17           0.000168027    0.005072257    0.000897275
     22       17          -0.001472607   -0.000027158    0.000480054
 -------------------------------------------------------------------
 Cartesian Forces:  Max     1.788899434 RMS     0.352712774

 GradGradGradGradGradGradGradGradGradGradGradGradGradGradGradGradGradGrad
 Berny optimization.
 Using GEDIIS/GDIIS optimizer.
 FormGI is forming the generalized inverse of G from B-inverse, IUseBI=4.
 Internal  Forces:  Max     1.970305584 RMS     0.184906117
 Search for a local minimum.
 Step number   2 out of a maximum of  129
 All quantities printed in internal units (Hartrees-Bohrs-Radians)
 Mixed Optimization -- RFO/linear search
 Update second derivatives using D2CorX and points    1    2
 DE= -5.10D-01 DEPred=-3.37D-01 R= 1.51D+00
 TightC=F SS=  1.41D+00  RLast= 2.78D-01 DXNew= 5.0454D-01 8.3429D-01
 Trust test= 1.51D+00 RLast= 2.78D-01 DXMaxT set to 5.05D-01
 ITU=  1  0
 Use linear search instead of GDIIS.
 Linear search step of   0.556 exceeds DXMaxT=   0.505 but not scaled.
 Quartic linear search produced a step of  2.00000.
 Iteration  1 RMS(Cart)=  0.04217719 RMS(Int)=  0.01675527
 Iteration  2 RMS(Cart)=  0.02438493 RMS(Int)=  0.00132769
 Iteration  3 RMS(Cart)=  0.00025398 RMS(Int)=  0.00132016
 Iteration  4 RMS(Cart)=  0.00000020 RMS(Int)=  0.00132016
 Variable       Old X    -DE/DX   Delta X   Delta X   Delta X     New X
                                 (Linear)    (Quad)   (Total)
    R1        2.64989   0.01226   0.00326   0.00000   0.00291   2.65280
    R2        2.66475   0.06046   0.03297   0.00000   0.03120   2.69595
    R3        2.89523   0.06143  -0.02989   0.00000  -0.03260   2.86264
    R4        2.63922  -0.00805  -0.01809   0.00000  -0.01800   2.62122
    R5        2.02947   0.00448   0.01493   0.00000   0.01493   2.04440
    R6        2.63696  -0.01881  -0.02261   0.00000  -0.02217   2.61479
    R7        3.32236  -0.00155  -0.00712   0.00000  -0.00712   3.31523
    R8        2.63933  -0.01463  -0.01786   0.00000  -0.01751   2.62182
    R9        2.03165   0.00591   0.01928   0.00000   0.01928   2.05093
   R10        2.64000  -0.00551  -0.01653   0.00000  -0.01660   2.62339
   R11        2.03497   0.00856   0.02592   0.00000   0.02592   2.06088
   R12        3.44574   0.05479   0.23964   0.00000   0.24078   3.68652
   R13        2.64729   0.01050  -0.00194   0.00000  -0.00235   2.64494
   R14        2.66334   0.05948   0.03015   0.00000   0.02816   2.69150
   R15        2.63811  -0.00843  -0.02030   0.00000  -0.02023   2.61788
   R16        2.02916   0.00439   0.01431   0.00000   0.01431   2.04347
   R17        2.64370  -0.01472  -0.00912   0.00000  -0.00864   2.63506
   R18        3.31879  -0.00442  -0.01425   0.00000  -0.01425   3.30454
   R19        2.64534  -0.01097  -0.00584   0.00000  -0.00544   2.63990
   R20        3.32128  -0.00333  -0.00927   0.00000  -0.00927   3.31202
   R21        2.63449  -0.01002  -0.02755   0.00000  -0.02761   2.60688
   R22        3.32886   0.00466   0.00589   0.00000   0.00589   3.33475
   R23        3.46761   0.07389   0.28339   0.00000   0.28438   3.75199
   R24        2.41387   1.97031   0.36270   0.00000   0.36541   2.77928
    A1        2.08520  -0.04856  -0.01839   0.00000  -0.01689   2.06832
    A2        2.09076  -0.09930  -0.00726   0.00000  -0.00361   2.08716
    A3        2.10722   0.14786   0.02565   0.00000   0.02049   2.12771
    A4        2.09698   0.02709   0.00516   0.00000   0.00426   2.10124
    A5        2.09871  -0.00968   0.00862   0.00000   0.00907   2.10778
    A6        2.08750  -0.01741  -0.01379   0.00000  -0.01333   2.07417
    A7        2.10115   0.00791   0.01352   0.00000   0.01341   2.11456
    A8        2.09107  -0.00397  -0.00665   0.00000  -0.00660   2.08447
    A9        2.09096  -0.00394  -0.00687   0.00000  -0.00681   2.08415
   A10        2.08901  -0.00875  -0.01077   0.00000  -0.01059   2.07842
   A11        2.09591   0.00368   0.00304   0.00000   0.00295   2.09886
   A12        2.09826   0.00508   0.00773   0.00000   0.00764   2.10590
   A13        2.10366   0.01539   0.01852   0.00000   0.01818   2.12183
   A14        2.08928  -0.00827  -0.01023   0.00000  -0.01006   2.07922
   A15        2.09025  -0.00711  -0.00829   0.00000  -0.00812   2.08214
   A16        2.09037   0.00693  -0.00805   0.00000  -0.00837   2.08200
   A17        2.12752   0.05610   0.06624   0.00000   0.06516   2.19268
   A18        2.06530  -0.06303  -0.05819   0.00000  -0.05679   2.00851
   A19        2.08937  -0.10044  -0.01004   0.00000  -0.00621   2.08317
   A20        2.10570   0.14676   0.02262   0.00000   0.01732   2.12303
   A21        2.08811  -0.04632  -0.01257   0.00000  -0.01112   2.07699
   A22        2.09980   0.02863   0.01080   0.00000   0.00979   2.10958
   A23        2.09876  -0.00932   0.00873   0.00000   0.00924   2.10800
   A24        2.08463  -0.01932  -0.01953   0.00000  -0.01903   2.06560
   A25        2.09714   0.00532   0.00548   0.00000   0.00536   2.10250
   A26        2.08585  -0.00706  -0.01709   0.00000  -0.01703   2.06882
   A27        2.10020   0.00174   0.01161   0.00000   0.01167   2.11187
   A28        2.08665  -0.01073  -0.01549   0.00000  -0.01526   2.07139
   A29        2.09790   0.00481   0.00700   0.00000   0.00689   2.10478
   A30        2.09864   0.00593   0.00849   0.00000   0.00837   2.10701
   A31        2.10722   0.01881   0.02566   0.00000   0.02532   2.13254
   A32        2.09327  -0.00637  -0.00225   0.00000  -0.00208   2.09120
   A33        2.08269  -0.01244  -0.02341   0.00000  -0.02324   2.05945
   A34        2.08746   0.00429  -0.01388   0.00000  -0.01409   2.07337
   A35        2.12160   0.05150   0.05440   0.00000   0.05297   2.17457
   A36        2.07413  -0.05579  -0.04053   0.00000  -0.03888   2.03525
   A37        2.05243  -0.20187  -0.08393   0.00000  -0.07756   1.97487
   A38        2.05190  -0.20035  -0.08498   0.00000  -0.07839   1.97351
    D1        0.00000   0.00000   0.00000   0.00000   0.00000   0.00000
    D2        3.14159   0.00000   0.00000   0.00000   0.00000   3.14159
    D3       -3.14159   0.00000   0.00000   0.00000   0.00000  -3.14159
    D4       -0.00000   0.00000   0.00000   0.00000   0.00000  -0.00000
    D5       -0.00000  -0.00000  -0.00000   0.00000  -0.00000  -0.00000
    D6        3.14159  -0.00000   0.00000   0.00000   0.00000   3.14159
    D7        3.14159  -0.00000  -0.00000   0.00000  -0.00000   3.14159
    D8        0.00000  -0.00000   0.00000   0.00000   0.00000   0.00000
    D9       -0.00000  -0.00000  -0.00000   0.00000  -0.00000  -0.00000
   D10        3.14159  -0.00000  -0.00000   0.00000  -0.00000   3.14159
   D11        3.14159  -0.00000  -0.00000   0.00000  -0.00000   3.14159
   D12       -0.00000  -0.00000  -0.00000   0.00000  -0.00000  -0.00000
   D13        0.00000  -0.00000   0.00000   0.00000   0.00000   0.00000
   D14        3.14159  -0.00000   0.00000   0.00000   0.00000   3.14159
   D15       -3.14159   0.00000  -0.00000   0.00000  -0.00000  -3.14159
   D16        0.00000   0.00000  -0.00000   0.00000  -0.00000   0.00000
   D17       -0.00000  -0.00000   0.00000   0.00000   0.00000  -0.00000
   D18        3.14159   0.00000  -0.00000   0.00000  -0.00000   3.14159
   D19        3.14159  -0.00000   0.00000   0.00000   0.00000   3.14159
   D20        0.00000   0.00000  -0.00000   0.00000  -0.00000   0.00000
   D21        0.00000   0.00000  -0.00000   0.00000  -0.00000   0.00000
   D22       -3.14159   0.00000  -0.00000   0.00000  -0.00000  -3.14159
   D23       -3.14159  -0.00000  -0.00000   0.00000  -0.00000  -3.14159
   D24        0.00000   0.00000  -0.00000   0.00000  -0.00000   0.00000
   D25       -0.00000   0.00000   0.00000   0.00000   0.00000  -0.00000
   D26        3.14159   0.00000   0.00000   0.00000   0.00000   3.14159
   D27        3.14159  -0.00000   0.00000   0.00000   0.00000   3.14159
   D28       -0.00000   0.00000  -0.00000   0.00000  -0.00000  -0.00000
   D29        0.00001  -0.00000  -0.00000   0.00000  -0.00000   0.00001
   D30       -3.14158  -0.00000  -0.00000   0.00000  -0.00000  -3.14158
   D31        3.14159   0.00000   0.00000   0.00000   0.00000   3.14159
   D32        0.00000   0.00000   0.00000   0.00000   0.00000   0.00000
   D33        0.00000   0.00000   0.00000   0.00000   0.00000   0.00000
   D34       -3.14159   0.00000  -0.00000   0.00000  -0.00000  -3.14159
   D35       -3.14159  -0.00000  -0.00000   0.00000  -0.00000  -3.14159
   D36        0.00000  -0.00000   0.00000   0.00000   0.00000   0.00000
   D37       -0.00000  -0.00000  -0.00000   0.00000  -0.00000  -0.00000
   D38        3.14159  -0.00000   0.00000   0.00000   0.00000   3.14159
   D39       -0.00000  -0.00000  -0.00000   0.00000   0.00000  -0.00000
   D40        3.14159  -0.00000  -0.00000   0.00000  -0.00000   3.14159
   D41        3.14159   0.00000   0.00000   0.00000   0.00000   3.14159
   D42       -0.00000   0.00000   0.00000   0.00000   0.00000  -0.00000
   D43       -0.00000  -0.00000  -0.00000   0.00000  -0.00000  -0.00000
   D44       -3.14159  -0.00000  -0.00000   0.00000  -0.00000  -3.14159
   D45        3.14159  -0.00000   0.00000   0.00000   0.00000   3.14159
   D46        0.00000   0.00000  -0.00000   0.00000  -0.00000   0.00000
   D47        0.00000   0.00000  -0.00000   0.00000  -0.00000   0.00000
   D48       -3.14159   0.00000  -0.00000   0.00000  -0.00000  -3.14159
   D49        3.14159  -0.00000   0.00000   0.00000   0.00000   3.14159
   D50        0.00000   0.00000   0.00000   0.00000   0.00000   0.00000
   D51        0.00000   0.00000   0.00000   0.00000   0.00000   0.00000
   D52       -3.14159   0.00000  -0.00000   0.00000  -0.00000  -3.14159
   D53        3.14159   0.00000   0.00000   0.00000   0.00000   3.14159
   D54       -0.00000   0.00000  -0.00000   0.00000  -0.00000  -0.00000
   D55        0.00001  -0.00000  -0.00000   0.00000  -0.00000   0.00001
   D56       -3.14158  -0.00000  -0.00000   0.00000  -0.00000  -3.14158
[...]
                 (A) (A) (A) (A) (A) (A) (A) (A) (A) (A) (A) (A)
                 (A) (A) (A) (A) (A) (A) (A) (A) (A) (A) (A) (A)
                 (A) (A) (A) (A) (A) (A) (A) (A) (A) (A) (A) (A)
                 (A) (A) (A) (A) (A) (A) (A) (A) (A) (A) (A) (A)
                 (A) (A) (A) (A) (A) (A) (A) (A) (A) (A) (A) (A)
                 (A) (A) (A) (A) (A) (A) (A) (A) (A) (A) (A) (A)
                 (A) (A) (A) (A) (A) (A) (A) (A) (A) (A) (A) (A)
                 (A) (A) (A) (A) (A) (A) (A) (A) (A) (A) (A) (A)
                 (A) (A) (A) (A) (A) (A) (A) (A) (A) (A) (A) (A)
                 (A) (A) (A) (A) (A) (A) (A) (A) (A) (A) (A) (A)
                 (A) (A) (A) (A) (A) (A) (A) (A) (A) (A) (A) (A)
                 (A) (A) (A) (A) (A) (A) (A) (A) (A) (A) (A) (A)
                 (A) (A) (A) (A) (A) (A) (A) (A) (A) (A) (A) (A)
                 (A) (A) (A) (A) (A) (A) (A) (A) (A) (A) (A) (A)
                 (A) (A) (A) (A) (A) (A) (A) (A) (A) (A) (A) (A)
                 (A) (A) (A) (A) (A) (A) (A) (A) (A) (A) (A) (A)
                 (A) (A) (A) (A) (A) (A) (A) (A) (A) (A) (A) (A)
                 (A) (A) (A) (A) (A) (A) (A) (A) (A) (A) (A) (A)
                 (A) (A) (A) (A) (A) (A) (A) (A) (A) (A) (A) (A)
                 (A) (A) (A) (A) (A) (A) (A) (A) (A) (A) (A) (A)
                 (A) (A) (A) (A) (A) (A) (A) (A) (A) (A) (A) (A)
                 (A) (A) (A) (A) (A) (A) (A) (A) (A) (A) (A) (A)
                 (A) (A) (A) (A) (A) (A) (A) (A) (A) (A) (A) (A)
                 (A) (A) (A) (A) (A) (A) (A) (A) (A) (A) (A) (A)
                 (A) (A) (A) (A) (A) (A) (A) (A) (A) (A) (A) (A)
                 (A) (A) (A) (A) (A) (A) (A) (A) (A) (A) (A) (A)
                 (A) (A) (A) (A) (A) (A) (A) (A) (A) (A) (A) (A)
                 (A) (A)
 The electronic state is 1-A.
 Alpha  occ. eigenvalues -- -101.58013-101.57963-101.57847-101.57736-101.57179
 Alpha  occ. eigenvalues -- -101.57136 -10.28221 -10.28142 -10.27707 -10.27535
 Alpha  occ. eigenvalues --  -10.26498 -10.26289 -10.23676 -10.23254 -10.22213
 Alpha  occ. eigenvalues --  -10.21706 -10.21601 -10.21535  -9.49477  -9.49430
 Alpha  occ. eigenvalues --   -9.49303  -9.49210  -9.48648  -9.48590  -7.25981
 Alpha  occ. eigenvalues --   -7.25934  -7.25794  -7.25700  -7.25115  -7.25058
 Alpha  occ. eigenvalues --   -7.24958  -7.24911  -7.24872  -7.24824  -7.24780
 Alpha  occ. eigenvalues --   -7.24721  -7.24691  -7.24619  -7.24129  -7.24087
 Alpha  occ. eigenvalues --   -7.24069  -7.24035  -0.96290  -0.93278  -0.91579
 Alpha  occ. eigenvalues --   -0.89987  -0.89287  -0.86865  -0.85469  -0.84207
 Alpha  occ. eigenvalues --   -0.80663  -0.76450  -0.75169  -0.74013  -0.67112
 Alpha  occ. eigenvalues --   -0.64315  -0.63775  -0.60916  -0.55039  -0.54700
 Alpha  occ. eigenvalues --   -0.53034  -0.52058  -0.49951  -0.48394  -0.47011
 Alpha  occ. eigenvalues --   -0.46855  -0.46116  -0.45936  -0.43806  -0.43596
 Alpha  occ. eigenvalues --   -0.42067  -0.40659  -0.40248  -0.40092  -0.38562
 Alpha  occ. eigenvalues --   -0.37945  -0.35696  -0.35523  -0.35161  -0.34032
 Alpha  occ. eigenvalues --   -0.33558  -0.33520  -0.33323  -0.33231  -0.31859
 Alpha  occ. eigenvalues --   -0.29447  -0.27792  -0.26825  -0.26442
 Alpha virt. eigenvalues --   -0.06363  -0.06106  -0.05196  -0.04909  -0.04589
 Alpha virt. eigenvalues --   -0.01299  -0.00586  -0.00182   0.00306   0.00935
 Alpha virt. eigenvalues --    0.01948   0.02035   0.02256   0.02552   0.03530
 Alpha virt. eigenvalues --    0.03842   0.04622   0.05223   0.05300   0.05700
 Alpha virt. eigenvalues --    0.06175   0.06445   0.07430   0.07725   0.07850
 Alpha virt. eigenvalues --    0.08298   0.08732   0.09007   0.09097   0.09689
 Alpha virt. eigenvalues --    0.09875   0.10377   0.10691   0.10767   0.11614
 Alpha virt. eigenvalues --    0.11911   0.11970   0.12196   0.12472   0.13081
 Alpha virt. eigenvalues --    0.13383   0.13796   0.13971   0.14282   0.14586
 Alpha virt. eigenvalues --    0.15492   0.15741   0.16196   0.16345   0.16663
 Alpha virt. eigenvalues --    0.17178   0.17673   0.18099   0.18452   0.18710
 Alpha virt. eigenvalues --    0.18925   0.19288   0.19452   0.19964   0.20134
 Alpha virt. eigenvalues --    0.20535   0.20947   0.21134   0.21272   0.22206
 Alpha virt. eigenvalues --    0.22544   0.22952   0.23489   0.23678   0.24375
 Alpha virt. eigenvalues --    0.24605   0.24857   0.25178   0.25779   0.26282
 Alpha virt. eigenvalues --    0.26601   0.26870   0.27104   0.27669   0.27866
 Alpha virt. eigenvalues --    0.28140   0.28376   0.28777   0.29229   0.30249
 Alpha virt. eigenvalues --    0.30479   0.30631   0.31506   0.32294   0.32564
 Alpha virt. eigenvalues --    0.33374   0.35618   0.39977   0.41461   0.42313
 Alpha virt. eigenvalues --    0.42629   0.43381   0.43718   0.44359   0.44684
 Alpha virt. eigenvalues --    0.45086   0.45427   0.45837   0.46237   0.46808
 Alpha virt. eigenvalues --    0.47846   0.48154   0.48535   0.49397   0.49671
 Alpha virt. eigenvalues --    0.50232   0.50973   0.51423   0.52772   0.53805
 Alpha virt. eigenvalues --    0.54426   0.55804   0.56209   0.57075   0.57438
 Alpha virt. eigenvalues --    0.57805   0.58406   0.59418   0.60048   0.60506
 Alpha virt. eigenvalues --    0.61057   0.61252   0.62941   0.63309   0.63613
 Alpha virt. eigenvalues --    0.64101   0.65086   0.65578   0.66347   0.66817
 Alpha virt. eigenvalues --    0.67381   0.67853   0.68408   0.69216   0.69843
 Alpha virt. eigenvalues --    0.70345   0.72030   0.74572   0.75951   0.78355
 Alpha virt. eigenvalues --    0.78851   0.80939   0.81560   0.82514   0.83220
 Alpha virt. eigenvalues --    0.83303   0.83497   0.83817   0.84118   0.84250
 Alpha virt. eigenvalues --    0.84354   0.84838   0.85221   0.85361   0.85503
 Alpha virt. eigenvalues --    0.85823   0.86307   0.87183   0.88005   0.88319
 Alpha virt. eigenvalues --    0.89002   0.89681   0.90493   0.90764   0.91413
 Alpha virt. eigenvalues --    0.92362   0.92670   0.93601   0.93925   0.94518
 Alpha virt. eigenvalues --    0.94578   0.95021   0.95579   0.95971   0.97086
 Alpha virt. eigenvalues --    0.98481   0.98713   0.99280   0.99591   1.01603
 Alpha virt. eigenvalues --    1.02323   1.03449   1.04108   1.04852   1.05824
 Alpha virt. eigenvalues --    1.09644   1.12105   1.13645   1.15381   1.18566
 Alpha virt. eigenvalues --    1.19464   1.20682   1.22188   1.22473   1.23687
 Alpha virt. eigenvalues --    1.24676   1.25480   1.26744   1.27582   1.27949
 Alpha virt. eigenvalues --    1.28644   1.29558   1.31304   1.31623   1.32947
 Alpha virt. eigenvalues --    1.36318   1.38357   1.39332   1.42494   1.45466
 Alpha virt. eigenvalues --    1.47205   1.48240   1.49251   1.54416   1.55837
 Alpha virt. eigenvalues --    1.56279   1.58947   1.59899   1.62512   1.62981
 Alpha virt. eigenvalues --    1.65051   1.66738   1.66963   1.68558   1.70011
 Alpha virt. eigenvalues --    1.73235   1.76503   1.77168   1.79831   1.80453
 Alpha virt. eigenvalues --    1.82583   1.83684   1.84355   1.85215   1.87597
 Alpha virt. eigenvalues --    1.89032   1.91664   1.92143   1.92643   1.95034
 Alpha virt. eigenvalues --    1.96182   2.00056   2.01390   2.03949   2.04511
 Alpha virt. eigenvalues --    2.06270   2.07071   2.11754   2.13093   2.13546
 Alpha virt. eigenvalues --    2.20513   2.22461   2.23620   2.24633   2.24777
 Alpha virt. eigenvalues --    2.26766   2.27136   2.28025   2.28524   2.30132
 Alpha virt. eigenvalues --    2.31261   2.32047   2.34627   2.35115   2.36948
 Alpha virt. eigenvalues --    2.38730   2.41627   2.42243   2.43645   2.44886
 Alpha virt. eigenvalues --    2.46086   2.48871   2.50972   2.52583   2.54388
 Alpha virt. eigenvalues --    2.55196   2.57511   2.58962   2.59760   2.62244
 Alpha virt. eigenvalues --    2.66387   2.67193   2.67521   2.69013   2.69446
 Alpha virt. eigenvalues --    2.69799   2.72507   2.74346   2.75003   2.75133
 Alpha virt. eigenvalues --    2.77411   2.80183   2.82280   2.83514   2.84135
 Alpha virt. eigenvalues --    2.88136   2.89887   2.97174   2.98239   3.06054
 Alpha virt. eigenvalues --    3.07489   3.07576   3.09517   3.11250   3.13694
 Alpha virt. eigenvalues --    3.14581   3.16913   3.22693   3.24948   3.27964
 Alpha virt. eigenvalues --    3.34049   3.37031   3.40708   3.50998   3.53858
 Alpha virt. eigenvalues --    3.61613   3.66715   3.70303   3.78982   3.86241
 Alpha virt. eigenvalues --    3.91766   4.02326   4.04017   4.11732   4.31743
 Alpha virt. eigenvalues --    4.80335   4.81422   9.73988   9.77345   9.78585
 Alpha virt. eigenvalues --    9.80591   9.81651   9.83466  23.32762  23.52891
 Alpha virt. eigenvalues --   23.79434  23.84507  23.84954  23.91473  23.94240
 Alpha virt. eigenvalues --   23.96623  24.00618  24.04934  24.10792  24.14462
 Alpha virt. eigenvalues --   25.76561  25.80240  25.81965  25.85435  25.89616
 Alpha virt. eigenvalues --   25.96500  26.07893  26.10124  26.10927  26.17513
 Alpha virt. eigenvalues --   26.25125  26.32642  26.47735  26.58585  26.60709
 Alpha virt. eigenvalues --   26.69930  26.79080  26.97862 215.72948 215.76559
 Alpha virt. eigenvalues --  215.78067 215.80390 215.82004 215.83793
          Condensed to atoms (all electrons):
               1          2          3          4          5          6
     1  C   24.579077   0.083339  -7.117907  -1.735124  -0.933377  -5.206762
     2  C    0.083339  29.417549  -5.857078 -12.677160   3.015423  -0.118820
     3  C   -7.117907  -5.857078  22.807490  -0.897796  -2.276079  -4.341773
     4  C   -1.735124 -12.677160  -0.897796  20.336758   0.941328  -0.348032
     5  C   -0.933377   3.015423  -2.276079   0.941328  17.617318  -7.397733
     6  C   -5.206762  -0.118820  -4.341773  -0.348032  -7.397733  36.357132
     7  C    4.702202  -5.985533   2.523414   0.424957  -3.115206  -5.538602
     8  C   -2.789761  -0.200430  -0.030917  -0.051701   0.121424  -1.270560
     9  C    0.105549   0.487824   0.597775  -0.094152  -0.340390  -0.916064
    10  C   -0.458297  -0.387458  -0.318445   0.041878   0.376934   1.124983
    11  C   -3.254852  -0.457964  -0.003003   0.056952   0.093748  -0.842755
    12  C   -0.506273  -1.501978   0.729040   0.427657  -1.089203  -5.511393
    13  H    0.014515   0.151824   0.033393   0.088271  -0.028279  -0.130866
    14  H    0.036478   0.047529   0.039658   0.294754  -0.039541  -0.029724
    15  H    0.107781  -0.049410  -0.027463  -0.047782   0.323413   0.035612
    16  H    0.094978   0.030240  -0.037607   0.000753   0.021637   0.088257
    17  Cl  -0.103134   0.096075   0.506717  -0.144368  -0.390459  -0.089664
    18  Cl  -0.767536  -0.171846   0.168698  -0.059166  -0.691705   0.482861
    19  Cl  -0.145270  -0.004957   0.008540   0.001676  -0.001129  -0.060018
    20  Cl  -0.045565  -0.014351   0.009280  -0.001327  -0.004410  -0.034483
    21  Cl  -0.121912   0.054688   0.033697   0.000185  -0.004869  -0.111548
    22  Cl  -0.341464   0.785187  -1.430527   0.012153   0.152372   0.212662
               7          8          9         10         11         12
     1  C    4.702202  -2.789761   0.105549  -0.458297  -3.254852  -0.506273
     2  C   -5.985533  -0.200430   0.487824  -0.387458  -0.457964  -1.501978
     3  C    2.523414  -0.030917   0.597775  -0.318445  -0.003003   0.729040
     4  C    0.424957  -0.051701  -0.094152   0.041878   0.056952   0.427657
     5  C   -3.115206   0.121424  -0.340390   0.376934   0.093748  -1.089203
     6  C   -5.538602  -1.270560  -0.916064   1.124983  -0.842755  -5.511393
     7  C   23.837307  -1.860440  -8.262664   5.650445  -2.485995  -1.928614
     8  C   -1.860440   9.836681   1.080281  -3.673633   2.670911   2.299911
     9  C   -8.262664   1.080281  21.664936  -8.978346  -3.810308   4.683962
    10  C    5.650445  -3.673633  -8.978346  23.174670  -0.061383  -8.586531
    11  C   -2.485995   2.670911  -3.810308  -0.061383  14.434929  -0.354146
    12  C   -1.928614   2.299911   4.683962  -8.586531  -0.354146  18.599588
    13  H    0.147665   0.011624  -0.023712   0.010187   0.014105   0.080995
    14  H    0.005088  -0.000607  -0.000115   0.000022   0.000037   0.001176
    15  H    0.016776  -0.003328  -0.000705   0.000136  -0.000238   0.004797
    16  H    0.029656   0.348516  -0.098303  -0.009453  -0.034270  -0.069631
    17  Cl  -0.601027  -0.020969   0.837849  -0.961005  -0.078078  -0.676321
    18  Cl  -0.129010  -0.039952   0.321440  -0.205150  -0.181644   0.001366
    19  Cl  -0.480828   0.177274  -0.099378  -0.265541  -0.206681   0.528782
    20  Cl   0.213992  -0.120628  -0.845421   0.263922   0.607925  -0.685581
    21  Cl  -0.845753   0.261876   0.174358  -0.575772  -0.056937   0.385229
    22  Cl  -0.147301   0.014953   0.009894   0.001923  -0.004683  -0.057959
              13         14         15         16         17         18
     1  C    0.014515   0.036478   0.107781   0.094978  -0.103134  -0.767536
     2  C    0.151824   0.047529  -0.049410   0.030240   0.096075  -0.171846
     3  C    0.033393   0.039658  -0.027463  -0.037607   0.506717   0.168698
     4  C    0.088271   0.294754  -0.047782   0.000753  -0.144368  -0.059166
     5  C   -0.028279  -0.039541   0.323413   0.021637  -0.390459  -0.691705
     6  C   -0.130866  -0.029724   0.035612   0.088257  -0.089664   0.482861
     7  C    0.147665   0.005088   0.016776   0.029656  -0.601027  -0.129010
     8  C    0.011624  -0.000607  -0.003328   0.348516  -0.020969  -0.039952
     9  C   -0.023712  -0.000115  -0.000705  -0.098303   0.837849   0.321440
    10  C    0.010187   0.000022   0.000136  -0.009453  -0.961005  -0.205150
    11  C    0.014105   0.000037  -0.000238  -0.034270  -0.078078  -0.181644
    12  C    0.080995   0.001176   0.004797  -0.069631  -0.676321   0.001366
    13  H    0.514529  -0.000276   0.000046  -0.000661  -0.012008  -0.001855
    14  H   -0.000276   0.504639  -0.007764  -0.000003  -0.000272   0.000998
    15  H    0.000046  -0.007764   0.505242   0.000003  -0.001168  -0.012607
    16  H   -0.000661  -0.000003   0.000003   0.506016  -0.002833  -0.008033
    17  Cl  -0.012008  -0.000272  -0.001168  -0.002833  18.126840   0.210051
    18  Cl  -0.001855   0.000998  -0.012607  -0.008033   0.210051  17.732703
    19  Cl   0.000535   0.000000  -0.000006   0.000607  -0.235990  -0.010473
    20  Cl   0.000115   0.000000  -0.000000  -0.001095  -0.029521   0.008845
    21  Cl   0.000021  -0.000001  -0.000009  -0.009956   0.007535  -0.004678
    22  Cl  -0.016601  -0.008724   0.000669   0.000190  -0.001357  -0.014607
              19         20         21         22
     1  C   -0.145270  -0.045565  -0.121912  -0.341464
     2  C   -0.004957  -0.014351   0.054688   0.785187
     3  C    0.008540   0.009280   0.033697  -1.430527
     4  C    0.001676  -0.001327   0.000185   0.012153
     5  C   -0.001129  -0.004410  -0.004869   0.152372
     6  C   -0.060018  -0.034483  -0.111548   0.212662
     7  C   -0.480828   0.213992  -0.845753  -0.147301
     8  C    0.177274  -0.120628   0.261876   0.014953
     9  C   -0.099378  -0.845421   0.174358   0.009894
    10  C   -0.265541   0.263922  -0.575772   0.001923
    11  C   -0.206681   0.607925  -0.056937  -0.004683
    12  C    0.528782  -0.685581   0.385229  -0.057959
    13  H    0.000535   0.000115   0.000021  -0.016601
    14  H    0.000000   0.000000  -0.000001  -0.008724
    15  H   -0.000006  -0.000000  -0.000009   0.000669
    16  H    0.000607  -0.001095  -0.009956   0.000190
    17  Cl  -0.235990  -0.029521   0.007535  -0.001357
    18  Cl  -0.010473   0.008845  -0.004678  -0.014607
    19  Cl  17.374005  -0.202494   0.010489  -0.000008
    20  Cl  -0.202494  17.459008  -0.198458   0.000048
    21  Cl   0.010489  -0.198458  17.441590   0.000454
    22  Cl  -0.000008   0.000048   0.000454  17.424938
 Mulliken charges:
               1
     1  C   -0.196686
     2  C   -0.742692
     3  C    0.880893
     4  C   -0.570708
     5  C   -0.351217
     6  C   -0.352711
     7  C   -0.170527
     8  C   -0.760525
     9  C   -0.494309
    10  C   -0.164084
    11  C   -0.045670
    12  C   -0.774872
    13  H    0.146435
    14  H    0.156649
    15  H    0.156002
    16  H    0.150995
    17  Cl   0.563104
    18  Cl   0.371300
    19  Cl   0.610864
    20  Cl   0.620200
    21  Cl   0.559771
    22  Cl   0.407788
 Sum of Mulliken charges =  -0.00000
 Mulliken charges with hydrogens summed into heavy atoms:
               1
     1  C   -0.196686
     2  C   -0.596257
     3  C    0.880893
     4  C   -0.414059
     5  C   -0.195215
     6  C   -0.352711
     7  C   -0.170527
     8  C   -0.609530
     9  C   -0.494309
    10  C   -0.164084
    11  C   -0.045670
    12  C   -0.774872
    17  Cl   0.563104
    18  Cl   0.371300
    19  Cl   0.610864
    20  Cl   0.620200
    21  Cl   0.559771
    22  Cl   0.407788
 Electronic spatial extent (au):  <R**2>=           8255.0691
 Charge=             -0.0000 electrons
 Dipole moment (field-independent basis, Debye):
    X=              1.9005    Y=              0.6112    Z=             -0.5496  Tot=              2.0706
 Quadrupole moment (field-independent basis, Debye-Ang):
   XX=           -141.3023   YY=           -146.2795   ZZ=           -145.5946
   XY=             -0.5162   XZ=             -5.7370   YZ=              0.0692
 Traceless Quadrupole moment (field-independent basis, Debye-Ang):
   XX=              3.0898   YY=             -1.8874   ZZ=             -1.2025
   XY=             -0.5162   XZ=             -5.7370   YZ=              0.0692
 Octapole moment (field-independent basis, Debye-Ang**2):
  XXX=             15.7320  YYY=             -8.2534  ZZZ=              4.1253  XYY=            -12.0238
  XXY=            -16.8759  XXZ=            -32.5422  XZZ=             -4.6604  YZZ=             -3.2910
  YYZ=              1.0852  XYZ=              1.2125
 Hexadecapole moment (field-independent basis, Debye-Ang**3):
 XXXX=          -7062.7967 YYYY=          -2028.9171 ZZZZ=          -1431.3316 XXXY=            -39.3915
 XXXZ=           -162.1599 YYYX=             -8.2343 YYYZ=            -25.7703 ZZZX=             15.4087
 ZZZY=             15.9954 XXYY=          -1587.9692 XXZZ=          -1448.1873 YYZZ=           -592.7036
 XXYZ=              1.3400 YYXZ=              5.3604 ZZXY=              1.4661
 N-N= 2.019990112791D+03 E-N=-1.166898204535D+04  KE= 3.212689530126D+03
 1\1\GINC-LOCALHOST\FOpt\RB3LYP\6-311+G(d,p)\C12H4Cl6\GOUR\17-Mar-2022\
 0\\# opt b3lyp/6-311+g(d,p) scf=xqc\\Title Card Required\\0,1\C,-0.493
 7672551,-0.2717916827,-0.006570773\C,0.2913303988,0.010824879,-1.12940
 03348\C,1.0030423124,1.2017788504,-1.2062227968\C,0.9546643632,2.13313
 86654,-0.1745203627\C,0.180942477,1.8598506591,0.948147195\C,-0.534092
 6695,0.6683268229,1.0291634319\C,-1.2294365299,-1.569218931,0.06269626
 4\C,-0.5565216642,-2.7068124679,0.5013225882\C,-1.1959442098,-3.937941
 1733,0.5695560414\C,-2.5378383451,-4.0601004431,0.1942628087\C,-3.2280
 7556,-2.9217445163,-0.2548349782\C,-2.5714360351,-1.6847835342,-0.3192
 326092\H,0.3356028656,-0.7010100637,-1.9436486269\H,1.5127959887,3.057
 7219534,-0.2441115967\H,0.133002643,2.570183562,1.7633354136\H,0.47989
 27317,-2.6321769783,0.8026211722\Cl,-3.4194830419,-0.2709167043,-0.884
 660746\Cl,-1.4904560773,0.3598953776,2.4670005178\Cl,-4.8923828049,-3.
 0524389406,-0.7324471026\Cl,-3.3379603704,-5.5976797069,0.2795859369\C
 l,-0.2851687174,-5.3148009737,1.1327585525\Cl,1.9778615522,1.531771485
 ,-2.6277154695\\Version=EM64L-G16RevB.01\State=1-A\HF=-3221.1314135\RM
 SD=3.672e-09\RMSF=7.224e-06\Dipole=0.5893819,0.5461057,0.13436\Quadrup
 ole=-0.8688164,2.9123813,-2.043565,1.7505202,1.895017,3.0005718\PG=C01
  [X(C12H4Cl6)]\\@


 LIFE CAN ONLY BE UNDERSTOOD BACKWARD, BUT MUST
 BE LIVED FORWARD. -- KIRKEGAARD
 Job cpu time:       1 days  1 hours  0 minutes 47.1 seconds.
 Elapsed time:       0 days  6 hours 16 minutes 16.2 seconds.
 File lengths (MBytes):  RWF=    147 Int=      0 D2E=      0 Chk=     23 Scr=      1
 Normal termination of Gaussian 16 at Thu Mar 17 05:56:43 2022.
