 Entering Gaussian System, Link 0=g16
 Input=2,2prime,3,4,5,5prime,6-Heptachlorobiphenyl1.gjf
 Output=2,2prime,3,4,5,5prime,6-Heptachlorobiphenyl1.log
 Initial command:
 /home/apps/g16/l1.exe "./Gau-406902.inp" -scrdir="./"
 Entering Link 1 = /home/apps/g16/l1.exe PID=    406903.
  
 Copyright (c) 1988-2017, Gaussian, Inc.  All Rights Reserved.
  
 This is part of the Gaussian(R) 16 program.  It is based on
 the Gaussian(R) 09 system (copyright 2009, Gaussian, Inc.),
 the Gaussian(R) 03 system (copyright 2003, Gaussian, Inc.),
 the Gaussian(R) 98 system (copyright 1998, Gaussian, Inc.),
 the Gaussian(R) 94 system (copyright 1995, Gaussian, Inc.),
 the Gaussian 92(TM) system (copyright 1992, Gaussian, Inc.),
 the Gaussian 90(TM) system (copyright 1990, Gaussian, Inc.),
 the Gaussian 88(TM) system (copyright 1988, Gaussian, Inc.),
 the Gaussian 86(TM) system (copyright 1986, Carnegie Mellon
 University), and the Gaussian 82(TM) system (copyright 1983,
 Carnegie Mellon University). Gaussian is a federally registered
 trademark of Gaussian, Inc.
  
 This software contains proprietary and confidential information,
 including trade secrets, belonging to Gaussian, Inc.
  
 This software is provided under written license and may be
 used, copied, transmitted, or stored only in accord with that
 written license.
  
 The following legend is applicable only to US Government
 contracts under FAR:
  
                    RESTRICTED RIGHTS LEGEND
  
 Use, reproduction and disclosure by the US Government is
 subject to restrictions as set forth in subparagraphs (a)
 and (c) of the Commercial Computer Software - Restricted
 Rights clause in FAR 52.227-19.
  
 Gaussian, Inc.
 340 Quinnipiac St., Bldg. 40, Wallingford CT 06492
  
  
 ---------------------------------------------------------------
 Warning -- This program may not be used in any manner that
 competes with the business of Gaussian, Inc. or will provide
 assistance to any competitor of Gaussian, Inc.  The licensee
 of this program is prohibited from giving any competitor of
 Gaussian, Inc. access to this program.  By using this program,
 the user acknowledges that Gaussian, Inc. is engaged in the
 business of creating and licensing software in the field of
 computational chemistry and represents and warrants to the
 licensee that it is not a competitor of Gaussian, Inc. and that
 it will not use this program in any manner prohibited above.
 ---------------------------------------------------------------
  

 Cite this work as:
 Gaussian 16, Revision B.01,
 M. J. Frisch, G. W. Trucks, H. B. Schlegel, G. E. Scuseria, 
 M. A. Robb, J. R. Cheeseman, G. Scalmani, V. Barone, 
 G. A. Petersson, H. Nakatsuji, X. Li, M. Caricato, A. V. Marenich, 
 J. Bloino, B. G. Janesko, R. Gomperts, B. Mennucci, H. P. Hratchian, 
 J. V. Ortiz, A. F. Izmaylov, J. L. Sonnenberg, D. Williams-Young, 
 F. Ding, F. Lipparini, F. Egidi, J. Goings, B. Peng, A. Petrone, 
 T. Henderson, D. Ranasinghe, V. G. Zakrzewski, J. Gao, N. Rega, 
 G. Zheng, W. Liang, M. Hada, M. Ehara, K. Toyota, R. Fukuda, 
 J. Hasegawa, M. Ishida, T. Nakajima, Y. Honda, O. Kitao, H. Nakai, 
 T. Vreven, K. Throssell, J. A. Montgomery, Jr., J. E. Peralta, 
 F. Ogliaro, M. J. Bearpark, J. J. Heyd, E. N. Brothers, K. N. Kudin, 
 V. N. Staroverov, T. A. Keith, R. Kobayashi, J. Normand, 
 K. Raghavachari, A. P. Rendell, J. C. Burant, S. S. Iyengar, 
 J. Tomasi, M. Cossi, J. M. Millam, M. Klene, C. Adamo, R. Cammi, 
 J. W. Ochterski, R. L. Martin, K. Morokuma, O. Farkas, 
 J. B. Foresman, and D. J. Fox, Gaussian, Inc., Wallingford CT, 2016.
 
 ******************************************
 Gaussian 16:  EM64L-G16RevB.01 20-Dec-2017
                 6-Apr-2022 
 ******************************************
 %mem=16GB
 %nprocshared=8
 Will use up to    8 processors via shared memory.
 --------------------------------
 # opt b3lyp/6-311+g(d,p) scf=xqc
 --------------------------------
 1/18=20,19=15,26=3,38=1/1,3;
 2/9=110,12=2,17=6,18=5,40=1/2;
 3/5=4,6=6,7=111,11=2,25=1,30=1,71=1,74=-5/1,2,3;
 4//1;
 5/5=2,8=3,13=1,38=5/2,8;
 6/7=2,8=2,9=2,10=2,28=1/1;
 7//1,2,3,16;
 1/18=20,19=15,26=3/3(2);
 2/9=110/2;
 99//99;
 2/9=110/2;
 3/5=4,6=6,7=111,11=2,25=1,30=1,71=1,74=-5/1,2,3;
 4/5=5,16=3,69=1/1;
 5/5=2,8=3,13=1,38=5/2,8;
 7//1,2,3,16;
 1/18=20,19=15,26=3/3(-5);
 2/9=110/2;
 6/7=2,8=2,9=2,10=2,19=2,28=1/1;
 99/9=1/99;
 -------------------
 Title Card Required
 -------------------
 Symbolic Z-matrix:
 Charge =  0 Multiplicity = 1
 C                     0.39177   0.16397  -0.00367 
 C                     1.72415   0.19386  -0.43701 
 C                     2.43204   1.40331  -0.44309 
 C                     1.80756   2.58288  -0.01581 
 C                     0.47518   2.55299   0.41753 
 C                    -0.23272   1.34354   0.42361 
 C                    -0.57632  -1.49002   0.00464 
 C                     0.04817  -2.66959  -0.42264 
 C                    -0.65972  -3.87904  -0.41656 
 C                    -1.9921   -3.90893   0.01679 
 C                    -2.61659  -2.72936   0.44406 
 C                    -1.9087   -1.51991   0.43799 
 H                     2.20096  -0.70677  -0.76325 
 H                     2.34805   3.50632  -0.02045 
 H                    -0.00164   3.45361   0.74377 
 Cl                   -2.69298  -0.03851   0.9746 
 Cl                   -1.90604   1.30601   0.96784 
 Cl                   -4.28991  -2.7669    0.98831 
 Cl                   -2.88114  -5.42786   0.02442 
 Cl                    0.12456  -5.36044  -0.95317 
 Cl                    4.10536   1.44084  -0.98732 
 Cl                    1.72149  -2.63206  -0.96687 
 

 GradGradGradGradGradGradGradGradGradGradGradGradGradGradGradGradGradGrad
 Berny optimization.
 Initialization pass.
                           ----------------------------
                           !    Initial Parameters    !
                           ! (Angstroms and Degrees)  !
 --------------------------                            --------------------------
 ! Name  Definition              Value          Derivative Info.                !
 --------------------------------------------------------------------------------
 ! R1    R(1,2)                  1.4014         estimate D2E/DX2                !
 ! R2    R(1,6)                  1.4014         estimate D2E/DX2                !
 ! R3    R(2,3)                  1.4014         estimate D2E/DX2                !
 ! R4    R(2,13)                 1.07           estimate D2E/DX2                !
 ! R5    R(3,4)                  1.4014         estimate D2E/DX2                !
 ! R6    R(3,21)                 1.76           estimate D2E/DX2                !
 ! R7    R(4,5)                  1.4014         estimate D2E/DX2                !
 ! R8    R(4,14)                 1.07           estimate D2E/DX2                !
 ! R9    R(5,6)                  1.4014         estimate D2E/DX2                !
 ! R10   R(5,15)                 1.07           estimate D2E/DX2                !
 ! R11   R(6,17)                 1.76           estimate D2E/DX2                !
 ! R12   R(7,8)                  1.4014         estimate D2E/DX2                !
 ! R13   R(7,12)                 1.4014         estimate D2E/DX2                !
 ! R14   R(8,9)                  1.4014         estimate D2E/DX2                !
 ! R15   R(8,22)                 1.76           estimate D2E/DX2                !
 ! R16   R(9,10)                 1.4014         estimate D2E/DX2                !
 ! R17   R(9,20)                 1.76           estimate D2E/DX2                !
 ! R18   R(10,11)                1.4014         estimate D2E/DX2                !
 ! R19   R(10,19)                1.76           estimate D2E/DX2                !
 ! R20   R(11,12)                1.4014         estimate D2E/DX2                !
 ! R21   R(11,18)                1.76           estimate D2E/DX2                !
 ! R22   R(12,16)                1.76           estimate D2E/DX2                !
 ! R23   R(16,17)                1.5579         estimate D2E/DX2                !
 ! A1    A(2,1,6)              120.0            estimate D2E/DX2                !
 ! A2    A(1,2,3)              120.0            estimate D2E/DX2                !
 ! A3    A(1,2,13)             120.0            estimate D2E/DX2                !
 ! A4    A(3,2,13)             120.0            estimate D2E/DX2                !
 ! A5    A(2,3,4)              120.0            estimate D2E/DX2                !
 ! A6    A(2,3,21)             120.0            estimate D2E/DX2                !
 ! A7    A(4,3,21)             120.0            estimate D2E/DX2                !
 ! A8    A(3,4,5)              120.0            estimate D2E/DX2                !
 ! A9    A(3,4,14)             120.0            estimate D2E/DX2                !
 ! A10   A(5,4,14)             120.0            estimate D2E/DX2                !
 ! A11   A(4,5,6)              120.0            estimate D2E/DX2                !
 ! A12   A(4,5,15)             120.0            estimate D2E/DX2                !
 ! A13   A(6,5,15)             120.0            estimate D2E/DX2                !
 ! A14   A(1,6,5)              120.0            estimate D2E/DX2                !
 ! A15   A(1,6,17)             120.0            estimate D2E/DX2                !
 ! A16   A(5,6,17)             120.0            estimate D2E/DX2                !
 ! A17   A(8,7,12)             120.0            estimate D2E/DX2                !
 ! A18   A(7,8,9)              120.0            estimate D2E/DX2                !
 ! A19   A(7,8,22)             120.0            estimate D2E/DX2                !
 ! A20   A(9,8,22)             120.0            estimate D2E/DX2                !
 ! A21   A(8,9,10)             120.0            estimate D2E/DX2                !
 ! A22   A(8,9,20)             120.0            estimate D2E/DX2                !
 ! A23   A(10,9,20)            120.0            estimate D2E/DX2                !
 ! A24   A(9,10,11)            120.0            estimate D2E/DX2                !
 ! A25   A(9,10,19)            120.0            estimate D2E/DX2                !
 ! A26   A(11,10,19)           120.0            estimate D2E/DX2                !
 ! A27   A(10,11,12)           120.0            estimate D2E/DX2                !
 ! A28   A(10,11,18)           120.0            estimate D2E/DX2                !
 ! A29   A(12,11,18)           120.0            estimate D2E/DX2                !
 ! A30   A(7,12,11)            120.0            estimate D2E/DX2                !
 ! A31   A(7,12,16)            120.0            estimate D2E/DX2                !
 ! A32   A(11,12,16)           120.0            estimate D2E/DX2                !
 ! A33   A(12,16,17)           120.0            estimate D2E/DX2                !
 ! A34   A(6,17,16)            120.0            estimate D2E/DX2                !
 ! D1    D(6,1,2,3)              0.0001         estimate D2E/DX2                !
 ! D2    D(6,1,2,13)           180.0            estimate D2E/DX2                !
 ! D3    D(2,1,6,5)             -0.0001         estimate D2E/DX2                !
 ! D4    D(2,1,6,17)           180.0            estimate D2E/DX2                !
 ! D5    D(1,2,3,4)              0.0            estimate D2E/DX2                !
 ! D6    D(1,2,3,21)           180.0            estimate D2E/DX2                !
 ! D7    D(13,2,3,4)          -179.9999         estimate D2E/DX2                !
 ! D8    D(13,2,3,21)            0.0001         estimate D2E/DX2                !
 ! D9    D(2,3,4,5)             -0.0001         estimate D2E/DX2                !
 ! D10   D(2,3,4,14)           180.0            estimate D2E/DX2                !
 ! D11   D(21,3,4,5)           179.9999         estimate D2E/DX2                !
 ! D12   D(21,3,4,14)            0.0            estimate D2E/DX2                !
 ! D13   D(3,4,5,6)              0.0001         estimate D2E/DX2                !
 ! D14   D(3,4,5,15)          -179.9999         estimate D2E/DX2                !
 ! D15   D(14,4,5,6)          -180.0            estimate D2E/DX2                !
 ! D16   D(14,4,5,15)            0.0            estimate D2E/DX2                !
 ! D17   D(4,5,6,1)              0.0            estimate D2E/DX2                !
 ! D18   D(4,5,6,17)           179.9999         estimate D2E/DX2                !
 ! D19   D(15,5,6,1)           180.0            estimate D2E/DX2                !
 ! D20   D(15,5,6,17)           -0.0001         estimate D2E/DX2                !
 ! D21   D(1,6,17,16)            0.0004         estimate D2E/DX2                !
 ! D22   D(5,6,17,16)         -179.9995         estimate D2E/DX2                !
 ! D23   D(12,7,8,9)             0.0001         estimate D2E/DX2                !
 ! D24   D(12,7,8,22)         -179.9998         estimate D2E/DX2                !
 ! D25   D(8,7,12,11)           -0.0001         estimate D2E/DX2                !
 ! D26   D(8,7,12,16)          179.9999         estimate D2E/DX2                !
 ! D27   D(7,8,9,10)             0.0            estimate D2E/DX2                !
 ! D28   D(7,8,9,20)           180.0            estimate D2E/DX2                !
 ! D29   D(22,8,9,10)          179.9998         estimate D2E/DX2                !
 ! D30   D(22,8,9,20)           -0.0002         estimate D2E/DX2                !
 ! D31   D(8,9,10,11)            0.0            estimate D2E/DX2                !
 ! D32   D(8,9,10,19)         -179.9999         estimate D2E/DX2                !
 ! D33   D(20,9,10,11)         180.0            estimate D2E/DX2                !
 ! D34   D(20,9,10,19)           0.0001         estimate D2E/DX2                !
 ! D35   D(9,10,11,12)           0.0            estimate D2E/DX2                !
 ! D36   D(9,10,11,18)        -179.9998         estimate D2E/DX2                !
 ! D37   D(19,10,11,12)        179.9999         estimate D2E/DX2                !
 ! D38   D(19,10,11,18)          0.0001         estimate D2E/DX2                !
 ! D39   D(10,11,12,7)           0.0            estimate D2E/DX2                !
 ! D40   D(10,11,12,16)       -179.9999         estimate D2E/DX2                !
 ! D41   D(18,11,12,7)         179.9999         estimate D2E/DX2                !
 ! D42   D(18,11,12,16)         -0.0001         estimate D2E/DX2                !
 ! D43   D(7,12,16,17)           0.0004         estimate D2E/DX2                !
 ! D44   D(11,12,16,17)       -179.9996         estimate D2E/DX2                !
 ! D45   D(12,16,17,6)          -0.0006         estimate D2E/DX2                !
 --------------------------------------------------------------------------------
 Trust Radius=3.00D-01 FncErr=1.00D-07 GrdErr=1.00D-06 EigMax=2.50D+02 EigMin=1.00D-04
 Number of steps in this run=    112 maximum allowed number of steps=    132.
 GradGradGradGradGradGradGradGradGradGradGradGradGradGradGradGradGradGrad

                          Input orientation:                          
 ---------------------------------------------------------------------
 Center     Atomic      Atomic             Coordinates (Angstroms)
 Number     Number       Type             X           Y           Z
 ---------------------------------------------------------------------
      1          6           0        0.391770    0.163974   -0.003667
      2          6           0        1.724151    0.193859   -0.437013
      3          6           0        2.432044    1.403310   -0.443086
      4          6           0        1.807557    2.582875   -0.015811
      5          6           0        0.475175    2.552990    0.417534
      6          6           0       -0.232718    1.343539    0.423606
      7          6           0       -0.576318   -1.490025    0.004639
      8          6           0        0.048170   -2.669590   -0.422636
      9          6           0       -0.659723   -3.879041   -0.416562
     10          6           0       -1.992103   -3.908928    0.016788
     11          6           0       -2.616591   -2.729363    0.444063
     12          6           0       -1.908698   -1.519911    0.437989
     13          1           0        2.200961   -0.706765   -0.763245
     14          1           0        2.348050    3.506318   -0.020447
     15          1           0       -0.001635    3.453614    0.743765
     16         17           0       -2.692982   -0.038511    0.974600
     17         17           0       -1.906039    1.306006    0.967840
     18         17           0       -4.289908   -2.766897    0.988306
     19         17           0       -2.881136   -5.427862    0.024419
     20         17           0        0.124562   -5.360441   -0.953171
     21         17           0        4.105365    1.440843   -0.987319
     22         17           0        1.721490   -2.632057   -0.966870
 ---------------------------------------------------------------------
                    Distance matrix (angstroms):
                    1          2          3          4          5
     1  C    0.000000
     2  C    1.401400   0.000000
     3  C    2.427296   1.401400   0.000000
     4  C    2.802800   2.427296   1.401400   0.000000
     5  C    2.427296   2.802800   2.427296   1.401400   0.000000
     6  C    1.401400   2.427296   2.802800   2.427296   1.401400
     7  C    1.916500   2.884905   4.197867   4.719300   4.197867
     8  C    2.884905   3.317900   4.719300   5.554218   5.306935
     9  C    4.197867   4.719300   6.120700   6.928524   6.584431
    10  C    4.719300   5.554218   6.928524   7.522100   6.928524
    11  C    4.197867   5.306935   6.584431   6.928524   6.120700
    12  C    2.884905   4.110988   5.306935   5.554218   4.719300
    13  H    2.146700   1.070000   2.146700   3.396345   3.872800
    14  H    3.872800   3.396345   2.146700   1.070000   2.146700
    15  H    3.396345   3.872800   3.396345   2.146700   1.070000
    16  Cl   3.242484   4.643029   5.509499   5.301645   4.130790
    17  Cl   2.743718   4.048303   4.562800   4.048303   2.743718
    18  Cl   5.611784   6.853212   8.038915   8.173579   7.164705
    19  Cl   6.479300   7.281850   8.666797   9.282100   8.666797
    20  Cl   5.611784   5.803048   7.164705   8.173579   8.038915
    21  Cl   4.048303   2.743718   1.760000   2.743718   4.048303
    22  Cl   3.242484   2.875162   4.130790   5.301645   5.509499
                    6          7          8          9         10
     6  C    0.000000
     7  C    2.884905   0.000000
     8  C    4.110988   1.401400   0.000000
     9  C    5.306935   2.427296   1.401400   0.000000
    10  C    5.554218   2.802800   2.427296   1.401400   0.000000
    11  C    4.719300   2.427296   2.802800   2.427296   1.401400
    12  C    3.317900   1.401400   2.427296   2.802800   2.427296
    13  H    3.396345   2.986038   2.933122   4.285679   5.333300
    14  H    3.396345   5.789300   6.602503   7.984180   8.592100
    15  H    2.146700   5.031514   6.233507   7.453005   7.661428
    16  Cl   2.875162   2.743718   4.048303   4.562800   4.048303
    17  Cl   1.760000   3.242484   4.643029   5.509499   5.301645
    18  Cl   5.803048   4.048303   4.562800   4.048303   2.743718
    19  Cl   7.281850   4.562800   4.048303   2.743718   1.760000
    20  Cl   6.853212   4.048303   2.743718   1.760000   2.743718
    21  Cl   4.562800   5.611784   5.803048   7.164705   8.173579
    22  Cl   4.643029   2.743718   1.760000   2.743718   4.048303
                   11         12         13         14         15
    11  C    0.000000
    12  C    1.401400   0.000000
    13  H    5.362583   4.358150   0.000000
    14  H    7.984180   6.602503   4.280590   0.000000
    15  H    6.719897   5.335386   4.942800   2.471400   0.000000
    16  Cl   2.743718   1.760000   5.236158   6.242430   4.414926
    17  Cl   4.130790   2.875162   4.890332   4.890332   2.879094
    18  Cl   1.760000   2.743718   7.031604   9.188759   7.559355
    19  Cl   2.743718   4.048303   6.981181  10.352100   9.364273
    20  Cl   4.048303   4.562800   5.099432   9.188759   8.976809
    21  Cl   8.038915   6.853212   2.879094   2.879094   4.890332
    22  Cl   4.562800   4.048303   1.994518   6.242430   6.552162
                   16         17         18         19         20
    16  Cl   0.000000
    17  Cl   1.557900   0.000000
    18  Cl   3.161400   4.719300   0.000000
    19  Cl   5.475705   6.869195   3.161400   0.000000
    20  Cl   6.322800   7.228772   5.475705   3.161400   0.000000
    21  Cl   7.228772   6.322800   9.596290   9.849565   7.880700
    22  Cl   5.475705   5.693013   6.322800   5.475705   3.161400
                   21         22
    21  Cl   0.000000
    22  Cl   4.719300   0.000000
 Stoichiometry    C12H3Cl7
 Framework group  C1[X(C12H3Cl7)]
 Deg. of freedom    60
 Full point group                 C1      NOp   1
 Largest Abelian subgroup         C1      NOp   1
 Largest concise Abelian subgroup C1      NOp   1
                         Standard orientation:                         
 ---------------------------------------------------------------------
 Center     Atomic      Atomic             Coordinates (Angstroms)
 Number     Number       Type             X           Y           Z
 ---------------------------------------------------------------------
      1          6           0        1.783794   -0.284707    0.000002
      2          6           0        2.667022    0.803332   -0.000000
      3          6           0        4.050906    0.582454   -0.000002
      4          6           0        4.551562   -0.726464   -0.000002
      5          6           0        3.668333   -1.814503    0.000002
      6          6           0        2.284450   -1.593625    0.000004
      7          6           0       -0.108752    0.017358    0.000003
      8          6           0       -0.609408    1.326275    0.000003
      9          6           0       -1.993291    1.547154    0.000003
     10          6           0       -2.876520    0.459114    0.000001
     11          6           0       -2.375864   -0.849803    0.000000
     12          6           0       -0.991980   -1.070682    0.000001
     13          1           0        2.284760    1.802720   -0.000002
     14          1           0        5.608188   -0.895109   -0.000004
     15          1           0        4.050595   -2.813891    0.000004
     16         17           0       -0.363213   -2.714535   -0.000002
     17         17           0        1.175215   -2.960079    0.000007
     18         17           0       -3.485099   -2.216258   -0.000006
     19         17           0       -4.614521    0.736513   -0.000002
     20         17           0       -2.622058    3.191007    0.000003
     21         17           0        5.160141    1.948909   -0.000005
     22         17           0        0.499827    2.692730    0.000001
 ---------------------------------------------------------------------
 Rotational constants (GHZ):           0.3020749           0.1452318           0.0980778
 Standard basis: 6-311+G(d,p) (5D, 7F)
 There are   511 symmetry adapted cartesian basis functions of A   symmetry.
 There are   492 symmetry adapted basis functions of A   symmetry.
   492 basis functions,   827 primitive gaussians,   511 cartesian basis functions
    97 alpha electrons       97 beta electrons
       nuclear repulsion energy      2392.9925462644 Hartrees.
 NAtoms=   22 NActive=   22 NUniq=   22 SFac= 1.00D+00 NAtFMM=   60 NAOKFM=F Big=F
 Integral buffers will be    131072 words long.
 Raffenetti 2 integral format.
 Two-electron integral symmetry is turned on.
 One-electron integrals computed using PRISM.
 NBasis=   492 RedAO= T EigKep=  1.59D-06  NBF=   492
 NBsUse=   485 1.00D-06 EigRej=  7.85D-07 NBFU=   485
 ExpMin= 4.38D-02 ExpMax= 1.06D+05 ExpMxC= 3.62D+03 IAcc=3 IRadAn=         5 AccDes= 0.00D+00
 Harris functional with IExCor=  402 and IRadAn=       5 diagonalized for initial guess.
 HarFok:  IExCor=  402 AccDes= 0.00D+00 IRadAn=         5 IDoV= 1 UseB2=F ITyADJ=14
 ICtDFT=  3500011 ScaDFX=  1.000000  1.000000  1.000000  1.000000
 FoFCou: FMM=F IPFlag=           0 FMFlag=      100000 FMFlg1=           0
         NFxFlg=           0 DoJE=T BraDBF=F KetDBF=T FulRan=T
         wScrn=  0.000000 ICntrl=       500 IOpCl=  0 I1Cent=   200000004 NGrid=           0
         NMat0=    1 NMatS0=      1 NMatT0=    0 NMatD0=    1 NMtDS0=    0 NMtDT0=    0
 Petite list used in FoFCou.
 Requested convergence on RMS density matrix=1.00D-08 within  32 cycles.
 Requested convergence on MAX density matrix=1.00D-06.
 Requested convergence on             energy=1.00D-06.
 No special actions if energy rises.
 EnCoef did     4 forward-backward iterations
 EnCoef did     2 forward-backward iterations
 EnCoef did   100 forward-backward iterations
 EnCoef did     4 forward-backward iterations
 Restarting incremental Fock formation.
 SCF Done:  E(RB3LYP) =  -3680.11578729     A.U. after   23 cycles
            NFock= 23  Conv=0.79D-08     -V/T= 2.0021
 QCSCF skips out because SCF is already converged.

 **********************************************************************

            Population analysis using the SCF Density.

 **********************************************************************

 Orbital symmetries:
       Occupied  (A) (A) (A) (A) (A) (A) (A) (A) (A) (A) (A) (A)
                 (A) (A) (A) (A) (A) (A) (A) (A) (A) (A) (A) (A)
                 (A) (A) (A) (A) (A) (A) (A) (A) (A) (A) (A) (A)
                 (A) (A) (A) (A) (A) (A) (A) (A) (A) (A) (A) (A)
                 (A) (A) (A) (A) (A) (A) (A) (A) (A) (A) (A) (A)
                 (A) (A) (A) (A) (A) (A) (A) (A) (A) (A) (A) (A)
                 (A) (A) (A) (A) (A) (A) (A) (A) (A) (A) (A) (A)
                 (A) (A) (A) (A) (A) (A) (A) (A) (A) (A) (A) (A)
                 (A)
       Virtual   (A) (A) (A) (A) (A) (A) (A) (A) (A) (A) (A) (A)
                 (A) (A) (A) (A) (A) (A) (A) (A) (A) (A) (A) (A)
                 (A) (A) (A) (A) (A) (A) (A) (A) (A) (A) (A) (A)
                 (A) (A) (A) (A) (A) (A) (A) (A) (A) (A) (A) (A)
                 (A) (A) (A) (A) (A) (A) (A) (A) (A) (A) (A) (A)
                 (A) (A) (A) (A) (A) (A) (A) (A) (A) (A) (A) (A)
                 (A) (A) (A) (A) (A) (A) (A) (A) (A) (A) (A) (A)
                 (A) (A) (A) (A) (A) (A) (A) (A) (A) (A) (A) (A)
                 (A) (A) (A) (A) (A) (A) (A) (A) (A) (A) (A) (A)
                 (A) (A) (A) (A) (A) (A) (A) (A) (A) (A) (A) (A)
                 (A) (A) (A) (A) (A) (A) (A) (A) (A) (A) (A) (A)
                 (A) (A) (A) (A) (A) (A) (A) (A) (A) (A) (A) (A)
                 (A) (A) (A) (A) (A) (A) (A) (A) (A) (A) (A) (A)
                 (A) (A) (A) (A) (A) (A) (A) (A) (A) (A) (A) (A)
                 (A) (A) (A) (A) (A) (A) (A) (A) (A) (A) (A) (A)
                 (A) (A) (A) (A) (A) (A) (A) (A) (A) (A) (A) (A)
                 (A) (A) (A) (A) (A) (A) (A) (A) (A) (A) (A) (A)
                 (A) (A) (A) (A) (A) (A) (A) (A) (A) (A) (A) (A)
                 (A) (A) (A) (A) (A) (A) (A) (A) (A) (A) (A) (A)
                 (A) (A) (A) (A) (A) (A) (A) (A) (A) (A) (A) (A)
                 (A) (A) (A) (A) (A) (A) (A) (A) (A) (A) (A) (A)
                 (A) (A) (A) (A) (A) (A) (A) (A) (A) (A) (A) (A)
                 (A) (A) (A) (A) (A) (A) (A) (A) (A) (A) (A) (A)
                 (A) (A) (A) (A) (A) (A) (A) (A) (A) (A) (A) (A)
                 (A) (A) (A) (A) (A) (A) (A) (A) (A) (A) (A) (A)
                 (A) (A) (A) (A) (A) (A) (A) (A) (A) (A) (A) (A)
                 (A) (A) (A) (A) (A) (A) (A) (A) (A) (A) (A) (A)
                 (A) (A) (A) (A) (A) (A) (A) (A) (A) (A) (A) (A)
                 (A) (A) (A) (A) (A) (A) (A) (A) (A) (A) (A) (A)
                 (A) (A) (A) (A) (A) (A) (A) (A) (A) (A) (A) (A)
                 (A) (A) (A) (A) (A) (A) (A) (A) (A) (A) (A) (A)
                 (A) (A) (A) (A) (A) (A) (A) (A) (A) (A) (A) (A)
                 (A) (A) (A) (A)
 The electronic state is 1-A.
 Alpha  occ. eigenvalues -- -101.69629-101.68461-101.57099-101.56998-101.56969
 Alpha  occ. eigenvalues -- -101.56882-101.56344 -10.27318 -10.27238 -10.27093
 Alpha  occ. eigenvalues --  -10.26544 -10.26061 -10.25244 -10.24661 -10.21784
 Alpha  occ. eigenvalues --  -10.21506 -10.21422 -10.20207 -10.19704  -9.61411
 Alpha  occ. eigenvalues --   -9.60397  -9.48688  -9.48470  -9.48392  -9.48315
 Alpha  occ. eigenvalues --   -9.47797  -7.37920  -7.37036  -7.36964  -7.36468
 Alpha  occ. eigenvalues --   -7.35949  -7.35374  -7.25139  -7.24909  -7.24905
 Alpha  occ. eigenvalues --   -7.24786  -7.24278  -7.24167  -7.24106  -7.23958
 Alpha  occ. eigenvalues --   -7.23926  -7.23870  -7.23795  -7.23792  -7.23761
 Alpha  occ. eigenvalues --   -7.23293  -7.23206  -1.20452  -0.94791  -0.91781
 Alpha  occ. eigenvalues --   -0.90549  -0.89061  -0.87765  -0.85491  -0.84973
 Alpha  occ. eigenvalues --   -0.82874  -0.78505  -0.77590  -0.74170  -0.72867
 Alpha  occ. eigenvalues --   -0.67797  -0.65247  -0.62592  -0.59955  -0.59331
 Alpha  occ. eigenvalues --   -0.58079  -0.57768  -0.52649  -0.51934  -0.50974
 Alpha  occ. eigenvalues --   -0.49693  -0.48492  -0.46729  -0.45127  -0.45000
 Alpha  occ. eigenvalues --   -0.44763  -0.42890  -0.42276  -0.42125  -0.40299
 Alpha  occ. eigenvalues --   -0.39498  -0.38026  -0.37249  -0.36757  -0.34733
 Alpha  occ. eigenvalues --   -0.34488  -0.34213  -0.33847  -0.32907  -0.32241
 Alpha  occ. eigenvalues --   -0.32159  -0.30383  -0.29408  -0.27299  -0.26127
 Alpha  occ. eigenvalues --   -0.25061  -0.14132
 Alpha virt. eigenvalues --   -0.06954  -0.06732  -0.05491  -0.04352  -0.03797
 Alpha virt. eigenvalues --   -0.02599  -0.02171  -0.01204  -0.00373   0.00401
 Alpha virt. eigenvalues --    0.01153   0.01497   0.02490   0.02862   0.02946
 Alpha virt. eigenvalues --    0.03000   0.03863   0.04408   0.05210   0.05315
 Alpha virt. eigenvalues --    0.05664   0.06042   0.06821   0.07249   0.07421
 Alpha virt. eigenvalues --    0.07695   0.07917   0.08381   0.09019   0.09273
 Alpha virt. eigenvalues --    0.09426   0.09874   0.10446   0.10526   0.10637
 Alpha virt. eigenvalues --    0.10987   0.11153   0.11868   0.12039   0.12287
 Alpha virt. eigenvalues --    0.13058   0.13293   0.13565   0.14171   0.14246
 Alpha virt. eigenvalues --    0.14584   0.14997   0.15220   0.15235   0.16001
 Alpha virt. eigenvalues --    0.16159   0.16482   0.17001   0.17258   0.17479
 Alpha virt. eigenvalues --    0.18315   0.18581   0.18751   0.19616   0.19906
 Alpha virt. eigenvalues --    0.20312   0.20730   0.20984   0.21241   0.21374
 Alpha virt. eigenvalues --    0.22200   0.22978   0.23210   0.23647   0.24094
 Alpha virt. eigenvalues --    0.24536   0.25042   0.25248   0.25359   0.25830
 Alpha virt. eigenvalues --    0.26167   0.26752   0.27184   0.27299   0.27887
 Alpha virt. eigenvalues --    0.27980   0.28641   0.29113   0.29361   0.30700
 Alpha virt. eigenvalues --    0.30883   0.31944   0.32070   0.32887   0.33972
 Alpha virt. eigenvalues --    0.34561   0.34859   0.35379   0.36883   0.37308
 Alpha virt. eigenvalues --    0.38543   0.39969   0.41949   0.42446   0.42739
 Alpha virt. eigenvalues --    0.42978   0.43493   0.43599   0.44376   0.45122
 Alpha virt. eigenvalues --    0.45227   0.45613   0.45990   0.46400   0.46646
 Alpha virt. eigenvalues --    0.47382   0.48225   0.48739   0.49098   0.49673
 Alpha virt. eigenvalues --    0.49710   0.50894   0.51256   0.51786   0.52211
 Alpha virt. eigenvalues --    0.53096   0.54484   0.54917   0.55637   0.56953
 Alpha virt. eigenvalues --    0.57521   0.57801   0.58148   0.58703   0.60005
 Alpha virt. eigenvalues --    0.60391   0.60802   0.61176   0.61620   0.61727
 Alpha virt. eigenvalues --    0.63239   0.64463   0.64776   0.64853   0.65501
 Alpha virt. eigenvalues --    0.65688   0.67795   0.68591   0.69221   0.70695
 Alpha virt. eigenvalues --    0.71676   0.74347   0.77090   0.77395   0.79012
 Alpha virt. eigenvalues --    0.80024   0.80647   0.81453   0.82422   0.83002
 Alpha virt. eigenvalues --    0.83760   0.83897   0.83933   0.84455   0.84610
 Alpha virt. eigenvalues --    0.84962   0.85019   0.85597   0.85602   0.85965
 Alpha virt. eigenvalues --    0.86519   0.86941   0.87690   0.88275   0.88588
 Alpha virt. eigenvalues --    0.89034   0.89079   0.90322   0.90416   0.90955
 Alpha virt. eigenvalues --    0.92353   0.92654   0.93991   0.94684   0.94943
 Alpha virt. eigenvalues --    0.95317   0.95593   0.96083   0.96462   0.96739
 Alpha virt. eigenvalues --    0.97278   0.98110   0.99899   0.99917   1.00387
 Alpha virt. eigenvalues --    1.01364   1.02546   1.02828   1.05020   1.06171
 Alpha virt. eigenvalues --    1.08519   1.09611   1.10244   1.10387   1.12466
 Alpha virt. eigenvalues --    1.13975   1.14433   1.18418   1.19915   1.20433
 Alpha virt. eigenvalues --    1.22473   1.22651   1.24661   1.24924   1.25414
 Alpha virt. eigenvalues --    1.26967   1.26990   1.27977   1.28698   1.29142
 Alpha virt. eigenvalues --    1.29259   1.30040   1.30518   1.32568   1.34215
 Alpha virt. eigenvalues --    1.34396   1.35904   1.44845   1.45470   1.47926
 Alpha virt. eigenvalues --    1.49459   1.50111   1.52299   1.53241   1.54926
 Alpha virt. eigenvalues --    1.58468   1.60807   1.64429   1.65996   1.66567
 Alpha virt. eigenvalues --    1.67568   1.69140   1.70616   1.71926   1.75980
 Alpha virt. eigenvalues --    1.76424   1.76706   1.79521   1.82333   1.84113
 Alpha virt. eigenvalues --    1.85476   1.85658   1.86334   1.86549   1.87345
 Alpha virt. eigenvalues --    1.88305   1.89648   1.91541   1.95111   1.95258
 Alpha virt. eigenvalues --    1.96913   2.01792   2.02518   2.03850   2.07027
 Alpha virt. eigenvalues --    2.12815   2.13995   2.15969   2.16568   2.19525
 Alpha virt. eigenvalues --    2.22705   2.22768   2.23454   2.25644   2.25756
 Alpha virt. eigenvalues --    2.26380   2.27567   2.28348   2.28386   2.30519
 Alpha virt. eigenvalues --    2.30685   2.31853   2.32274   2.33457   2.34342
 Alpha virt. eigenvalues --    2.38628   2.40838   2.41693   2.43086   2.44174
 Alpha virt. eigenvalues --    2.45697   2.48209   2.49665   2.51667   2.53298
 Alpha virt. eigenvalues --    2.55447   2.58441   2.59680   2.59758   2.60928
 Alpha virt. eigenvalues --    2.62249   2.63940   2.65659   2.67706   2.69506
 Alpha virt. eigenvalues --    2.70397   2.73671   2.73671   2.74773   2.75416
 Alpha virt. eigenvalues --    2.77504   2.77866   2.78650   2.84429   2.85116
 Alpha virt. eigenvalues --    2.85811   2.87390   2.89483   2.94512   3.05667
 Alpha virt. eigenvalues --    3.07942   3.09144   3.10210   3.10542   3.14076
 Alpha virt. eigenvalues --    3.15991   3.17673   3.22953   3.23707   3.29689
 Alpha virt. eigenvalues --    3.32194   3.40453   3.41027   3.51500   3.52894
 Alpha virt. eigenvalues --    3.55695   3.66810   3.72079   3.81536   3.85692
 Alpha virt. eigenvalues --    3.91300   3.97826   4.08858   4.17440   4.81015
 Alpha virt. eigenvalues --    4.82003   9.61759   9.74448   9.77031   9.79564
 Alpha virt. eigenvalues --    9.81301   9.86214  10.05457  23.24141  23.45670
 Alpha virt. eigenvalues --   23.79033  23.80668  23.83752  23.91677  23.94466
 Alpha virt. eigenvalues --   23.95492  23.98788  24.02642  24.03997  24.10860
 Alpha virt. eigenvalues --   25.69507  25.76412  25.79862  25.81693  25.84431
 Alpha virt. eigenvalues --   25.90434  25.97223  25.99095  26.11345  26.13183
 Alpha virt. eigenvalues --   26.14322  26.21107  26.38957  26.48589  26.55371
 Alpha virt. eigenvalues --   26.58018  26.65273  26.75048  26.82586  27.06685
 Alpha virt. eigenvalues --   27.32330 215.62096 215.73824 215.76158 215.79366
 Alpha virt. eigenvalues --  215.81207 215.87366 216.12290
          Condensed to atoms (all electrons):
               1          2          3          4          5          6
     1  C   24.416442   1.798221  -2.342377  -1.442420  -5.135026   4.382733
     2  C    1.798221  14.538893  -0.466186  -4.492104   1.464570  -3.278152
     3  C   -2.342377  -0.466186  23.542104  -8.145087  -4.402635   4.393765
     4  C   -1.442420  -4.492104  -8.145087  24.386408   3.655326 -11.263261
     5  C   -5.135026   1.464570  -4.402635   3.655326  22.350769 -17.769807
     6  C    4.382733  -3.278152   4.393765 -11.263261 -17.769807  44.574996
     7  C    4.370586  -1.299282  -2.362117   0.099801  -1.328428  -0.390716
     8  C   -2.445622  -0.422419  -0.800036   0.087063   0.118944   0.169608
     9  C   -3.458033   0.168059   0.832760   0.044332  -0.942542  -0.363285
    10  C   -1.819539  -0.152163  -0.884426   0.259201   0.803168  -0.040806
    11  C   -5.525171  -0.372199  -0.248635  -0.143722   0.663281  -0.016221
    12  C    2.086225  -0.849215  -0.034224  -1.016899  -5.324490   6.951043
    13  H    0.047671   0.253436  -0.281776   0.190059  -0.012827  -0.007193
    14  H    0.043529   0.097433   0.035180   0.412379  -0.131845  -0.115460
    15  H    0.097789  -0.039051  -0.036703  -0.029190   0.259872   0.153899
    16  Cl  -3.872676   0.018090  -1.225768   0.906084   2.848760  -4.507501
    17  Cl  -4.103637   0.205586  -2.147571   3.622929   9.321760 -17.399157
    18  Cl   0.412143   0.024892   0.057906  -0.045214  -0.231208   0.182641
    19  Cl  -0.161485  -0.027133  -0.016329   0.004300   0.019399   0.005714
    20  Cl  -0.185151  -0.014572   0.037319   0.007451  -0.012260  -0.028216
    21  Cl  -0.635734   0.120561  -0.451840  -0.334963   0.336728   0.411108
    22  Cl   0.015278  -0.210746  -0.259318  -0.108858   0.000647  -0.080168
               7          8          9         10         11         12
     1  C    4.370586  -2.445622  -3.458033  -1.819539  -5.525171   2.086225
     2  C   -1.299282  -0.422419   0.168059  -0.152163  -0.372199  -0.849215
     3  C   -2.362117  -0.800036   0.832760  -0.884426  -0.248635  -0.034224
     4  C    0.099801   0.087063   0.044332   0.259201  -0.143722  -1.016899
     5  C   -1.328428   0.118944  -0.942542   0.803168   0.663281  -5.324490
     6  C   -0.390716   0.169608  -0.363285  -0.040806  -0.016221   6.951043
     7  C   25.559821  -4.542807  -7.704741   7.235329  -6.532912  -4.168174
     8  C   -4.542807  14.202410   2.219473  -8.015546   5.760269   3.678024
     9  C   -7.704741   2.219473  22.241199 -12.831692   2.467700   7.296935
    10  C    7.235329  -8.015546 -12.831692  31.018966  -5.318355  -9.048968
    11  C   -6.532912   5.760269   2.467700  -5.318355  22.595812 -10.140525
    12  C   -4.168174   3.678024   7.296935  -9.048968 -10.140525  48.585490
    13  H    0.051697   0.065844  -0.026413   0.045730  -0.034459   0.050186
    14  H    0.005189   0.000585  -0.000150   0.000100   0.000062   0.000229
    15  H    0.019749   0.001293   0.000762  -0.000407   0.000570   0.012747
    16  Cl  -0.004311  -2.759372  -3.305382   5.111058   5.025940 -25.557993
    17  Cl  -0.076746  -0.701557  -1.178403   1.735460   0.979295 -10.648950
    18  Cl  -1.225939   1.214884   1.479073  -2.099923  -3.441936   5.942618
    19  Cl   0.568421  -1.086327  -1.543603   1.785900   0.069462  -1.030815
    20  Cl  -1.046129   0.511296   0.083592  -0.566394  -0.106386   0.562697
    21  Cl  -0.185253  -0.052801  -0.003524  -0.014491   0.000119  -0.051053
    22  Cl  -0.224041  -0.411393   0.862227  -1.139522   0.841392  -0.278806
              13         14         15         16         17         18
     1  C    0.047671   0.043529   0.097789  -3.872676  -4.103637   0.412143
     2  C    0.253436   0.097433  -0.039051   0.018090   0.205586   0.024892
     3  C   -0.281776   0.035180  -0.036703  -1.225768  -2.147571   0.057906
     4  C    0.190059   0.412379  -0.029190   0.906084   3.622929  -0.045214
     5  C   -0.012827  -0.131845   0.259872   2.848760   9.321760  -0.231208
     6  C   -0.007193  -0.115460   0.153899  -4.507501 -17.399157   0.182641
     7  C    0.051697   0.005189   0.019749  -0.004311  -0.076746  -1.225939
     8  C    0.065844   0.000585   0.001293  -2.759372  -0.701557   1.214884
     9  C   -0.026413  -0.000150   0.000762  -3.305382  -1.178403   1.479073
    10  C    0.045730   0.000100  -0.000407   5.111058   1.735460  -2.099923
    11  C   -0.034459   0.000062   0.000570   5.025940   0.979295  -3.441936
    12  C    0.050186   0.000229   0.012747 -25.557993 -10.648950   5.942618
    13  H    0.609805  -0.000320   0.000011   0.027227   0.028819  -0.000993
    14  H   -0.000320   0.512486  -0.008838   0.000390   0.009678  -0.000004
    15  H    0.000011  -0.008838   0.519208  -0.003261  -0.095330   0.000105
    16  Cl   0.027227   0.000390  -0.003261  40.432954   6.696347  -4.160951
    17  Cl   0.028819   0.009678  -0.095330   6.696347  31.307945  -1.131756
    18  Cl  -0.000993  -0.000004   0.000105  -4.160951  -1.131756  20.359475
    19  Cl   0.000751   0.000000  -0.000003   0.621149   0.087733  -1.002895
    20  Cl   0.002130  -0.000001   0.000001   0.004083   0.000567  -0.002515
    21  Cl  -0.048554  -0.012435   0.001875  -0.009865  -0.059064   0.000327
    22  Cl  -0.111632   0.000075  -0.000013  -0.309621  -0.116645   0.072664
              19         20         21         22
     1  C   -0.161485  -0.185151  -0.635734   0.015278
     2  C   -0.027133  -0.014572   0.120561  -0.210746
     3  C   -0.016329   0.037319  -0.451840  -0.259318
     4  C    0.004300   0.007451  -0.334963  -0.108858
     5  C    0.019399  -0.012260   0.336728   0.000647
     6  C    0.005714  -0.028216   0.411108  -0.080168
     7  C    0.568421  -1.046129  -0.185253  -0.224041
     8  C   -1.086327   0.511296  -0.052801  -0.411393
     9  C   -1.543603   0.083592  -0.003524   0.862227
    10  C    1.785900  -0.566394  -0.014491  -1.139522
    11  C    0.069462  -0.106386   0.000119   0.841392
    12  C   -1.030815   0.562697  -0.051053  -0.278806
    13  H    0.000751   0.002130  -0.048554  -0.111632
    14  H    0.000000  -0.000001  -0.012435   0.000075
    15  H   -0.000003   0.000001   0.001875  -0.000013
    16  Cl   0.621149   0.004083  -0.009865  -0.309621
    17  Cl   0.087733   0.000567  -0.059064  -0.116645
    18  Cl  -1.002895  -0.002515   0.000327   0.072664
    19  Cl  18.425062  -0.291364  -0.000183  -0.070949
    20  Cl  -0.291364  17.651805   0.000565  -0.283014
    21  Cl  -0.000183   0.000565  17.579616  -0.013307
    22  Cl  -0.070949  -0.283014  -0.013307  18.170086
 Mulliken charges:
               1
     1  C   -0.543746
     2  C   -1.066518
     3  C    1.205996
     4  C   -0.653613
     5  C   -0.552157
     6  C    0.034438
     7  C   -0.818997
     8  C   -0.791813
     9  C   -0.338342
    10  C   -0.062679
    11  C   -0.523380
    12  C   -1.016084
    13  H    0.150802
    14  H    0.151737
    15  H    0.144916
    16  Cl   1.024617
    17  Cl   0.662698
    18  Cl   0.596605
    19  Cl   0.643195
    20  Cl   0.674496
    21  Cl   0.422166
    22  Cl   0.655662
 Sum of Mulliken charges =  -0.00000
 Mulliken charges with hydrogens summed into heavy atoms:
               1
     1  C   -0.543746
     2  C   -0.915716
     3  C    1.205996
     4  C   -0.501876
     5  C   -0.407241
     6  C    0.034438
     7  C   -0.818997
     8  C   -0.791813
     9  C   -0.338342
    10  C   -0.062679
    11  C   -0.523380
    12  C   -1.016084
    16  Cl   1.024617
    17  Cl   0.662698
    18  Cl   0.596605
    19  Cl   0.643195
    20  Cl   0.674496
    21  Cl   0.422166
    22  Cl   0.655662
 Electronic spatial extent (au):  <R**2>=           9475.9559
 Charge=             -0.0000 electrons
 Dipole moment (field-independent basis, Debye):
    X=              3.0287    Y=             -4.1548    Z=              0.0000  Tot=              5.1415
 Quadrupole moment (field-independent basis, Debye-Ang):
   XX=           -164.3164   YY=           -150.1255   ZZ=           -158.8677
   XY=             -7.4243   XZ=              0.0000   YZ=             -0.0000
 Traceless Quadrupole moment (field-independent basis, Debye-Ang):
   XX=             -6.5465   YY=              7.6444   ZZ=             -1.0978
   XY=             -7.4243   XZ=              0.0000   YZ=             -0.0000
 Octapole moment (field-independent basis, Debye-Ang**2):
  XXX=             26.5228  YYY=            -31.4493  ZZZ=             -0.0000  XYY=             11.3474
  XXY=            -33.4514  XXZ=             -0.0000  XZZ=            -13.0246  YZZ=             -3.0011
  YYZ=              0.0000  XYZ=             -0.0000
 Hexadecapole moment (field-independent basis, Debye-Ang**3):
 XXXX=          -8370.3884 YYYY=          -3762.7515 ZZZZ=           -186.8244 XXXY=           -155.5324
 XXXZ=              0.0002 YYYX=              2.6846 YYYZ=             -0.0002 ZZZX=              0.0000
 ZZZY=             -0.0000 XXYY=          -2004.4681 XXZZ=          -1483.2737 YYZZ=           -687.5564
 XXYZ=             -0.0001 YYXZ=              0.0001 ZZXY=             11.5701
 N-N= 2.392992546264D+03 E-N=-1.350579951678D+04  KE= 3.672577624699D+03
 Calling FoFJK, ICntrl=      2127 FMM=F ISym2X=0 I1Cent= 0 IOpClX= 0 NMat=1 NMatS=1 NMatT=0.
 ***** Axes restored to original set *****
 -------------------------------------------------------------------
 Center     Atomic                   Forces (Hartrees/Bohr)
 Number     Number              X              Y              Z
 -------------------------------------------------------------------
      1        6          -0.019580683   -0.063463447   -0.005468066
      2        6           0.000996681    0.015680563    0.002616792
      3        6          -0.016262440    0.002659732    0.005857384
      4        6          -0.004062239   -0.010026112   -0.000544903
      5        6           0.003343127   -0.020477226   -0.004947079
      6        6           0.093865108   -0.020963159   -0.034861698
      7        6           0.030369529    0.050438706   -0.000532534
      8        6          -0.000641149    0.013121861    0.002675671
      9        6           0.002663105   -0.006377472   -0.002075160
     10        6          -0.007058073    0.003449907    0.002973294
     11        6           0.034289332    0.009693765   -0.009476335
     12        6           0.074296348   -0.143125543   -0.051357454
     13        1           0.002636593    0.011560431    0.001302451
     14        1           0.004765152    0.008451929    0.000017460
     15        1          -0.005553618    0.010661211    0.003831979
     16       17          -0.299794213   -0.282928525    0.045635201
     17       17           0.125855192    0.446230356    0.042339569
     18       17          -0.009638038    0.004696167    0.004057328
     19       17           0.000649972   -0.001253306   -0.000449573
     20       17          -0.003378468    0.007089749    0.002444568
     21       17          -0.004018640   -0.000210604    0.001284396
     22       17          -0.003742577   -0.034908981   -0.005323291
 -------------------------------------------------------------------
 Cartesian Forces:  Max     0.446230356 RMS     0.081691061

 GradGradGradGradGradGradGradGradGradGradGradGradGradGradGradGradGradGrad
 Berny optimization.
 FormGI is forming the generalized inverse of G from B-inverse, IUseBI=4.
 Internal  Forces:  Max     0.419917830 RMS     0.053640896
 Search for a local minimum.
 Step number   1 out of a maximum of  112
 All quantities printed in internal units (Hartrees-Bohrs-Radians)
 Mixed Optimization -- RFO/linear search
 Second derivative matrix not updated -- first step.
 ITU=  0
     Eigenvalues ---    0.00238   0.00238   0.01655   0.01655   0.02070
     Eigenvalues ---    0.02070   0.02070   0.02070   0.02070   0.02070
     Eigenvalues ---    0.02070   0.02070   0.02070   0.02070   0.02070
     Eigenvalues ---    0.02070   0.02070   0.02070   0.05822   0.16000
     Eigenvalues ---    0.16000   0.16000   0.22319   0.23430   0.24560
     Eigenvalues ---    0.25000   0.25000   0.25000   0.25000   0.25000
     Eigenvalues ---    0.25000   0.25000   0.25000   0.25000   0.25000
     Eigenvalues ---    0.25000   0.25000   0.29539   0.29539   0.29539
     Eigenvalues ---    0.29539   0.29539   0.29539   0.29539   0.37230
     Eigenvalues ---    0.37230   0.37230   0.41511   0.41797   0.42020
     Eigenvalues ---    0.42201   0.45389   0.45389   0.45389   0.45389
     Eigenvalues ---    0.45389   0.45389   0.45389   0.45389   2.57947
 RFO step:  Lambda=-2.76496871D-01 EMin= 2.37798983D-03
 Linear search not attempted -- first point.
 Maximum step size (   0.300) exceeded in Quadratic search.
    -- Step size scaled by   0.464
 Iteration  1 RMS(Cart)=  0.32113970 RMS(Int)=  0.00825761
 Iteration  2 RMS(Cart)=  0.06872346 RMS(Int)=  0.00025782
 Iteration  3 RMS(Cart)=  0.00042503 RMS(Int)=  0.00004562
 Iteration  4 RMS(Cart)=  0.00000008 RMS(Int)=  0.00004562
 Variable       Old X    -DE/DX   Delta X   Delta X   Delta X     New X
                                 (Linear)    (Quad)   (Total)
    R1        2.64826   0.00281   0.00000   0.00215   0.00221   2.65047
    R2        2.64826   0.02788   0.00000   0.01817   0.01822   2.66648
    R3        2.64826  -0.00403   0.00000  -0.00265  -0.00263   2.64563
    R4        2.02201  -0.00895   0.00000  -0.00641  -0.00641   2.01560
    R5        2.64826  -0.01730   0.00000  -0.01144  -0.01149   2.63677
    R6        3.32592  -0.00422   0.00000  -0.00343  -0.00343   3.32249
    R7        2.64826  -0.02063   0.00000  -0.01348  -0.01354   2.63472
    R8        2.02201   0.00970   0.00000   0.00694   0.00694   2.02895
    R9        2.64826  -0.01471   0.00000  -0.00927  -0.00929   2.63898
   R10        2.02201   0.01262   0.00000   0.00903   0.00903   2.03104
   R11        3.32592   0.06152   0.00000   0.04996   0.04996   3.37588
   R12        2.64826   0.03680   0.00000   0.02446   0.02453   2.67280
   R13        2.64826   0.04398   0.00000   0.02872   0.02880   2.67706
   R14        2.64826   0.00193   0.00000   0.00153   0.00153   2.64979
   R15        3.32592  -0.00266   0.00000  -0.00216  -0.00216   3.32376
   R16        2.64826  -0.01846   0.00000  -0.01250  -0.01257   2.63569
   R17        3.32592  -0.00822   0.00000  -0.00667  -0.00667   3.31924
   R18        2.64826  -0.02611   0.00000  -0.01767  -0.01774   2.63052
   R19        3.32592   0.00075   0.00000   0.00061   0.00061   3.32653
   R20        2.64826  -0.02572   0.00000  -0.01666  -0.01666   2.63160
   R21        3.32592   0.01032   0.00000   0.00838   0.00838   3.33430
   R22        3.32592   0.15169   0.00000   0.12319   0.12319   3.44911
   R23        2.94400   0.41992   0.00000   0.06829   0.06829   3.01229
    A1        2.09440  -0.04763   0.00000  -0.04046  -0.04031   2.05409
    A2        2.09440   0.01410   0.00000   0.01350   0.01357   2.10797
    A3        2.09440   0.00092   0.00000   0.00173   0.00169   2.09609
    A4        2.09440  -0.01502   0.00000  -0.01523  -0.01527   2.07913
    A5        2.09440   0.01519   0.00000   0.01255   0.01252   2.10691
    A6        2.09440  -0.00780   0.00000  -0.00646  -0.00644   2.08796
    A7        2.09440  -0.00739   0.00000  -0.00610  -0.00608   2.08832
    A8        2.09440  -0.01088   0.00000  -0.01149  -0.01161   2.08279
    A9        2.09440   0.00561   0.00000   0.00592   0.00598   2.10038
   A10        2.09440   0.00527   0.00000   0.00556   0.00562   2.10002
   A11        2.09440  -0.00025   0.00000  -0.00076  -0.00084   2.09355
   A12        2.09440   0.00004   0.00000   0.00029   0.00033   2.09473
   A13        2.09440   0.00021   0.00000   0.00047   0.00051   2.09490
   A14        2.09440   0.02947   0.00000   0.02665   0.02667   2.12106
   A15        2.09440  -0.01281   0.00000  -0.01163  -0.01164   2.08276
   A16        2.09440  -0.01666   0.00000  -0.01502  -0.01503   2.07937
   A17        2.09440  -0.05359   0.00000  -0.04372  -0.04351   2.05089
   A18        2.09440   0.01277   0.00000   0.01300   0.01306   2.10746
   A19        2.09440   0.05250   0.00000   0.04545   0.04542   2.13981
   A20        2.09440  -0.06527   0.00000  -0.05845  -0.05848   2.03592
   A21        2.09440   0.01365   0.00000   0.01120   0.01111   2.10551
   A22        2.09440  -0.00738   0.00000  -0.00610  -0.00605   2.08834
   A23        2.09440  -0.00626   0.00000  -0.00511  -0.00506   2.08933
   A24        2.09440  -0.01140   0.00000  -0.01283  -0.01299   2.08141
   A25        2.09440   0.00358   0.00000   0.00454   0.00462   2.09902
   A26        2.09440   0.00782   0.00000   0.00829   0.00837   2.10276
   A27        2.09440   0.01765   0.00000   0.01344   0.01336   2.10775
   A28        2.09440  -0.00052   0.00000   0.00061   0.00065   2.09504
   A29        2.09440  -0.01713   0.00000  -0.01405  -0.01401   2.08039
   A30        2.09440   0.02092   0.00000   0.01890   0.01896   2.11336
   A31        2.09440   0.03186   0.00000   0.02789   0.02786   2.12225
   A32        2.09440  -0.05279   0.00000  -0.04679  -0.04682   2.04758
   A33        2.09440  -0.11404   0.00000  -0.10060  -0.10060   1.99380
   A34        2.09440  -0.22405   0.00000  -0.19765  -0.19765   1.89675
    D1        0.00000  -0.00000   0.00000  -0.00000  -0.00000   0.00000
    D2        3.14159   0.00000   0.00000   0.00000   0.00000   3.14159
    D3       -0.00000   0.00000   0.00000   0.00000   0.00000  -0.00000
    D4        3.14159   0.00000   0.00000   0.00000   0.00000   3.14159
    D5        0.00000   0.00000   0.00000   0.00000   0.00000   0.00000
    D6        3.14159   0.00000   0.00000   0.00000   0.00000   3.14159
    D7       -3.14159  -0.00000   0.00000  -0.00000  -0.00000  -3.14159
    D8        0.00000  -0.00000   0.00000  -0.00000  -0.00000   0.00000
    D9       -0.00000   0.00000   0.00000   0.00000   0.00000  -0.00000
   D10        3.14159  -0.00000   0.00000  -0.00000  -0.00000   3.14159
   D11        3.14159   0.00000   0.00000   0.00000   0.00000   3.14159
   D12        0.00000  -0.00000   0.00000  -0.00000  -0.00000   0.00000
   D13        0.00000  -0.00000   0.00000  -0.00000  -0.00000   0.00000
   D14       -3.14159  -0.00000   0.00000  -0.00000  -0.00000  -3.14159
   D15       -3.14159  -0.00000   0.00000  -0.00000  -0.00000  -3.14159
   D16        0.00000  -0.00000   0.00000  -0.00000  -0.00000   0.00000
   D17       -0.00000   0.00000   0.00000   0.00000   0.00000  -0.00000
   D18        3.14159  -0.00000   0.00000  -0.00000  -0.00000   3.14159
   D19        3.14159   0.00000   0.00000   0.00000   0.00000   3.14159
   D20       -0.00000  -0.00000   0.00000  -0.00000  -0.00000  -0.00000
   D21        0.00001  -0.00000   0.00000  -0.00000  -0.00000   0.00001
   D22       -3.14158   0.00000   0.00000   0.00000  -0.00000  -3.14158
   D23        0.00000  -0.00000   0.00000  -0.00000  -0.00000   0.00000
   D24       -3.14159  -0.00000   0.00000  -0.00000  -0.00000  -3.14159
   D25       -0.00000   0.00000   0.00000   0.00000   0.00000  -0.00000
   D26        3.14159   0.00000   0.00000   0.00000   0.00000   3.14159
   D27       -0.00000  -0.00000   0.00000  -0.00000  -0.00000  -0.00000
   D28        3.14159  -0.00000   0.00000  -0.00000  -0.00000   3.14159
   D29        3.14159   0.00000   0.00000   0.00000   0.00000   3.14159
   D30       -0.00000   0.00000   0.00000   0.00000   0.00000  -0.00000
   D31       -0.00000   0.00000   0.00000   0.00000   0.00000  -0.00000
   D32       -3.14159  -0.00000   0.00000  -0.00000  -0.00000  -3.14159
   D33        3.14159   0.00000   0.00000   0.00000   0.00000   3.14159
   D34        0.00000  -0.00000   0.00000  -0.00000  -0.00000   0.00000
   D35        0.00000  -0.00000   0.00000  -0.00000   0.00000   0.00000
   D36       -3.14159  -0.00000   0.00000  -0.00000  -0.00000  -3.14159
   D37        3.14159   0.00000   0.00000   0.00000   0.00000   3.14159
   D38        0.00000  -0.00000   0.00000  -0.00000  -0.00000   0.00000
   D39        0.00000  -0.00000   0.00000  -0.00000  -0.00000   0.00000
   D40       -3.14159  -0.00000   0.00000  -0.00000  -0.00000  -3.14159
   D41        3.14159   0.00000   0.00000   0.00000   0.00000   3.14159
   D42       -0.00000  -0.00000   0.00000  -0.00000  -0.00000  -0.00000
   D43        0.00001   0.00000   0.00000   0.00000   0.00000   0.00001
   D44       -3.14159   0.00000   0.00000   0.00000   0.00000  -3.14159
   D45       -0.00001   0.00000   0.00000   0.00000   0.00000  -0.00001
         Item               Value     Threshold  Converged?
 Maximum Force            0.419918     0.000450     NO 
 RMS     Force            0.053641     0.000300     NO 
 Maximum Displacement     1.363456     0.001800     NO 
 RMS     Displacement     0.387443     0.001200     NO 
 Predicted change in Energy=-1.110368D-01
 GradGradGradGradGradGradGradGradGradGradGradGradGradGradGradGradGradGrad

                          Input orientation:                          
 ---------------------------------------------------------------------
 Center     Atomic      Atomic             Coordinates (Angstroms)
 Number     Number       Type             X           Y           Z
 ---------------------------------------------------------------------
      1          6           0       -0.002178   -0.022115    0.091172
      2          6           0        1.314448   -0.167435   -0.369889
      3          6           0        2.172906    0.935902   -0.445495
      4          6           0        1.737378    2.205308   -0.063601
      5          6           0        0.431832    2.369516    0.397355
      6          6           0       -0.424536    1.269010    0.472804
      7          6           0       -0.477072   -1.100862    0.045031
      8          6           0        0.236073   -2.237039   -0.403305
      9          6           0       -0.374684   -3.498739   -0.439045
     10          6           0       -1.699286   -3.658950   -0.032735
     11          6           0       -2.413671   -2.549675    0.410957
     12          6           0       -1.820670   -1.290332    0.452105
     13          1           0        1.673874   -1.126272   -0.668381
     14          1           0        2.400824    3.047308   -0.124040
     15          1           0        0.084847    3.342410    0.694388
     16         17           0       -2.843597    0.098053    1.049870
     17         17           0       -2.092903    1.504157    1.066617
     18         17           0       -4.090561   -2.728806    0.929783
     19         17           0       -2.456344   -5.247411   -0.081641
     20         17           0        0.537865   -4.890352   -1.001049
     21         17           0        3.817589    0.719334   -1.028016
     22         17           0        1.909309   -2.155073   -0.939166
 ---------------------------------------------------------------------
                    Distance matrix (angstroms):
                    1          2          3          4          5
     1  C    0.000000
     2  C    1.402569   0.000000
     3  C    2.436554   1.400006   0.000000
     4  C    2.830445   2.429525   1.395320   0.000000
     5  C    2.449900   2.793527   2.407692   1.394236   0.000000
     6  C    1.411039   2.407814   2.775056   2.416248   1.396486
     7  C    1.179555   2.062278   3.378077   3.980747   3.604686
     8  C    2.281920   2.333939   3.717614   4.701464   4.679714
     9  C    3.536497   3.735712   5.114323   6.094089   5.982178
    10  C    4.015234   4.624602   6.023031   6.797142   6.408513
    11  C    3.508008   4.492623   5.824040   6.329792   5.682914
    12  C    2.246233   3.430093   4.659447   5.014494   4.297819
    13  H    2.145981   1.066609   2.133372   3.386624   3.859922
    14  H    3.904112   3.402238   2.147863   1.073675   2.146668
    15  H    3.419279   3.868283   3.383874   2.144389   1.074779
    16  Cl   3.001201   4.401766   5.301265   5.163882   4.039029
    17  Cl   2.766248   4.058055   4.561416   4.054633   2.751552
    18  Cl   4.974366   6.120775   7.385966   7.700465   6.835818
    19  Cl   5.775510   6.333097   7.732768   8.551646   8.160182
    20  Cl   5.018399   4.827773   6.076778   7.257136   7.394082
    21  Cl   4.048820   2.735910   1.758185   2.732306   4.027175
    22  Cl   3.043828   2.151428   3.141229   4.450741   4.943797
                    6          7          8          9         10
     6  C    0.000000
     7  C    2.408743   0.000000
     8  C    3.673737   1.414383   0.000000
     9  C    4.854419   2.448393   1.402209   0.000000
    10  C    5.115207   2.836136   2.429973   1.394749   0.000000
    11  C    4.306139   2.446094   2.789607   2.404307   1.392013
    12  C    2.915450   1.416638   2.420366   2.786052   2.420776
    13  H    3.382751   2.266312   1.836120   3.142894   4.265760
    14  H    3.391345   5.051553   5.717382   7.117121   7.860861
    15  H    2.146523   4.525493   5.688414   6.949616   7.261604
    16  Cl   2.748819   2.836819   4.129012   4.609698   4.073887
    17  Cl   1.786437   3.231203   4.645573   5.499842   5.293504
    18  Cl   5.443446   4.060824   4.553978   4.034132   2.740402
    19  Cl   6.848313   4.596459   4.051533   2.742061   1.760323
    20  Cl   6.405950   4.060125   2.736502   1.756468   2.731085
    21  Cl   4.533236   4.786299   4.685900   5.976135   7.113077
    22  Cl   4.377766   2.788336   1.758858   2.696699   4.013131
                   11         12         13         14         15
    11  C    0.000000
    12  C    1.392584   0.000000
    13  H    4.460837   3.673451   0.000000
    14  H    7.402148   6.080137   4.271246   0.000000
    15  H    6.406215   5.015176   4.934701   2.473996   0.000000
    16  Cl   2.757446   1.825189   4.985870   6.130263   4.384976
    17  Cl   4.119022   2.874179   4.911006   4.898219   2.874078
    18  Cl   1.764434   2.729430   6.192814   8.752834   7.372185
    19  Cl   2.742673   4.043197   5.864021   9.612297   8.991380
    20  Cl   4.022945   4.542520   3.945818   8.200379   8.417726
    21  Cl   7.182316   6.165994   2.851511   2.871213   4.876532
    22  Cl   4.546063   4.073838   1.089580   5.288742   6.018262
                   16         17         18         19         20
    16  Cl   0.000000
    17  Cl   1.594037   0.000000
    18  Cl   3.092001   4.682664   0.000000
    19  Cl   5.477615   6.858153   3.168125   0.000000
    20  Cl   6.365904   7.217058   5.461018   3.152473   0.000000
    21  Cl   7.005356   6.319600   8.846552   8.709759   6.498145
    22  Cl   5.623429   5.781940   6.310354   5.418194   3.060464
                   21         22
    21  Cl   0.000000
    22  Cl   3.451325   0.000000
 Stoichiometry    C12H3Cl7
 Framework group  C1[X(C12H3Cl7)]
 Deg. of freedom    60
 Full point group                 C1      NOp   1
 Largest Abelian subgroup         C1      NOp   1
 Largest concise Abelian subgroup C1      NOp   1
                         Standard orientation:                         
 ---------------------------------------------------------------------
 Center     Atomic      Atomic             Coordinates (Angstroms)
 Number     Number       Type             X           Y           Z
 ---------------------------------------------------------------------
      1          6           0        1.278171   -0.545497    0.000002
      2          6           0        2.078459    0.606344    0.000000
      3          6           0        3.475032    0.508353   -0.000002
      4          6           0        4.102052   -0.738148   -0.000002
      5          6           0        3.323183   -1.894547    0.000002
      6          6           0        1.930116   -1.796896    0.000004
      7          6           0        0.163605   -0.159373    0.000002
      8          6           0       -0.175022    1.213875    0.000003
      9          6           0       -1.516701    1.621414    0.000003
     10          6           0       -2.545561    0.679728    0.000001
     11          6           0       -2.227430   -0.675444    0.000000
     12          6           0       -0.899695   -1.095458    0.000000
     13          1           0        1.625807    1.572139   -0.000001
     14          1           0        5.173562   -0.806300   -0.000004
     15          1           0        3.794663   -2.860392    0.000003
     16         17           0       -0.590182   -2.894212   -0.000003
     17         17           0        0.953269   -3.292598    0.000007
     18         17           0       -3.512627   -1.884368   -0.000006
     19         17           0       -4.226538    1.202272   -0.000001
     20         17           0       -1.904558    3.334524    0.000004
     21         17           0        4.449140    1.972023   -0.000005
     22         17           0        1.036714    2.488739    0.000000
 ---------------------------------------------------------------------
 Rotational constants (GHZ):           0.2849463           0.1823504           0.1111929
 Standard basis: 6-311+G(d,p) (5D, 7F)
 There are   511 symmetry adapted cartesian basis functions of A   symmetry.
 There are   492 symmetry adapted basis functions of A   symmetry.
   492 basis functions,   827 primitive gaussians,   511 cartesian basis functions
    97 alpha electrons       97 beta electrons
       nuclear repulsion energy      2494.0465134695 Hartrees.
 NAtoms=   22 NActive=   22 NUniq=   22 SFac= 1.00D+00 NAtFMM=   60 NAOKFM=F Big=F
 Integral buffers will be    131072 words long.
 Raffenetti 2 integral format.
 Two-electron integral symmetry is turned on.
 One-electron integrals computed using PRISM.
 NBasis=   492 RedAO= T EigKep=  1.06D-06  NBF=   492
 NBsUse=   484 1.00D-06 EigRej=  5.96D-07 NBFU=   484
 Initial guess from the checkpoint file:  "./Gau-406903.chk"
 B after Tr=     0.000000    0.000000   -0.000000
         Rot=    0.999384   -0.000000   -0.000000    0.035084 Ang=  -4.02 deg.
 ExpMin= 4.38D-02 ExpMax= 1.06D+05 ExpMxC= 3.62D+03 IAcc=3 IRadAn=         5 AccDes= 0.00D+00
 Harris functional with IExCor=  402 and IRadAn=       5 diagonalized for initial guess.
 HarFok:  IExCor=  402 AccDes= 0.00D+00 IRadAn=         5 IDoV= 1 UseB2=F ITyADJ=14
 ICtDFT=  3500011 ScaDFX=  1.000000  1.000000  1.000000  1.000000
 FoFCou: FMM=F IPFlag=           0 FMFlag=      100000 FMFlg1=           0
         NFxFlg=           0 DoJE=T BraDBF=F KetDBF=T FulRan=T
         wScrn=  0.000000 ICntrl=       500 IOpCl=  0 I1Cent=   200000004 NGrid=           0
         NMat0=    1 NMatS0=      1 NMatT0=    0 NMatD0=    1 NMtDS0=    0 NMtDT0=    0
 Petite list used in FoFCou.
 Requested convergence on RMS density matrix=1.00D-08 within  32 cycles.
 Requested convergence on MAX density matrix=1.00D-06.
 Requested convergence on             energy=1.00D-06.
 No special actions if energy rises.
 Restarting incremental Fock formation.
 SCF Done:  E(RB3LYP) =  -3679.85361903     A.U. after   23 cycles
            NFock= 23  Conv=0.54D-08     -V/T= 2.0013
 QCSCF skips out because SCF is already converged.
 Calling FoFJK, ICntrl=      2127 FMM=F ISym2X=0 I1Cent= 0 IOpClX= 0 NMat=1 NMatS=1 NMatT=0.
 ***** Axes restored to original set *****
 -------------------------------------------------------------------
 Center     Atomic                   Forces (Hartrees/Bohr)
 Number     Number              X              Y              Z
 -------------------------------------------------------------------
      1        6           0.207215025    0.332139060   -0.005889667
      2        6          -0.003659218    0.234397598    0.045227664
      3        6          -0.028472383   -0.007052983    0.008055807
      4        6           0.005712161   -0.003134150   -0.002470719
      5        6          -0.013155721   -0.021050388    0.000380871
      6        6           0.076137456   -0.025710480   -0.029912670
      7        6          -0.185501383   -0.333054110   -0.001435928
      8        6          -0.042013519   -0.047315615    0.004955296
      9        6           0.008981101   -0.000399941   -0.003034010
     10        6          -0.004983473   -0.007244066    0.000281407
     11        6           0.021393445    0.021738063   -0.002965526
     12        6           0.057568991   -0.140219462   -0.045301080
     13        1          -0.040076197    0.302105123    0.069942073
     14        1           0.004303295    0.006890479   -0.000123631
     15        1          -0.003126405    0.008166974    0.002563882
     16       17          -0.264696744   -0.250425005    0.040176751
     17       17           0.094671242    0.394359317    0.042871397
     18       17          -0.008587647    0.001827294    0.003172448
     19       17           0.000664764   -0.000554329   -0.000323206
     20       17          -0.004385484    0.000648987    0.001566700
     21       17           0.006481762   -0.000238646   -0.002180266
     22       17           0.115528932   -0.465873718   -0.125557596
 -------------------------------------------------------------------
 Cartesian Forces:  Max     0.465873718 RMS     0.125509047

 GradGradGradGradGradGradGradGradGradGradGradGradGradGradGradGradGradGrad
 Berny optimization.
 Using GEDIIS/GDIIS optimizer.
 FormGI is forming the generalized inverse of G from B-inverse, IUseBI=4.
 Internal  Forces:  Max     6.557232022 RMS     0.956440416
 Search for a local minimum.
 Step number   2 out of a maximum of  112
 All quantities printed in internal units (Hartrees-Bohrs-Radians)
 Mixed Optimization -- RFO/linear search
 Update second derivatives using D2CorX and points    2    1
 DE=  2.62D-01 DEPred=-1.11D-01 R=-2.36D+00
 Trust test=-2.36D+00 RLast= 3.00D-01 DXMaxT set to 1.50D-01
 ITU= -1  0
 Use linear search instead of GDIIS.
     Eigenvalues ---    0.00238   0.00238   0.01659   0.01668   0.02070
     Eigenvalues ---    0.02070   0.02070   0.02070   0.02070   0.02070
     Eigenvalues ---    0.02070   0.02070   0.02070   0.02070   0.02070
     Eigenvalues ---    0.02070   0.02070   0.02070   0.05822   0.05994
     Eigenvalues ---    0.16000   0.16000   0.16025   0.22365   0.23443
     Eigenvalues ---    0.24581   0.25000   0.25000   0.25000   0.25000
     Eigenvalues ---    0.25000   0.25000   0.25000   0.25000   0.25000
     Eigenvalues ---    0.25000   0.27758   0.29536   0.29539   0.29539
     Eigenvalues ---    0.29539   0.29539   0.29539   0.37160   0.37224
     Eigenvalues ---    0.37230   0.40825   0.41438   0.41724   0.42105
     Eigenvalues ---    0.45218   0.45274   0.45389   0.45389   0.45389
     Eigenvalues ---    0.45389   0.45389   0.45389   1.72752  68.90315
 RFO step:  Lambda=-1.63955802D+00 EMin= 2.37798983D-03
 Quartic linear search produced a step of -0.61507.
 Maximum step size (   0.150) exceeded in Quadratic search.
    -- Step size scaled by   0.160
 Iteration  1 RMS(Cart)=  0.20818452 RMS(Int)=  0.00314822
 Iteration  2 RMS(Cart)=  0.02982691 RMS(Int)=  0.00007388
 Iteration  3 RMS(Cart)=  0.00016032 RMS(Int)=  0.00002777
 Iteration  4 RMS(Cart)=  0.00000000 RMS(Int)=  0.00002777
 Variable       Old X    -DE/DX   Delta X   Delta X   Delta X     New X
                                 (Linear)    (Quad)   (Total)
    R1        2.65047   0.03390  -0.00136   0.00152   0.00013   2.65060
    R2        2.66648  -0.45571  -0.01120   0.00688  -0.00435   2.66213
    R3        2.64563  -0.14814   0.00162  -0.00266  -0.00105   2.64458
    R4        2.01560  -0.30466   0.00394  -0.00608  -0.00214   2.01346
    R5        2.63677  -0.32186   0.00707  -0.00909  -0.00199   2.63478
    R6        3.32249   0.00682   0.00211  -0.00183   0.00028   3.32277
    R7        2.63472  -0.18421   0.00833  -0.00920  -0.00084   2.63388
    R8        2.02895   0.00807  -0.00427   0.00397  -0.00030   2.02865
    R9        2.63898   0.11751   0.00571  -0.00443   0.00129   2.64027
   R10        2.03104   0.00911  -0.00556   0.00516  -0.00040   2.03064
   R11        3.37588   0.06015  -0.03073   0.02803  -0.00270   3.37318
   R12        2.67280   0.73777  -0.01509   0.01982   0.00468   2.67748
   R13        2.67706   0.21756  -0.01771   0.01824   0.00049   2.67754
   R14        2.64979  -0.14950  -0.00094  -0.00032  -0.00126   2.64853
   R15        3.32376   0.12645   0.00133  -0.00012   0.00121   3.32497
   R16        2.63569  -0.39840   0.00773  -0.01033  -0.00256   2.63313
   R17        3.31924  -0.00329   0.00411  -0.00371   0.00040   3.31964
   R18        2.63052  -0.24718   0.01091  -0.01209  -0.00113   2.62939
   R19        3.32653   0.00022  -0.00038   0.00034  -0.00004   3.32649
   R20        2.63160   0.12511   0.01025  -0.00856   0.00169   2.63329
   R21        3.33430   0.00891  -0.00515   0.00469  -0.00046   3.33384
   R22        3.44911   0.77026  -0.07577   0.07437  -0.00140   3.44771
   R23        3.01229   1.22241  -0.04200   0.05373   0.01173   3.02402
    A1        2.05409  -0.24788   0.02479  -0.02410   0.00060   2.05468
    A2        2.10797   0.34331  -0.00835   0.01033   0.00194   2.10990
    A3        2.09609  -0.10076  -0.00104  -0.00004  -0.00106   2.09503
    A4        2.07913  -0.24255   0.00939  -0.01028  -0.00087   2.07826
    A5        2.10691  -0.11006  -0.00770   0.00588  -0.00179   2.10512
    A6        2.08796   0.05605   0.00396  -0.00303   0.00092   2.08887
    A7        2.08832   0.05401   0.00374  -0.00285   0.00087   2.08919
    A8        2.08279  -0.18199   0.00714  -0.00783  -0.00062   2.08217
    A9        2.10038   0.09195  -0.00368   0.00402   0.00030   2.10068
   A10        2.10002   0.09004  -0.00346   0.00381   0.00032   2.10033
   A11        2.09355   0.28461   0.00052   0.00203   0.00260   2.09615
   A12        2.09473  -0.14210  -0.00020  -0.00106  -0.00129   2.09344
   A13        2.09490  -0.14251  -0.00031  -0.00097  -0.00131   2.09359
   A14        2.12106  -0.08799  -0.01640   0.01369  -0.00272   2.11834
   A15        2.08276   1.38764   0.00716   0.00569   0.01285   2.09561
   A16        2.07937  -1.29965   0.00924  -0.01938  -0.01013   2.06923
   A17        2.05089  -0.26120   0.02676  -0.02592   0.00071   2.05160
   A18        2.10746   0.16275  -0.00803   0.00844   0.00037   2.10782
   A19        2.13981   0.71591  -0.02793   0.03091   0.00299   2.14280
   A20        2.03592  -0.87866   0.03597  -0.03935  -0.00336   2.03256
   A21        2.10551   0.02654  -0.00684   0.00622  -0.00056   2.10494
   A22        2.08834  -0.00770   0.00372  -0.00333   0.00037   2.08871
   A23        2.08933  -0.01884   0.00311  -0.00289   0.00020   2.08953
   A24        2.08141  -0.08451   0.00799  -0.00777   0.00031   2.08172
   A25        2.09902   0.04076  -0.00284   0.00286  -0.00003   2.09898
   A26        2.10276   0.04375  -0.00515   0.00492  -0.00028   2.10249
   A27        2.10775   0.48562  -0.00822   0.01153   0.00336   2.11112
   A28        2.09504  -0.23816  -0.00040  -0.00174  -0.00217   2.09288
   A29        2.08039  -0.24746   0.00862  -0.00979  -0.00120   2.07919
   A30        2.11336  -0.32920  -0.01166   0.00751  -0.00419   2.10917
   A31        2.12225   2.38208  -0.01713   0.03571   0.01859   2.14084
   A32        2.04758  -2.05288   0.02880  -0.04322  -0.01440   2.03317
   A33        1.99380   6.55723   0.06187   0.00200   0.06387   2.05767
   A34        1.89675   5.57461   0.12157  -0.05925   0.06232   1.95907
    D1        0.00000  -0.00000   0.00000  -0.00000   0.00000   0.00000
    D2        3.14159  -0.00000  -0.00000   0.00000  -0.00000   3.14159
    D3       -0.00000   0.00000  -0.00000   0.00000   0.00000  -0.00000
    D4        3.14159   0.00000  -0.00000   0.00000  -0.00000   3.14159
    D5        0.00000   0.00000  -0.00000   0.00000  -0.00000   0.00000
    D6        3.14159   0.00000  -0.00000   0.00000  -0.00000   3.14159
    D7       -3.14159   0.00000   0.00000  -0.00000   0.00000  -3.14159
    D8        0.00000   0.00000   0.00000  -0.00000   0.00000   0.00000
    D9       -0.00000   0.00000  -0.00000   0.00000  -0.00000  -0.00000
   D10        3.14159   0.00000   0.00000  -0.00000   0.00000   3.14159
   D11        3.14159   0.00000  -0.00000   0.00000  -0.00000   3.14159
   D12        0.00000   0.00000   0.00000  -0.00000   0.00000   0.00000
   D13        0.00000   0.00000   0.00000  -0.00000   0.00000   0.00000
   D14       -3.14159  -0.00000   0.00000  -0.00000   0.00000  -3.14159
   D15       -3.14159   0.00000   0.00000  -0.00000   0.00000  -3.14159
   D16        0.00000   0.00000   0.00000  -0.00000   0.00000   0.00000
   D17       -0.00000   0.00000  -0.00000   0.00000  -0.00000  -0.00000
   D18        3.14159  -0.00000   0.00000  -0.00000   0.00000   3.14159
   D19        3.14159   0.00000  -0.00000   0.00000  -0.00000   3.14159
   D20       -0.00000  -0.00000   0.00000  -0.00000   0.00000  -0.00000
   D21        0.00001  -0.00000   0.00000  -0.00000   0.00000   0.00001
   D22       -3.14158  -0.00000   0.00000  -0.00000  -0.00000  -3.14158
   D23        0.00000  -0.00000   0.00000  -0.00000  -0.00000   0.00000
   D24       -3.14159   0.00000   0.00000  -0.00000   0.00000  -3.14159
   D25       -0.00000   0.00000  -0.00000   0.00000  -0.00000  -0.00000
   D26        3.14159   0.00000  -0.00000   0.00000  -0.00000   3.14159
   D27       -0.00000  -0.00000   0.00000  -0.00000   0.00000  -0.00000
   D28        3.14159  -0.00000   0.00000  -0.00000   0.00000   3.14159
   D29        3.14159   0.00000  -0.00000   0.00000  -0.00000   3.14159
   D30       -0.00000   0.00000  -0.00000   0.00000  -0.00000  -0.00000
   D31       -0.00000   0.00000  -0.00000   0.00000  -0.00000  -0.00000
   D32       -3.14159  -0.00000   0.00000  -0.00000   0.00000  -3.14159
   D33        3.14159   0.00000  -0.00000   0.00000  -0.00000   3.14159
   D34        0.00000  -0.00000   0.00000  -0.00000   0.00000   0.00000
   D35        0.00000  -0.00000   0.00000  -0.00000   0.00000   0.00000
   D36       -3.14159  -0.00000   0.00000  -0.00000   0.00000  -3.14159
   D37        3.14159   0.00000  -0.00000   0.00000  -0.00000   3.14159
   D38        0.00000  -0.00000   0.00000  -0.00000  -0.00000   0.00000
   D39        0.00000  -0.00000   0.00000  -0.00000   0.00000   0.00000
   D40       -3.14159  -0.00000   0.00000  -0.00000   0.00000  -3.14159
   D41        3.14159   0.00000  -0.00000   0.00000  -0.00000   3.14159
   D42       -0.00000  -0.00000   0.00000  -0.00000   0.00000  -0.00000
   D43        0.00001   0.00000  -0.00000   0.00000  -0.00000   0.00001
   D44       -3.14159   0.00000  -0.00000   0.00000  -0.00000  -3.14159
   D45       -0.00001  -0.00005  -0.00000   0.00000  -0.00000  -0.00001
         Item               Value     Threshold  Converged?
 Maximum Force            6.557232     0.000450     NO 
 RMS     Force            0.956440     0.000300     NO 
 Maximum Displacement     0.809486     0.001800     NO 
 RMS     Displacement     0.237350     0.001200     NO 
 Predicted change in Energy=-3.375905D-01
 GradGradGradGradGradGradGradGradGradGradGradGradGradGradGradGradGradGrad

                          Input orientation:                          
 ---------------------------------------------------------------------
 Center     Atomic      Atomic             Coordinates (Angstroms)
 Number     Number       Type             X           Y           Z
 ---------------------------------------------------------------------
      1          6           0        0.196176    0.088132    0.046528
      2          6           0        1.526269    0.056591   -0.397601
      3          6           0        2.299576    1.222431   -0.433414
      4          6           0        1.762655    2.443371   -0.027218
      5          6           0        0.442576    2.493925    0.417181
      6          6           0       -0.329750    1.330177    0.453063
      7          6           0       -0.467805   -1.338089   -0.002576
      8          6           0        0.160441   -2.532564   -0.433889
      9          6           0       -0.535276   -3.749237   -0.433183
     10          6           0       -1.860765   -3.808226   -0.007569
     11          6           0       -2.490924   -2.643273    0.418830
     12          6           0       -1.815786   -1.424286    0.425338
     13          1           0        1.961324   -0.863226   -0.713681
     14          1           0        2.359542    3.335176   -0.056375
     15          1           0        0.018262    3.429406    0.732664
     16         17           0       -2.758409    0.025018    1.008087
     17         17           0       -2.015425    1.442161    1.029448
[...]
                 (A) (A) (A) (A) (A) (A) (A) (A) (A) (A) (A) (A)
                 (A) (A) (A) (A) (A) (A) (A) (A) (A) (A) (A) (A)
                 (A) (A) (A) (A) (A) (A) (A) (A) (A) (A) (A) (A)
                 (A) (A) (A) (A) (A) (A) (A) (A) (A) (A) (A) (A)
                 (A) (A) (A) (A) (A) (A) (A) (A) (A) (A) (A) (A)
                 (A) (A) (A) (A) (A) (A) (A) (A) (A) (A) (A) (A)
                 (A) (A) (A) (A) (A) (A) (A) (A) (A) (A) (A) (A)
                 (A) (A) (A) (A) (A) (A) (A) (A) (A) (A) (A) (A)
                 (A) (A) (A) (A) (A) (A) (A) (A) (A) (A) (A) (A)
                 (A) (A) (A) (A) (A) (A) (A) (A) (A) (A) (A) (A)
                 (A) (A) (A) (A) (A) (A) (A) (A) (A) (A) (A) (A)
                 (A) (A) (A) (A) (A) (A) (A) (A) (A) (A) (A) (A)
                 (A) (A) (A) (A) (A) (A) (A) (A) (A) (A) (A) (A)
                 (A) (A) (A) (A) (A) (A) (A) (A) (A) (A) (A) (A)
                 (A) (A) (A) (A) (A) (A) (A) (A) (A) (A) (A) (A)
                 (A) (A) (A) (A) (A) (A) (A) (A) (A) (A) (A) (A)
                 (A) (A) (A) (A) (A) (A) (A) (A) (A) (A) (A) (A)
                 (A) (A) (A) (A) (A) (A) (A) (A) (A) (A) (A) (A)
                 (A) (A) (A) (A) (A) (A) (A) (A) (A) (A) (A) (A)
                 (A) (A) (A) (A) (A) (A) (A) (A) (A) (A) (A) (A)
                 (A) (A) (A) (A) (A) (A)
 The electronic state is 1-A.
 Alpha  occ. eigenvalues -- -101.58445-101.58329-101.58327-101.58184-101.58183
 Alpha  occ. eigenvalues -- -101.57220-101.57064 -10.28840 -10.28520 -10.28515
 Alpha  occ. eigenvalues --  -10.28398 -10.28396 -10.26483 -10.26225 -10.24587
 Alpha  occ. eigenvalues --  -10.23373 -10.21684 -10.21554 -10.21496  -9.49912
 Alpha  occ. eigenvalues --   -9.49795  -9.49793  -9.49660  -9.49658  -9.48691
 Alpha  occ. eigenvalues --   -9.48519  -7.26421  -7.26303  -7.26301  -7.26155
 Alpha  occ. eigenvalues --   -7.26154  -7.25392  -7.25301  -7.25273  -7.25271
 Alpha  occ. eigenvalues --   -7.25187  -7.25185  -7.25156  -7.25140  -7.25138
 Alpha  occ. eigenvalues --   -7.25061  -7.25060  -7.24987  -7.24170  -7.24131
 Alpha  occ. eigenvalues --   -7.23997  -7.23964  -0.97406  -0.93469  -0.92817
 Alpha  occ. eigenvalues --   -0.91380  -0.89537  -0.88274  -0.87239  -0.84717
 Alpha  occ. eigenvalues --   -0.84113  -0.80879  -0.76245  -0.74863  -0.74139
 Alpha  occ. eigenvalues --   -0.67264  -0.64272  -0.63549  -0.61319  -0.56471
 Alpha  occ. eigenvalues --   -0.54947  -0.53001  -0.52176  -0.50084  -0.48656
 Alpha  occ. eigenvalues --   -0.47601  -0.47143  -0.47020  -0.45966  -0.44540
 Alpha  occ. eigenvalues --   -0.44451  -0.42609  -0.41476  -0.40776  -0.40542
 Alpha  occ. eigenvalues --   -0.39416  -0.38570  -0.36525  -0.36194  -0.36121
 Alpha  occ. eigenvalues --   -0.35798  -0.34819  -0.33787  -0.33575  -0.33435
 Alpha  occ. eigenvalues --   -0.33274  -0.32963  -0.31871  -0.29162  -0.27806
 Alpha  occ. eigenvalues --   -0.27013  -0.26402
 Alpha virt. eigenvalues --   -0.06685  -0.06527  -0.06111  -0.05480  -0.04772
 Alpha virt. eigenvalues --   -0.01324  -0.01037  -0.00456   0.00198   0.00518
 Alpha virt. eigenvalues --    0.00961   0.02162   0.02200   0.02481   0.02973
 Alpha virt. eigenvalues --    0.03516   0.04001   0.04635   0.05509   0.05533
 Alpha virt. eigenvalues --    0.05790   0.06214   0.06380   0.07519   0.07590
 Alpha virt. eigenvalues --    0.08040   0.08081   0.08416   0.08605   0.09508
 Alpha virt. eigenvalues --    0.09516   0.09714   0.10385   0.10577   0.10648
 Alpha virt. eigenvalues --    0.10739   0.11849   0.12111   0.12208   0.12329
 Alpha virt. eigenvalues --    0.12514   0.13303   0.13383   0.13685   0.14221
 Alpha virt. eigenvalues --    0.14544   0.14935   0.15708   0.15721   0.15893
 Alpha virt. eigenvalues --    0.16092   0.16622   0.16988   0.17434   0.17995
 Alpha virt. eigenvalues --    0.18442   0.18585   0.18750   0.19237   0.19662
 Alpha virt. eigenvalues --    0.19869   0.20409   0.20467   0.20612   0.21035
 Alpha virt. eigenvalues --    0.21800   0.21965   0.22347   0.22804   0.22985
 Alpha virt. eigenvalues --    0.23199   0.24166   0.24347   0.24811   0.25049
 Alpha virt. eigenvalues --    0.25305   0.25855   0.26167   0.26693   0.26946
 Alpha virt. eigenvalues --    0.27349   0.27678   0.27955   0.28085   0.28759
 Alpha virt. eigenvalues --    0.29122   0.29508   0.29557   0.30016   0.30255
 Alpha virt. eigenvalues --    0.30455   0.31692   0.32108   0.32749   0.33559
 Alpha virt. eigenvalues --    0.35525   0.38317   0.40994   0.42176   0.42532
 Alpha virt. eigenvalues --    0.42712   0.43665   0.43953   0.44476   0.44703
 Alpha virt. eigenvalues --    0.45413   0.45866   0.46116   0.46248   0.47029
 Alpha virt. eigenvalues --    0.47648   0.48192   0.48709   0.49029   0.49770
 Alpha virt. eigenvalues --    0.50185   0.50422   0.50765   0.51364   0.52096
 Alpha virt. eigenvalues --    0.53645   0.54244   0.55979   0.56815   0.57415
 Alpha virt. eigenvalues --    0.57457   0.58200   0.58463   0.58986   0.60195
 Alpha virt. eigenvalues --    0.60251   0.60689   0.60822   0.61657   0.62083
 Alpha virt. eigenvalues --    0.62824   0.63487   0.64342   0.64704   0.65655
 Alpha virt. eigenvalues --    0.65844   0.66710   0.67791   0.68415   0.69041
 Alpha virt. eigenvalues --    0.69095   0.69925   0.72356   0.74696   0.77968
 Alpha virt. eigenvalues --    0.78655   0.78972   0.80872   0.81601   0.81823
 Alpha virt. eigenvalues --    0.82808   0.83001   0.83335   0.83361   0.83728
 Alpha virt. eigenvalues --    0.83737   0.83840   0.84249   0.84875   0.85011
 Alpha virt. eigenvalues --    0.85418   0.85674   0.85740   0.86101   0.86889
 Alpha virt. eigenvalues --    0.87436   0.88941   0.89193   0.89257   0.90049
 Alpha virt. eigenvalues --    0.90133   0.90510   0.91723   0.92631   0.92694
 Alpha virt. eigenvalues --    0.92729   0.93977   0.94155   0.94236   0.94409
 Alpha virt. eigenvalues --    0.95424   0.96122   0.96654   0.97606   0.98139
 Alpha virt. eigenvalues --    0.99009   1.00321   1.01241   1.02135   1.03547
 Alpha virt. eigenvalues --    1.04110   1.04127   1.05734   1.06240   1.09055
 Alpha virt. eigenvalues --    1.09457   1.11167   1.15204   1.15233   1.17616
 Alpha virt. eigenvalues --    1.18434   1.20925   1.21945   1.23326   1.25221
 Alpha virt. eigenvalues --    1.25291   1.26058   1.27266   1.27415   1.27774
 Alpha virt. eigenvalues --    1.28549   1.28988   1.29558   1.31460   1.31753
 Alpha virt. eigenvalues --    1.31942   1.35855   1.38809   1.39123   1.40752
 Alpha virt. eigenvalues --    1.46515   1.47279   1.48630   1.49429   1.51283
 Alpha virt. eigenvalues --    1.56573   1.57264   1.58435   1.60445   1.62289
 Alpha virt. eigenvalues --    1.64828   1.64897   1.66847   1.68557   1.69284
 Alpha virt. eigenvalues --    1.70313   1.74023   1.75813   1.77649   1.78441
 Alpha virt. eigenvalues --    1.80725   1.81185   1.82285   1.83562   1.86904
 Alpha virt. eigenvalues --    1.87466   1.87886   1.91914   1.92563   1.94749
 Alpha virt. eigenvalues --    1.95339   1.95932   1.99116   2.01800   2.03117
 Alpha virt. eigenvalues --    2.06476   2.11244   2.11776   2.13094   2.13230
 Alpha virt. eigenvalues --    2.21997   2.22622   2.23046   2.23462   2.24573
 Alpha virt. eigenvalues --    2.24582   2.26732   2.27147   2.27575   2.31104
 Alpha virt. eigenvalues --    2.31148   2.32438   2.33454   2.34194   2.34596
 Alpha virt. eigenvalues --    2.37191   2.38362   2.40854   2.41248   2.42647
 Alpha virt. eigenvalues --    2.44194   2.45258   2.45379   2.47772   2.50889
 Alpha virt. eigenvalues --    2.52466   2.52661   2.55556   2.56483   2.57668
 Alpha virt. eigenvalues --    2.60315   2.63252   2.63904   2.65820   2.66278
 Alpha virt. eigenvalues --    2.67871   2.69744   2.69861   2.73490   2.73556
 Alpha virt. eigenvalues --    2.74994   2.77551   2.79118   2.81937   2.82374
 Alpha virt. eigenvalues --    2.83199   2.85696   2.89047   2.96031   2.97774
 Alpha virt. eigenvalues --    3.05041   3.06418   3.07931   3.09923   3.11185
 Alpha virt. eigenvalues --    3.12005   3.13800   3.14474   3.20710   3.23361
 Alpha virt. eigenvalues --    3.25319   3.28480   3.34330   3.41281   3.49566
 Alpha virt. eigenvalues --    3.50602   3.54307   3.63244   3.67946   3.77060
 Alpha virt. eigenvalues --    3.86140   3.88136   3.91438   4.03506   4.11872
 Alpha virt. eigenvalues --    4.30820   4.80073   4.81525   9.73692   9.77725
 Alpha virt. eigenvalues --    9.78247   9.80609   9.81301   9.83467   9.85749
 Alpha virt. eigenvalues --   23.27788  23.52618  23.76756  23.81264  23.85099
 Alpha virt. eigenvalues --   23.90714  23.92001  23.95869  23.98247  24.02692
 Alpha virt. eigenvalues --   24.08990  24.14014  25.76182  25.78512  25.82294
 Alpha virt. eigenvalues --   25.84433  25.85460  25.96665  25.97389  26.08473
 Alpha virt. eigenvalues --   26.08912  26.12539  26.19069  26.26482  26.31993
 Alpha virt. eigenvalues --   26.36144  26.48262  26.54644  26.61858  26.70557
 Alpha virt. eigenvalues --   26.77234  26.81236  27.13736 215.72765 215.76991
 Alpha virt. eigenvalues --  215.77744 215.80501 215.81364 215.84140 215.86856
          Condensed to atoms (all electrons):
               1          2          3          4          5          6
     1  C   34.227290   0.995626  -8.068324  -2.325414  -2.955775  -4.108658
     2  C    0.995626  33.205727  -8.457015 -13.177558   2.644591   3.225649
     3  C   -8.068324  -8.457015  25.773293   0.012257  -2.932655  -4.795402
     4  C   -2.325414 -13.177558   0.012257  20.702091   1.725652  -1.311946
     5  C   -2.955775   2.644591  -2.932655   1.725652  20.413074  -9.059939
     6  C   -4.108658   3.225649  -4.795402  -1.311946  -9.059939  43.486944
     7  C   10.382049  -6.604252   3.418154   0.191809  -3.692247  -6.668103
     8  C   -2.275808  -2.151735   0.326808   0.318551   0.030300  -6.036142
     9  C   -6.749693  -0.958846   0.418809   0.057296   0.367093  -2.127908
    10  C   -3.024835  -0.574386  -0.516597   0.070903   0.629889   0.887580
    11  C   -6.748605  -0.951477   0.408665   0.053652   0.367172  -2.168411
    12  C   -2.192335  -2.128990   0.330216   0.314459   0.010743  -5.963322
    13  H   -0.006500   0.106545   0.021890   0.090790  -0.027014  -0.168647
    14  H    0.049598   0.048956   0.035092   0.302531  -0.043257  -0.045392
    15  H    0.118227  -0.042766  -0.031198  -0.037863   0.307522   0.036690
    16  Cl  -0.222844   0.158106   0.338519  -0.097457  -0.207586   0.332090
    17  Cl   0.264671   0.023051   0.153087  -0.084103  -0.974986   0.627616
    18  Cl  -0.264378  -0.002468   0.028350  -0.000282  -0.003459  -0.068721
    19  Cl  -0.114756  -0.025561   0.003751  -0.001304  -0.000096  -0.041685
    20  Cl  -0.266356  -0.003013   0.028060  -0.000226  -0.002793  -0.067406
    21  Cl  -0.370820   1.080570  -1.579828  -0.134144   0.151740   0.335479
    22  Cl  -0.195328   0.170610   0.332877  -0.103618  -0.214544   0.322584
               7          8          9         10         11         12
     1  C   10.382049  -2.275808  -6.749693  -3.024835  -6.748605  -2.192335
     2  C   -6.604252  -2.151735  -0.958846  -0.574386  -0.951477  -2.128990
     3  C    3.418154   0.326808   0.418809  -0.516597   0.408665   0.330216
     4  C    0.191809   0.318551   0.057296   0.070903   0.053652   0.314459
     5  C   -3.692247   0.030300   0.367093   0.629889   0.367172   0.010743
     6  C   -6.668103  -6.036142  -2.127908   0.887580  -2.168411  -5.963322
     7  C   29.941614  -1.882033  -9.421975   3.814830  -9.381548  -1.851561
     8  C   -1.882033  19.931848  -5.103177  -8.176732  10.302759   3.723027
     9  C   -9.421975  -5.103177  31.890436  -2.888619  -9.895580  10.242672
    10  C    3.814830  -8.176732  -2.888619  28.412599  -2.904626  -8.247734
    11  C   -9.381548  10.302759  -9.895580  -2.904626  31.888351  -5.151503
    12  C   -1.851561   3.723027  10.242672  -8.247734  -5.151503  19.913608
    13  H    0.132909   0.087921   0.020554   0.018958   0.020372   0.087455
    14  H    0.005800   0.001139   0.000017   0.000036   0.000017   0.001127
    15  H    0.012803   0.000015  -0.000864   0.000101  -0.000861  -0.000017
    16  Cl  -0.128063  -0.807747   1.409781  -0.404567  -1.397745  -0.726365
    17  Cl   0.325122  -0.258677  -0.399521  -0.455650  -0.386649  -0.245834
    18  Cl  -1.087988   0.629765  -0.568200  -0.424729   1.117953   0.012435
    19  Cl   0.233795  -0.622545  -0.043878   0.573134  -0.038944  -0.626817
    20  Cl  -1.091634   0.006337   1.128669  -0.420492  -0.569588   0.627468
    21  Cl  -0.179582  -0.061789  -0.009776  -0.001596  -0.010048  -0.061639
    22  Cl  -0.115553  -0.733087  -1.411697  -0.420316   1.407111  -0.809438
              13         14         15         16         17         18
     1  C   -0.006500   0.049598   0.118227  -0.222844   0.264671  -0.264378
     2  C    0.106545   0.048956  -0.042766   0.158106   0.023051  -0.002468
     3  C    0.021890   0.035092  -0.031198   0.338519   0.153087   0.028350
     4  C    0.090790   0.302531  -0.037863  -0.097457  -0.084103  -0.000282
     5  C   -0.027014  -0.043257   0.307522  -0.207586  -0.974986  -0.003459
     6  C   -0.168647  -0.045392   0.036690   0.332090   0.627616  -0.068721
     7  C    0.132909   0.005800   0.012803  -0.128063   0.325122  -1.087988
     8  C    0.087921   0.001139   0.000015  -0.807747  -0.258677   0.629765
     9  C    0.020554   0.000017  -0.000864   1.409781  -0.399521  -0.568200
    10  C    0.018958   0.000036   0.000101  -0.404567  -0.455650  -0.424729
    11  C    0.020372   0.000017  -0.000861  -1.397745  -0.386649   1.117953
    12  C    0.087455   0.001127  -0.000017  -0.726365  -0.245834   0.012435
    13  H    0.519299  -0.000270   0.000049  -0.013598  -0.003366   0.000404
    14  H   -0.000270   0.504507  -0.007670  -0.000353   0.000249   0.000000
    15  H    0.000049  -0.007670   0.505668  -0.001066  -0.013269  -0.000001
    16  Cl  -0.013598  -0.000353  -0.001066  18.553333   0.105264  -0.344422
    17  Cl  -0.003366   0.000249  -0.013269   0.105264  17.823667  -0.007149
    18  Cl   0.000404   0.000000  -0.000001  -0.344422  -0.007149  17.568646
    19  Cl   0.000183   0.000000  -0.000000  -0.023190   0.007064  -0.239555
    20  Cl   0.000401   0.000000  -0.000001   0.029909  -0.007989  -0.006586
    21  Cl  -0.019983  -0.008471   0.000733   0.000413  -0.012048   0.000168
    22  Cl  -0.013846  -0.000353  -0.001099  -0.150287   0.114050   0.030017
              19         20         21         22
     1  C   -0.114756  -0.266356  -0.370820  -0.195328
     2  C   -0.025561  -0.003013   1.080570   0.170610
     3  C    0.003751   0.028060  -1.579828   0.332877
     4  C   -0.001304  -0.000226  -0.134144  -0.103618
     5  C   -0.000096  -0.002793   0.151740  -0.214544
     6  C   -0.041685  -0.067406   0.335479   0.322584
     7  C    0.233795  -1.091634  -0.179582  -0.115553
     8  C   -0.622545   0.006337  -0.061789  -0.733087
     9  C   -0.043878   1.128669  -0.009776  -1.411697
    10  C    0.573134  -0.420492  -0.001596  -0.420316
    11  C   -0.038944  -0.569588  -0.010048   1.407111
    12  C   -0.626817   0.627468  -0.061639  -0.809438
    13  H    0.000183   0.000401  -0.019983  -0.013846
    14  H    0.000000   0.000000  -0.008471  -0.000353
    15  H   -0.000000  -0.000001   0.000733  -0.001099
    16  Cl  -0.023190   0.029909   0.000413  -0.150287
    17  Cl   0.007064  -0.007989  -0.012048   0.114050
    18  Cl  -0.239555  -0.006586   0.000168   0.030017
    19  Cl  17.545097  -0.239511   0.000011  -0.023279
    20  Cl  -0.239511  17.568579   0.000170  -0.344935
    21  Cl   0.000011   0.000170  17.450556   0.000365
    22  Cl  -0.023279  -0.344935   0.000365  18.564977
 Mulliken charges:
               1
     1  C   -0.147034
     2  C   -0.581366
     3  C    0.751191
     4  C   -0.566076
     5  C   -0.533424
     6  C   -0.622948
     7  C   -0.354347
     8  C   -1.248998
     9  C    0.044408
    10  C    0.052848
    11  C    0.039532
    12  C   -1.257653
    13  H    0.145493
    14  H    0.156696
    15  H    0.154866
    16  Cl   0.597876
    17  Cl   0.405401
    18  Cl   0.630200
    19  Cl   0.678086
    20  Cl   0.630938
    21  Cl   0.429519
    22  Cl   0.594789
 Sum of Mulliken charges =  -0.00000
 Mulliken charges with hydrogens summed into heavy atoms:
               1
     1  C   -0.147034
     2  C   -0.435872
     3  C    0.751191
     4  C   -0.409379
     5  C   -0.378558
     6  C   -0.622948
     7  C   -0.354347
     8  C   -1.248998
     9  C    0.044408
    10  C    0.052848
    11  C    0.039532
    12  C   -1.257653
    16  Cl   0.597876
    17  Cl   0.405401
    18  Cl   0.630200
    19  Cl   0.678086
    20  Cl   0.630938
    21  Cl   0.429519
    22  Cl   0.594789
 Electronic spatial extent (au):  <R**2>=           8744.8958
 Charge=             -0.0000 electrons
 Dipole moment (field-independent basis, Debye):
    X=              1.3039    Y=              0.0048    Z=              0.3335  Tot=              1.3459
 Quadrupole moment (field-independent basis, Debye-Ang):
   XX=           -150.7432   YY=           -159.2836   ZZ=           -156.9468
   XY=              0.0744   XZ=              5.9707   YZ=              0.0290
 Traceless Quadrupole moment (field-independent basis, Debye-Ang):
   XX=              4.9147   YY=             -3.6257   ZZ=             -1.2890
   XY=              0.0744   XZ=              5.9707   YZ=              0.0290
 Octapole moment (field-independent basis, Debye-Ang**2):
  XXX=             10.7442  YYY=             -0.0372  ZZZ=             -1.3379  XYY=            -14.0348
  XXY=              0.4178  XXZ=             35.0627  XZZ=             -4.3275  YZZ=              0.0136
  YYZ=             -0.7658  XYZ=              0.1137
 Hexadecapole moment (field-independent basis, Debye-Ang**3):
 XXXX=          -7078.3849 YYYY=          -2496.2572 ZZZZ=          -1473.2320 XXXY=              1.9658
 XXXZ=            168.6574 YYYX=             -0.1391 YYYZ=             -1.2229 ZZZX=            -14.4899
 ZZZY=              0.6868 XXYY=          -1658.5188 XXZZ=          -1463.1190 YYZZ=           -698.8629
 XXYZ=              0.4000 YYXZ=             -0.5315 ZZXY=             -0.0974
 N-N= 2.386816883846D+03 E-N=-1.349495957389D+04  KE= 3.671255493950D+03
 1\1\GINC-CN025\FOpt\RB3LYP\6-311+G(d,p)\C12H3Cl7\20CY91R06\07-Apr-2022
 \0\\# opt b3lyp/6-311+g(d,p) scf=xqc\\Title Card Required\\0,1\C,0.269
 5938051,-0.0103477769,0.0199764614\C,1.5295481283,0.0127080287,0.62515
 74502\C,2.2515764207,1.1971948333,0.6899556035\C,1.7415363764,2.377458
 0283,0.1586940127\C,0.4892552781,2.3633381305,-0.4451757598\C,-0.23778
 50601,1.17854167,-0.5125723974\C,-0.4911798222,-1.2937402762,-0.039603
 7121\C,-0.3421149111,-2.165464345,-1.1248274916\C,-1.0398980969,-3.377
 9124811,-1.1846012647\C,-1.9038872872,-3.7282721219,-0.138034482\C,-2.
 0651213019,-2.8696050422,0.9581940319\C,-1.3575586949,-1.6620090009,0.
 9966413813\H,1.94054693,-0.8970398457,1.0434108615\H,2.3127894383,3.29
 49280715,0.2148353692\H,0.075375981,3.2711577234,-0.8645594485\Cl,-1.5
 553680495,-0.5844641748,2.3514330187\Cl,-1.812867753,1.1990158328,-1.2
 827615634\Cl,-3.1331328885,-3.3025788673,2.2554521089\Cl,-2.774317991,
 -5.2281772126,-0.1986045926\Cl,-0.8380607653,-4.4403767244,-2.54176312
 86\Cl,3.8310169046,1.201758827,1.4543410427\Cl,0.731496089,-1.71817497
 67,-2.4218675214\\Version=EM64L-G16RevB.01\State=1-A\HF=-3680.7436541\
 RMSD=4.490e-09\RMSF=2.897e-05\Dipole=0.2106389,0.4855763,-0.0150443\Qu
 adrupole=-3.2728998,5.9131916,-2.6402918,1.3176023,-0.5977139,-1.43501
 17\PG=C01 [X(C12H3Cl7)]\\@


 TO DRY ONE'S EYES AND LAUGH AT A FALL
 AND BAFFLED, GET UP AND BEGIN AGAIN.
           R. BROWNING
 Job cpu time:       1 days  4 hours 16 minutes 34.4 seconds.
 Elapsed time:       0 days 14 hours  8 minutes 24.9 seconds.
 File lengths (MBytes):  RWF=    148 Int=      0 D2E=      0 Chk=     23 Scr=      1
 Normal termination of Gaussian 16 at Thu Apr  7 10:00:35 2022.
