 Entering Gaussian System, Link 0=g16
 Input=2,2prime,4,5prime-Tetrachlorobiphenyl.gjf
 Output=2,2prime,4,5prime-Tetrachlorobiphenyl.log
 Initial command:
 /opt/g16/l1.exe "/scratch/gour/Gau-3704.inp" -scrdir="/scratch/gour/"
 Entering Link 1 = /opt/g16/l1.exe PID=      3705.
  
 Copyright (c) 1988-2017, Gaussian, Inc.  All Rights Reserved.
  
 This is part of the Gaussian(R) 16 program.  It is based on
 the Gaussian(R) 09 system (copyright 2009, Gaussian, Inc.),
 the Gaussian(R) 03 system (copyright 2003, Gaussian, Inc.),
 the Gaussian(R) 98 system (copyright 1998, Gaussian, Inc.),
 the Gaussian(R) 94 system (copyright 1995, Gaussian, Inc.),
 the Gaussian 92(TM) system (copyright 1992, Gaussian, Inc.),
 the Gaussian 90(TM) system (copyright 1990, Gaussian, Inc.),
 the Gaussian 88(TM) system (copyright 1988, Gaussian, Inc.),
 the Gaussian 86(TM) system (copyright 1986, Carnegie Mellon
 University), and the Gaussian 82(TM) system (copyright 1983,
 Carnegie Mellon University). Gaussian is a federally registered
 trademark of Gaussian, Inc.
  
 This software contains proprietary and confidential information,
 including trade secrets, belonging to Gaussian, Inc.
  
 This software is provided under written license and may be
 used, copied, transmitted, or stored only in accord with that
 written license.
  
 The following legend is applicable only to US Government
 contracts under FAR:
  
                    RESTRICTED RIGHTS LEGEND
  
 Use, reproduction and disclosure by the US Government is
 subject to restrictions as set forth in subparagraphs (a)
 and (c) of the Commercial Computer Software - Restricted
 Rights clause in FAR 52.227-19.
  
 Gaussian, Inc.
 340 Quinnipiac St., Bldg. 40, Wallingford CT 06492
  
  
 ---------------------------------------------------------------
 Warning -- This program may not be used in any manner that
 competes with the business of Gaussian, Inc. or will provide
 assistance to any competitor of Gaussian, Inc.  The licensee
 of this program is prohibited from giving any competitor of
 Gaussian, Inc. access to this program.  By using this program,
 the user acknowledges that Gaussian, Inc. is engaged in the
 business of creating and licensing software in the field of
 computational chemistry and represents and warrants to the
 licensee that it is not a competitor of Gaussian, Inc. and that
 it will not use this program in any manner prohibited above.
 ---------------------------------------------------------------
  

 Cite this work as:
 Gaussian 16, Revision B.01,
 M. J. Frisch, G. W. Trucks, H. B. Schlegel, G. E. Scuseria, 
 M. A. Robb, J. R. Cheeseman, G. Scalmani, V. Barone, 
 G. A. Petersson, H. Nakatsuji, X. Li, M. Caricato, A. V. Marenich, 
 J. Bloino, B. G. Janesko, R. Gomperts, B. Mennucci, H. P. Hratchian, 
 J. V. Ortiz, A. F. Izmaylov, J. L. Sonnenberg, D. Williams-Young, 
 F. Ding, F. Lipparini, F. Egidi, J. Goings, B. Peng, A. Petrone, 
 T. Henderson, D. Ranasinghe, V. G. Zakrzewski, J. Gao, N. Rega, 
 G. Zheng, W. Liang, M. Hada, M. Ehara, K. Toyota, R. Fukuda, 
 J. Hasegawa, M. Ishida, T. Nakajima, Y. Honda, O. Kitao, H. Nakai, 
 T. Vreven, K. Throssell, J. A. Montgomery, Jr., J. E. Peralta, 
 F. Ogliaro, M. J. Bearpark, J. J. Heyd, E. N. Brothers, K. N. Kudin, 
 V. N. Staroverov, T. A. Keith, R. Kobayashi, J. Normand, 
 K. Raghavachari, A. P. Rendell, J. C. Burant, S. S. Iyengar, 
 J. Tomasi, M. Cossi, J. M. Millam, M. Klene, C. Adamo, R. Cammi, 
 J. W. Ochterski, R. L. Martin, K. Morokuma, O. Farkas, 
 J. B. Foresman, and D. J. Fox, Gaussian, Inc., Wallingford CT, 2016.
 
 ******************************************
 Gaussian 16:  EM64L-G16RevB.01 20-Dec-2017
                15-Mar-2022 
 ******************************************
 %mem=10GB
 %nprocshared=4
 Will use up to    4 processors via shared memory.
 --------------------------------
 # opt b3lyp/6-311+g(d,p) scf=xqc
 --------------------------------
 1/18=20,19=15,26=3,38=1/1,3;
 2/9=110,12=2,17=6,18=5,40=1/2;
 3/5=4,6=6,7=111,11=2,25=1,30=1,71=1,74=-5/1,2,3;
 4//1;
 5/5=2,8=3,13=1,38=5/2,8;
 6/7=2,8=2,9=2,10=2,28=1/1;
 7//1,2,3,16;
 1/18=20,19=15,26=3/3(2);
 2/9=110/2;
 99//99;
 2/9=110/2;
 3/5=4,6=6,7=111,11=2,25=1,30=1,71=1,74=-5/1,2,3;
 4/5=5,16=3,69=1/1;
 5/5=2,8=3,13=1,38=5/2,8;
 7//1,2,3,16;
 1/18=20,19=15,26=3/3(-5);
 2/9=110/2;
 6/7=2,8=2,9=2,10=2,19=2,28=1/1;
 99/9=1/99;
 -------------------
 Title Card Required
 -------------------
 Symbolic Z-matrix:
 Charge =  0 Multiplicity = 1
 C                    -0.36193   0.47878   0.29042 
 C                     0.97045   0.50867  -0.14292 
 C                     1.67835   1.71812  -0.149 
 C                     1.05386   2.89768   0.27828 
 C                    -0.27852   2.8678    0.71162 
 C                    -0.98641   1.65835   0.7177 
 C                    -1.13983  -0.85028   0.2971 
 C                    -0.51534  -2.02985  -0.13018 
 C                    -1.22324  -3.2393   -0.1241 
 C                    -2.55562  -3.26919   0.30925 
 C                    -3.1801   -2.08962   0.73652 
 C                    -2.47221  -0.88017   0.73045 
 H                     1.44726  -0.39196  -0.46916 
 H                     1.59435   3.82113   0.27364 
 H                    -0.75533   3.76842   1.03785 
 H                     0.50196  -2.00703  -0.46105 
 H                    -0.74643  -4.13993  -0.45034 
 H                    -4.19741  -2.11244   1.0674 
 Cl                   -3.2565    0.60123   1.26706 
 Cl                   -2.65974   1.62081   1.26193 
 Cl                   -3.44465  -4.78812   0.31688 
 Cl                    3.35167   1.75565  -0.69323 
 

 GradGradGradGradGradGradGradGradGradGradGradGradGradGradGradGradGradGrad
 Berny optimization.
 Initialization pass.
                           ----------------------------
                           !    Initial Parameters    !
                           ! (Angstroms and Degrees)  !
 --------------------------                            --------------------------
 ! Name  Definition              Value          Derivative Info.                !
 --------------------------------------------------------------------------------
 ! R1    R(1,2)                  1.4014         estimate D2E/DX2                !
 ! R2    R(1,6)                  1.4014         estimate D2E/DX2                !
 ! R3    R(1,7)                  1.54           estimate D2E/DX2                !
 ! R4    R(2,3)                  1.4014         estimate D2E/DX2                !
 ! R5    R(2,13)                 1.07           estimate D2E/DX2                !
 ! R6    R(3,4)                  1.4014         estimate D2E/DX2                !
 ! R7    R(3,22)                 1.76           estimate D2E/DX2                !
 ! R8    R(4,5)                  1.4014         estimate D2E/DX2                !
 ! R9    R(4,14)                 1.07           estimate D2E/DX2                !
 ! R10   R(5,6)                  1.4014         estimate D2E/DX2                !
 ! R11   R(5,15)                 1.07           estimate D2E/DX2                !
 ! R12   R(6,20)                 1.76           estimate D2E/DX2                !
 ! R13   R(7,8)                  1.4014         estimate D2E/DX2                !
 ! R14   R(7,12)                 1.4014         estimate D2E/DX2                !
 ! R15   R(8,9)                  1.4014         estimate D2E/DX2                !
 ! R16   R(8,16)                 1.07           estimate D2E/DX2                !
 ! R17   R(9,10)                 1.4014         estimate D2E/DX2                !
 ! R18   R(9,17)                 1.07           estimate D2E/DX2                !
 ! R19   R(10,11)                1.4014         estimate D2E/DX2                !
 ! R20   R(10,21)                1.76           estimate D2E/DX2                !
 ! R21   R(11,12)                1.4014         estimate D2E/DX2                !
 ! R22   R(11,18)                1.07           estimate D2E/DX2                !
 ! R23   R(12,19)                1.76           estimate D2E/DX2                !
 ! R24   R(19,20)                1.1814         estimate D2E/DX2                !
 ! A1    A(2,1,6)              120.0            estimate D2E/DX2                !
 ! A2    A(2,1,7)              120.0            estimate D2E/DX2                !
 ! A3    A(6,1,7)              120.0            estimate D2E/DX2                !
 ! A4    A(1,2,3)              120.0            estimate D2E/DX2                !
 ! A5    A(1,2,13)             120.0            estimate D2E/DX2                !
 ! A6    A(3,2,13)             120.0            estimate D2E/DX2                !
 ! A7    A(2,3,4)              120.0            estimate D2E/DX2                !
 ! A8    A(2,3,22)             120.0            estimate D2E/DX2                !
 ! A9    A(4,3,22)             120.0            estimate D2E/DX2                !
 ! A10   A(3,4,5)              120.0            estimate D2E/DX2                !
 ! A11   A(3,4,14)             120.0            estimate D2E/DX2                !
 ! A12   A(5,4,14)             120.0            estimate D2E/DX2                !
 ! A13   A(4,5,6)              120.0            estimate D2E/DX2                !
 ! A14   A(4,5,15)             120.0            estimate D2E/DX2                !
 ! A15   A(6,5,15)             120.0            estimate D2E/DX2                !
 ! A16   A(1,6,5)              120.0            estimate D2E/DX2                !
 ! A17   A(1,6,20)             120.0            estimate D2E/DX2                !
 ! A18   A(5,6,20)             120.0            estimate D2E/DX2                !
 ! A19   A(1,7,8)              120.0            estimate D2E/DX2                !
 ! A20   A(1,7,12)             120.0            estimate D2E/DX2                !
 ! A21   A(8,7,12)             120.0            estimate D2E/DX2                !
 ! A22   A(7,8,9)              120.0            estimate D2E/DX2                !
 ! A23   A(7,8,16)             120.0            estimate D2E/DX2                !
 ! A24   A(9,8,16)             120.0            estimate D2E/DX2                !
 ! A25   A(8,9,10)             120.0            estimate D2E/DX2                !
 ! A26   A(8,9,17)             120.0            estimate D2E/DX2                !
 ! A27   A(10,9,17)            120.0            estimate D2E/DX2                !
 ! A28   A(9,10,11)            120.0            estimate D2E/DX2                !
 ! A29   A(9,10,21)            120.0            estimate D2E/DX2                !
 ! A30   A(11,10,21)           120.0            estimate D2E/DX2                !
 ! A31   A(10,11,12)           120.0            estimate D2E/DX2                !
 ! A32   A(10,11,18)           120.0            estimate D2E/DX2                !
 ! A33   A(12,11,18)           120.0            estimate D2E/DX2                !
 ! A34   A(7,12,11)            120.0            estimate D2E/DX2                !
 ! A35   A(7,12,19)            120.0            estimate D2E/DX2                !
 ! A36   A(11,12,19)           120.0            estimate D2E/DX2                !
 ! A37   A(12,19,20)           120.0            estimate D2E/DX2                !
 ! A38   A(6,20,19)            120.0            estimate D2E/DX2                !
 ! D1    D(6,1,2,3)              0.0001         estimate D2E/DX2                !
 ! D2    D(6,1,2,13)           180.0            estimate D2E/DX2                !
 ! D3    D(7,1,2,3)           -180.0            estimate D2E/DX2                !
 ! D4    D(7,1,2,13)            -0.0001         estimate D2E/DX2                !
 ! D5    D(2,1,6,5)             -0.0001         estimate D2E/DX2                !
 ! D6    D(2,1,6,20)           180.0            estimate D2E/DX2                !
 ! D7    D(7,1,6,5)            180.0            estimate D2E/DX2                !
 ! D8    D(7,1,6,20)             0.0            estimate D2E/DX2                !
 ! D9    D(2,1,7,8)             -0.0001         estimate D2E/DX2                !
 ! D10   D(2,1,7,12)           179.9998         estimate D2E/DX2                !
 ! D11   D(6,1,7,8)            179.9999         estimate D2E/DX2                !
 ! D12   D(6,1,7,12)            -0.0002         estimate D2E/DX2                !
 ! D13   D(1,2,3,4)              0.0            estimate D2E/DX2                !
 ! D14   D(1,2,3,22)           180.0            estimate D2E/DX2                !
 ! D15   D(13,2,3,4)          -179.9999         estimate D2E/DX2                !
 ! D16   D(13,2,3,22)            0.0001         estimate D2E/DX2                !
 ! D17   D(2,3,4,5)             -0.0001         estimate D2E/DX2                !
 ! D18   D(2,3,4,14)           180.0            estimate D2E/DX2                !
 ! D19   D(22,3,4,5)           179.9999         estimate D2E/DX2                !
 ! D20   D(22,3,4,14)            0.0            estimate D2E/DX2                !
 ! D21   D(3,4,5,6)              0.0001         estimate D2E/DX2                !
 ! D22   D(3,4,5,15)          -179.9999         estimate D2E/DX2                !
 ! D23   D(14,4,5,6)          -180.0            estimate D2E/DX2                !
 ! D24   D(14,4,5,15)            0.0            estimate D2E/DX2                !
 ! D25   D(4,5,6,1)              0.0            estimate D2E/DX2                !
 ! D26   D(4,5,6,20)           179.9999         estimate D2E/DX2                !
 ! D27   D(15,5,6,1)           180.0            estimate D2E/DX2                !
 ! D28   D(15,5,6,20)           -0.0001         estimate D2E/DX2                !
 ! D29   D(1,6,20,19)            0.0006         estimate D2E/DX2                !
 ! D30   D(5,6,20,19)         -179.9994         estimate D2E/DX2                !
 ! D31   D(1,7,8,9)            179.9999         estimate D2E/DX2                !
 ! D32   D(1,7,8,16)             0.0001         estimate D2E/DX2                !
 ! D33   D(12,7,8,9)             0.0001         estimate D2E/DX2                !
 ! D34   D(12,7,8,16)         -179.9998         estimate D2E/DX2                !
 ! D35   D(1,7,12,11)         -179.9999         estimate D2E/DX2                !
 ! D36   D(1,7,12,19)            0.0            estimate D2E/DX2                !
 ! D37   D(8,7,12,11)           -0.0001         estimate D2E/DX2                !
 ! D38   D(8,7,12,19)          179.9999         estimate D2E/DX2                !
 ! D39   D(7,8,9,10)             0.0            estimate D2E/DX2                !
 ! D40   D(7,8,9,17)           180.0            estimate D2E/DX2                !
 ! D41   D(16,8,9,10)          179.9998         estimate D2E/DX2                !
 ! D42   D(16,8,9,17)           -0.0002         estimate D2E/DX2                !
 ! D43   D(8,9,10,11)            0.0            estimate D2E/DX2                !
 ! D44   D(8,9,10,21)         -179.9999         estimate D2E/DX2                !
 ! D45   D(17,9,10,11)         180.0            estimate D2E/DX2                !
 ! D46   D(17,9,10,21)           0.0001         estimate D2E/DX2                !
 ! D47   D(9,10,11,12)           0.0            estimate D2E/DX2                !
 ! D48   D(9,10,11,18)        -179.9998         estimate D2E/DX2                !
 ! D49   D(21,10,11,12)        179.9999         estimate D2E/DX2                !
 ! D50   D(21,10,11,18)          0.0001         estimate D2E/DX2                !
 ! D51   D(10,11,12,7)           0.0            estimate D2E/DX2                !
 ! D52   D(10,11,12,19)       -179.9999         estimate D2E/DX2                !
 ! D53   D(18,11,12,7)         179.9999         estimate D2E/DX2                !
 ! D54   D(18,11,12,19)         -0.0001         estimate D2E/DX2                !
 ! D55   D(7,12,19,20)           0.0005         estimate D2E/DX2                !
 ! D56   D(11,12,19,20)       -179.9995         estimate D2E/DX2                !
 ! D57   D(12,19,20,6)          -0.0008         estimate D2E/DX2                !
 --------------------------------------------------------------------------------
 Trust Radius=3.00D-01 FncErr=1.00D-07 GrdErr=1.00D-06 EigMax=2.50D+02 EigMin=1.00D-04
 Number of steps in this run=    129 maximum allowed number of steps=    132.
 GradGradGradGradGradGradGradGradGradGradGradGradGradGradGradGradGradGrad

                          Input orientation:                          
 ---------------------------------------------------------------------
 Center     Atomic      Atomic             Coordinates (Angstroms)
 Number     Number       Type             X           Y           Z
 ---------------------------------------------------------------------
      1          6           0       -0.361927    0.478782    0.290422
      2          6           0        0.970454    0.508668   -0.142924
      3          6           0        1.678348    1.718119   -0.148997
      4          6           0        1.053861    2.897684    0.278278
      5          6           0       -0.278521    2.867799    0.711623
      6          6           0       -0.986415    1.658348    0.717695
      7          6           0       -1.139832   -0.850285    0.297096
      8          6           0       -0.515344   -2.029850   -0.130179
      9          6           0       -1.223237   -3.239301   -0.124104
     10          6           0       -2.555617   -3.269188    0.309245
     11          6           0       -3.180104   -2.089623    0.736521
     12          6           0       -2.472211   -0.880171    0.730447
     13          1           0        1.447265   -0.391956   -0.469156
     14          1           0        1.594353    3.821127    0.273642
     15          1           0       -0.755332    3.768423    1.037855
     16          1           0        0.501958   -2.007031   -0.461048
     17          1           0       -0.746427   -4.139925   -0.450338
     18          1           0       -4.197405   -2.112442    1.067396
     19         17           0       -3.256496    0.601229    1.267058
     20         17           0       -2.659735    1.620815    1.261929
     21         17           0       -3.444650   -4.788122    0.316877
     22         17           0        3.351668    1.755652   -0.693230
 ---------------------------------------------------------------------
                    Distance matrix (angstroms):
                    1          2          3          4          5
     1  C    0.000000
     2  C    1.401400   0.000000
     3  C    2.427296   1.401400   0.000000
     4  C    2.802800   2.427296   1.401400   0.000000
     5  C    2.427296   2.802800   2.427296   1.401400   0.000000
     6  C    1.401400   2.427296   2.802800   2.427296   1.401400
     7  C    1.540000   2.548270   3.838989   4.342800   3.838989
     8  C    2.548270   2.941400   4.342800   5.187469   4.975106
     9  C    3.838989   4.342800   5.744200   6.558176   6.235992
    10  C    4.342800   5.187469   6.558176   7.145600   6.558176
    11  C    3.838989   4.975106   6.235992   6.558176   5.744200
    12  C    2.548270   3.813607   4.975106   5.187469   4.342800
    13  H    2.146700   1.070000   2.146700   3.396345   3.872800
    14  H    3.872800   3.396345   2.146700   1.070000   2.146700
    15  H    3.396345   3.872800   3.396345   2.146700   1.070000
    16  H    2.736837   2.578650   3.918930   4.990735   5.074276
    17  H    4.693509   4.965039   6.347206   7.300676   7.118798
    18  H    4.693509   5.919617   7.118798   7.300676   6.347206
    19  Cl   3.057342   4.456874   5.254079   4.983028   3.783409
    20  Cl   2.743718   4.048303   4.562800   4.048303   2.743718
    21  Cl   6.102800   6.910901   8.294174   8.905600   8.294174
    22  Cl   4.048303   2.743718   1.760000   2.743718   4.048303
                    6          7          8          9         10
     6  C    0.000000
     7  C    2.548270   0.000000
     8  C    3.813607   1.401400   0.000000
     9  C    4.975106   2.427296   1.401400   0.000000
    10  C    5.187469   2.802800   2.427296   1.401400   0.000000
    11  C    4.342800   2.427296   2.802800   2.427296   1.401400
    12  C    2.941400   1.401400   2.427296   2.802800   2.427296
    13  H    3.396345   2.736837   2.578650   3.918930   4.990735
    14  H    3.396345   5.412800   6.232802   7.612271   8.215600
    15  H    2.146700   4.693509   5.919617   7.118798   7.300676
    16  H    4.127917   2.146700   1.070000   2.146700   3.396345
    17  H    5.919617   3.396345   2.146700   1.070000   2.146700
    18  H    4.965039   3.396345   3.872800   3.396345   2.146700
    19  Cl   2.563702   2.743718   4.048303   4.562800   4.048303
    20  Cl   1.760000   3.057342   4.456874   5.254079   4.983028
    21  Cl   6.910901   4.562800   4.048303   2.743718   1.760000
    22  Cl   4.562800   5.286324   5.440665   6.797295   7.819846
                   11         12         13         14         15
    11  C    0.000000
    12  C    1.401400   0.000000
    13  H    5.074276   4.127917   0.000000
    14  H    7.612271   6.232802   4.280590   0.000000
    15  H    6.347206   4.965039   4.942800   2.471400   0.000000
    16  H    3.872800   3.396345   1.871400   5.974992   6.097816
    17  H    3.396345   3.872800   4.342800   8.329571   8.047159
    18  H    1.070000   2.146700   6.097816   8.329571   6.814200
    19  Cl   2.743718   1.760000   5.111382   5.906383   4.042212
    20  Cl   3.783409   2.563702   4.890332   4.890332   2.879094
    21  Cl   2.743718   4.048303   6.623817   9.975600   8.998151
    22  Cl   7.713260   6.549198   2.879094   2.879094   4.890332
                   16         17         18         19         20
    16  H    0.000000
    17  H    2.471400   0.000000
    18  H    4.942800   4.280590   0.000000
    19  Cl   4.890332   5.632800   2.879094   0.000000
    20  Cl   5.111382   6.307038   4.042212   1.181400   0.000000
    21  Cl   4.890332   2.879094   2.879094   5.475705   6.525618
    22  Cl   4.725732   7.184095   8.663168   6.988795   6.322800
                   21         22
    21  Cl   0.000000
    22  Cl   9.488480   0.000000
 Stoichiometry    C12H6Cl4
 Framework group  C1[X(C12H6Cl4)]
 Deg. of freedom    60
 Full point group                 C1      NOp   1
 Largest Abelian subgroup         C1      NOp   1
 Largest concise Abelian subgroup C1      NOp   1
                         Standard orientation:                         
 ---------------------------------------------------------------------
 Center     Atomic      Atomic             Coordinates (Angstroms)
 Number     Number       Type             X           Y           Z
 ---------------------------------------------------------------------
      1          6           0       -0.987652   -0.105739    0.000002
      2          6           0       -1.920245   -1.151776    0.000001
      3          6           0       -3.292435   -0.867145   -0.000001
      4          6           0       -3.732033    0.463522   -0.000002
      5          6           0       -2.799441    1.509559    0.000001
      6          6           0       -1.427250    1.224928    0.000002
      7          6           0        0.520250   -0.418520    0.000003
      8          6           0        0.959848   -1.749187    0.000004
      9          6           0        2.332039   -2.033818    0.000004
     10          6           0        3.264631   -0.987781    0.000001
     11          6           0        2.825033    0.342886   -0.000001
     12          6           0        1.452843    0.627517   -0.000000
     13          1           0       -1.584602   -2.167770    0.000000
     14          1           0       -4.779732    0.680844   -0.000004
     15          1           0       -3.135084    2.525553    0.000002
     16          1           0        0.247793   -2.547859    0.000004
     17          1           0        2.667682   -3.049812    0.000005
     18          1           0        3.537088    1.141559   -0.000005
     19         17           0        0.900757    2.298685   -0.000005
     20         17           0       -0.256019    2.538632    0.000004
     21         17           0        4.987948   -1.345245   -0.000002
     22         17           0       -4.463666   -2.180849   -0.000002
 ---------------------------------------------------------------------
 Rotational constants (GHZ):           0.5962096           0.2060216           0.1531130
 Standard basis: 6-311+G(d,p) (5D, 7F)
 There are   436 symmetry adapted cartesian basis functions of A   symmetry.
 There are   420 symmetry adapted basis functions of A   symmetry.
   420 basis functions,   692 primitive gaussians,   436 cartesian basis functions
    73 alpha electrons       73 beta electrons
       nuclear repulsion energy      1534.1105353380 Hartrees.
 NAtoms=   22 NActive=   22 NUniq=   22 SFac= 1.00D+00 NAtFMM=   60 NAOKFM=F Big=F
 Integral buffers will be    131072 words long.
 Raffenetti 2 integral format.
 Two-electron integral symmetry is turned on.
 One-electron integrals computed using PRISM.
 NBasis=   420 RedAO= T EigKep=  1.09D-06  NBF=   420
 NBsUse=   415 1.00D-06 EigRej=  7.84D-07 NBFU=   415
 ExpMin= 4.38D-02 ExpMax= 1.06D+05 ExpMxC= 3.62D+03 IAcc=3 IRadAn=         5 AccDes= 0.00D+00
 Harris functional with IExCor=  402 and IRadAn=       5 diagonalized for initial guess.
 HarFok:  IExCor=  402 AccDes= 0.00D+00 IRadAn=         5 IDoV= 1 UseB2=F ITyADJ=14
 ICtDFT=  3500011 ScaDFX=  1.000000  1.000000  1.000000  1.000000
 FoFCou: FMM=F IPFlag=           0 FMFlag=      100000 FMFlg1=           0
         NFxFlg=           0 DoJE=T BraDBF=F KetDBF=T FulRan=T
         wScrn=  0.000000 ICntrl=       500 IOpCl=  0 I1Cent=   200000004 NGrid=           0
         NMat0=    1 NMatS0=      1 NMatT0=    0 NMatD0=    1 NMtDS0=    0 NMtDT0=    0
 Petite list used in FoFCou.
 Requested convergence on RMS density matrix=1.00D-08 within  32 cycles.
 Requested convergence on MAX density matrix=1.00D-06.
 Requested convergence on             energy=1.00D-06.
 No special actions if energy rises.
 SCF Done:  E(RB3LYP) =  -2300.27986642     A.U. after   20 cycles
            NFock= 20  Conv=0.66D-08     -V/T= 1.9994
 QCSCF skips out because SCF is already converged.

 **********************************************************************

            Population analysis using the SCF Density.

 **********************************************************************

 Orbital symmetries:
       Occupied  (A) (A) (A) (A) (A) (A) (A) (A) (A) (A) (A) (A)
                 (A) (A) (A) (A) (A) (A) (A) (A) (A) (A) (A) (A)
                 (A) (A) (A) (A) (A) (A) (A) (A) (A) (A) (A) (A)
                 (A) (A) (A) (A) (A) (A) (A) (A) (A) (A) (A) (A)
                 (A) (A) (A) (A) (A) (A) (A) (A) (A) (A) (A) (A)
                 (A) (A) (A) (A) (A) (A) (A) (A) (A) (A) (A) (A)
                 (A)
       Virtual   (A) (A) (A) (A) (A) (A) (A) (A) (A) (A) (A) (A)
                 (A) (A) (A) (A) (A) (A) (A) (A) (A) (A) (A) (A)
                 (A) (A) (A) (A) (A) (A) (A) (A) (A) (A) (A) (A)
                 (A) (A) (A) (A) (A) (A) (A) (A) (A) (A) (A) (A)
                 (A) (A) (A) (A) (A) (A) (A) (A) (A) (A) (A) (A)
                 (A) (A) (A) (A) (A) (A) (A) (A) (A) (A) (A) (A)
                 (A) (A) (A) (A) (A) (A) (A) (A) (A) (A) (A) (A)
                 (A) (A) (A) (A) (A) (A) (A) (A) (A) (A) (A) (A)
                 (A) (A) (A) (A) (A) (A) (A) (A) (A) (A) (A) (A)
                 (A) (A) (A) (A) (A) (A) (A) (A) (A) (A) (A) (A)
                 (A) (A) (A) (A) (A) (A) (A) (A) (A) (A) (A) (A)
                 (A) (A) (A) (A) (A) (A) (A) (A) (A) (A) (A) (A)
                 (A) (A) (A) (A) (A) (A) (A) (A) (A) (A) (A) (A)
                 (A) (A) (A) (A) (A) (A) (A) (A) (A) (A) (A) (A)
                 (A) (A) (A) (A) (A) (A) (A) (A) (A) (A) (A) (A)
                 (A) (A) (A) (A) (A) (A) (A) (A) (A) (A) (A) (A)
                 (A) (A) (A) (A) (A) (A) (A) (A) (A) (A) (A) (A)
                 (A) (A) (A) (A) (A) (A) (A) (A) (A) (A) (A) (A)
                 (A) (A) (A) (A) (A) (A) (A) (A) (A) (A) (A) (A)
                 (A) (A) (A) (A) (A) (A) (A) (A) (A) (A) (A) (A)
                 (A) (A) (A) (A) (A) (A) (A) (A) (A) (A) (A) (A)
                 (A) (A) (A) (A) (A) (A) (A) (A) (A) (A) (A) (A)
                 (A) (A) (A) (A) (A) (A) (A) (A) (A) (A) (A) (A)
                 (A) (A) (A) (A) (A) (A) (A) (A) (A) (A) (A) (A)
                 (A) (A) (A) (A) (A) (A) (A) (A) (A) (A) (A) (A)
                 (A) (A) (A) (A) (A) (A) (A) (A) (A) (A) (A) (A)
                 (A) (A) (A) (A) (A) (A) (A) (A) (A) (A) (A) (A)
                 (A) (A) (A) (A) (A) (A) (A) (A) (A) (A) (A) (A)
                 (A) (A) (A) (A) (A) (A)
 The electronic state is 1-A.
 Alpha  occ. eigenvalues -- -101.65870-101.65794-101.55781-101.55657 -10.24700
 Alpha  occ. eigenvalues --  -10.24561 -10.20663 -10.20302 -10.19566 -10.19508
 Alpha  occ. eigenvalues --  -10.19488 -10.19328 -10.19231 -10.19154 -10.17256
 Alpha  occ. eigenvalues --  -10.17016  -9.64608  -9.62481  -9.47223  -9.47104
 Alpha  occ. eigenvalues --   -7.43019  -7.38041  -7.38018  -7.37584  -7.37412
 Alpha  occ. eigenvalues --   -7.36979  -7.23684  -7.23558  -7.22705  -7.22676
 Alpha  occ. eigenvalues --   -7.22592  -7.22557  -1.38967  -0.90416  -0.89626
 Alpha  occ. eigenvalues --   -0.86554  -0.85363  -0.80789  -0.79833  -0.78202
 Alpha  occ. eigenvalues --   -0.74242  -0.72212  -0.72211  -0.70259  -0.65382
 Alpha  occ. eigenvalues --   -0.63054  -0.61016  -0.58905  -0.56883  -0.51938
 Alpha  occ. eigenvalues --   -0.49643  -0.49074  -0.47665  -0.46630  -0.45083
 Alpha  occ. eigenvalues --   -0.44159  -0.41789  -0.41360  -0.40519  -0.40072
 Alpha  occ. eigenvalues --   -0.39008  -0.36518  -0.35754  -0.34872  -0.34563
 Alpha  occ. eigenvalues --   -0.32031  -0.32012  -0.29728  -0.28784  -0.27053
 Alpha  occ. eigenvalues --   -0.24739  -0.20759  -0.15822
 Alpha virt. eigenvalues --   -0.06245  -0.05023  -0.02307  -0.01715   0.00436
 Alpha virt. eigenvalues --    0.00472   0.00589   0.00916   0.01190   0.01938
 Alpha virt. eigenvalues --    0.01945   0.02542   0.02815   0.04495   0.04915
 Alpha virt. eigenvalues --    0.05341   0.06140   0.06249   0.06328   0.07368
 Alpha virt. eigenvalues --    0.07704   0.07772   0.08536   0.09832   0.09921
 Alpha virt. eigenvalues --    0.10351   0.10452   0.11029   0.11349   0.11730
 Alpha virt. eigenvalues --    0.11955   0.12509   0.12824   0.13470   0.13695
 Alpha virt. eigenvalues --    0.13729   0.14595   0.15179   0.15613   0.15799
 Alpha virt. eigenvalues --    0.15871   0.16265   0.16971   0.17029   0.17457
 Alpha virt. eigenvalues --    0.17502   0.17969   0.18699   0.18790   0.18971
 Alpha virt. eigenvalues --    0.20023   0.20440   0.20597   0.20901   0.21352
 Alpha virt. eigenvalues --    0.21714   0.22020   0.22066   0.22669   0.22939
 Alpha virt. eigenvalues --    0.23496   0.23831   0.24835   0.24996   0.25011
 Alpha virt. eigenvalues --    0.25535   0.26265   0.26815   0.27417   0.27814
 Alpha virt. eigenvalues --    0.28503   0.28680   0.29203   0.29968   0.30381
 Alpha virt. eigenvalues --    0.31111   0.31883   0.32927   0.33280   0.33896
 Alpha virt. eigenvalues --    0.34879   0.35194   0.36393   0.37754   0.39087
 Alpha virt. eigenvalues --    0.40711   0.42173   0.44189   0.44578   0.44584
 Alpha virt. eigenvalues --    0.45438   0.45818   0.46138   0.46250   0.46752
 Alpha virt. eigenvalues --    0.47398   0.49041   0.50601   0.50799   0.51286
 Alpha virt. eigenvalues --    0.52761   0.53279   0.54155   0.54920   0.55006
 Alpha virt. eigenvalues --    0.55378   0.56181   0.57123   0.57641   0.58892
 Alpha virt. eigenvalues --    0.59133   0.59331   0.61596   0.61925   0.62400
 Alpha virt. eigenvalues --    0.62988   0.63174   0.65611   0.66053   0.66541
 Alpha virt. eigenvalues --    0.66952   0.66972   0.67771   0.68466   0.69760
 Alpha virt. eigenvalues --    0.71367   0.71512   0.72259   0.72716   0.73909
 Alpha virt. eigenvalues --    0.74567   0.77843   0.79006   0.79883   0.81165
 Alpha virt. eigenvalues --    0.83748   0.84226   0.84339   0.84811   0.84983
 Alpha virt. eigenvalues --    0.85289   0.85872   0.86283   0.86633   0.86667
 Alpha virt. eigenvalues --    0.88012   0.88458   0.89512   0.90655   0.91385
 Alpha virt. eigenvalues --    0.91993   0.92717   0.93789   0.95375   0.95661
 Alpha virt. eigenvalues --    0.96004   0.96831   0.97260   0.98726   0.99858
 Alpha virt. eigenvalues --    1.00073   1.00645   1.03387   1.04910   1.05375
 Alpha virt. eigenvalues --    1.06292   1.07389   1.09075   1.10180   1.10181
 Alpha virt. eigenvalues --    1.11453   1.11570   1.15670   1.16908   1.17544
 Alpha virt. eigenvalues --    1.21669   1.23879   1.25154   1.26208   1.27274
 Alpha virt. eigenvalues --    1.29046   1.29215   1.31780   1.32543   1.34760
 Alpha virt. eigenvalues --    1.35671   1.41191   1.43320   1.44515   1.47004
 Alpha virt. eigenvalues --    1.50783   1.50901   1.51789   1.52377   1.54033
 Alpha virt. eigenvalues --    1.54969   1.56996   1.58285   1.59198   1.61563
 Alpha virt. eigenvalues --    1.61964   1.63636   1.65452   1.67315   1.68153
 Alpha virt. eigenvalues --    1.69908   1.71941   1.74373   1.75851   1.75875
 Alpha virt. eigenvalues --    1.80387   1.83690   1.84941   1.87315   1.89473
 Alpha virt. eigenvalues --    1.90160   1.90820   1.92152   1.92978   1.93865
 Alpha virt. eigenvalues --    1.95471   1.97002   1.97713   1.98801   2.00572
 Alpha virt. eigenvalues --    2.00963   2.02631   2.03720   2.04938   2.07869
 Alpha virt. eigenvalues --    2.08847   2.08925   2.11437   2.15503   2.19253
 Alpha virt. eigenvalues --    2.20442   2.25023   2.25283   2.26320   2.27105
 Alpha virt. eigenvalues --    2.28122   2.28445   2.30821   2.32751   2.33602
 Alpha virt. eigenvalues --    2.36922   2.39244   2.41071   2.42646   2.44311
 Alpha virt. eigenvalues --    2.45404   2.47129   2.49676   2.54409   2.55658
 Alpha virt. eigenvalues --    2.56496   2.61376   2.62856   2.63737   2.65248
 Alpha virt. eigenvalues --    2.65872   2.66087   2.70114   2.70917   2.71770
 Alpha virt. eigenvalues --    2.74237   2.74777   2.74905   2.76655   2.76960
 Alpha virt. eigenvalues --    2.77009   2.80700   2.81110   2.83453   2.83582
 Alpha virt. eigenvalues --    2.85159   2.86789   2.86802   2.93082   2.93137
 Alpha virt. eigenvalues --    2.95996   3.03844   3.07337   3.08102   3.08660
 Alpha virt. eigenvalues --    3.13404   3.15956   3.20005   3.21148   3.24878
 Alpha virt. eigenvalues --    3.34376   3.36073   3.37931   3.43426   3.46992
 Alpha virt. eigenvalues --    3.52644   3.57390   3.60087   3.64530   3.77219
 Alpha virt. eigenvalues --    3.81236   3.87352   3.92619   4.06864   4.08992
 Alpha virt. eigenvalues --    4.14153   4.22492   4.49211   4.81322   4.84580
 Alpha virt. eigenvalues --    9.76760   9.78553   9.80420  10.54841  23.44286
 Alpha virt. eigenvalues --   23.59850  23.85617  23.86589  23.93915  23.95020
 Alpha virt. eigenvalues --   24.01083  24.03035  24.05630  24.06582  24.12927
 Alpha virt. eigenvalues --   24.13322  25.41259  25.82634  25.82924  26.00570
 Alpha virt. eigenvalues --   26.13628  26.15176  26.19896  26.60867  26.61192
 Alpha virt. eigenvalues --   27.09987  27.39445  28.44051 215.76520 215.77726
 Alpha virt. eigenvalues --  215.89950 216.86703
          Condensed to atoms (all electrons):
               1          2          3          4          5          6
     1  C   24.286424   3.619369  -5.667820  -3.933452  -4.665247   3.701650
     2  C    3.619369  19.897373   5.453886  -6.636653  -2.923094  -1.701591
     3  C   -5.667820   5.453886  23.830913  -5.133571  -3.524687  -0.471277
     4  C   -3.933452  -6.636653  -5.133571  21.680350   3.192969  -7.440851
     5  C   -4.665247  -2.923094  -3.524687   3.192969  38.691337 -39.194287
     6  C    3.701650  -1.701591  -0.471277  -7.440851 -39.194287  75.717409
     7  C    5.966687  -0.702996  -1.170469   0.240337  -2.815550   1.329944
     8  C    0.648634   0.463560  -1.366934  -0.651532   2.124657  -4.260288
     9  C    0.107124   2.133863   1.039894  -0.041976  -0.801837  -1.461955
    10  C   -1.611591  -1.562783  -0.608162   0.051539   0.284516  -0.557578
    11  C   -4.266839  -2.003552  -0.960900   0.318513   1.806481  -2.439110
    12  C    0.648207  -4.038616  -2.202891   0.622511  -6.874748  12.730031
    13  H    0.251077   0.119629  -0.368580   0.075503   0.027082  -0.030972
    14  H    0.085385   0.081221   0.084705   0.343660  -0.049251  -0.214420
    15  H    0.123022  -0.024882  -0.066107  -0.041196   0.119137   0.353190
    16  H    0.101178  -0.061704  -0.075680  -0.010668   0.021082   0.028079
    17  H    0.005819   0.010693   0.000057  -0.000142   0.000796   0.000180
    18  H    0.010899   0.004860   0.001211  -0.000032  -0.005504   0.017862
    19  Cl   0.172273   0.377051  -0.455628  -0.584347  -0.038744  -2.271793
    20  Cl -12.590127  -6.206053  -2.922551   4.781848  21.046144 -28.223671
    21  Cl  -0.062344  -0.012707   0.000585  -0.000304  -0.008863  -0.030961
    22  Cl  -0.758037   0.262811  -0.474405  -0.070399   0.296304   0.273246
               7          8          9         10         11         12
     1  C    5.966687   0.648634   0.107124  -1.611591  -4.266839   0.648207
     2  C   -0.702996   0.463560   2.133863  -1.562783  -2.003552  -4.038616
     3  C   -1.170469  -1.366934   1.039894  -0.608162  -0.960900  -2.202891
     4  C    0.240337  -0.651532  -0.041976   0.051539   0.318513   0.622511
     5  C   -2.815550   2.124657  -0.801837   0.284516   1.806481  -6.874748
     6  C    1.329944  -4.260288  -1.461955  -0.557578  -2.439110  12.730031
     7  C   16.520898  -2.526769   1.004101  -4.662915  -4.676401   5.003634
     8  C   -2.526769  14.229768   0.192006  -0.342639  -0.407001  -4.100100
     9  C    1.004101   0.192006  15.348158  -1.357999  -5.012322  -2.794057
    10  C   -4.662915  -0.342639  -1.357999  16.227631   2.729869  -5.033694
    11  C   -4.676401  -0.407001  -5.012322   2.729869  16.687124  -5.073818
    12  C    5.003634  -4.100100  -2.794057  -5.033694  -5.073818  35.936209
    13  H    0.074899   0.076597  -0.006762   0.014724   0.005250   0.058986
    14  H    0.007029   0.004355   0.000044   0.000081   0.000266  -0.000596
    15  H    0.011777  -0.001626   0.000769  -0.000401  -0.004724   0.018451
    16  H    0.012834   0.429443  -0.177997   0.017813  -0.020421   0.016474
    17  H    0.012748  -0.096526   0.334579   0.048669   0.036185   0.003346
    18  H    0.111246  -0.030873   0.052374   0.006010   0.257039   0.017314
    19  Cl  -2.289061   1.847466  -0.742232   1.163041   3.946655 -10.120031
    20  Cl  -4.930459  -0.060092  -1.574698   1.530908   5.486780  -7.735280
    21  Cl  -0.260536   0.123097   0.281381  -1.064774   0.292439  -0.086802
    22  Cl  -0.209732  -0.019798   0.028831  -0.008437  -0.017209  -0.136611
              13         14         15         16         17         18
     1  C    0.251077   0.085385   0.123022   0.101178   0.005819   0.010899
     2  C    0.119629   0.081221  -0.024882  -0.061704   0.010693   0.004860
     3  C   -0.368580   0.084705  -0.066107  -0.075680   0.000057   0.001211
     4  C    0.075503   0.343660  -0.041196  -0.010668  -0.000142  -0.000032
     5  C    0.027082  -0.049251   0.119137   0.021082   0.000796  -0.005504
     6  C   -0.030972  -0.214420   0.353190   0.028079   0.000180   0.017862
     7  C    0.074899   0.007029   0.011777   0.012834   0.012748   0.111246
     8  C    0.076597   0.004355  -0.001626   0.429443  -0.096526  -0.030873
     9  C   -0.006762   0.000044   0.000769  -0.177997   0.334579   0.052374
    10  C    0.014724   0.000081  -0.000401   0.017813   0.048669   0.006010
    11  C    0.005250   0.000266  -0.004724  -0.020421   0.036185   0.257039
    12  C    0.058986  -0.000596   0.018451   0.016474   0.003346   0.017314
    13  H    0.568705  -0.000180   0.000005   0.006006   0.000073  -0.000003
    14  H   -0.000180   0.526275  -0.010086   0.000003  -0.000000  -0.000000
    15  H    0.000005  -0.010086   0.535595  -0.000003   0.000000   0.000002
    16  H    0.006006   0.000003  -0.000003   0.573602  -0.007688   0.000053
    17  H    0.000073  -0.000000   0.000000  -0.007688   0.518700  -0.000372
    18  H   -0.000003  -0.000000   0.000002   0.000053  -0.000372   0.518650
    19  Cl   0.003597  -0.001288   0.004216   0.005750   0.003427  -0.111674
    20  Cl   0.036049   0.019297  -0.155030   0.021903  -0.001112   0.023592
    21  Cl   0.000006   0.000000  -0.000001  -0.000423  -0.013475  -0.014608
    22  Cl  -0.041265  -0.018310   0.002512  -0.001023   0.000013   0.000003
              19         20         21         22
     1  C    0.172273 -12.590127  -0.062344  -0.758037
     2  C    0.377051  -6.206053  -0.012707   0.262811
     3  C   -0.455628  -2.922551   0.000585  -0.474405
     4  C   -0.584347   4.781848  -0.000304  -0.070399
     5  C   -0.038744  21.046144  -0.008863   0.296304
     6  C   -2.271793 -28.223671  -0.030961   0.273246
     7  C   -2.289061  -4.930459  -0.260536  -0.209732
     8  C    1.847466  -0.060092   0.123097  -0.019798
     9  C   -0.742232  -1.574698   0.281381   0.028831
    10  C    1.163041   1.530908  -1.064774  -0.008437
    11  C    3.946655   5.486780   0.292439  -0.017209
    12  C  -10.120031  -7.735280  -0.086802  -0.136611
    13  H    0.003597   0.036049   0.000006  -0.041265
    14  H   -0.001288   0.019297   0.000000  -0.018310
    15  H    0.004216  -0.155030  -0.000001   0.002512
    16  H    0.005750   0.021903  -0.000423  -0.001023
    17  H    0.003427  -0.001112  -0.013475   0.000013
    18  H   -0.111674   0.023592  -0.014608   0.000003
    19  Cl  27.462980  -2.420245   0.007571  -0.003134
    20  Cl  -2.420245  51.021537  -0.029349  -0.093521
    21  Cl   0.007571  -0.029349  17.464463  -0.000027
    22  Cl  -0.003134  -0.093521  -0.000027  17.565039
 Mulliken charges:
               1
     1  C   -0.172291
     2  C   -0.549685
     3  C    1.058411
     4  C   -0.762107
     5  C   -0.708694
     6  C    0.147163
     7  C   -0.051245
     8  C   -0.275402
     9  C   -0.551291
    10  C    0.736173
    11  C   -0.684303
    12  C   -0.857918
    13  H    0.129575
    14  H    0.141808
    15  H    0.135379
    16  H    0.121389
    17  H    0.144027
    18  H    0.141952
    19  Cl   1.044151
    20  Cl  -0.025869
    21  Cl   0.415629
    22  Cl   0.423148
 Sum of Mulliken charges =  -0.00000
 Mulliken charges with hydrogens summed into heavy atoms:
               1
     1  C   -0.172291
     2  C   -0.420110
     3  C    1.058411
     4  C   -0.620298
     5  C   -0.573314
     6  C    0.147163
     7  C   -0.051245
     8  C   -0.154013
     9  C   -0.407264
    10  C    0.736173
    11  C   -0.542351
    12  C   -0.857918
    19  Cl   1.044151
    20  Cl  -0.025869
    21  Cl   0.415629
    22  Cl   0.423148
 Electronic spatial extent (au):  <R**2>=           6201.8254
 Charge=             -0.0000 electrons
 Dipole moment (field-independent basis, Debye):
    X=             -0.3435    Y=              3.3175    Z=             -0.0000  Tot=              3.3352
 Quadrupole moment (field-independent basis, Debye-Ang):
   XX=           -133.8722   YY=           -107.1901   ZZ=           -123.1969
   XY=             -1.6790   XZ=             -0.0000   YZ=             -0.0000
 Traceless Quadrupole moment (field-independent basis, Debye-Ang):
   XX=            -12.4525   YY=             14.2296   ZZ=             -1.7771
   XY=             -1.6790   XZ=             -0.0000   YZ=             -0.0000
 Octapole moment (field-independent basis, Debye-Ang**2):
  XXX=            -27.9896  YYY=             33.4837  ZZZ=             -0.0001  XYY=             12.3716
  XXY=             44.9434  XXZ=             -0.0001  XZZ=              4.3295  YZZ=              9.9891
  YYZ=              0.0000  XYZ=             -0.0000
 Hexadecapole moment (field-independent basis, Debye-Ang**3):
 XXXX=          -6242.3271 YYYY=          -1947.7770 ZZZZ=           -148.1770 XXXY=            -27.1978
 XXXZ=             -0.0002 YYYX=             19.1323 YYYZ=             -0.0000 ZZZX=             -0.0000
 ZZZY=              0.0001 XXYY=          -1364.8328 XXZZ=          -1078.8507 YYZZ=           -383.3731
 XXYZ=             -0.0001 YYXZ=              0.0000 ZZXY=             16.0114
 N-N= 1.534110535338D+03 E-N=-8.512454022493D+03  KE= 2.301753293425D+03
 Calling FoFJK, ICntrl=      2127 FMM=F ISym2X=0 I1Cent= 0 IOpClX= 0 NMat=1 NMatS=1 NMatT=0.
 ***** Axes restored to original set *****
 -------------------------------------------------------------------
 Center     Atomic                   Forces (Hartrees/Bohr)
 Number     Number              X              Y              Z
 -------------------------------------------------------------------
      1        6           0.002731367   -0.025105726   -0.005614921
      2        6           0.000207181    0.014099423    0.002579946
      3        6          -0.013396046   -0.000599704    0.004300880
      4        6          -0.003895342   -0.007774181   -0.000176933
      5        6           0.006963010   -0.024813021   -0.006953961
      6        6           0.103698651   -0.004911964   -0.035087226
      7        6           0.028019024    0.012421140   -0.006898248
      8        6          -0.021169002   -0.004283145    0.006169860
      9        6          -0.004766689    0.007340937    0.002949062
     10        6           0.006459215    0.013866126    0.000476189
     11        6           0.016606062    0.003008984   -0.004905833
     12        6           0.059431583   -0.095908831   -0.037592281
     13        1           0.006958040   -0.004141317   -0.003070205
     14        1           0.005752899    0.007971434   -0.000398202
     15        1          -0.005598725    0.011338018    0.003973939
     16        1           0.007446535   -0.004620338   -0.003321151
     17        1           0.003408469   -0.007957603   -0.002617420
     18        1          -0.012806875   -0.000150199    0.004191073
     19       17          -1.716925167   -2.716896941    0.055420509
     20       17           1.532639079    2.827022166    0.025976268
     21       17           0.000533864    0.000098667   -0.000157406
     22       17          -0.002297132   -0.000003923    0.000756060
 -------------------------------------------------------------------
 Cartesian Forces:  Max     2.827022166 RMS     0.560099863

 GradGradGradGradGradGradGradGradGradGradGradGradGradGradGradGradGradGrad
 Berny optimization.
 FormGI is forming the generalized inverse of G from B-inverse, IUseBI=4.
 Internal  Forces:  Max     3.116919318 RMS     0.292489596
 Search for a local minimum.
 Step number   1 out of a maximum of  129
 All quantities printed in internal units (Hartrees-Bohrs-Radians)
 Mixed Optimization -- RFO/linear search
 Second derivative matrix not updated -- first step.
 ITU=  0
     Eigenvalues ---    0.01035   0.01214   0.01489   0.01712   0.01738
     Eigenvalues ---    0.01829   0.02070   0.02070   0.02070   0.02070
     Eigenvalues ---    0.02070   0.02070   0.02070   0.02070   0.02070
     Eigenvalues ---    0.02070   0.02070   0.02070   0.03966   0.16000
     Eigenvalues ---    0.16000   0.16000   0.16000   0.16000   0.16000
     Eigenvalues ---    0.22433   0.22454   0.23513   0.23517   0.24617
     Eigenvalues ---    0.24623   0.25000   0.25000   0.25000   0.25000
     Eigenvalues ---    0.25000   0.28335   0.29042   0.29447   0.29539
     Eigenvalues ---    0.29539   0.37230   0.37230   0.37230   0.37230
     Eigenvalues ---    0.37230   0.37230   0.40015   0.40848   0.41414
     Eigenvalues ---    0.41434   0.44578   0.45130   0.45389   0.45389
     Eigenvalues ---    0.45389   0.45389   0.45389   0.45389  16.61567
 RFO step:  Lambda=-6.26446160D-01 EMin= 1.03510892D-02
 Linear search not attempted -- first point.
 Iteration  1 RMS(Cart)=  0.03070504 RMS(Int)=  0.00050791
 Iteration  2 RMS(Cart)=  0.00123314 RMS(Int)=  0.00023411
 Iteration  3 RMS(Cart)=  0.00000063 RMS(Int)=  0.00023411
 Variable       Old X    -DE/DX   Delta X   Delta X   Delta X     New X
                                 (Linear)    (Quad)   (Total)
    R1        2.64826   0.01775   0.00000   0.00185   0.00178   2.65005
    R2        2.64826   0.10207   0.00000   0.01695   0.01662   2.66488
    R3        2.91018   0.11892   0.00000  -0.01331  -0.01382   2.89636
    R4        2.64826  -0.01196   0.00000  -0.00878  -0.00877   2.63949
    R5        2.02201   0.00752   0.00000   0.00753   0.00753   2.02954
    R6        2.64826  -0.03056   0.00000  -0.01141  -0.01134   2.63692
    R7        3.32592  -0.00242   0.00000  -0.00262  -0.00262   3.32330
    R8        2.64826  -0.02512   0.00000  -0.00867  -0.00860   2.63966
    R9        2.02201   0.00979   0.00000   0.00980   0.00980   2.03181
   R10        2.64826  -0.00633   0.00000  -0.00814  -0.00816   2.64011
   R11        2.02201   0.01325   0.00000   0.01327   0.01327   2.03527
   R12        3.32592   0.04930   0.00000   0.12455   0.12479   3.45071
   R13        2.64826   0.01855   0.00000   0.00261   0.00254   2.65081
   R14        2.64826   0.10213   0.00000   0.01702   0.01669   2.66495
   R15        2.64826  -0.01077   0.00000  -0.00767  -0.00766   2.64061
   R16        2.02201   0.00801   0.00000   0.00802   0.00802   2.03002
   R17        2.64826  -0.03021   0.00000  -0.01111  -0.01103   2.63723
   R18        2.02201   0.00901   0.00000   0.00903   0.00903   2.03103
   R19        2.64826  -0.02696   0.00000  -0.01040  -0.01033   2.63793
   R20        3.32592  -0.00036   0.00000  -0.00039  -0.00039   3.32553
   R21        2.64826  -0.00798   0.00000  -0.00969  -0.00970   2.63856
   R22        2.02201   0.01348   0.00000   0.01349   0.01349   2.03550
   R23        3.32592   0.05337   0.00000   0.12899   0.12923   3.45515
   R24        2.23252   3.11692   0.00000   0.18078   0.18129   2.41381
    A1        2.09440  -0.07953   0.00000  -0.00973  -0.00945   2.08494
    A2        2.09440  -0.16713   0.00000  -0.00279  -0.00213   2.09227
    A3        2.09440   0.24665   0.00000   0.01252   0.01158   2.10598
    A4        2.09440   0.04372   0.00000   0.00279   0.00263   2.09702
    A5        2.09440  -0.01752   0.00000   0.00412   0.00420   2.09860
    A6        2.09440  -0.02620   0.00000  -0.00691  -0.00683   2.08757
    A7        2.09440   0.01292   0.00000   0.00707   0.00705   2.10144
    A8        2.09440  -0.00638   0.00000  -0.00345  -0.00343   2.09096
    A9        2.09440  -0.00654   0.00000  -0.00363  -0.00361   2.09078
   A10        2.09440  -0.01174   0.00000  -0.00581  -0.00579   2.08861
   A11        2.09440   0.00485   0.00000   0.00162   0.00160   2.09600
   A12        2.09440   0.00689   0.00000   0.00420   0.00418   2.09858
   A13        2.09440   0.02232   0.00000   0.00950   0.00944   2.10383
   A14        2.09440  -0.01153   0.00000  -0.00522  -0.00519   2.08921
   A15        2.09440  -0.01079   0.00000  -0.00428  -0.00425   2.09015
   A16        2.09440   0.01231   0.00000  -0.00381  -0.00387   2.09052
   A17        2.09440   0.06972   0.00000   0.03154   0.03136   2.12575
   A18        2.09440  -0.08202   0.00000  -0.02773  -0.02749   2.06691
   A19        2.09440  -0.16457   0.00000   0.00010   0.00076   2.09516
   A20        2.09440   0.24565   0.00000   0.01138   0.01044   2.10484
   A21        2.09440  -0.08108   0.00000  -0.01148  -0.01120   2.08319
   A22        2.09440   0.04790   0.00000   0.00777   0.00761   2.10200
   A23        2.09440  -0.01903   0.00000   0.00237   0.00245   2.09685
   A24        2.09440  -0.02887   0.00000  -0.01014  -0.01006   2.08433
   A25        2.09440   0.00392   0.00000  -0.00330  -0.00333   2.09107
   A26        2.09440  -0.00123   0.00000   0.00258   0.00260   2.09699
   A27        2.09440  -0.00270   0.00000   0.00072   0.00073   2.09513
   A28        2.09440  -0.00243   0.00000   0.00497   0.00499   2.09939
   A29        2.09440   0.00049   0.00000  -0.00331  -0.00333   2.09107
   A30        2.09440   0.00194   0.00000  -0.00165  -0.00166   2.09273
   A31        2.09440   0.01734   0.00000   0.00357   0.00350   2.09790
   A32        2.09440  -0.00853   0.00000  -0.00160  -0.00157   2.09282
   A33        2.09440  -0.00881   0.00000  -0.00196  -0.00193   2.09246
   A34        2.09440   0.01435   0.00000  -0.00152  -0.00157   2.09282
   A35        2.09440   0.06922   0.00000   0.03102   0.03083   2.12522
   A36        2.09440  -0.08356   0.00000  -0.02950  -0.02925   2.06514
   A37        2.09440  -0.31594   0.00000  -0.04359  -0.04246   2.05193
   A38        2.09440  -0.31529   0.00000  -0.04288  -0.04175   2.05264
    D1        0.00000   0.00000   0.00000   0.00000   0.00000   0.00000
    D2        3.14159   0.00000   0.00000   0.00000   0.00000   3.14159
    D3       -3.14159   0.00000   0.00000   0.00000   0.00000  -3.14159
    D4       -0.00000   0.00000   0.00000   0.00000   0.00000  -0.00000
    D5       -0.00000  -0.00000   0.00000  -0.00000  -0.00000  -0.00000
    D6        3.14159  -0.00000   0.00000   0.00000   0.00000   3.14159
    D7        3.14159  -0.00000   0.00000  -0.00000  -0.00000   3.14159
    D8        0.00000  -0.00000   0.00000   0.00000   0.00000   0.00000
    D9       -0.00000  -0.00000   0.00000  -0.00000  -0.00000  -0.00000
   D10        3.14159  -0.00000   0.00000  -0.00000  -0.00000   3.14159
   D11        3.14159  -0.00000   0.00000  -0.00000  -0.00000   3.14159
   D12       -0.00000  -0.00000   0.00000  -0.00000  -0.00000  -0.00000
   D13        0.00000  -0.00000   0.00000   0.00000   0.00000   0.00000
   D14        3.14159  -0.00000   0.00000   0.00000   0.00000   3.14159
   D15       -3.14159   0.00000   0.00000  -0.00000  -0.00000  -3.14159
   D16        0.00000   0.00000   0.00000  -0.00000  -0.00000   0.00000
   D17       -0.00000  -0.00000   0.00000   0.00000   0.00000  -0.00000
   D18        3.14159   0.00000   0.00000  -0.00000  -0.00000   3.14159
   D19        3.14159  -0.00000   0.00000   0.00000   0.00000   3.14159
   D20        0.00000   0.00000   0.00000  -0.00000  -0.00000   0.00000
   D21        0.00000   0.00000   0.00000  -0.00000  -0.00000   0.00000
   D22       -3.14159   0.00000   0.00000  -0.00000  -0.00000  -3.14159
   D23       -3.14159  -0.00000   0.00000  -0.00000  -0.00000  -3.14159
   D24        0.00000   0.00000   0.00000  -0.00000  -0.00000   0.00000
   D25       -0.00000   0.00000   0.00000   0.00000   0.00000  -0.00000
   D26        3.14159   0.00000   0.00000  -0.00000  -0.00000   3.14159
   D27        3.14159  -0.00000   0.00000   0.00000   0.00000   3.14159
   D28       -0.00000   0.00000   0.00000  -0.00000  -0.00000  -0.00000
   D29        0.00001  -0.00000   0.00000  -0.00000  -0.00000   0.00001
   D30       -3.14158  -0.00000   0.00000  -0.00000  -0.00000  -3.14158
   D31        3.14159   0.00000   0.00000   0.00000   0.00000   3.14159
   D32        0.00000   0.00000   0.00000   0.00000   0.00000   0.00000
   D33        0.00000   0.00000   0.00000   0.00000   0.00000   0.00000
   D34       -3.14159   0.00000   0.00000  -0.00000  -0.00000  -3.14159
   D35       -3.14159  -0.00000   0.00000  -0.00000  -0.00000  -3.14159
   D36        0.00000  -0.00000   0.00000   0.00000   0.00000   0.00000
   D37       -0.00000  -0.00000   0.00000  -0.00000  -0.00000  -0.00000
   D38        3.14159  -0.00000   0.00000   0.00000   0.00000   3.14159
   D39       -0.00000  -0.00000   0.00000   0.00000   0.00000  -0.00000
   D40        3.14159  -0.00000   0.00000  -0.00000  -0.00000   3.14159
   D41        3.14159   0.00000   0.00000   0.00000   0.00000   3.14159
   D42       -0.00000   0.00000   0.00000   0.00000   0.00000  -0.00000
   D43       -0.00000  -0.00000   0.00000  -0.00000  -0.00000  -0.00000
   D44       -3.14159  -0.00000   0.00000  -0.00000  -0.00000  -3.14159
   D45        3.14159  -0.00000   0.00000   0.00000   0.00000   3.14159
   D46        0.00000   0.00000   0.00000  -0.00000  -0.00000   0.00000
   D47        0.00000   0.00000   0.00000  -0.00000  -0.00000   0.00000
   D48       -3.14159   0.00000   0.00000  -0.00000  -0.00000  -3.14159
   D49        3.14159  -0.00000   0.00000   0.00000   0.00000   3.14159
   D50        0.00000   0.00000   0.00000  -0.00000  -0.00000   0.00000
   D51        0.00000   0.00000   0.00000   0.00000   0.00000   0.00000
   D52       -3.14159   0.00000   0.00000  -0.00000  -0.00000  -3.14159
   D53        3.14159   0.00000   0.00000   0.00000   0.00000   3.14159
   D54       -0.00000   0.00000   0.00000  -0.00000  -0.00000  -0.00000
   D55        0.00001  -0.00000   0.00000  -0.00000  -0.00000   0.00001
   D56       -3.14158  -0.00000   0.00000  -0.00000  -0.00000  -3.14158
   D57       -0.00001   0.00000   0.00000   0.00000   0.00000  -0.00001
         Item               Value     Threshold  Converged?
 Maximum Force            3.116919     0.000450     NO 
 RMS     Force            0.292490     0.000300     NO 
 Maximum Displacement     0.194348     0.001800     NO 
 RMS     Displacement     0.030062     0.001200     NO 
 Predicted change in Energy=-3.352195D-01
 GradGradGradGradGradGradGradGradGradGradGradGradGradGradGradGradGradGrad

                          Input orientation:                          
 ---------------------------------------------------------------------
 Center     Atomic      Atomic             Coordinates (Angstroms)
 Number     Number       Type             X           Y           Z
 ---------------------------------------------------------------------
      1          6           0       -0.366258    0.477116    0.291536
      2          6           0        0.966947    0.504970   -0.142463
      3          6           0        1.677121    1.707685   -0.150552
      4          6           0        1.068436    2.890079    0.272048
      5          6           0       -0.259339    2.867681    0.705281
      6          6           0       -0.981658    1.671888    0.718671
      7          6           0       -1.139673   -0.846106    0.297829
      8          6           0       -0.514724   -2.026888   -0.129827
      9          6           0       -1.212113   -3.237767   -0.127481
     10          6           0       -2.539131   -3.273246    0.303052
     11          6           0       -3.171897   -2.104858    0.730956
     12          6           0       -2.480903   -0.891563    0.731171
     13          1           0        1.447983   -0.397517   -0.470437
     14          1           0        1.619809    3.813086    0.263745
     15          1           0       -0.729690    3.779972    1.031575
     16          1           0        0.506514   -2.006698   -0.462487
     17          1           0       -0.728758   -4.139714   -0.456120
     18          1           0       -4.196325   -2.139200    1.062014
     19         17           0       -3.359340    0.606930    1.302012
     20         17           0       -2.713556    1.708979    1.296218
     21         17           0       -3.417409   -4.798205    0.306008
     22         17           0        3.348618    1.732126   -0.696644
 ---------------------------------------------------------------------
                    Distance matrix (angstroms):
                    1          2          3          4          5
     1  C    0.000000
     2  C    1.402343   0.000000
     3  C    2.425931   1.396759   0.000000
     4  C    2.807332   2.422986   1.395400   0.000000
     5  C    2.428460   2.793716   2.414108   1.396847   0.000000
     6  C    1.410192   2.429056   2.797488   2.426180   1.397084
     7  C    1.532686   2.541085   3.828475   4.339987   3.838387
     8  C    2.543546   2.933567   4.330318   5.181164   4.971864
     9  C    3.832936   4.330889   5.727626   6.550650   6.235203
    10  C    4.334365   5.173585   6.541575   7.141573   6.562790
    11  C    3.838136   4.970322   6.231013   6.568136   5.762794
    12  C    2.557007   3.821153   4.982237   5.206670   4.366684
    13  H    2.153383   1.073986   2.141660   3.391700   3.867659
    14  H    3.882516   3.396302   2.146541   1.075186   2.149406
    15  H    3.404203   3.870734   3.388884   2.145239   1.077020
    16  H    2.738542   2.573498   3.906951   4.983344   5.070481
    17  H    4.691004   4.954482   6.330380   7.292333   7.118482
    18  H    4.701931   5.924675   7.125041   7.323619   6.379339
    19  Cl   3.161717   4.562200   5.356076   5.087121   3.882923
    20  Cl   2.834904   4.131046   4.622898   4.092357   2.777584
    21  Cl   6.094156   6.895460   8.275826   8.901329   8.300520
    22  Cl   4.043743   2.735943   1.758612   2.734675   4.033886
                    6          7          8          9         10
     6  C    0.000000
     7  C    2.557805   0.000000
     8  C    3.823470   1.402747   0.000000
     9  C    4.987363   2.430263   1.397349   0.000000
    10  C    5.201231   2.801699   2.416405   1.395563   0.000000
    11  C    4.365903   2.429402   2.794208   2.420982   1.395932
    12  C    2.969709   1.410230   2.428197   2.802104   2.420556
    13  H    3.405815   2.736317   2.573535   3.906500   4.976462
    14  H    3.399900   5.415161   6.230283   7.608375   8.216716
    15  H    2.146023   4.701815   5.925764   7.129151   7.317971
    16  H    4.140264   2.152902   1.074243   2.140429   3.386170
    17  H    5.934544   3.403696   2.148561   1.074776   2.145823
    18  H    4.997635   3.405759   3.871341   3.395184   2.146713
    19  Cl   2.669793   2.836656   4.132675   4.629873   4.089795
    20  Cl   1.826035   3.162648   4.563460   5.362046   5.083244
    21  Cl   6.925697   4.561495   4.036797   2.736094   1.759796
    22  Cl   4.556099   5.270770   5.420044   6.769346   7.792222
                   11         12         13         14         15
    11  C    0.000000
    12  C    1.396266   0.000000
    13  H    5.069680   4.138126   0.000000
    14  H    7.628945   6.258438   4.277584   0.000000
    15  H    6.378555   4.998022   4.944665   2.472005   0.000000
    16  H    3.868417   3.404851   1.864374   5.969650   6.102947
    17  H    3.393924   3.876875   4.329255   8.323521   8.058205
    18  H    1.077140   2.146795   6.102465   8.360285   6.859670
    19  Cl   2.777594   1.828385   5.221193   6.012435   4.129939
    20  Cl   3.882647   2.671371   4.987665   4.926593   2.880065
    21  Cl   2.737695   4.039760   6.606130   9.976457   9.018614
    22  Cl   7.699195   6.550245   2.863383   2.870805   4.879857
                   16         17         18         19         20
    16  H    0.000000
    17  H    2.464893   0.000000
    18  H    4.945539   4.281449   0.000000
    19  Cl   4.988921   5.704526   2.880862   0.000000
    20  Cl   5.221891   6.420072   4.130609   1.277335   0.000000
    21  Cl   4.876502   2.871113   2.872032   5.496442   6.619620
    22  Cl   4.702254   7.152717   8.660612   7.089245   6.381378
                   21         22
    21  Cl   0.000000
    22  Cl   9.456725   0.000000
 Stoichiometry    C12H6Cl4
 Framework group  C1[X(C12H6Cl4)]
 Deg. of freedom    60
 Full point group                 C1      NOp   1
 Largest Abelian subgroup         C1      NOp   1
 Largest concise Abelian subgroup C1      NOp   1
                         Standard orientation:                         
 ---------------------------------------------------------------------
 Center     Atomic      Atomic             Coordinates (Angstroms)
 Number     Number       Type             X           Y           Z
 ---------------------------------------------------------------------
      1          6           0       -0.988066   -0.116835    0.000002
      2          6           0       -1.920303   -1.164452    0.000001
      3          6           0       -3.288952   -0.885640   -0.000001
      4          6           0       -3.740706    0.434610   -0.000002
      5          6           0       -2.816188    1.481723    0.000001
      6          6           0       -1.444315    1.217512    0.000003
      7          6           0        0.512302   -0.429916    0.000003
      8          6           0        0.951750   -1.762052    0.000004
      9          6           0        2.317648   -2.056848    0.000004
     10          6           0        3.251252   -1.019554    0.000001
     11          6           0        2.826250    0.310108   -0.000001
     12          6           0        1.462951    0.611725   -0.000001
     13          1           0       -1.586739   -2.185324    0.000000
     14          1           0       -4.795407    0.643488   -0.000003
     15          1           0       -3.164257    2.500948    0.000002
     16          1           0        0.238496   -2.565336    0.000004
     17          1           0        2.649231   -3.079196    0.000005
     18          1           0        3.552076    1.105977   -0.000006
     19         17           0        0.963624    2.370606   -0.000005
     20         17           0       -0.287087    2.630038    0.000004
     21         17           0        4.971440   -1.390815   -0.000002
     22         17           0       -4.450044   -2.206467   -0.000003
 ---------------------------------------------------------------------
 Rotational constants (GHZ):           0.5706656           0.2063939           0.1515739
 Standard basis: 6-311+G(d,p) (5D, 7F)
 There are   436 symmetry adapted cartesian basis functions of A   symmetry.
 There are   420 symmetry adapted basis functions of A   symmetry.
   420 basis functions,   692 primitive gaussians,   436 cartesian basis functions
    73 alpha electrons       73 beta electrons
       nuclear repulsion energy      1513.8546531942 Hartrees.
 NAtoms=   22 NActive=   22 NUniq=   22 SFac= 1.00D+00 NAtFMM=   60 NAOKFM=F Big=F
 Integral buffers will be    131072 words long.
 Raffenetti 2 integral format.
 Two-electron integral symmetry is turned on.
 One-electron integrals computed using PRISM.
 NBasis=   420 RedAO= T EigKep=  1.10D-06  NBF=   420
 NBsUse=   415 1.00D-06 EigRej=  8.39D-07 NBFU=   415
 Initial guess from the checkpoint file:  "/scratch/gour/Gau-3705.chk"
 B after Tr=     0.000000    0.000000    0.000000
         Rot=    1.000000    0.000000    0.000000    0.000665 Ang=   0.08 deg.
 ExpMin= 4.38D-02 ExpMax= 1.06D+05 ExpMxC= 3.62D+03 IAcc=3 IRadAn=         5 AccDes= 0.00D+00
 Harris functional with IExCor=  402 and IRadAn=       5 diagonalized for initial guess.
 HarFok:  IExCor=  402 AccDes= 0.00D+00 IRadAn=         5 IDoV= 1 UseB2=F ITyADJ=14
 ICtDFT=  3500011 ScaDFX=  1.000000  1.000000  1.000000  1.000000
 FoFCou: FMM=F IPFlag=           0 FMFlag=      100000 FMFlg1=           0
         NFxFlg=           0 DoJE=T BraDBF=F KetDBF=T FulRan=T
         wScrn=  0.000000 ICntrl=       500 IOpCl=  0 I1Cent=   200000004 NGrid=           0
         NMat0=    1 NMatS0=      1 NMatT0=    0 NMatD0=    1 NMtDS0=    0 NMtDT0=    0
 Petite list used in FoFCou.
 Requested convergence on RMS density matrix=1.00D-08 within  32 cycles.
 Requested convergence on MAX density matrix=1.00D-06.
 Requested convergence on             energy=1.00D-06.
 No special actions if energy rises.
 SCF Done:  E(RB3LYP) =  -2300.78781287     A.U. after   17 cycles
            NFock= 17  Conv=0.45D-08     -V/T= 2.0004
 QCSCF skips out because SCF is already converged.
 Calling FoFJK, ICntrl=      2127 FMM=F ISym2X=0 I1Cent= 0 IOpClX= 0 NMat=1 NMatS=1 NMatT=0.
 ***** Axes restored to original set *****
 -------------------------------------------------------------------
 Center     Atomic                   Forces (Hartrees/Bohr)
 Number     Number              X              Y              Z
 -------------------------------------------------------------------
      1        6          -0.001110364   -0.020264470   -0.003440056
      2        6           0.000507463    0.009461558    0.001609952
      3        6          -0.009658777   -0.001327310    0.002932965
      4        6          -0.000426406   -0.001934951   -0.000223124
      5        6          -0.000194063   -0.018237358   -0.003361084
      6        6           0.086821079   -0.016991013   -0.031795186
      7        6           0.020824632    0.012345550   -0.004542152
      8        6          -0.015011286   -0.002597226    0.004457817
      9        6          -0.001694040    0.003824898    0.001276406
     10        6           0.004102866    0.008425834    0.000230777
     11        6           0.008796561    0.006350763   -0.001705289
     12        6           0.061530420   -0.073462282   -0.034068263
     13        1           0.005194648   -0.002102569   -0.002106345
     14        1           0.003735837    0.004783395   -0.000332417
     15        1          -0.003383229    0.007750246    0.002570226
     16        1           0.004834470   -0.003943433   -0.002333469
     17        1           0.002056197   -0.004917400   -0.001600926
     18        1          -0.008384653   -0.000548371    0.002659339
     19       17          -1.102660723   -1.696380871    0.044699377
     20       17           0.945066146    1.790705797    0.024936269
     21       17          -0.000174532   -0.000924051   -0.000116092
     22       17          -0.000772246   -0.000016737    0.000251274
 -------------------------------------------------------------------
 Cartesian Forces:  Max     1.790705797 RMS     0.352856443

 GradGradGradGradGradGradGradGradGradGradGradGradGradGradGradGradGradGrad
 Berny optimization.
 Using GEDIIS/GDIIS optimizer.
 FormGI is forming the generalized inverse of G from B-inverse, IUseBI=4.
 Internal  Forces:  Max     1.969109418 RMS     0.184783953
 Search for a local minimum.
 Step number   2 out of a maximum of  129
 All quantities printed in internal units (Hartrees-Bohrs-Radians)
 Mixed Optimization -- RFO/linear search
 Update second derivatives using D2CorX and points    1    2
 DE= -5.08D-01 DEPred=-3.35D-01 R= 1.52D+00
 TightC=F SS=  1.41D+00  RLast= 2.75D-01 DXNew= 5.0454D-01 8.2394D-01
 Trust test= 1.52D+00 RLast= 2.75D-01 DXMaxT set to 5.05D-01
 ITU=  1  0
 Use linear search instead of GDIIS.
 Linear search step of   0.549 exceeds DXMaxT=   0.505 but not scaled.
 Quartic linear search produced a step of  2.00000.
 Iteration  1 RMS(Cart)=  0.03961344 RMS(Int)=  0.01611619
 Iteration  2 RMS(Cart)=  0.02263370 RMS(Int)=  0.00129586
 Iteration  3 RMS(Cart)=  0.00021834 RMS(Int)=  0.00129094
 Iteration  4 RMS(Cart)=  0.00000008 RMS(Int)=  0.00129094
 Variable       Old X    -DE/DX   Delta X   Delta X   Delta X     New X
                                 (Linear)    (Quad)   (Total)
    R1        2.65005   0.01216   0.00357   0.00000   0.00322   2.65327
    R2        2.66488   0.06041   0.03323   0.00000   0.03140   2.69628
    R3        2.89636   0.06097  -0.02764   0.00000  -0.03029   2.86606
    R4        2.63949  -0.00794  -0.01754   0.00000  -0.01745   2.62205
    R5        2.02954   0.00474   0.01506   0.00000   0.01506   2.04460
    R6        2.63692  -0.01879  -0.02268   0.00000  -0.02224   2.61468
    R7        3.32330  -0.00081  -0.00524   0.00000  -0.00524   3.31805
    R8        2.63966  -0.01405  -0.01721   0.00000  -0.01686   2.62280
    R9        2.03181   0.00602   0.01960   0.00000   0.01960   2.05141
   R10        2.64011  -0.00543  -0.01631   0.00000  -0.01639   2.62372
   R11        2.03527   0.00882   0.02653   0.00000   0.02653   2.06180
   R12        3.45071   0.06068   0.24958   0.00000   0.25062   3.70132
   R13        2.65081   0.01235   0.00509   0.00000   0.00475   2.65555
   R14        2.66495   0.06039   0.03337   0.00000   0.03155   2.69650
   R15        2.64061  -0.00695  -0.01531   0.00000  -0.01523   2.62538
   R16        2.03002   0.00524   0.01604   0.00000   0.01604   2.04606
   R17        2.63723  -0.01868  -0.02206   0.00000  -0.02163   2.61560
   R18        2.03103   0.00554   0.01805   0.00000   0.01805   2.04908
   R19        2.63793  -0.01552  -0.02067   0.00000  -0.02032   2.61761
   R20        3.32553   0.00089  -0.00077   0.00000  -0.00077   3.32476
   R21        2.63856  -0.00608  -0.01940   0.00000  -0.01948   2.61908
   R22        2.03550   0.00881   0.02699   0.00000   0.02699   2.06248
   R23        3.45515   0.06446   0.25846   0.00000   0.25950   3.71465
   R24        2.41381   1.96911   0.36258   0.00000   0.36523   2.77904
    A1        2.08494  -0.04779  -0.01891   0.00000  -0.01743   2.06751
    A2        2.09227  -0.09895  -0.00426   0.00000  -0.00061   2.09165
    A3        2.10598   0.14674   0.02317   0.00000   0.01804   2.12402
    A4        2.09702   0.02676   0.00525   0.00000   0.00435   2.10137
    A5        2.09860  -0.00966   0.00840   0.00000   0.00885   2.10745
    A6        2.08757  -0.01710  -0.01365   0.00000  -0.01320   2.07436
    A7        2.10144   0.00801   0.01410   0.00000   0.01399   2.11544
    A8        2.09096  -0.00402  -0.00687   0.00000  -0.00682   2.08414
    A9        2.09078  -0.00400  -0.00723   0.00000  -0.00718   2.08360
   A10        2.08861  -0.00895  -0.01157   0.00000  -0.01140   2.07721
   A11        2.09600   0.00366   0.00320   0.00000   0.00312   2.09912
   A12        2.09858   0.00530   0.00837   0.00000   0.00828   2.10686
   A13        2.10383   0.01572   0.01887   0.00000   0.01851   2.12234
   A14        2.08921  -0.00843  -0.01037   0.00000  -0.01019   2.07902
   A15        2.09015  -0.00729  -0.00850   0.00000  -0.00832   2.08183
   A16        2.09052   0.00625  -0.00774   0.00000  -0.00802   2.08251
   A17        2.12575   0.05530   0.06272   0.00000   0.06151   2.18726
   A18        2.06691  -0.06155  -0.05497   0.00000  -0.05349   2.01342
   A19        2.09516  -0.09712   0.00152   0.00000   0.00517   2.10033
   A20        2.10484   0.14598   0.02088   0.00000   0.01574   2.12058
   A21        2.08319  -0.04886  -0.02240   0.00000  -0.02092   2.06228
   A22        2.10200   0.02992   0.01522   0.00000   0.01432   2.11632
   A23        2.09685  -0.01079   0.00491   0.00000   0.00536   2.10221
   A24        2.08433  -0.01913  -0.02012   0.00000  -0.01967   2.06466
   A25        2.09107   0.00131  -0.00666   0.00000  -0.00676   2.08430
   A26        2.09699  -0.00013   0.00519   0.00000   0.00525   2.10224
   A27        2.09513  -0.00118   0.00146   0.00000   0.00152   2.09664
   A28        2.09939  -0.00189   0.00999   0.00000   0.01014   2.10952
   A29        2.09107   0.00040  -0.00666   0.00000  -0.00673   2.08434
   A30        2.09273   0.00150  -0.00333   0.00000  -0.00340   2.08933
   A31        2.09790   0.01175   0.00701   0.00000   0.00664   2.10453
   A32        2.09282  -0.00615  -0.00314   0.00000  -0.00296   2.08987
   A33        2.09246  -0.00560  -0.00386   0.00000  -0.00368   2.08878
   A34        2.09282   0.00779  -0.00315   0.00000  -0.00341   2.08941
   A35        2.12522   0.05498   0.06166   0.00000   0.06044   2.18566
   A36        2.06514  -0.06276  -0.05851   0.00000  -0.05703   2.00811
   A37        2.05193  -0.20183  -0.08492   0.00000  -0.07857   1.97336
   A38        2.05264  -0.20117  -0.08350   0.00000  -0.07716   1.97548
    D1        0.00000   0.00000   0.00000   0.00000   0.00000   0.00000
    D2        3.14159   0.00000   0.00000   0.00000   0.00000   3.14159
    D3       -3.14159   0.00000   0.00000   0.00000   0.00000  -3.14159
    D4       -0.00000   0.00000   0.00000   0.00000   0.00000  -0.00000
    D5       -0.00000  -0.00000  -0.00000   0.00000  -0.00000  -0.00000
    D6        3.14159  -0.00000   0.00000   0.00000   0.00000   3.14159
    D7        3.14159  -0.00000  -0.00000   0.00000  -0.00000   3.14159
    D8        0.00000  -0.00000   0.00000   0.00000   0.00000   0.00000
    D9       -0.00000  -0.00000  -0.00000   0.00000  -0.00000  -0.00000
   D10        3.14159  -0.00000  -0.00000   0.00000  -0.00000   3.14159
   D11        3.14159  -0.00000  -0.00000   0.00000  -0.00000   3.14159
   D12       -0.00000  -0.00000  -0.00000   0.00000  -0.00000  -0.00000
   D13        0.00000  -0.00000   0.00000   0.00000   0.00000   0.00000
   D14        3.14159  -0.00000   0.00000   0.00000   0.00000   3.14159
   D15       -3.14159   0.00000  -0.00000   0.00000  -0.00000  -3.14159
   D16        0.00000   0.00000  -0.00000   0.00000  -0.00000   0.00000
   D17       -0.00000  -0.00000   0.00000   0.00000   0.00000  -0.00000
   D18        3.14159   0.00000  -0.00000   0.00000  -0.00000   3.14159
   D19        3.14159  -0.00000   0.00000   0.00000   0.00000   3.14159
   D20        0.00000   0.00000  -0.00000   0.00000  -0.00000   0.00000
   D21        0.00000   0.00000  -0.00000   0.00000  -0.00000   0.00000
   D22       -3.14159   0.00000  -0.00000   0.00000  -0.00000  -3.14159
   D23       -3.14159  -0.00000  -0.00000   0.00000  -0.00000  -3.14159
   D24        0.00000   0.00000  -0.00000   0.00000  -0.00000   0.00000
   D25       -0.00000   0.00000   0.00000   0.00000   0.00000  -0.00000
   D26        3.14159   0.00000  -0.00000   0.00000  -0.00000   3.14159
   D27        3.14159  -0.00000   0.00000   0.00000   0.00000   3.14159
   D28       -0.00000   0.00000  -0.00000   0.00000  -0.00000  -0.00000
   D29        0.00001  -0.00000  -0.00000   0.00000  -0.00000   0.00001
   D30       -3.14158  -0.00000  -0.00000   0.00000  -0.00000  -3.14158
   D31        3.14159   0.00000   0.00000   0.00000   0.00000   3.14159
   D32        0.00000   0.00000   0.00000   0.00000   0.00000   0.00000
   D33        0.00000   0.00000   0.00000   0.00000   0.00000   0.00000
   D34       -3.14159   0.00000  -0.00000   0.00000  -0.00000  -3.14159
   D35       -3.14159  -0.00000  -0.00000   0.00000  -0.00000  -3.14159
   D36        0.00000  -0.00000   0.00000   0.00000   0.00000   0.00000
   D37       -0.00000  -0.00000  -0.00000   0.00000  -0.00000  -0.00000
   D38        3.14159  -0.00000   0.00000   0.00000   0.00000   3.14159
   D39       -0.00000  -0.00000   0.00000   0.00000   0.00000  -0.00000
   D40        3.14159  -0.00000  -0.00000   0.00000  -0.00000   3.14159
   D41        3.14159   0.00000   0.00000   0.00000   0.00000   3.14159
   D42       -0.00000   0.00000   0.00000   0.00000   0.00000  -0.00000
   D43       -0.00000  -0.00000  -0.00000   0.00000  -0.00000  -0.00000
   D44       -3.14159  -0.00000  -0.00000   0.00000  -0.00000  -3.14159
   D45        3.14159  -0.00000   0.00000   0.00000   0.00000   3.14159
   D46        0.00000   0.00000  -0.00000   0.00000  -0.00000   0.00000
   D47        0.00000   0.00000  -0.00000   0.00000  -0.00000   0.00000
   D48       -3.14159   0.00000  -0.00000   0.00000  -0.00000  -3.14159
   D49        3.14159  -0.00000   0.00000   0.00000   0.00000   3.14159
   D50        0.00000   0.00000  -0.00000   0.00000  -0.00000   0.00000
   D51        0.00000   0.00000   0.00000   0.00000   0.00000   0.00000
   D52       -3.14159   0.00000  -0.00000   0.00000  -0.00000  -3.14159
   D53        3.14159   0.00000   0.00000   0.00000   0.00000   3.14159
   D54       -0.00000   0.00000  -0.00000   0.00000  -0.00000  -0.00000
   D55        0.00001  -0.00000  -0.00000   0.00000  -0.00000   0.00001
   D56       -3.14158  -0.00000  -0.00000   0.00000  -0.00000  -3.14158
   D57       -0.00001   0.00000   0.00000   0.00000   0.00000  -0.00001
         Item               Value     Threshold  Converged?
 Maximum Force            1.969109     0.000450     NO 
 RMS     Force            0.184784     0.000300     NO 
 Maximum Displacement     0.374397     0.001800     NO 
 RMS     Displacement     0.055867     0.001200     NO 
 Predicted change in Energy=-3.665436D-01
 GradGradGradGradGradGradGradGradGradGradGradGradGradGradGradGradGradGrad

                          Input orientation:                          
 ---------------------------------------------------------------------
 Center     Atomic      Atomic             Coordinates (Angstroms)
 Number     Number       Type             X           Y           Z
 ---------------------------------------------------------------------
      1          6           0       -0.369710    0.469814    0.291302
      2          6           0        0.965150    0.498682   -0.143052
[...]

            Population analysis using the SCF Density.

 **********************************************************************

 Orbital symmetries:
       Occupied  (A) (A) (A) (A) (A) (A) (A) (A) (A) (A) (A) (A)
                 (A) (A) (A) (A) (A) (A) (A) (A) (A) (A) (A) (A)
                 (A) (A) (A) (A) (A) (A) (A) (A) (A) (A) (A) (A)
                 (A) (A) (A) (A) (A) (A) (A) (A) (A) (A) (A) (A)
                 (A) (A) (A) (A) (A) (A) (A) (A) (A) (A) (A) (A)
                 (A) (A) (A) (A) (A) (A) (A) (A) (A) (A) (A) (A)
                 (A)
       Virtual   (A) (A) (A) (A) (A) (A) (A) (A) (A) (A) (A) (A)
                 (A) (A) (A) (A) (A) (A) (A) (A) (A) (A) (A) (A)
                 (A) (A) (A) (A) (A) (A) (A) (A) (A) (A) (A) (A)
                 (A) (A) (A) (A) (A) (A) (A) (A) (A) (A) (A) (A)
                 (A) (A) (A) (A) (A) (A) (A) (A) (A) (A) (A) (A)
                 (A) (A) (A) (A) (A) (A) (A) (A) (A) (A) (A) (A)
                 (A) (A) (A) (A) (A) (A) (A) (A) (A) (A) (A) (A)
                 (A) (A) (A) (A) (A) (A) (A) (A) (A) (A) (A) (A)
                 (A) (A) (A) (A) (A) (A) (A) (A) (A) (A) (A) (A)
                 (A) (A) (A) (A) (A) (A) (A) (A) (A) (A) (A) (A)
                 (A) (A) (A) (A) (A) (A) (A) (A) (A) (A) (A) (A)
                 (A) (A) (A) (A) (A) (A) (A) (A) (A) (A) (A) (A)
                 (A) (A) (A) (A) (A) (A) (A) (A) (A) (A) (A) (A)
                 (A) (A) (A) (A) (A) (A) (A) (A) (A) (A) (A) (A)
                 (A) (A) (A) (A) (A) (A) (A) (A) (A) (A) (A) (A)
                 (A) (A) (A) (A) (A) (A) (A) (A) (A) (A) (A) (A)
                 (A) (A) (A) (A) (A) (A) (A) (A) (A) (A) (A) (A)
                 (A) (A) (A) (A) (A) (A) (A) (A) (A) (A) (A) (A)
                 (A) (A) (A) (A) (A) (A) (A) (A) (A) (A) (A) (A)
                 (A) (A) (A) (A) (A) (A) (A) (A) (A) (A) (A) (A)
                 (A) (A) (A) (A) (A) (A) (A) (A) (A) (A) (A) (A)
                 (A) (A) (A) (A) (A) (A) (A) (A) (A) (A) (A) (A)
                 (A) (A) (A) (A) (A) (A) (A) (A) (A) (A) (A) (A)
                 (A) (A) (A) (A) (A) (A) (A) (A) (A) (A) (A) (A)
                 (A) (A) (A) (A) (A) (A) (A) (A) (A) (A) (A) (A)
                 (A) (A) (A) (A) (A) (A) (A) (A) (A) (A) (A) (A)
                 (A) (A) (A) (A) (A) (A) (A) (A) (A) (A) (A) (A)
                 (A) (A) (A) (A) (A) (A) (A) (A) (A) (A) (A) (A)
                 (A) (A) (A) (A) (A) (A) (A) (A) (A)
 The electronic state is 1-A.
 Alpha  occ. eigenvalues -- -101.56851-101.56768-101.56732-101.56627 -10.26348
 Alpha  occ. eigenvalues --  -10.26121 -10.25917 -10.25786 -10.22562 -10.22217
 Alpha  occ. eigenvalues --  -10.21171 -10.21119 -10.21094 -10.21077 -10.21032
 Alpha  occ. eigenvalues --  -10.20734  -9.48305  -9.48239  -9.48187  -9.48098
 Alpha  occ. eigenvalues --   -7.24772  -7.24706  -7.24652  -7.24563  -7.23787
 Alpha  occ. eigenvalues --   -7.23749  -7.23721  -7.23674  -7.23667  -7.23634
 Alpha  occ. eigenvalues --   -7.23580  -7.23536  -0.93412  -0.91987  -0.89312
 Alpha  occ. eigenvalues --   -0.88730  -0.84990  -0.83775  -0.80443  -0.77057
 Alpha  occ. eigenvalues --   -0.75399  -0.73451  -0.65942  -0.64255  -0.63095
 Alpha  occ. eigenvalues --   -0.60330  -0.54915  -0.52453  -0.51685  -0.51238
 Alpha  occ. eigenvalues --   -0.49108  -0.47788  -0.45879  -0.45765  -0.45416
 Alpha  occ. eigenvalues --   -0.42945  -0.42785  -0.41842  -0.39835  -0.39656
 Alpha  occ. eigenvalues --   -0.38841  -0.38183  -0.37547  -0.33944  -0.33522
 Alpha  occ. eigenvalues --   -0.33169  -0.32952  -0.32839  -0.32769  -0.28957
 Alpha  occ. eigenvalues --   -0.27930  -0.26622  -0.25923
 Alpha virt. eigenvalues --   -0.05422  -0.05088  -0.04222  -0.03885  -0.01633
 Alpha virt. eigenvalues --   -0.00857  -0.00134   0.00564   0.01090   0.01640
 Alpha virt. eigenvalues --    0.01785   0.02250   0.03370   0.03786   0.04638
 Alpha virt. eigenvalues --    0.04986   0.05385   0.05425   0.05960   0.06589
 Alpha virt. eigenvalues --    0.06883   0.08233   0.08287   0.08712   0.09228
 Alpha virt. eigenvalues --    0.09546   0.10000   0.10104   0.10728   0.10837
 Alpha virt. eigenvalues --    0.11215   0.11974   0.12022   0.12424   0.12572
 Alpha virt. eigenvalues --    0.12866   0.13315   0.13634   0.13966   0.14115
 Alpha virt. eigenvalues --    0.14955   0.15452   0.15934   0.16898   0.17092
 Alpha virt. eigenvalues --    0.17206   0.17526   0.17616   0.17991   0.18324
 Alpha virt. eigenvalues --    0.18331   0.19059   0.19589   0.19816   0.20175
 Alpha virt. eigenvalues --    0.20882   0.21121   0.21515   0.22089   0.22144
 Alpha virt. eigenvalues --    0.22547   0.22828   0.23414   0.23984   0.24389
 Alpha virt. eigenvalues --    0.24458   0.25278   0.25367   0.25867   0.25955
 Alpha virt. eigenvalues --    0.26784   0.26955   0.27058   0.27812   0.28294
 Alpha virt. eigenvalues --    0.28865   0.29127   0.29535   0.29819   0.30956
 Alpha virt. eigenvalues --    0.31819   0.32166   0.32848   0.33349   0.33951
 Alpha virt. eigenvalues --    0.34824   0.36706   0.40915   0.42439   0.43336
 Alpha virt. eigenvalues --    0.43517   0.44401   0.45407   0.45598   0.46170
 Alpha virt. eigenvalues --    0.47206   0.47655   0.48297   0.48324   0.50174
 Alpha virt. eigenvalues --    0.50213   0.51240   0.51880   0.53090   0.54117
 Alpha virt. eigenvalues --    0.54890   0.55012   0.56292   0.56822   0.57372
 Alpha virt. eigenvalues --    0.58005   0.58279   0.58563   0.59351   0.61120
 Alpha virt. eigenvalues --    0.61888   0.62388   0.63719   0.64147   0.64820
 Alpha virt. eigenvalues --    0.65071   0.65895   0.66385   0.67040   0.67890
 Alpha virt. eigenvalues --    0.68887   0.69023   0.69270   0.69961   0.70975
 Alpha virt. eigenvalues --    0.71406   0.72444   0.72932   0.75254   0.78422
 Alpha virt. eigenvalues --    0.81530   0.82030   0.82718   0.83383   0.83568
 Alpha virt. eigenvalues --    0.83868   0.84338   0.84680   0.85159   0.85375
 Alpha virt. eigenvalues --    0.85616   0.85852   0.86016   0.86875   0.87574
 Alpha virt. eigenvalues --    0.87932   0.88406   0.88856   0.90290   0.90669
 Alpha virt. eigenvalues --    0.91938   0.92321   0.94047   0.94392   0.95153
 Alpha virt. eigenvalues --    0.95692   0.96118   0.97233   0.97620   0.98018
 Alpha virt. eigenvalues --    0.98991   0.99345   0.99830   1.01668   1.02109
 Alpha virt. eigenvalues --    1.03238   1.03738   1.04724   1.07797   1.12027
 Alpha virt. eigenvalues --    1.13781   1.14597   1.15261   1.19031   1.20130
 Alpha virt. eigenvalues --    1.22798   1.23957   1.24367   1.24801   1.25748
 Alpha virt. eigenvalues --    1.27445   1.28158   1.30988   1.32173   1.33099
 Alpha virt. eigenvalues --    1.33641   1.39416   1.40707   1.44255   1.48097
 Alpha virt. eigenvalues --    1.48897   1.49451   1.51412   1.54597   1.55318
 Alpha virt. eigenvalues --    1.55771   1.56973   1.57701   1.60413   1.60624
 Alpha virt. eigenvalues --    1.60920   1.65440   1.66952   1.67165   1.68370
 Alpha virt. eigenvalues --    1.69823   1.70788   1.74051   1.75806   1.79110
 Alpha virt. eigenvalues --    1.80592   1.82476   1.84182   1.86196   1.86387
 Alpha virt. eigenvalues --    1.90854   1.92145   1.92783   1.93554   1.93884
 Alpha virt. eigenvalues --    1.94789   1.96354   1.96961   1.99876   2.01159
 Alpha virt. eigenvalues --    2.02294   2.03281   2.04610   2.05455   2.07744
 Alpha virt. eigenvalues --    2.12364   2.13777   2.14146   2.18561   2.23332
 Alpha virt. eigenvalues --    2.26653   2.26823   2.27238   2.27729   2.28603
 Alpha virt. eigenvalues --    2.31408   2.31507   2.35249   2.36242   2.37679
 Alpha virt. eigenvalues --    2.39555   2.42510   2.44871   2.45593   2.48759
 Alpha virt. eigenvalues --    2.51043   2.53190   2.53941   2.55066   2.56977
 Alpha virt. eigenvalues --    2.58170   2.59628   2.60293   2.67466   2.67801
 Alpha virt. eigenvalues --    2.68733   2.69163   2.70142   2.71708   2.72954
 Alpha virt. eigenvalues --    2.73019   2.74449   2.75329   2.75932   2.76913
 Alpha virt. eigenvalues --    2.78386   2.81511   2.82256   2.83649   2.85035
 Alpha virt. eigenvalues --    2.85186   2.88102   2.90482   2.98599   2.99437
 Alpha virt. eigenvalues --    3.07719   3.09426   3.10062   3.12660   3.13484
 Alpha virt. eigenvalues --    3.14239   3.20475   3.24896   3.27949   3.32473
 Alpha virt. eigenvalues --    3.34499   3.41019   3.43909   3.53860   3.54256
 Alpha virt. eigenvalues --    3.59309   3.66418   3.74532   3.79652   3.84407
 Alpha virt. eigenvalues --    3.88965   4.03883   4.06167   4.12218   4.12363
 Alpha virt. eigenvalues --    4.35040   4.81086   4.82130   9.76898   9.77694
 Alpha virt. eigenvalues --    9.81573   9.83106  23.42258  23.57574  23.84744
 Alpha virt. eigenvalues --   23.86526  23.90960  23.94146  23.98140  24.02959
 Alpha virt. eigenvalues --   24.05216  24.08437  24.12950  24.15428  25.82093
 Alpha virt. eigenvalues --   25.82373  25.86366  25.95853  26.10222  26.11287
 Alpha virt. eigenvalues --   26.26981  26.31160  26.57788  26.60833  26.66408
 Alpha virt. eigenvalues --   26.81170 215.76008 215.76887 215.81863 215.83201
          Condensed to atoms (all electrons):
               1          2          3          4          5          6
     1  C   31.045364   0.432444  -6.057402  -2.966363  -6.265807  -6.455908
     2  C    0.432444  32.208887  -2.355348  -9.404050  -6.843051  -1.328621
     3  C   -6.057402  -2.355348  19.378512  -0.765954   0.259963  -5.851177
     4  C   -2.966363  -9.404050  -0.765954  17.492193   1.917849  -1.270796
     5  C   -6.265807  -6.843051   0.259963   1.917849  30.103954  -8.769120
     6  C   -6.455908  -1.328621  -5.851177  -1.270796  -8.769120  40.444290
     7  C    1.310142  -8.353121   1.182290   0.777071   0.546942  -1.936794
     8  C    1.915115   7.130105  -0.489141   0.160535  -3.734173  -4.871672
     9  C    0.150634  -0.540059  -0.057419  -0.083923   0.463515   1.872769
    10  C   -0.861612   0.602999   0.169138   0.032644  -0.430950  -1.587879
    11  C   -3.688089  -3.438191  -0.210224  -0.011312   1.778632   2.057237
    12  C   -3.906632  -3.806183   1.185642   0.356282   0.164926  -5.864322
    13  H    0.064809   0.043404   0.046603   0.068564  -0.004114  -0.087171
    14  H    0.039551   0.015888   0.065150   0.293523  -0.015904  -0.049643
    15  H    0.114581  -0.032398  -0.030843  -0.053200   0.292603   0.049711
    16  H    0.072348   0.001129  -0.032229  -0.003428   0.035010   0.109866
    17  H    0.011253   0.003985  -0.000863   0.000120  -0.000639  -0.002923
    18  H    0.024082   0.004622  -0.000456   0.000127  -0.000858  -0.004330
    19  Cl   0.192616   0.568383   0.166019  -0.024033  -0.564426  -0.116632
    20  Cl   0.804825   0.998683  -0.103682   0.162988  -2.213128  -0.224547
    21  Cl  -0.039947   0.018769   0.008544  -0.000010  -0.006907  -0.055069
    22  Cl  -0.267877   0.736578  -1.337459  -0.117936   0.202483   0.193191
               7          8          9         10         11         12
     1  C    1.310142   1.915115   0.150634  -0.861612  -3.688089  -3.906632
     2  C   -8.353121   7.130105  -0.540059   0.602999  -3.438191  -3.806183
     3  C    1.182290  -0.489141  -0.057419   0.169138  -0.210224   1.185642
     4  C    0.777071   0.160535  -0.083923   0.032644  -0.011312   0.356282
     5  C    0.546942  -3.734173   0.463515  -0.430950   1.778632   0.164926
     6  C   -1.936794  -4.871672   1.872769  -1.587879   2.057237  -5.864322
     7  C   29.490561  -7.372077  -0.860436  -5.845163   3.017068  -4.245150
     8  C   -7.372077  22.290858  -3.028663   1.107051  -2.104226  -5.818509
     9  C   -0.860436  -3.028663  19.859308  -3.045760  -8.530367   0.038719
    10  C   -5.845163   1.107051  -3.045760  17.494995  -0.822191  -0.689040
    11  C    3.017068  -2.104226  -8.530367  -0.822191  27.290853  -7.766745
    12  C   -4.245150  -5.818509   0.038719  -0.689040  -7.766745  36.589738
    13  H    0.161729  -0.028482  -0.009333   0.004150   0.028077   0.078164
    14  H    0.005391  -0.001668  -0.000060  -0.000004   0.000222   0.001836
    15  H    0.013357   0.000456  -0.000628   0.000116  -0.000331   0.001015
    16  H    0.021315   0.308416  -0.044429  -0.021701  -0.022857  -0.067373
    17  H   -0.009547  -0.026869   0.273152   0.062244   0.049368  -0.003433
    18  H    0.070506  -0.016187   0.064309   0.023597   0.162452   0.027665
    19  Cl  -1.373976  -0.159047   0.300275  -0.143029  -0.778137   0.875312
    20  Cl  -0.983429   1.084149  -0.152729   0.144251  -0.823851  -0.091359
    21  Cl  -0.201928   0.267330   0.056743  -1.133779   0.415101  -0.079818
    22  Cl  -0.110805   0.021586   0.017356  -0.001588   0.003087  -0.101768
              13         14         15         16         17         18
     1  C    0.064809   0.039551   0.114581   0.072348   0.011253   0.024082
     2  C    0.043404   0.015888  -0.032398   0.001129   0.003985   0.004622
     3  C    0.046603   0.065150  -0.030843  -0.032229  -0.000863  -0.000456
     4  C    0.068564   0.293523  -0.053200  -0.003428   0.000120   0.000127
     5  C   -0.004114  -0.015904   0.292603   0.035010  -0.000639  -0.000858
     6  C   -0.087171  -0.049643   0.049711   0.109866  -0.002923  -0.004330
     7  C    0.161729   0.005391   0.013357   0.021315  -0.009547   0.070506
     8  C   -0.028482  -0.001668   0.000456   0.308416  -0.026869  -0.016187
     9  C   -0.009333  -0.000060  -0.000628  -0.044429   0.273152   0.064309
    10  C    0.004150  -0.000004   0.000116  -0.021701   0.062244   0.023597
    11  C    0.028077   0.000222  -0.000331  -0.022857   0.049368   0.162452
    12  C    0.078164   0.001836   0.001015  -0.067373  -0.003433   0.027665
    13  H    0.514347  -0.000283   0.000047  -0.000519   0.000006   0.000000
    14  H   -0.000283   0.507158  -0.007850  -0.000001  -0.000000  -0.000000
    15  H    0.000047  -0.007850   0.507579  -0.000002   0.000000   0.000000
    16  H   -0.000519  -0.000001  -0.000002   0.528111  -0.007412   0.000044
    17  H    0.000006  -0.000000   0.000000  -0.007412   0.509159  -0.000260
    18  H    0.000000  -0.000000   0.000000   0.000044  -0.000260   0.493872
    19  Cl  -0.007036  -0.000298  -0.000912  -0.002110   0.000831  -0.006243
    20  Cl  -0.002357   0.000219  -0.009275  -0.010075  -0.000031  -0.000316
    21  Cl   0.000058   0.000000  -0.000001  -0.000611  -0.012347  -0.013470
    22  Cl  -0.017229  -0.008322   0.000704   0.000489  -0.000004  -0.000008
              19         20         21         22
     1  C    0.192616   0.804825  -0.039947  -0.267877
     2  C    0.568383   0.998683   0.018769   0.736578
     3  C    0.166019  -0.103682   0.008544  -1.337459
     4  C   -0.024033   0.162988  -0.000010  -0.117936
     5  C   -0.564426  -2.213128  -0.006907   0.202483
     6  C   -0.116632  -0.224547  -0.055069   0.193191
     7  C   -1.373976  -0.983429  -0.201928  -0.110805
     8  C   -0.159047   1.084149   0.267330   0.021586
     9  C    0.300275  -0.152729   0.056743   0.017356
    10  C   -0.143029   0.144251  -1.133779  -0.001588
    11  C   -0.778137  -0.823851   0.415101   0.003087
    12  C    0.875312  -0.091359  -0.079818  -0.101768
    13  H   -0.007036  -0.002357   0.000058  -0.017229
    14  H   -0.000298   0.000219   0.000000  -0.008322
    15  H   -0.000912  -0.009275  -0.000001   0.000704
    16  H   -0.002110  -0.010075  -0.000611   0.000489
    17  H    0.000831  -0.000031  -0.012347  -0.000004
    18  H   -0.006243  -0.000316  -0.013470  -0.000008
    19  Cl  17.627833   0.123769  -0.028533  -0.001090
    20  Cl   0.123769  17.921577   0.005255  -0.013416
    21  Cl  -0.028533   0.005255  17.398698   0.000097
    22  Cl  -0.001090  -0.013416   0.000097  17.399070
 Mulliken charges:
               1
     1  C    0.331872
     2  C   -0.664855
     3  C    0.830335
     4  C   -0.560893
     5  C   -0.916799
     6  C   -0.250460
     7  C    0.696056
     8  C   -0.634887
     9  C   -0.742976
    10  C    0.941510
    11  C   -0.605578
    12  C   -0.878969
    13  H    0.146565
    14  H    0.155096
    15  H    0.155270
    16  H    0.136021
    17  H    0.154209
    18  H    0.170854
    19  Cl   0.350466
    20  Cl   0.382480
    21  Cl   0.401826
    22  Cl   0.402860
 Sum of Mulliken charges =  -0.00000
 Mulliken charges with hydrogens summed into heavy atoms:
               1
     1  C    0.331872
     2  C   -0.518290
     3  C    0.830335
     4  C   -0.405797
     5  C   -0.761530
     6  C   -0.250460
     7  C    0.696056
     8  C   -0.498866
     9  C   -0.588767
    10  C    0.941510
    11  C   -0.434724
    12  C   -0.878969
    19  Cl   0.350466
    20  Cl   0.382480
    21  Cl   0.401826
    22  Cl   0.402860
 Electronic spatial extent (au):  <R**2>=           6160.1068
 Charge=              0.0000 electrons
 Dipole moment (field-independent basis, Debye):
    X=             -0.8436    Y=             -0.0515    Z=              1.2450  Tot=              1.5048
 Quadrupole moment (field-independent basis, Debye-Ang):
   XX=           -120.0915   YY=           -122.0630   ZZ=           -118.5142
   XY=             -5.7047   XZ=             -0.8741   YZ=             -1.4225
 Traceless Quadrupole moment (field-independent basis, Debye-Ang):
   XX=              0.1314   YY=             -1.8401   ZZ=              1.7087
   XY=             -5.7047   XZ=             -0.8741   YZ=             -1.4225
 Octapole moment (field-independent basis, Debye-Ang**2):
  XXX=            -36.4341  YYY=              4.2088  ZZZ=             -0.6196  XYY=             -3.8325
  XXY=             33.9034  XXZ=             -2.9387  XZZ=             15.5837  YZZ=             -4.2738
  YYZ=             -1.9607  XYZ=             -5.7615
 Hexadecapole moment (field-independent basis, Debye-Ang**3):
 XXXX=          -5834.6463 YYYY=          -1460.9986 ZZZZ=           -848.5007 XXXY=            -81.5880
 XXXZ=            -40.3319 YYYX=             22.7949 YYYZ=             10.2961 ZZZX=             25.3979
 ZZZY=            -22.6913 XXYY=          -1219.1352 XXZZ=          -1114.7861 YYZZ=           -397.6566
 XXYZ=              3.6890 YYXZ=              4.9350 ZZXY=             -6.1944
 N-N= 1.441129871299D+03 E-N=-8.326741290790D+03  KE= 2.295552381496D+03
 1\1\GINC-LOCALHOST\FOpt\RB3LYP\6-311+G(d,p)\C12H6Cl4\GOUR\15-Mar-2022\
 0\\# opt b3lyp/6-311+g(d,p) scf=xqc\\Title Card Required\\0,1\C,-0.410
 0445354,0.4814424162,0.3167020716\C,0.9344374457,0.4536164021,0.704449
 5137\C,1.6851183635,1.6225517747,0.7278132171\C,1.1237971013,2.8424517
 424,0.366856617\C,-0.2099889356,2.8823340225,-0.0246133361\C,-0.965209
 9636,1.7132300138,-0.0491698914\C,-1.1860732666,-0.7923191118,0.280159
 911\C,-1.0775318081,-1.6434025252,-0.825283034\C,-1.7691546033,-2.8478
 677537,-0.8954251291\C,-2.5886220283,-3.2118957605,0.1673595973\C,-2.7
 217358326,-2.3992109012,1.286670612\C,-2.0181563786,-1.198622785,1.329
 6083112\H,1.385520905,-0.4864093354,0.9951716068\H,1.7168038232,3.7474
 659494,0.3889541222\H,-0.6652175298,3.8208503166,-0.313397071\H,-0.440
 6005089,-1.3470059983,-1.6505352458\H,-1.6753269648,-3.4914869218,-1.7
 600418799\H,-3.3569491722,-2.690820268,2.1114318877\Cl,-2.1932555985,-
 0.1954964979,2.7583068815\Cl,-2.6401594703,1.8112150854,-0.5640548615\
 Cl,-3.4721236911,-4.7269413852,0.1036300588\Cl,3.3691271089,1.55507269
 08,1.221512651\\Version=EM64L-G16RevB.01\State=1-A\HF=-2301.904333\RMS
 D=4.039e-09\RMSF=9.074e-06\Dipole=0.3029019,0.2109119,-0.4628865\Quadr
 upole=-4.4195362,3.681434,0.7381022,-0.1268146,-2.1084647,0.0064004\PG
 =C01 [X(C12H6Cl4)]\\@


 THERE IS SOMETHING FASCINATING ABOUT SCIENCE.
 ONE GETS SUCH WHOLESALE CONJECTURE OUT OF SUCH TRIFLING INVESTMENTS.

                                                       -- MARK TWAIN
 Job cpu time:       0 days 15 hours  4 minutes 15.6 seconds.
 Elapsed time:       0 days  3 hours 46 minutes 44.6 seconds.
 File lengths (MBytes):  RWF=    116 Int=      0 D2E=      0 Chk=     19 Scr=      1
 Normal termination of Gaussian 16 at Tue Mar 15 15:57:59 2022.
