 Entering Gaussian System, Link 0=g16
 Input=2,2prime,3,3prime,4,5,6prime-Heptachlorobiphenyl.gjf
 Output=2,2prime,3,3prime,4,5,6prime-Heptachlorobiphenyl.log
 Initial command:
 /home/apps/g16/l1.exe "./Gau-167744.inp" -scrdir="./"
 Entering Link 1 = /home/apps/g16/l1.exe PID=    167745.
  
 Copyright (c) 1988-2017, Gaussian, Inc.  All Rights Reserved.
  
 This is part of the Gaussian(R) 16 program.  It is based on
 the Gaussian(R) 09 system (copyright 2009, Gaussian, Inc.),
 the Gaussian(R) 03 system (copyright 2003, Gaussian, Inc.),
 the Gaussian(R) 98 system (copyright 1998, Gaussian, Inc.),
 the Gaussian(R) 94 system (copyright 1995, Gaussian, Inc.),
 the Gaussian 92(TM) system (copyright 1992, Gaussian, Inc.),
 the Gaussian 90(TM) system (copyright 1990, Gaussian, Inc.),
 the Gaussian 88(TM) system (copyright 1988, Gaussian, Inc.),
 the Gaussian 86(TM) system (copyright 1986, Carnegie Mellon
 University), and the Gaussian 82(TM) system (copyright 1983,
 Carnegie Mellon University). Gaussian is a federally registered
 trademark of Gaussian, Inc.
  
 This software contains proprietary and confidential information,
 including trade secrets, belonging to Gaussian, Inc.
  
 This software is provided under written license and may be
 used, copied, transmitted, or stored only in accord with that
 written license.
  
 The following legend is applicable only to US Government
 contracts under FAR:
  
                    RESTRICTED RIGHTS LEGEND
  
 Use, reproduction and disclosure by the US Government is
 subject to restrictions as set forth in subparagraphs (a)
 and (c) of the Commercial Computer Software - Restricted
 Rights clause in FAR 52.227-19.
  
 Gaussian, Inc.
 340 Quinnipiac St., Bldg. 40, Wallingford CT 06492
  
  
 ---------------------------------------------------------------
 Warning -- This program may not be used in any manner that
 competes with the business of Gaussian, Inc. or will provide
 assistance to any competitor of Gaussian, Inc.  The licensee
 of this program is prohibited from giving any competitor of
 Gaussian, Inc. access to this program.  By using this program,
 the user acknowledges that Gaussian, Inc. is engaged in the
 business of creating and licensing software in the field of
 computational chemistry and represents and warrants to the
 licensee that it is not a competitor of Gaussian, Inc. and that
 it will not use this program in any manner prohibited above.
 ---------------------------------------------------------------
  

 Cite this work as:
 Gaussian 16, Revision B.01,
 M. J. Frisch, G. W. Trucks, H. B. Schlegel, G. E. Scuseria, 
 M. A. Robb, J. R. Cheeseman, G. Scalmani, V. Barone, 
 G. A. Petersson, H. Nakatsuji, X. Li, M. Caricato, A. V. Marenich, 
 J. Bloino, B. G. Janesko, R. Gomperts, B. Mennucci, H. P. Hratchian, 
 J. V. Ortiz, A. F. Izmaylov, J. L. Sonnenberg, D. Williams-Young, 
 F. Ding, F. Lipparini, F. Egidi, J. Goings, B. Peng, A. Petrone, 
 T. Henderson, D. Ranasinghe, V. G. Zakrzewski, J. Gao, N. Rega, 
 G. Zheng, W. Liang, M. Hada, M. Ehara, K. Toyota, R. Fukuda, 
 J. Hasegawa, M. Ishida, T. Nakajima, Y. Honda, O. Kitao, H. Nakai, 
 T. Vreven, K. Throssell, J. A. Montgomery, Jr., J. E. Peralta, 
 F. Ogliaro, M. J. Bearpark, J. J. Heyd, E. N. Brothers, K. N. Kudin, 
 V. N. Staroverov, T. A. Keith, R. Kobayashi, J. Normand, 
 K. Raghavachari, A. P. Rendell, J. C. Burant, S. S. Iyengar, 
 J. Tomasi, M. Cossi, J. M. Millam, M. Klene, C. Adamo, R. Cammi, 
 J. W. Ochterski, R. L. Martin, K. Morokuma, O. Farkas, 
 J. B. Foresman, and D. J. Fox, Gaussian, Inc., Wallingford CT, 2016.
 
 ******************************************
 Gaussian 16:  EM64L-G16RevB.01 20-Dec-2017
                 3-Apr-2022 
 ******************************************
 %mem=32GB
 %nprocshared=16
 Will use up to   16 processors via shared memory.
 --------------------------------
 # opt b3lyp/6-311+g(d,p) scf=xqc
 --------------------------------
 1/18=20,19=15,26=3,38=1/1,3;
 2/9=110,12=2,17=6,18=5,40=1/2;
 3/5=4,6=6,7=111,11=2,25=1,30=1,71=1,74=-5/1,2,3;
 4//1;
 5/5=2,8=3,13=1,38=5/2,8;
 6/7=2,8=2,9=2,10=2,28=1/1;
 7//1,2,3,16;
 1/18=20,19=15,26=3/3(2);
 2/9=110/2;
 99//99;
 2/9=110/2;
 3/5=4,6=6,7=111,11=2,25=1,30=1,71=1,74=-5/1,2,3;
 4/5=5,16=3,69=1/1;
 5/5=2,8=3,13=1,38=5/2,8;
 7//1,2,3,16;
 1/18=20,19=15,26=3/3(-5);
 2/9=110/2;
 6/7=2,8=2,9=2,10=2,19=2,28=1/1;
 99/9=1/99;
 -------------------
 Title Card Required
 -------------------
 Symbolic Z-matrix:
 Charge =  0 Multiplicity = 1
 C                    -0.0033    2.25778   0.33611 
 C                     1.32909   2.28767  -0.09724 
 C                     2.03698   3.49712  -0.10331 
 C                     1.41249   4.67668   0.32397 
 C                     0.08011   4.6468    0.75731 
 C                    -0.62778   3.43735   0.76338 
 C                    -1.02947   0.50454   0.34491 
 C                    -0.40499  -0.67503  -0.08236 
 C                    -1.11288  -1.88448  -0.07629 
 C                    -2.44526  -1.91437   0.35706 
 C                    -3.06975  -0.7348    0.78434 
 C                    -2.36185   0.47465   0.77826 
 H                     3.05428   3.51994  -0.43418 
 H                     1.95298   5.60013   0.31933 
 H                     0.61232  -0.65221  -0.41323 
 Cl                   -3.14614   1.95605   1.31488 
 Cl                   -2.3011    3.39981   1.30762 
 Cl                   -4.74306  -0.77234   1.32858 
 Cl                   -0.70418   6.1282    1.29392 
 Cl                   -3.33429  -3.4333    0.36469 
 Cl                   -0.32859  -3.36588  -0.6129 
 Cl                    2.11337   0.80627  -0.63384 
 

 GradGradGradGradGradGradGradGradGradGradGradGradGradGradGradGradGradGrad
 Berny optimization.
 Initialization pass.
                           ----------------------------
                           !    Initial Parameters    !
                           ! (Angstroms and Degrees)  !
 --------------------------                            --------------------------
 ! Name  Definition              Value          Derivative Info.                !
 --------------------------------------------------------------------------------
 ! R1    R(1,2)                  1.4014         estimate D2E/DX2                !
 ! R2    R(1,6)                  1.4014         estimate D2E/DX2                !
 ! R3    R(2,3)                  1.4014         estimate D2E/DX2                !
 ! R4    R(2,22)                 1.76           estimate D2E/DX2                !
 ! R5    R(3,4)                  1.4014         estimate D2E/DX2                !
 ! R6    R(3,13)                 1.07           estimate D2E/DX2                !
 ! R7    R(4,5)                  1.4014         estimate D2E/DX2                !
 ! R8    R(4,14)                 1.07           estimate D2E/DX2                !
 ! R9    R(5,6)                  1.4014         estimate D2E/DX2                !
 ! R10   R(5,19)                 1.76           estimate D2E/DX2                !
 ! R11   R(6,17)                 1.76           estimate D2E/DX2                !
 ! R12   R(7,8)                  1.4014         estimate D2E/DX2                !
 ! R13   R(7,12)                 1.4014         estimate D2E/DX2                !
 ! R14   R(8,9)                  1.4014         estimate D2E/DX2                !
 ! R15   R(8,15)                 1.07           estimate D2E/DX2                !
 ! R16   R(9,10)                 1.4014         estimate D2E/DX2                !
 ! R17   R(9,21)                 1.76           estimate D2E/DX2                !
 ! R18   R(10,11)                1.4014         estimate D2E/DX2                !
 ! R19   R(10,20)                1.76           estimate D2E/DX2                !
 ! R20   R(11,12)                1.4014         estimate D2E/DX2                !
 ! R21   R(11,18)                1.76           estimate D2E/DX2                !
 ! R22   R(12,16)                1.76           estimate D2E/DX2                !
 ! R23   R(16,17)                1.6729         estimate D2E/DX2                !
 ! A1    A(2,1,6)              120.0            estimate D2E/DX2                !
 ! A2    A(1,2,3)              120.0            estimate D2E/DX2                !
 ! A3    A(1,2,22)             120.0            estimate D2E/DX2                !
 ! A4    A(3,2,22)             120.0            estimate D2E/DX2                !
 ! A5    A(2,3,4)              120.0            estimate D2E/DX2                !
 ! A6    A(2,3,13)             120.0            estimate D2E/DX2                !
 ! A7    A(4,3,13)             120.0            estimate D2E/DX2                !
 ! A8    A(3,4,5)              120.0            estimate D2E/DX2                !
 ! A9    A(3,4,14)             120.0            estimate D2E/DX2                !
 ! A10   A(5,4,14)             120.0            estimate D2E/DX2                !
 ! A11   A(4,5,6)              120.0            estimate D2E/DX2                !
 ! A12   A(4,5,19)             120.0            estimate D2E/DX2                !
 ! A13   A(6,5,19)             120.0            estimate D2E/DX2                !
 ! A14   A(1,6,5)              120.0            estimate D2E/DX2                !
 ! A15   A(1,6,17)             120.0            estimate D2E/DX2                !
 ! A16   A(5,6,17)             120.0            estimate D2E/DX2                !
 ! A17   A(8,7,12)             120.0            estimate D2E/DX2                !
 ! A18   A(7,8,9)              120.0            estimate D2E/DX2                !
 ! A19   A(7,8,15)             120.0            estimate D2E/DX2                !
 ! A20   A(9,8,15)             120.0            estimate D2E/DX2                !
 ! A21   A(8,9,10)             120.0            estimate D2E/DX2                !
 ! A22   A(8,9,21)             120.0            estimate D2E/DX2                !
 ! A23   A(10,9,21)            120.0            estimate D2E/DX2                !
 ! A24   A(9,10,11)            120.0            estimate D2E/DX2                !
 ! A25   A(9,10,20)            120.0            estimate D2E/DX2                !
 ! A26   A(11,10,20)           120.0            estimate D2E/DX2                !
 ! A27   A(10,11,12)           120.0            estimate D2E/DX2                !
 ! A28   A(10,11,18)           120.0            estimate D2E/DX2                !
 ! A29   A(12,11,18)           120.0            estimate D2E/DX2                !
 ! A30   A(7,12,11)            120.0            estimate D2E/DX2                !
 ! A31   A(7,12,16)            120.0            estimate D2E/DX2                !
 ! A32   A(11,12,16)           120.0            estimate D2E/DX2                !
 ! A33   A(12,16,17)           120.0            estimate D2E/DX2                !
 ! A34   A(6,17,16)            120.0            estimate D2E/DX2                !
 ! D1    D(6,1,2,3)              0.0001         estimate D2E/DX2                !
 ! D2    D(6,1,2,22)           180.0            estimate D2E/DX2                !
 ! D3    D(2,1,6,5)             -0.0001         estimate D2E/DX2                !
 ! D4    D(2,1,6,17)           180.0            estimate D2E/DX2                !
 ! D5    D(1,2,3,4)              0.0            estimate D2E/DX2                !
 ! D6    D(1,2,3,13)           180.0            estimate D2E/DX2                !
 ! D7    D(22,2,3,4)          -179.9999         estimate D2E/DX2                !
 ! D8    D(22,2,3,13)            0.0001         estimate D2E/DX2                !
 ! D9    D(2,3,4,5)             -0.0001         estimate D2E/DX2                !
 ! D10   D(2,3,4,14)           180.0            estimate D2E/DX2                !
 ! D11   D(13,3,4,5)           179.9999         estimate D2E/DX2                !
 ! D12   D(13,3,4,14)            0.0            estimate D2E/DX2                !
 ! D13   D(3,4,5,6)              0.0001         estimate D2E/DX2                !
 ! D14   D(3,4,5,19)          -179.9999         estimate D2E/DX2                !
 ! D15   D(14,4,5,6)          -180.0            estimate D2E/DX2                !
 ! D16   D(14,4,5,19)            0.0            estimate D2E/DX2                !
 ! D17   D(4,5,6,1)              0.0            estimate D2E/DX2                !
 ! D18   D(4,5,6,17)           179.9999         estimate D2E/DX2                !
 ! D19   D(19,5,6,1)           180.0            estimate D2E/DX2                !
 ! D20   D(19,5,6,17)           -0.0001         estimate D2E/DX2                !
 ! D21   D(1,6,17,16)            0.0004         estimate D2E/DX2                !
 ! D22   D(5,6,17,16)         -179.9996         estimate D2E/DX2                !
 ! D23   D(12,7,8,9)             0.0001         estimate D2E/DX2                !
 ! D24   D(12,7,8,15)         -179.9998         estimate D2E/DX2                !
 ! D25   D(8,7,12,11)           -0.0001         estimate D2E/DX2                !
 ! D26   D(8,7,12,16)          179.9999         estimate D2E/DX2                !
 ! D27   D(7,8,9,10)             0.0            estimate D2E/DX2                !
 ! D28   D(7,8,9,21)           180.0            estimate D2E/DX2                !
 ! D29   D(15,8,9,10)          179.9998         estimate D2E/DX2                !
 ! D30   D(15,8,9,21)           -0.0002         estimate D2E/DX2                !
 ! D31   D(8,9,10,11)            0.0            estimate D2E/DX2                !
 ! D32   D(8,9,10,20)         -179.9999         estimate D2E/DX2                !
 ! D33   D(21,9,10,11)         180.0            estimate D2E/DX2                !
 ! D34   D(21,9,10,20)           0.0001         estimate D2E/DX2                !
 ! D35   D(9,10,11,12)           0.0            estimate D2E/DX2                !
 ! D36   D(9,10,11,18)        -179.9998         estimate D2E/DX2                !
 ! D37   D(20,10,11,12)        179.9999         estimate D2E/DX2                !
 ! D38   D(20,10,11,18)          0.0001         estimate D2E/DX2                !
 ! D39   D(10,11,12,7)           0.0            estimate D2E/DX2                !
 ! D40   D(10,11,12,16)       -179.9999         estimate D2E/DX2                !
 ! D41   D(18,11,12,7)         179.9999         estimate D2E/DX2                !
 ! D42   D(18,11,12,16)         -0.0001         estimate D2E/DX2                !
 ! D43   D(7,12,16,17)           0.0004         estimate D2E/DX2                !
 ! D44   D(11,12,16,17)       -179.9997         estimate D2E/DX2                !
 ! D45   D(12,16,17,6)          -0.0006         estimate D2E/DX2                !
 --------------------------------------------------------------------------------
 Trust Radius=3.00D-01 FncErr=1.00D-07 GrdErr=1.00D-06 EigMax=2.50D+02 EigMin=1.00D-04
 Number of steps in this run=    112 maximum allowed number of steps=    132.
 GradGradGradGradGradGradGradGradGradGradGradGradGradGradGradGradGradGrad

                          Input orientation:                          
 ---------------------------------------------------------------------
 Center     Atomic      Atomic             Coordinates (Angstroms)
 Number     Number       Type             X           Y           Z
 ---------------------------------------------------------------------
      1          6           0       -0.003296    2.257782    0.336110
      2          6           0        1.329086    2.287668   -0.097237
      3          6           0        2.036979    3.497119   -0.103309
      4          6           0        1.412492    4.676684    0.323966
      5          6           0        0.080110    4.646798    0.757310
      6          6           0       -0.627784    3.437347    0.763383
      7          6           0       -1.029473    0.504535    0.344914
      8          6           0       -0.404986   -0.675030   -0.082361
      9          6           0       -1.112879   -1.884481   -0.076287
     10          6           0       -2.445259   -1.914368    0.357063
     11          6           0       -3.069746   -0.734803    0.784338
     12          6           0       -2.361853    0.474649    0.778264
     13          1           0        3.054282    3.519937   -0.434178
     14          1           0        1.952984    5.600126    0.319330
     15          1           0        0.612317   -0.652211   -0.413231
     16         17           0       -3.146138    1.956049    1.314875
     17         17           0       -2.301104    3.399814    1.307616
     18         17           0       -4.743064   -0.772338    1.328581
     19         17           0       -0.704177    6.128199    1.293916
     20         17           0       -3.334292   -3.433302    0.364694
     21         17           0       -0.328593   -3.365882   -0.612896
     22         17           0        2.113372    0.806267   -0.633842
 ---------------------------------------------------------------------
                    Distance matrix (angstroms):
                    1          2          3          4          5
     1  C    0.000000
     2  C    1.401400   0.000000
     3  C    2.427296   1.401400   0.000000
     4  C    2.802800   2.427296   1.401400   0.000000
     5  C    2.427296   2.802800   2.427296   1.401400   0.000000
     6  C    1.401400   2.427296   2.802800   2.427296   1.401400
     7  C    2.031500   2.989625   4.308084   4.834300   4.308084
     8  C    2.989625   3.432900   4.834300   5.666495   5.409457
     9  C    4.308084   4.834300   6.235700   7.041774   6.691466
    10  C    4.834300   5.666495   7.041774   7.637100   7.041774
    11  C    4.308084   5.409457   6.691466   7.041774   6.235700
    12  C    2.989625   4.204351   5.409457   5.666495   4.834300
    13  H    3.396345   2.146700   1.070000   2.146700   3.396345
    14  H    3.872800   3.396345   2.146700   1.070000   2.146700
    15  H    3.067336   3.042450   4.398029   5.438829   5.452790
    16  Cl   3.305523   4.704429   5.590246   5.400450   4.237887
    17  Cl   2.743718   4.048303   4.562800   4.048303   2.743718
    18  Cl   5.712445   6.947487   8.139259   8.282026   7.277114
    19  Cl   4.048303   4.562800   4.048303   2.743718   1.760000
    20  Cl   6.594300   7.395266   8.780678   9.397100   8.780678
    21  Cl   5.712445   5.914087   7.277114   8.282025   8.139259
    22  Cl   2.743718   1.760000   2.743718   4.048303   4.562800
                    6          7          8          9         10
     6  C    0.000000
     7  C    2.989625   0.000000
     8  C    4.204351   1.401400   0.000000
     9  C    5.409457   2.427296   1.401400   0.000000
    10  C    5.666495   2.802800   2.427296   1.401400   0.000000
    11  C    4.834300   2.427296   2.802800   2.427296   1.401400
    12  C    3.432900   1.401400   2.427296   2.802800   2.427296
    13  H    3.872800   5.135824   5.448675   6.833817   7.771916
    14  H    3.396345   5.904300   6.715576   8.097863   8.707100
    15  H    4.432466   2.146700   1.070000   2.146700   3.396345
    16  Cl   2.973298   2.743718   4.048303   4.562800   4.048303
    17  Cl   1.760000   3.305523   4.704429   5.590246   5.400450
    18  Cl   5.914087   4.048303   4.562800   4.048303   2.743718
    19  Cl   2.743718   5.712445   6.947487   8.139259   8.282026
    20  Cl   7.395266   4.562800   4.048303   2.743718   1.760000
    21  Cl   6.947487   4.048303   2.743718   1.760000   2.743718
    22  Cl   4.048303   3.305523   2.973298   4.237887   5.400450
                   11         12         13         14         15
    11  C    0.000000
    12  C    1.401400   0.000000
    13  H    7.555879   6.330744   0.000000
    14  H    8.097863   6.715576   2.471400   0.000000
    15  H    3.872800   3.396345   4.834300   6.436285   0.000000
    16  Cl   2.743718   1.760000   6.629490   6.345980   4.890332
    17  Cl   4.237887   2.973298   5.632800   4.890332   5.279038
    18  Cl   1.760000   2.743718   9.073563   9.298599   5.632800
    19  Cl   7.277114   5.914087   4.890332   2.879094   7.114877
    20  Cl   2.743718   4.048303   9.476266  10.467100   4.890332
    21  Cl   4.048303   4.562800   7.674001   9.298599   2.879094
    22  Cl   5.590246   4.704429   2.879094   4.890332   2.104518
                   16         17         18         19         20
    16  Cl   0.000000
    17  Cl   1.672900   0.000000
    18  Cl   3.161400   4.834300   0.000000
    19  Cl   4.834300   3.161400   7.995700   0.000000
    20  Cl   5.475705   6.974816   3.161400   9.960084   0.000000
    21  Cl   6.322800   7.304369   5.475705   9.690953   3.161400
    22  Cl   5.725552   5.475705   7.304369   6.322800   6.974816
                   21         22
    21  Cl   0.000000
    22  Cl   4.834300   0.000000
 Stoichiometry    C12H3Cl7
 Framework group  C1[X(C12H3Cl7)]
 Deg. of freedom    60
 Full point group                 C1      NOp   1
 Largest Abelian subgroup         C1      NOp   1
 Largest concise Abelian subgroup C1      NOp   1
                         Standard orientation:                         
 ---------------------------------------------------------------------
 Center     Atomic      Atomic             Coordinates (Angstroms)
 Number     Number       Type             X           Y           Z
 ---------------------------------------------------------------------
      1          6           0       -1.621737    0.787370   -0.000001
      2          6           0       -2.073655    2.113903    0.000002
      3          6           0       -3.448427    2.385798    0.000004
      4          6           0       -4.371279    1.331158    0.000004
      5          6           0       -3.919361    0.004624    0.000000
      6          6           0       -2.544590   -0.267270   -0.000002
      7          6           0        0.371161    0.393226   -0.000002
      8          6           0        1.294014    1.447865   -0.000003
      9          6           0        2.668785    1.175971   -0.000003
     10          6           0        3.120703   -0.150563   -0.000002
     11          6           0        2.197850   -1.205202   -0.000001
     12          6           0        0.823079   -0.933308   -0.000001
     13          1           0       -3.793476    3.398636    0.000006
     14          1           0       -5.420948    1.538755    0.000006
     15          1           0        0.948964    2.460703   -0.000001
     16         17           0       -0.335920   -2.257816    0.000003
     17         17           0       -1.977032   -1.933246   -0.000005
     18         17           0        2.765408   -2.871179    0.000005
     19         17           0       -5.078360   -1.319884   -0.000003
     20         17           0        4.847260   -0.492031    0.000001
     21         17           0        3.827784    2.500479   -0.000004
     22         17           0       -0.914657    3.438411    0.000004
 ---------------------------------------------------------------------
 Rotational constants (GHZ):           0.3278538           0.1356533           0.0959520
 Standard basis: 6-311+G(d,p) (5D, 7F)
 There are   511 symmetry adapted cartesian basis functions of A   symmetry.
 There are   492 symmetry adapted basis functions of A   symmetry.
   492 basis functions,   827 primitive gaussians,   511 cartesian basis functions
    97 alpha electrons       97 beta electrons
       nuclear repulsion energy      2372.1823806096 Hartrees.
 NAtoms=   22 NActive=   22 NUniq=   22 SFac= 1.00D+00 NAtFMM=   60 NAOKFM=F Big=F
 Integral buffers will be    131072 words long.
 Raffenetti 2 integral format.
 Two-electron integral symmetry is turned on.
 One-electron integrals computed using PRISM.
 NBasis=   492 RedAO= T EigKep=  1.68D-06  NBF=   492
 NBsUse=   485 1.00D-06 EigRej=  9.42D-07 NBFU=   485
 ExpMin= 4.38D-02 ExpMax= 1.06D+05 ExpMxC= 3.62D+03 IAcc=3 IRadAn=         5 AccDes= 0.00D+00
 Harris functional with IExCor=  402 and IRadAn=       5 diagonalized for initial guess.
 HarFok:  IExCor=  402 AccDes= 0.00D+00 IRadAn=         5 IDoV= 1 UseB2=F ITyADJ=14
 ICtDFT=  3500011 ScaDFX=  1.000000  1.000000  1.000000  1.000000
 FoFCou: FMM=F IPFlag=           0 FMFlag=      100000 FMFlg1=           0
         NFxFlg=           0 DoJE=T BraDBF=F KetDBF=T FulRan=T
         wScrn=  0.000000 ICntrl=       500 IOpCl=  0 I1Cent=   200000004 NGrid=           0
         NMat0=    1 NMatS0=      1 NMatT0=    0 NMatD0=    1 NMtDS0=    0 NMtDT0=    0
 Petite list used in FoFCou.
 Requested convergence on RMS density matrix=1.00D-08 within  32 cycles.
 Requested convergence on MAX density matrix=1.00D-06.
 Requested convergence on             energy=1.00D-06.
 No special actions if energy rises.
 EnCoef did     3 forward-backward iterations
 EnCoef did     3 forward-backward iterations
 EnCoef did     5 forward-backward iterations
 EnCoef did     5 forward-backward iterations
 Restarting incremental Fock formation.
 SCF Done:  E(RB3LYP) =  -3680.18020592     A.U. after   28 cycles
            NFock= 28  Conv=0.64D-08     -V/T= 2.0021
 QCSCF skips out because SCF is already converged.

 **********************************************************************

            Population analysis using the SCF Density.

 **********************************************************************

 Orbital symmetries:
       Occupied  (A) (A) (A) (A) (A) (A) (A) (A) (A) (A) (A) (A)
                 (A) (A) (A) (A) (A) (A) (A) (A) (A) (A) (A) (A)
                 (A) (A) (A) (A) (A) (A) (A) (A) (A) (A) (A) (A)
                 (A) (A) (A) (A) (A) (A) (A) (A) (A) (A) (A) (A)
                 (A) (A) (A) (A) (A) (A) (A) (A) (A) (A) (A) (A)
                 (A) (A) (A) (A) (A) (A) (A) (A) (A) (A) (A) (A)
                 (A) (A) (A) (A) (A) (A) (A) (A) (A) (A) (A) (A)
                 (A) (A) (A) (A) (A) (A) (A) (A) (A) (A) (A) (A)
                 (A)
       Virtual   (A) (A) (A) (A) (A) (A) (A) (A) (A) (A) (A) (A)
                 (A) (A) (A) (A) (A) (A) (A) (A) (A) (A) (A) (A)
                 (A) (A) (A) (A) (A) (A) (A) (A) (A) (A) (A) (A)
                 (A) (A) (A) (A) (A) (A) (A) (A) (A) (A) (A) (A)
                 (A) (A) (A) (A) (A) (A) (A) (A) (A) (A) (A) (A)
                 (A) (A) (A) (A) (A) (A) (A) (A) (A) (A) (A) (A)
                 (A) (A) (A) (A) (A) (A) (A) (A) (A) (A) (A) (A)
                 (A) (A) (A) (A) (A) (A) (A) (A) (A) (A) (A) (A)
                 (A) (A) (A) (A) (A) (A) (A) (A) (A) (A) (A) (A)
                 (A) (A) (A) (A) (A) (A) (A) (A) (A) (A) (A) (A)
                 (A) (A) (A) (A) (A) (A) (A) (A) (A) (A) (A) (A)
                 (A) (A) (A) (A) (A) (A) (A) (A) (A) (A) (A) (A)
                 (A) (A) (A) (A) (A) (A) (A) (A) (A) (A) (A) (A)
                 (A) (A) (A) (A) (A) (A) (A) (A) (A) (A) (A) (A)
                 (A) (A) (A) (A) (A) (A) (A) (A) (A) (A) (A) (A)
                 (A) (A) (A) (A) (A) (A) (A) (A) (A) (A) (A) (A)
                 (A) (A) (A) (A) (A) (A) (A) (A) (A) (A) (A) (A)
                 (A) (A) (A) (A) (A) (A) (A) (A) (A) (A) (A) (A)
                 (A) (A) (A) (A) (A) (A) (A) (A) (A) (A) (A) (A)
                 (A) (A) (A) (A) (A) (A) (A) (A) (A) (A) (A) (A)
                 (A) (A) (A) (A) (A) (A) (A) (A) (A) (A) (A) (A)
                 (A) (A) (A) (A) (A) (A) (A) (A) (A) (A) (A) (A)
                 (A) (A) (A) (A) (A) (A) (A) (A) (A) (A) (A) (A)
                 (A) (A) (A) (A) (A) (A) (A) (A) (A) (A) (A) (A)
                 (A) (A) (A) (A) (A) (A) (A) (A) (A) (A) (A) (A)
                 (A) (A) (A) (A) (A) (A) (A) (A) (A) (A) (A) (A)
                 (A) (A) (A) (A) (A) (A) (A) (A) (A) (A) (A) (A)
                 (A) (A) (A) (A) (A) (A) (A) (A) (A) (A) (A) (A)
                 (A) (A) (A) (A) (A) (A) (A) (A) (A) (A) (A) (A)
                 (A) (A) (A) (A) (A) (A) (A) (A) (A) (A) (A) (A)
                 (A) (A) (A) (A) (A) (A) (A) (A) (A) (A) (A) (A)
                 (A) (A) (A) (A) (A) (A) (A) (A) (A) (A) (A) (A)
                 (A) (A) (A) (A)
 The electronic state is 1-A.
 Alpha  occ. eigenvalues -- -101.63407-101.62920-101.57600-101.57584-101.56779
 Alpha  occ. eigenvalues -- -101.56632-101.56406 -10.28245 -10.28084 -10.27839
 Alpha  occ. eigenvalues --  -10.27446 -10.26996 -10.26795 -10.26549 -10.24443
 Alpha  occ. eigenvalues --  -10.23937 -10.22360 -10.22305 -10.21053  -9.56104
 Alpha  occ. eigenvalues --   -9.55642  -9.49127  -9.49081  -9.48210  -9.48137
 Alpha  occ. eigenvalues --   -9.47856  -7.32760  -7.32338  -7.31468  -7.31084
 Alpha  occ. eigenvalues --   -7.30967  -7.30583  -7.25581  -7.25550  -7.24696
 Alpha  occ. eigenvalues --   -7.24604  -7.24599  -7.24564  -7.24560  -7.24513
 Alpha  occ. eigenvalues --   -7.24348  -7.23695  -7.23631  -7.23622  -7.23555
 Alpha  occ. eigenvalues --   -7.23346  -7.23259  -1.12476  -0.94406  -0.93754
 Alpha  occ. eigenvalues --   -0.90474  -0.89519  -0.87510  -0.85734  -0.84825
 Alpha  occ. eigenvalues --   -0.84093  -0.79371  -0.75827  -0.75086  -0.74102
 Alpha  occ. eigenvalues --   -0.68078  -0.64340  -0.62814  -0.61726  -0.58691
 Alpha  occ. eigenvalues --   -0.55594  -0.53131  -0.52913  -0.51849  -0.51602
 Alpha  occ. eigenvalues --   -0.50109  -0.48136  -0.46864  -0.45655  -0.44978
 Alpha  occ. eigenvalues --   -0.44669  -0.44033  -0.43365  -0.42082  -0.41004
 Alpha  occ. eigenvalues --   -0.39477  -0.38337  -0.36403  -0.36295  -0.34838
 Alpha  occ. eigenvalues --   -0.34727  -0.34165  -0.34026  -0.33411  -0.33372
 Alpha  occ. eigenvalues --   -0.32512  -0.30918  -0.29411  -0.27301  -0.26667
 Alpha  occ. eigenvalues --   -0.25867  -0.13131
 Alpha virt. eigenvalues --   -0.09767  -0.07125  -0.06120  -0.06114  -0.05013
 Alpha virt. eigenvalues --   -0.03249  -0.02376  -0.01592  -0.00568   0.00091
 Alpha virt. eigenvalues --    0.01087   0.01564   0.01730   0.02600   0.02761
 Alpha virt. eigenvalues --    0.03538   0.03659   0.04420   0.05153   0.05424
 Alpha virt. eigenvalues --    0.05617   0.05625   0.06417   0.06842   0.06893
 Alpha virt. eigenvalues --    0.07488   0.07665   0.08124   0.08644   0.09123
 Alpha virt. eigenvalues --    0.09178   0.09366   0.09938   0.10481   0.10554
 Alpha virt. eigenvalues --    0.10975   0.11366   0.11677   0.12535   0.12587
 Alpha virt. eigenvalues --    0.12737   0.12884   0.13652   0.13887   0.14437
 Alpha virt. eigenvalues --    0.14459   0.14568   0.14897   0.15141   0.15548
 Alpha virt. eigenvalues --    0.15776   0.15998   0.17219   0.17688   0.17754
 Alpha virt. eigenvalues --    0.18045   0.18488   0.18889   0.19247   0.19380
 Alpha virt. eigenvalues --    0.19808   0.20301   0.20884   0.21375   0.22060
 Alpha virt. eigenvalues --    0.22390   0.22702   0.22832   0.23157   0.23834
 Alpha virt. eigenvalues --    0.23926   0.24398   0.25053   0.25139   0.25253
 Alpha virt. eigenvalues --    0.25944   0.26249   0.26850   0.27343   0.27580
 Alpha virt. eigenvalues --    0.27984   0.28494   0.29451   0.29814   0.30398
 Alpha virt. eigenvalues --    0.31085   0.31369   0.32118   0.32582   0.33154
 Alpha virt. eigenvalues --    0.34229   0.34562   0.35157   0.37369   0.37967
 Alpha virt. eigenvalues --    0.39704   0.40451   0.41477   0.41927   0.42588
 Alpha virt. eigenvalues --    0.42645   0.43336   0.43790   0.44189   0.44429
 Alpha virt. eigenvalues --    0.44928   0.45499   0.46277   0.46432   0.47070
 Alpha virt. eigenvalues --    0.47888   0.48587   0.48650   0.49089   0.49972
 Alpha virt. eigenvalues --    0.50059   0.50685   0.51085   0.52047   0.52602
 Alpha virt. eigenvalues --    0.52779   0.53623   0.54898   0.56312   0.56529
 Alpha virt. eigenvalues --    0.57254   0.58094   0.58131   0.58653   0.59125
 Alpha virt. eigenvalues --    0.59857   0.59871   0.61198   0.61360   0.61481
 Alpha virt. eigenvalues --    0.62466   0.63411   0.63493   0.64678   0.65866
 Alpha virt. eigenvalues --    0.65911   0.67422   0.67906   0.69381   0.69713
 Alpha virt. eigenvalues --    0.71740   0.75093   0.75900   0.76374   0.77585
 Alpha virt. eigenvalues --    0.80435   0.80880   0.81270   0.82114   0.82382
 Alpha virt. eigenvalues --    0.82584   0.82946   0.83820   0.84335   0.84707
 Alpha virt. eigenvalues --    0.84977   0.85205   0.85372   0.85465   0.86187
 Alpha virt. eigenvalues --    0.86189   0.86713   0.87270   0.87644   0.88245
 Alpha virt. eigenvalues --    0.88793   0.88966   0.89900   0.90808   0.91038
 Alpha virt. eigenvalues --    0.91710   0.92414   0.93090   0.94609   0.94663
 Alpha virt. eigenvalues --    0.94969   0.95436   0.95611   0.95751   0.96289
 Alpha virt. eigenvalues --    0.96325   0.97546   0.98181   0.98345   0.99905
 Alpha virt. eigenvalues --    1.00938   1.01652   1.01796   1.02834   1.04637
 Alpha virt. eigenvalues --    1.04960   1.06789   1.07218   1.08941   1.12047
 Alpha virt. eigenvalues --    1.14773   1.18562   1.19191   1.19750   1.20648
 Alpha virt. eigenvalues --    1.21145   1.22207   1.22949   1.23869   1.24339
 Alpha virt. eigenvalues --    1.24902   1.25816   1.27343   1.27577   1.27873
 Alpha virt. eigenvalues --    1.29151   1.29420   1.30575   1.31129   1.32086
 Alpha virt. eigenvalues --    1.34329   1.35056   1.43513   1.45412   1.48112
 Alpha virt. eigenvalues --    1.49125   1.49665   1.50454   1.51044   1.55156
 Alpha virt. eigenvalues --    1.58430   1.59064   1.60739   1.63229   1.64441
 Alpha virt. eigenvalues --    1.66092   1.68575   1.69572   1.71964   1.74716
 Alpha virt. eigenvalues --    1.75504   1.78809   1.80388   1.83194   1.83860
 Alpha virt. eigenvalues --    1.83899   1.84683   1.85311   1.85936   1.86433
 Alpha virt. eigenvalues --    1.86858   1.87312   1.88416   1.92504   1.94177
 Alpha virt. eigenvalues --    1.98332   2.00194   2.00512   2.06079   2.09062
 Alpha virt. eigenvalues --    2.10054   2.12351   2.16646   2.17965   2.18730
 Alpha virt. eigenvalues --    2.20254   2.22862   2.24091   2.24093   2.25337
 Alpha virt. eigenvalues --    2.25961   2.26496   2.26593   2.28771   2.29619
 Alpha virt. eigenvalues --    2.30131   2.32367   2.32593   2.33695   2.37866
 Alpha virt. eigenvalues --    2.39006   2.40634   2.41748   2.42597   2.43594
 Alpha virt. eigenvalues --    2.44650   2.45312   2.50836   2.52355   2.54185
 Alpha virt. eigenvalues --    2.55651   2.57944   2.59198   2.59894   2.60463
 Alpha virt. eigenvalues --    2.60781   2.61881   2.64054   2.65541   2.69565
 Alpha virt. eigenvalues --    2.71377   2.73042   2.73537   2.73735   2.74281
 Alpha virt. eigenvalues --    2.75182   2.76267   2.77393   2.81325   2.83664
 Alpha virt. eigenvalues --    2.85544   2.86545   2.88162   2.92820   3.04516
 Alpha virt. eigenvalues --    3.06630   3.06846   3.09263   3.09479   3.14028
 Alpha virt. eigenvalues --    3.15234   3.19707   3.20444   3.23100   3.27531
 Alpha virt. eigenvalues --    3.32602   3.33786   3.39678   3.41008   3.51718
 Alpha virt. eigenvalues --    3.60126   3.67468   3.67494   3.76283   3.83711
 Alpha virt. eigenvalues --    3.90700   4.04510   4.05406   4.07889   4.79150
 Alpha virt. eigenvalues --    4.81388   9.67404   9.75327   9.78102   9.79616
 Alpha virt. eigenvalues --    9.81307   9.83754   9.98035  23.30007  23.34807
 Alpha virt. eigenvalues --   23.79424  23.80335  23.83540  23.86647  23.94378
 Alpha virt. eigenvalues --   23.95389  23.96468  23.97621  24.06657  24.08272
 Alpha virt. eigenvalues --   25.73621  25.77074  25.79861  25.82819  25.83387
 Alpha virt. eigenvalues --   25.88916  25.98788  26.07608  26.10889  26.13199
 Alpha virt. eigenvalues --   26.20284  26.23399  26.34605  26.46480  26.53905
 Alpha virt. eigenvalues --   26.64066  26.68679  26.79873  26.94515  26.99699
 Alpha virt. eigenvalues --   27.01651 215.68036 215.74983 215.78233 215.79546
 Alpha virt. eigenvalues --  215.81384 215.84303 216.04433
          Condensed to atoms (all electrons):
               1          2          3          4          5          6
     1  C   25.972252  -1.996266  -7.806696   1.398202  -7.343113   3.241043
     2  C   -1.996266  16.920019  -3.150663  -0.975292   2.438070  -3.103200
     3  C   -7.806696  -3.150663  15.885246   0.316493   0.077951   2.758854
     4  C    1.398202  -0.975292   0.316493  14.616922  -3.032196  -6.003238
     5  C   -7.343113   2.438070   0.077951  -3.032196  19.638511  -5.642931
     6  C    3.241043  -3.103200   2.758854  -6.003238  -5.642931  28.871871
     7  C    7.953023  -2.117069  -4.476175   0.401980  -3.362864  -2.745940
     8  C   -1.089952   0.145416  -0.061094   0.314517   0.063253  -0.730140
     9  C   -3.379410  -0.660708   0.629586  -0.024845  -0.652899  -0.381755
    10  C    0.142463   0.956952   0.301440   0.016426   0.080430  -0.141451
    11  C   -1.011254   0.182311  -0.297595   0.116602   0.259564  -0.033601
    12  C   -2.490913  -1.313881   0.132754  -0.092660   0.747032  -5.420056
    13  H    0.013166  -0.019992   0.436290  -0.064213  -0.085468   0.061364
    14  H   -0.043921   0.013234  -0.030932   0.329416   0.008237   0.051653
    15  H    0.026726  -0.010208   0.025361   0.005320  -0.000425  -0.011880
    16  Cl   4.774083   0.420955  -1.423788   0.755126  -5.060562  15.340922
    17  Cl -10.855729  -0.870523   2.815989  -0.245833   7.551875 -19.909052
    18  Cl  -0.001763  -0.044838  -0.010973   0.008978   0.013879  -0.106868
    19  Cl  -0.542122   0.050300   0.073342  -1.154280  -0.327288   1.332492
    20  Cl  -0.083015  -0.001285  -0.001464   0.000531  -0.005055   0.002700
    21  Cl  -0.228644  -0.042533  -0.000362  -0.000218  -0.014170  -0.040104
    22  Cl   0.012229  -0.641047   0.013605  -0.171631   0.257966   0.097553
               7          8          9         10         11         12
     1  C    7.953023  -1.089952  -3.379410   0.142463  -1.011254  -2.490913
     2  C   -2.117069   0.145416  -0.660708   0.956952   0.182311  -1.313881
     3  C   -4.476175  -0.061094   0.629586   0.301440  -0.297595   0.132754
     4  C    0.401980   0.314517  -0.024845   0.016426   0.116602  -0.092660
     5  C   -3.362864   0.063253  -0.652899   0.080430   0.259564   0.747032
     6  C   -2.745940  -0.730140  -0.381755  -0.141451  -0.033601  -5.420056
     7  C   29.559834  -0.709504  -8.486805   8.293944  -3.534647  -5.147711
     8  C   -0.709504  13.058188  -2.088151  -5.824909   4.852693  -0.816611
     9  C   -8.486805  -2.088151  20.815689  -5.560868  -2.645047   7.633595
    10  C    8.293944  -5.824909  -5.560868  26.779580  -6.668468  -7.904355
    11  C   -3.534647   4.852693  -2.645047  -6.668468  15.880617  -3.113466
    12  C   -5.147711  -0.816611   7.633595  -7.904355  -3.113466  26.561904
    13  H   -0.004430   0.001063  -0.000979   0.000130   0.000093  -0.000635
    14  H   -0.005485  -0.000082  -0.000046   0.000041  -0.000009   0.001543
    15  H   -0.016243   0.247966  -0.046577   0.019900  -0.017452   0.087202
    16  Cl -10.488835  -0.508998   1.536757  -5.017458   5.523927 -17.004369
    17  Cl   3.693847   0.064467  -0.601981   2.372724  -2.705201  14.287361
    18  Cl  -0.638059   0.534355  -0.203363  -0.728440  -0.375963   0.526587
    19  Cl  -0.085209  -0.031025   0.010457  -0.004157  -0.015754  -0.038692
    20  Cl  -0.055740  -0.440478  -0.186956  -0.213619   0.217866  -0.222286
    21  Cl  -1.199130   0.182464   0.515329  -0.633168  -0.159792   0.737290
    22  Cl   0.309167  -0.210535  -0.578613  -0.070336   0.105971  -0.186359
              13         14         15         16         17         18
     1  C    0.013166  -0.043921   0.026726   4.774083 -10.855729  -0.001763
     2  C   -0.019992   0.013234  -0.010208   0.420955  -0.870523  -0.044838
     3  C    0.436290  -0.030932   0.025361  -1.423788   2.815989  -0.010973
     4  C   -0.064213   0.329416   0.005320   0.755126  -0.245833   0.008978
     5  C   -0.085468   0.008237  -0.000425  -5.060562   7.551875   0.013879
     6  C    0.061364   0.051653  -0.011880  15.340922 -19.909052  -0.106868
     7  C   -0.004430  -0.005485  -0.016243 -10.488835   3.693847  -0.638059
     8  C    0.001063  -0.000082   0.247966  -0.508998   0.064467   0.534355
     9  C   -0.000979  -0.000046  -0.046577   1.536757  -0.601981  -0.203363
    10  C    0.000130   0.000041   0.019900  -5.017458   2.372724  -0.728440
    11  C    0.000093  -0.000009  -0.017452   5.523927  -2.705201  -0.375963
    12  C   -0.000635   0.001543   0.087202 -17.004369  14.287361   0.526587
    13  H    0.513331  -0.005033  -0.000021  -0.004818   0.016142  -0.000001
    14  H   -0.005033   0.505145  -0.000003  -0.005195   0.021692  -0.000001
    15  H   -0.000021  -0.000003   0.569413   0.045016  -0.028793   0.001338
    16  Cl  -0.004818  -0.005195   0.045016  85.326578 -58.259024  -0.144669
    17  Cl   0.016142   0.021692  -0.028793 -58.259024  79.016408  -0.523444
    18  Cl  -0.000001  -0.000001   0.001338  -0.144669  -0.523444  18.281114
    19  Cl  -0.000849   0.000287   0.000053  -0.439613  -0.135895  -0.003405
    20  Cl  -0.000001  -0.000000   0.002628   0.247220  -0.077298  -0.287077
    21  Cl  -0.000015  -0.000000  -0.013543   0.054272  -0.015205   0.008872
    22  Cl  -0.008620   0.003213  -0.034722  -0.072620   0.082488   0.002601
              19         20         21         22
     1  C   -0.542122  -0.083015  -0.228644   0.012229
     2  C    0.050300  -0.001285  -0.042533  -0.641047
     3  C    0.073342  -0.001464  -0.000362   0.013605
     4  C   -1.154280   0.000531  -0.000218  -0.171631
     5  C   -0.327288  -0.005055  -0.014170   0.257966
     6  C    1.332492   0.002700  -0.040104   0.097553
     7  C   -0.085209  -0.055740  -1.199130   0.309167
     8  C   -0.031025  -0.440478   0.182464  -0.210535
     9  C    0.010457  -0.186956   0.515329  -0.578613
    10  C   -0.004157  -0.213619  -0.633168  -0.070336
    11  C   -0.015754   0.217866  -0.159792   0.105971
    12  C   -0.038692  -0.222286   0.737290  -0.186359
    13  H   -0.000849  -0.000001  -0.000015  -0.008620
    14  H    0.000287  -0.000000  -0.000000   0.003213
    15  H    0.000053   0.002628  -0.013543  -0.034722
    16  Cl  -0.439613   0.247220   0.054272  -0.072620
    17  Cl  -0.135895  -0.077298  -0.015205   0.082488
    18  Cl  -0.003405  -0.287077   0.008872   0.002601
    19  Cl  17.795223  -0.000093   0.000049  -0.003172
    20  Cl  -0.000093  17.661991  -0.206469  -0.002090
    21  Cl   0.000049  -0.206469  17.552721  -0.027762
    22  Cl  -0.003172  -0.002090  -0.027762  17.565922
 Mulliken charges:
               1
     1  C   -0.660388
     2  C   -0.179751
     3  C   -0.207168
     4  C   -0.516106
     5  C    0.390205
     6  C   -1.488234
     7  C   -1.137949
     8  C   -0.952903
     9  C    0.357590
    10  C   -0.196798
    11  C   -0.561395
    12  C   -0.963271
    13  H    0.153497
    14  H    0.156248
    15  H    0.148944
    16  Cl   1.405095
    17  Cl   1.304986
    18  Cl   0.691140
    19  Cl   0.519354
    20  Cl   0.649992
    21  Cl   0.530118
    22  Cl   0.556792
 Sum of Mulliken charges =  -0.00000
 Mulliken charges with hydrogens summed into heavy atoms:
               1
     1  C   -0.660388
     2  C   -0.179751
     3  C   -0.053671
     4  C   -0.359859
     5  C    0.390205
     6  C   -1.488234
     7  C   -1.137949
     8  C   -0.803959
     9  C    0.357590
    10  C   -0.196798
    11  C   -0.561395
    12  C   -0.963271
    16  Cl   1.405095
    17  Cl   1.304986
    18  Cl   0.691140
    19  Cl   0.519354
    20  Cl   0.649992
    21  Cl   0.530118
    22  Cl   0.556792
 Electronic spatial extent (au):  <R**2>=           9677.2907
 Charge=             -0.0000 electrons
 Dipole moment (field-independent basis, Debye):
    X=             -4.0777    Y=              0.0610    Z=              0.0000  Tot=              4.0781
 Quadrupole moment (field-independent basis, Debye-Ang):
   XX=           -163.4404   YY=           -153.3208   ZZ=           -159.1138
   XY=             -4.1291   XZ=             -0.0000   YZ=              0.0000
 Traceless Quadrupole moment (field-independent basis, Debye-Ang):
   XX=             -4.8154   YY=              5.3042   ZZ=             -0.4888
   XY=             -4.1291   XZ=             -0.0000   YZ=              0.0000
 Octapole moment (field-independent basis, Debye-Ang**2):
  XXX=            -46.1399  YYY=            -21.3598  ZZZ=              0.0000  XYY=            -23.5075
  XXY=             38.1919  XXZ=              0.0002  XZZ=              7.5375  YZZ=            -11.5399
  YYZ=              0.0000  XYZ=              0.0000
 Hexadecapole moment (field-independent basis, Debye-Ang**3):
 XXXX=          -8910.3161 YYYY=          -3595.5331 ZZZZ=           -186.0873 XXXY=           -162.6981
 XXXZ=             -0.0005 YYYX=             50.5769 YYYZ=              0.0002 ZZZX=              0.0001
 ZZZY=             -0.0000 XXYY=          -2022.8000 XXZZ=          -1563.2128 YYZZ=           -659.1764
 XXYZ=              0.0002 YYXZ=             -0.0001 ZZXY=             24.4374
 N-N= 2.372182380610D+03 E-N=-1.346510024557D+04  KE= 3.672617736112D+03
 Calling FoFJK, ICntrl=      2127 FMM=F ISym2X=0 I1Cent= 0 IOpClX= 0 NMat=1 NMatS=1 NMatT=0.
 ***** Axes restored to original set *****
 -------------------------------------------------------------------
 Center     Atomic                   Forces (Hartrees/Bohr)
 Number     Number              X              Y              Z
 -------------------------------------------------------------------
      1        6          -0.020628747   -0.013934491    0.004179471
      2        6          -0.019777949    0.010787442    0.008541968
      3        6          -0.013968199    0.001442498    0.004872904
      4        6          -0.005711706   -0.015183025   -0.000969985
      5        6          -0.003747345   -0.010927472   -0.000817485
      6        6           0.072102550    0.005891016   -0.022648160
      7        6          -0.009060799    0.017714486    0.006311875
      8        6          -0.017766715   -0.000212651    0.005813557
      9        6          -0.002757234    0.007124341    0.002246408
     10        6          -0.005232707   -0.004143546    0.000945742
     11        6           0.013324022    0.011566535   -0.002217415
     12        6           0.025180492   -0.085367868   -0.024328764
     13        1           0.009292272    0.000436294   -0.002979382
     14        1           0.004767673    0.008199343   -0.000030861
     15        1          -0.003310527   -0.006459752   -0.000122678
     16       17          -0.281993351   -0.430035656    0.012143703
     17       17           0.236087970    0.479154975    0.012205047
     18       17          -0.006066818   -0.004933492    0.001072160
     19       17           0.006230970    0.006793844   -0.000776846
     20       17           0.001630615    0.000985523   -0.000352132
     21       17           0.001020120    0.005911010    0.000774028
     22       17           0.020385413    0.015190646   -0.003863156
 -------------------------------------------------------------------
 Cartesian Forces:  Max     0.479154975 RMS     0.092807155

 GradGradGradGradGradGradGradGradGradGradGradGradGradGradGradGradGradGrad
 Berny optimization.
 FormGI is forming the generalized inverse of G from B-inverse, IUseBI=4.
 Internal  Forces:  Max     0.565019852 RMS     0.058936399
 Search for a local minimum.
 Step number   1 out of a maximum of  112
 All quantities printed in internal units (Hartrees-Bohrs-Radians)
 Mixed Optimization -- RFO/linear search
 Second derivative matrix not updated -- first step.
 ITU=  0
     Eigenvalues ---    0.00238   0.00238   0.01655   0.01655   0.02070
     Eigenvalues ---    0.02070   0.02070   0.02070   0.02070   0.02070
     Eigenvalues ---    0.02070   0.02070   0.02070   0.02070   0.02070
     Eigenvalues ---    0.02070   0.02070   0.02070   0.04301   0.16000
     Eigenvalues ---    0.16000   0.16000   0.22472   0.23353   0.24476
     Eigenvalues ---    0.25000   0.25000   0.25000   0.25000   0.25000
     Eigenvalues ---    0.25000   0.25000   0.25000   0.25000   0.25000
     Eigenvalues ---    0.25000   0.25000   0.29539   0.29539   0.29539
     Eigenvalues ---    0.29539   0.29539   0.29539   0.29539   0.37230
     Eigenvalues ---    0.37230   0.37230   0.41658   0.41671   0.42024
     Eigenvalues ---    0.42184   0.45389   0.45389   0.45389   0.45389
     Eigenvalues ---    0.45389   0.45389   0.45389   0.45389   1.32680
 RFO step:  Lambda=-2.66105824D-01 EMin= 2.37798995D-03
 Linear search not attempted -- first point.
 Maximum step size (   0.300) exceeded in Quadratic search.
    -- Step size scaled by   0.600
 Iteration  1 RMS(Cart)=  0.36285530 RMS(Int)=  0.01045358
 Iteration  2 RMS(Cart)=  0.06306791 RMS(Int)=  0.00033464
 Iteration  3 RMS(Cart)=  0.00081641 RMS(Int)=  0.00002645
 Iteration  4 RMS(Cart)=  0.00000012 RMS(Int)=  0.00002645
 Variable       Old X    -DE/DX   Delta X   Delta X   Delta X     New X
                                 (Linear)    (Quad)   (Total)
    R1        2.64826   0.01498   0.00000   0.01304   0.01308   2.66135
    R2        2.64826   0.00227   0.00000   0.00255   0.00261   2.65087
    R3        2.64826  -0.00874   0.00000  -0.00740  -0.00741   2.64086
    R4        3.32592  -0.00252   0.00000  -0.00270  -0.00270   3.32322
    R5        2.64826  -0.02828   0.00000  -0.02424  -0.02429   2.62397
    R6        2.02201   0.00977   0.00000   0.00918   0.00918   2.03119
    R7        2.64826  -0.02102   0.00000  -0.01808  -0.01812   2.63014
    R8        2.02201   0.00948   0.00000   0.00892   0.00892   2.03093
    R9        2.64826  -0.00081   0.00000  -0.00057  -0.00056   2.64770
   R10        3.32592   0.00271   0.00000   0.00289   0.00289   3.32881
   R11        3.32592   0.05120   0.00000   0.05474   0.05474   3.38066
   R12        2.64826  -0.00719   0.00000  -0.00614  -0.00614   2.64212
   R13        2.64826  -0.02377   0.00000  -0.01993  -0.01992   2.62834
   R14        2.64826  -0.01004   0.00000  -0.00840  -0.00842   2.63985
   R15        2.02201  -0.00325   0.00000  -0.00305  -0.00305   2.01895
   R16        2.64826  -0.01066   0.00000  -0.00878  -0.00879   2.63947
   R17        3.32592  -0.00476   0.00000  -0.00509  -0.00509   3.32083
   R18        2.64826  -0.01011   0.00000  -0.00829  -0.00829   2.63997
   R19        3.32592  -0.00168   0.00000  -0.00179  -0.00179   3.32413
   R20        2.64826  -0.00517   0.00000  -0.00428  -0.00426   2.64400
   R21        3.32592   0.00620   0.00000   0.00663   0.00663   3.33255
   R22        3.32592   0.05032   0.00000   0.05380   0.05380   3.37972
   R23        3.16132   0.56502   0.00000   0.21296   0.21296   3.37428
    A1        2.09440  -0.03659   0.00000  -0.04013  -0.03999   2.05441
    A2        2.09440   0.01718   0.00000   0.02052   0.02055   2.11494
    A3        2.09440   0.03397   0.00000   0.03925   0.03923   2.13363
    A4        2.09440  -0.05115   0.00000  -0.05976  -0.05978   2.03462
    A5        2.09440   0.00562   0.00000   0.00568   0.00561   2.10001
    A6        2.09440  -0.00257   0.00000  -0.00251  -0.00248   2.09192
    A7        2.09440  -0.00304   0.00000  -0.00317  -0.00314   2.09126
    A8        2.09440  -0.00673   0.00000  -0.01023  -0.01034   2.08405
    A9        2.09440   0.00340   0.00000   0.00516   0.00521   2.09961
   A10        2.09440   0.00334   0.00000   0.00507   0.00513   2.09953
   A11        2.09440   0.00795   0.00000   0.00854   0.00849   2.10288
   A12        2.09440  -0.01869   0.00000  -0.02138  -0.02136   2.07304
   A13        2.09440   0.01074   0.00000   0.01285   0.01287   2.10726
   A14        2.09440   0.01258   0.00000   0.01563   0.01568   2.11008
   A15        2.09440   0.02665   0.00000   0.03051   0.03048   2.12487
   A16        2.09440  -0.03923   0.00000  -0.04613  -0.04616   2.04823
   A17        2.09440  -0.02045   0.00000  -0.02447  -0.02445   2.06995
   A18        2.09440   0.01111   0.00000   0.01335   0.01334   2.10773
   A19        2.09440   0.00101   0.00000   0.00257   0.00258   2.09697
   A20        2.09440  -0.01212   0.00000  -0.01593  -0.01592   2.07848
   A21        2.09440   0.00454   0.00000   0.00530   0.00527   2.09966
   A22        2.09440  -0.00848   0.00000  -0.00988  -0.00986   2.08453
   A23        2.09440   0.00394   0.00000   0.00458   0.00459   2.09899
   A24        2.09440  -0.01221   0.00000  -0.01393  -0.01395   2.08045
   A25        2.09440   0.00449   0.00000   0.00508   0.00509   2.09949
   A26        2.09440   0.00772   0.00000   0.00885   0.00886   2.10325
   A27        2.09440   0.00022   0.00000   0.00042   0.00043   2.09483
   A28        2.09440  -0.00822   0.00000  -0.00965  -0.00965   2.08474
   A29        2.09440   0.00800   0.00000   0.00923   0.00922   2.10362
   A30        2.09440   0.01679   0.00000   0.01933   0.01936   2.11375
   A31        2.09440  -0.01223   0.00000  -0.01413  -0.01414   2.08026
   A32        2.09440  -0.00456   0.00000  -0.00521  -0.00522   2.08918
   A33        2.09440   0.09307   0.00000   0.10826   0.10826   2.20266
   A34        2.09440   0.09158   0.00000   0.10654   0.10654   2.20093
    D1        0.00000   0.00000   0.00000   0.00000   0.00000   0.00000
    D2        3.14159  -0.00000   0.00000   0.00000   0.00000   3.14159
    D3       -0.00000  -0.00000   0.00000  -0.00000  -0.00000  -0.00000
    D4        3.14159   0.00000   0.00000   0.00000   0.00000   3.14159
    D5        0.00000  -0.00000   0.00000   0.00000   0.00000   0.00000
    D6        3.14159  -0.00000   0.00000  -0.00000  -0.00000   3.14159
    D7       -3.14159  -0.00000   0.00000  -0.00000  -0.00000  -3.14159
    D8        0.00000  -0.00000   0.00000  -0.00000  -0.00000   0.00000
    D9       -0.00000   0.00000   0.00000   0.00000   0.00000  -0.00000
   D10        3.14159   0.00000   0.00000  -0.00000  -0.00000   3.14159
   D11        3.14159   0.00000   0.00000   0.00000   0.00000   3.14159
   D12        0.00000  -0.00000   0.00000   0.00000   0.00000   0.00000
   D13        0.00000  -0.00000   0.00000  -0.00000  -0.00000   0.00000
   D14       -3.14159  -0.00000   0.00000  -0.00000  -0.00000  -3.14159
   D15       -3.14159  -0.00000   0.00000  -0.00000  -0.00000  -3.14159
   D16        0.00000  -0.00000   0.00000  -0.00000  -0.00000   0.00000
   D17       -0.00000   0.00000   0.00000   0.00000   0.00000  -0.00000
   D18        3.14159  -0.00000   0.00000  -0.00000  -0.00000   3.14159
   D19        3.14159   0.00000   0.00000   0.00000   0.00000   3.14159
   D20       -0.00000  -0.00000   0.00000  -0.00000  -0.00000  -0.00000
   D21        0.00001  -0.00000   0.00000  -0.00000  -0.00000   0.00001
   D22       -3.14159  -0.00000   0.00000  -0.00000  -0.00000  -3.14159
   D23        0.00000   0.00000   0.00000   0.00000   0.00000   0.00000
   D24       -3.14159  -0.00000   0.00000  -0.00000  -0.00000  -3.14159
   D25       -0.00000  -0.00000   0.00000  -0.00000  -0.00000  -0.00000
   D26        3.14159   0.00000   0.00000   0.00000   0.00000   3.14159
   D27       -0.00000  -0.00000   0.00000  -0.00000  -0.00000  -0.00000
   D28        3.14159  -0.00000   0.00000  -0.00000  -0.00000   3.14159
   D29        3.14159   0.00000   0.00000   0.00000   0.00000   3.14159
   D30       -0.00000   0.00000   0.00000   0.00000   0.00000  -0.00000
   D31       -0.00000   0.00000   0.00000   0.00000   0.00000  -0.00000
   D32       -3.14159  -0.00000   0.00000  -0.00000  -0.00000  -3.14159
   D33        3.14159   0.00000   0.00000   0.00000   0.00000   3.14159
   D34        0.00000   0.00000   0.00000   0.00000   0.00000   0.00000
   D35        0.00000  -0.00000   0.00000  -0.00000  -0.00000   0.00000
   D36       -3.14159  -0.00000   0.00000  -0.00000  -0.00000  -3.14159
   D37        3.14159   0.00000   0.00000   0.00000   0.00000   3.14159
   D38        0.00000  -0.00000   0.00000  -0.00000  -0.00000   0.00000
   D39        0.00000   0.00000   0.00000   0.00000   0.00000   0.00000
   D40       -3.14159  -0.00000   0.00000  -0.00000  -0.00000  -3.14159
   D41        3.14159   0.00000   0.00000   0.00000   0.00000   3.14159
   D42       -0.00000  -0.00000   0.00000  -0.00000  -0.00000  -0.00000
   D43        0.00001  -0.00000   0.00000  -0.00000  -0.00000   0.00001
   D44       -3.14159  -0.00000   0.00000  -0.00000  -0.00000  -3.14159
   D45       -0.00001  -0.00000   0.00000  -0.00000  -0.00000  -0.00001
         Item               Value     Threshold  Converged?
 Maximum Force            0.565020     0.000450     NO 
 RMS     Force            0.058936     0.000300     NO 
 Maximum Displacement     1.261271     0.001800     NO 
 RMS     Displacement     0.422951     0.001200     NO 
 Predicted change in Energy=-1.237781D-01
 GradGradGradGradGradGradGradGradGradGradGradGradGradGradGradGradGradGrad

                          Input orientation:                          
 ---------------------------------------------------------------------
 Center     Atomic      Atomic             Coordinates (Angstroms)
 Number     Number       Type             X           Y           Z
 ---------------------------------------------------------------------
      1          6           0        0.383761    2.453964    0.245441
      2          6           0        1.712308    2.712680   -0.143665
      3          6           0        2.247422    4.001971   -0.077822
      4          6           0        1.471976    5.060454    0.376443
      5          6           0        0.156458    4.826093    0.765828
      6          6           0       -0.384623    3.535278    0.701665
      7          6           0       -1.078723    0.080225    0.281446
      8          6           0       -0.612713   -1.178959   -0.108573
      9          6           0       -1.444166   -2.299727   -0.045133
     10          6           0       -2.758645   -2.177148    0.410958
     11          6           0       -3.230070   -0.921588    0.802080
     12          6           0       -2.388772    0.194320    0.734484
     13          1           0        3.264176    4.175443   -0.380215
     14          1           0        1.883874    6.051824    0.426928
     15          1           0        0.389364   -1.294894   -0.460489
     16         17           0       -3.001274    1.797612    1.237395
     17         17           0       -2.083589    3.329272    1.222706
     18         17           0       -4.888638   -0.759395    1.378979
     19         17           0       -0.812285    6.180905    1.339425
     20         17           0       -3.805390   -3.588610    0.490735
     21         17           0       -0.822280   -3.865738   -0.544132
     22         17           0        2.780808    1.446578   -0.733466
 ---------------------------------------------------------------------
                    Distance matrix (angstroms):
                    1          2          3          4          5
     1  C    0.000000
     2  C    1.408323   0.000000
     3  C    2.444188   1.397481   0.000000
     4  C    2.827572   2.416674   1.388546   0.000000
     5  C    2.439153   2.777474   2.400636   1.391809   0.000000
     6  C    1.402780   2.405903   2.784432   2.424642   1.401103
     7  C    2.788332   3.860103   5.154843   5.596228   4.927836
     8  C    3.783705   4.533411   5.918053   6.596320   6.116932
     9  C    5.101307   5.924294   7.303443   7.928044   7.348264
    10  C    5.599045   6.648868   7.967504   8.383449   7.594020
    11  C    4.976341   6.207208   7.417450   7.620710   6.671261
    12  C    3.609999   4.892048   6.054117   6.221963   5.285121
    13  H    3.413462   2.145676   1.074860   2.137231   3.375599
    14  H    3.902290   3.391886   2.142157   1.074720   2.145049
    15  H    3.814749   4.232164   5.626330   6.500996   6.246966
    16  Cl   3.587928   4.996251   5.842756   5.603333   4.400607
    17  Cl   2.794463   4.081175   4.571822   4.044156   2.732586
    18  Cl   6.277641   7.612243   8.701507   8.679466   7.551598
    19  Cl   4.064162   4.538910   4.014741   2.720403   1.761531
    20  Cl   7.356755   8.399625   9.725055  10.132618   9.304791
    21  Cl   6.482022   7.061168   8.458213   9.262180   8.844313
    22  Cl   2.778295   1.758572   2.691543   4.000630   4.533897
                    6          7          8          9         10
     6  C    0.000000
     7  C    3.549049   0.000000
     8  C    4.788793   1.398150   0.000000
     9  C    5.977259   2.429892   1.396947   0.000000
    10  C    6.192923   2.816850   2.423080   1.396746   0.000000
    11  C    5.288696   2.429605   2.783179   2.409666   1.397014
    12  C    3.896112   1.390859   2.398129   2.778552   2.421845
    13  H    3.859275   6.005778   6.616168   8.013026   8.789524
    14  H    3.399200   6.667694   7.668372   9.002616   9.448238
    15  H    5.027944   2.143992   1.068384   2.131676   3.383453
    16  Cl   3.186432   2.749447   4.046829   4.567018   4.067011
    17  Cl   1.788969   3.528744   4.925437   5.805335   5.606718
    18  Cl   6.260122   4.052776   4.546689   4.033002   2.735682
    19  Cl   2.754810   6.197468   7.503608   8.616113   8.631768
    20  Cl   7.905435   4.575900   4.044597   2.742945   1.759052
    21  Cl   7.517885   4.039551   2.729911   1.757309   2.740994
    22  Cl   4.054901   4.218169   4.335888   5.688498   6.717636
                   11         12         13         14         15
    11  C    0.000000
    12  C    1.399143   0.000000
    13  H    8.339830   7.003407   0.000000
    14  H    8.655728   7.256752   2.465263   0.000000
    15  H    3.851459   3.371017   6.180257   7.549525   0.000000
    16  Cl   2.763313   1.788470   6.893954   6.528387   4.893141
    17  Cl   4.422799   3.187385   5.646588   4.877122   5.507409
    18  Cl   1.763511   2.752141   9.691015   9.652255   5.614954
    19  Cl   7.521957   6.220166   4.857630   2.849313   7.782752
    20  Cl   2.746076   4.046823  10.536499  11.194184   4.874620
    21  Cl   4.034571   4.535728   9.021451  10.325903   2.843293
    22  Cl   6.640539   5.517933   2.793767   4.833146   3.648176
                   16         17         18         19         20
    16  Cl   0.000000
    17  Cl   1.785593   0.000000
    18  Cl   3.181270   4.960838   0.000000
    19  Cl   4.900545   3.124364   8.048975   0.000000
    20  Cl   5.496861   7.166412   3.157033  10.252920   0.000000
    21  Cl   6.324191   7.515370   5.466535  10.221689   3.169652
    22  Cl   6.118823   5.570773   8.255250   6.294525   8.380321
                   21         22
    21  Cl   0.000000
    22  Cl   6.421744   0.000000
 Stoichiometry    C12H3Cl7
 Framework group  C1[X(C12H3Cl7)]
 Deg. of freedom    60
 Full point group                 C1      NOp   1
 Largest Abelian subgroup         C1      NOp   1
 Largest concise Abelian subgroup C1      NOp   1
                         Standard orientation:                         
 ---------------------------------------------------------------------
 Center     Atomic      Atomic             Coordinates (Angstroms)
 Number     Number       Type             X           Y           Z
 ---------------------------------------------------------------------
      1          6           0       -2.054609    0.906793    0.000003
      2          6           0       -2.842043    2.074407    0.000006
      3          6           0       -4.237833    2.005696    0.000005
      4          6           0       -4.879064    0.774079    0.000002
      5          6           0       -4.119212   -0.392007   -0.000002
      6          6           0       -2.719554   -0.328375   -0.000002
      7          6           0        0.713498    0.571570   -0.000007
      8          6           0        1.665960    1.595113   -0.000010
      9          6           0        3.031484    1.300486   -0.000008
     10          6           0        3.466029   -0.026944   -0.000002
     11          6           0        2.519116   -1.054077    0.000001
     12          6           0        1.153926   -0.747715   -0.000001
     13          1           0       -4.818142    2.910442    0.000008
     14          1           0       -5.952506    0.721666    0.000002
     15          1           0        1.355158    2.617290   -0.000012
     16         17           0       -0.050871   -2.069490    0.000004
     17         17           0       -1.826201   -1.878320   -0.000006
     18         17           0        3.060561   -2.732411    0.000012
     19         17           0       -4.949845   -1.945403   -0.000009
     20         17           0        5.185578   -0.397639    0.000003
     21         17           0        4.198449    2.614383   -0.000012
     22         17           0       -2.133595    3.683965    0.000013
 ---------------------------------------------------------------------
 Rotational constants (GHZ):           0.3166127           0.1147353           0.0842166
 Standard basis: 6-311+G(d,p) (5D, 7F)
 There are   511 symmetry adapted cartesian basis functions of A   symmetry.
 There are   492 symmetry adapted basis functions of A   symmetry.
   492 basis functions,   827 primitive gaussians,   511 cartesian basis functions
    97 alpha electrons       97 beta electrons
       nuclear repulsion energy      2280.2224550570 Hartrees.
 NAtoms=   22 NActive=   22 NUniq=   22 SFac= 1.00D+00 NAtFMM=   60 NAOKFM=F Big=F
 Integral buffers will be    131072 words long.
 Raffenetti 2 integral format.
 Two-electron integral symmetry is turned on.
 One-electron integrals computed using PRISM.
 NBasis=   492 RedAO= T EigKep=  1.91D-06  NBF=   492
 NBsUse=   486 1.00D-06 EigRej=  8.50D-07 NBFU=   486
 Initial guess from the checkpoint file:  "./Gau-167745.chk"
 B after Tr=     0.000000   -0.000000   -0.000000
         Rot=    0.999094    0.000000    0.000000   -0.042566 Ang=   4.88 deg.
 ExpMin= 4.38D-02 ExpMax= 1.06D+05 ExpMxC= 3.62D+03 IAcc=3 IRadAn=         5 AccDes= 0.00D+00
 Harris functional with IExCor=  402 and IRadAn=       5 diagonalized for initial guess.
 HarFok:  IExCor=  402 AccDes= 0.00D+00 IRadAn=         5 IDoV= 1 UseB2=F ITyADJ=14
 ICtDFT=  3500011 ScaDFX=  1.000000  1.000000  1.000000  1.000000
 FoFCou: FMM=F IPFlag=           0 FMFlag=      100000 FMFlg1=           0
         NFxFlg=           0 DoJE=T BraDBF=F KetDBF=T FulRan=T
         wScrn=  0.000000 ICntrl=       500 IOpCl=  0 I1Cent=   200000004 NGrid=           0
         NMat0=    1 NMatS0=      1 NMatT0=    0 NMatD0=    1 NMtDS0=    0 NMtDT0=    0
 Petite list used in FoFCou.
 Requested convergence on RMS density matrix=1.00D-08 within  32 cycles.
 Requested convergence on MAX density matrix=1.00D-06.
 Requested convergence on             energy=1.00D-06.
 No special actions if energy rises.
 Restarting incremental Fock formation.
 SCF Done:  E(RB3LYP) =  -3680.27173021     A.U. after   22 cycles
            NFock= 22  Conv=0.35D-08     -V/T= 2.0023
 QCSCF skips out because SCF is already converged.
 Calling FoFJK, ICntrl=      2127 FMM=F ISym2X=0 I1Cent= 0 IOpClX= 0 NMat=1 NMatS=1 NMatT=0.
 ***** Axes restored to original set *****
 -------------------------------------------------------------------
 Center     Atomic                   Forces (Hartrees/Bohr)
 Number     Number              X              Y              Z
 -------------------------------------------------------------------
      1        6          -0.010283526    0.029363460    0.008902478
      2        6          -0.021768422   -0.001391162    0.006910456
      3        6          -0.005570184   -0.000297965    0.001779286
      4        6          -0.001884776   -0.009186987   -0.001104675
      5        6          -0.011988294   -0.002521554    0.003476176
      6        6           0.075191439   -0.018484690   -0.028243384
      7        6          -0.031699772   -0.007076330    0.009114909
      8        6          -0.005212534    0.012452708    0.004056219
      9        6           0.003346245    0.000230016   -0.001059348
     10        6          -0.005208889   -0.008630782    0.000095254
     11        6          -0.006019996    0.013575292    0.004532984
     12        6           0.047101772   -0.051314745   -0.025155856
     13        1           0.005872902    0.000694465   -0.001804390
     14        1           0.000626608    0.005186045    0.000767516
     15        1           0.010397742   -0.001585340   -0.003723463
     16       17          -0.181398152   -0.246752770    0.013423105
     17       17           0.135242697    0.273594624    0.006824230
     18       17          -0.000665085   -0.001171229   -0.000000919
     19       17           0.001543851    0.005816577    0.000583802
     20       17           0.004341468    0.007013222   -0.000113237
     21       17           0.000383952    0.005227556    0.000855295
     22       17          -0.002349046   -0.004740411   -0.000116438
 -------------------------------------------------------------------
 Cartesian Forces:  Max     0.273594624 RMS     0.055506308

 GradGradGradGradGradGradGradGradGradGradGradGradGradGradGradGradGradGrad
 Berny optimization.
 Using GEDIIS/GDIIS optimizer.
 FormGI is forming the generalized inverse of G from B-inverse, IUseBI=4.
 Internal  Forces:  Max     0.323120752 RMS     0.034045253
 Search for a local minimum.
 Step number   2 out of a maximum of  112
 All quantities printed in internal units (Hartrees-Bohrs-Radians)
 Mixed Optimization -- RFO/linear search
 Update second derivatives using D2CorX and points    1    2
 DE= -9.15D-02 DEPred=-1.24D-01 R= 7.39D-01
 TightC=F SS=  1.41D+00  RLast= 3.00D-01 DXNew= 5.0454D-01 9.0000D-01
 Trust test= 7.39D-01 RLast= 3.00D-01 DXMaxT set to 5.05D-01
 ITU=  1  0
 Use linear search instead of GDIIS.
     Eigenvalues ---    0.00238   0.00238   0.01657   0.01665   0.02070
     Eigenvalues ---    0.02070   0.02070   0.02070   0.02070   0.02070
     Eigenvalues ---    0.02070   0.02070   0.02070   0.02070   0.02070
     Eigenvalues ---    0.02070   0.02070   0.02070   0.04301   0.15998
     Eigenvalues ---    0.16000   0.16010   0.22484   0.23323   0.23922
     Eigenvalues ---    0.24488   0.25000   0.25000   0.25000   0.25000
     Eigenvalues ---    0.25000   0.25000   0.25000   0.25000   0.25000
     Eigenvalues ---    0.25000   0.27602   0.29524   0.29539   0.29539
     Eigenvalues ---    0.29539   0.29539   0.29539   0.36923   0.37134
     Eigenvalues ---    0.37230   0.38580   0.41220   0.41587   0.41690
     Eigenvalues ---    0.43188   0.45246   0.45389   0.45389   0.45389
     Eigenvalues ---    0.45389   0.45389   0.45389   0.48056   1.26137
 RFO step:  Lambda=-2.11996400D-01 EMin= 2.37798995D-03
 Quartic linear search produced a step of  1.34877.
 Maximum step size (   0.505) exceeded in Quadratic search.
    -- Step size scaled by   0.811
 Iteration  1 RMS(Cart)=  0.18137900 RMS(Int)=  0.03755890
 Iteration  2 RMS(Cart)=  0.04598665 RMS(Int)=  0.01719104
 Iteration  3 RMS(Cart)=  0.04029201 RMS(Int)=  0.00019770
 Iteration  4 RMS(Cart)=  0.00000064 RMS(Int)=  0.00019770
 Variable       Old X    -DE/DX   Delta X   Delta X   Delta X     New X
                                 (Linear)    (Quad)   (Total)
    R1        2.66135  -0.02708   0.01765  -0.07901  -0.06150   2.59985
    R2        2.65087  -0.04355   0.00352  -0.12357  -0.11981   2.53107
    R3        2.64086   0.00036  -0.00999   0.00308  -0.00726   2.63359
    R4        3.32322   0.00202  -0.00364   0.00740   0.00376   3.32698
    R5        2.62397   0.00157  -0.03276   0.01120  -0.02180   2.60217
    R6        2.03119   0.00617   0.01239   0.01852   0.03091   2.06210
    R7        2.63014  -0.00007  -0.02445   0.00477  -0.01955   2.61058
    R8        2.03093   0.00506   0.01203   0.01503   0.02706   2.05799
    R9        2.64770  -0.00487  -0.00076  -0.01414  -0.01454   2.63316
   R10        3.32881   0.00381   0.00390   0.01382   0.01772   3.34653
   R11        3.38066   0.03100   0.07384   0.11183   0.18566   3.56632
   R12        2.64212  -0.01469  -0.00828  -0.04109  -0.04948   2.59264
   R13        2.62834  -0.03198  -0.02687  -0.08748  -0.11413   2.51422
   R14        2.63985  -0.00287  -0.01135  -0.00549  -0.01717   2.62268
   R15        2.01895   0.01115  -0.00412   0.03553   0.03141   2.05036
   R16        2.63947   0.00675  -0.01186   0.02274   0.01065   2.65012
   R17        3.32083  -0.00477  -0.00686  -0.01724  -0.02410   3.29673
   R18        2.63997   0.00412  -0.01118   0.01440   0.00334   2.64331
   R19        3.32413  -0.00822  -0.00242  -0.02984  -0.03226   3.29187
   R20        2.64400  -0.00763  -0.00575  -0.02134  -0.02676   2.61724
   R21        3.33255   0.00052   0.00895   0.00178   0.01072   3.34328
   R22        3.37972   0.03699   0.07256   0.13362   0.20619   3.58590
   R23        3.37428   0.32312   0.28723   0.28605   0.57328   3.94756
    A1        2.05441   0.00640  -0.05393   0.01477  -0.03899   2.01542
    A2        2.11494  -0.00156   0.02771  -0.00595   0.02129   2.13623
    A3        2.13363  -0.00734   0.05291  -0.02690   0.02625   2.15987
    A4        2.03462   0.00890  -0.08063   0.03285  -0.04754   1.98708
    A5        2.10001  -0.00409   0.00757  -0.01101  -0.00404   2.09597
    A6        2.09192   0.00173  -0.00334   0.00402   0.00098   2.09290
    A7        2.09126   0.00236  -0.00423   0.00699   0.00306   2.09432
    A8        2.08405  -0.00142  -0.01395   0.00031  -0.01376   2.07029
    A9        2.09961   0.00224   0.00703   0.00745   0.01454   2.11415
   A10        2.09953  -0.00082   0.00692  -0.00776  -0.00078   2.09875
   A11        2.10288  -0.01378   0.01145  -0.05247  -0.04055   2.06233
   A12        2.07304  -0.00092  -0.02881  -0.00582  -0.03486   2.03818
   A13        2.10726   0.01470   0.01736   0.05829   0.07541   2.18268
   A14        2.11008   0.01445   0.02115   0.05435   0.07605   2.18613
   A15        2.12487  -0.03264   0.04111  -0.12667  -0.08584   2.03903
   A16        2.04823   0.01819  -0.06226   0.07233   0.00979   2.05802
   A17        2.06995   0.01006  -0.03297   0.03107  -0.00175   2.06820
   A18        2.10773  -0.00768   0.01799  -0.03155  -0.01401   2.09372
   A19        2.09697   0.00423   0.00348   0.01986   0.02356   2.12054
   A20        2.07848   0.00345  -0.02147   0.01169  -0.00955   2.06893
   A21        2.09966   0.00037   0.00711   0.00747   0.01402   2.11368
   A22        2.08453  -0.00408  -0.01330  -0.01965  -0.03267   2.05186
   A23        2.09899   0.00371   0.00619   0.01218   0.01866   2.11765
   A24        2.08045  -0.00209  -0.01881  -0.00250  -0.02143   2.05902
   A25        2.09949   0.00227   0.00687   0.00605   0.01297   2.11246
   A26        2.10325  -0.00018   0.01195  -0.00354   0.00846   2.11171
   A27        2.09483  -0.01086   0.00058  -0.04184  -0.04081   2.05402
   A28        2.08474   0.00336  -0.01302   0.01216  -0.00109   2.08366
   A29        2.10362   0.00750   0.01244   0.02968   0.04190   2.14551
   A30        2.11375   0.01019   0.02611   0.03735   0.06399   2.17774
   A31        2.08026  -0.01819  -0.01907  -0.07116  -0.09050   1.98976
   A32        2.08918   0.00799  -0.00704   0.03381   0.02651   2.11569
   A33        2.20266  -0.04179   0.14602  -0.16124  -0.01522   2.18744
   A34        2.20093  -0.04783   0.14370  -0.18545  -0.04175   2.15918
    D1        0.00000  -0.00000   0.00000  -0.00000  -0.00000   0.00000
    D2        3.14159   0.00000   0.00000   0.00000   0.00000   3.14159
    D3       -0.00000   0.00000  -0.00000   0.00000  -0.00000  -0.00000
    D4        3.14159  -0.00000   0.00000  -0.00000   0.00000  -3.14159
    D5        0.00000  -0.00000   0.00000  -0.00000  -0.00000   0.00000
    D6        3.14159   0.00000  -0.00000   0.00000   0.00000   3.14159
    D7       -3.14159  -0.00000  -0.00000  -0.00000  -0.00000  -3.14159
    D8        0.00000  -0.00000  -0.00000  -0.00000  -0.00000   0.00000
    D9       -0.00000   0.00000   0.00000   0.00000   0.00000  -0.00000
   D10        3.14159   0.00000  -0.00000   0.00000   0.00000   3.14159
   D11        3.14159   0.00000   0.00000   0.00000   0.00000   3.14159
   D12        0.00000  -0.00000   0.00000  -0.00000  -0.00000   0.00000
   D13        0.00000  -0.00000  -0.00000  -0.00000  -0.00000   0.00000
   D14       -3.14159  -0.00000  -0.00000  -0.00000  -0.00000  -3.14159
   D15       -3.14159  -0.00000  -0.00000  -0.00000  -0.00000   3.14159
   D16        0.00000  -0.00000  -0.00000  -0.00000  -0.00000   0.00000
   D17       -0.00000   0.00000   0.00000   0.00000   0.00000   0.00000
   D18        3.14159   0.00000  -0.00000   0.00000   0.00000   3.14159
   D19        3.14159   0.00000   0.00000   0.00000   0.00000   3.14159
   D20       -0.00000   0.00000  -0.00000   0.00000  -0.00000  -0.00000
   D21        0.00001   0.00000  -0.00000   0.00000  -0.00000   0.00001
   D22       -3.14159   0.00000  -0.00000   0.00000   0.00000  -3.14159
   D23        0.00000   0.00000   0.00000   0.00000   0.00000   0.00000
   D24       -3.14159  -0.00000  -0.00000  -0.00000  -0.00000  -3.14159
   D25       -0.00000  -0.00000  -0.00000  -0.00000  -0.00000  -0.00000
   D26        3.14159  -0.00000   0.00000   0.00000   0.00000   3.14159
   D27       -0.00000  -0.00000  -0.00000  -0.00000  -0.00000  -0.00000
   D28        3.14159  -0.00000  -0.00000  -0.00000  -0.00000   3.14159
   D29        3.14159   0.00000   0.00000   0.00000   0.00000   3.14159
   D30       -0.00000   0.00000   0.00000   0.00000   0.00000  -0.00000
   D31       -0.00000   0.00000   0.00000   0.00000   0.00000   0.00000
   D32       -3.14159  -0.00000  -0.00000  -0.00000  -0.00000  -3.14159
   D33        3.14159   0.00000   0.00000   0.00000   0.00000  -3.14159
   D34        0.00000  -0.00000   0.00000  -0.00000  -0.00000   0.00000
   D35       -0.00000   0.00000  -0.00000  -0.00000  -0.00000  -0.00000
   D36       -3.14159  -0.00000  -0.00000  -0.00000  -0.00000  -3.14159
   D37        3.14159   0.00000   0.00000   0.00000   0.00000   3.14159
   D38        0.00000  -0.00000  -0.00000  -0.00000  -0.00000   0.00000
   D39        0.00000  -0.00000   0.00000  -0.00000   0.00000   0.00000
   D40       -3.14159  -0.00000  -0.00000  -0.00000  -0.00000   3.14159
   D41        3.14159   0.00000   0.00000   0.00000   0.00000   3.14159
   D42       -0.00000   0.00000  -0.00000   0.00000  -0.00000  -0.00000
   D43        0.00001   0.00000  -0.00000   0.00000  -0.00000   0.00001
   D44       -3.14159   0.00000  -0.00000   0.00000   0.00000  -3.14159
   D45       -0.00001   0.00000  -0.00001  -0.00000  -0.00001  -0.00002
         Item               Value     Threshold  Converged?
 Maximum Force            0.323121     0.000450     NO 
 RMS     Force            0.034045     0.000300     NO 
 Maximum Displacement     0.572088     0.001800     NO 
 RMS     Displacement     0.179037     0.001200     NO 
 Predicted change in Energy=-9.793939D-02
 GradGradGradGradGradGradGradGradGradGradGradGradGradGradGradGradGradGrad

                          Input orientation:                          
 ---------------------------------------------------------------------
 Center     Atomic      Atomic             Coordinates (Angstroms)
 Number     Number       Type             X           Y           Z
 ---------------------------------------------------------------------
      1          6           0        0.268949    2.559000    0.303001
      2          6           0        1.576618    2.695241   -0.102226
      3          6           0        2.238244    3.921750   -0.089859
      4          6           0        1.583720    5.054965    0.338594
      5          6           0        0.269804    4.944310    0.750682
      6          6           0       -0.328041    3.686284    0.711384
      7          6           0       -1.250724    0.093081    0.340522
      8          6           0       -0.667101   -1.078126   -0.071726
      9          6           0       -1.395445   -2.259372   -0.053611
     10          6           0       -2.728481   -2.281966    0.381336
     11          6           0       -3.303470   -1.076538    0.797168
     12          6           0       -2.515762    0.061709    0.751418
     13          1           0        3.276395    3.983406   -0.420299
     14          1           0        2.084334    6.021977    0.355273
     15          1           0        0.361306   -1.108444   -0.416245
[...]
                 (A) (A) (A) (A) (A) (A) (A) (A) (A) (A) (A) (A)
                 (A) (A) (A) (A) (A) (A) (A) (A) (A) (A) (A) (A)
                 (A) (A) (A) (A) (A) (A) (A) (A) (A) (A) (A) (A)
                 (A) (A) (A) (A) (A) (A) (A) (A) (A) (A) (A) (A)
                 (A) (A) (A) (A) (A) (A) (A) (A) (A) (A) (A) (A)
                 (A) (A) (A) (A) (A) (A) (A) (A) (A) (A) (A) (A)
                 (A) (A) (A) (A) (A) (A) (A) (A) (A) (A) (A) (A)
                 (A) (A) (A) (A) (A) (A) (A) (A) (A) (A) (A) (A)
                 (A) (A) (A) (A) (A) (A) (A) (A) (A) (A) (A) (A)
                 (A) (A) (A) (A) (A) (A) (A) (A) (A) (A) (A) (A)
                 (A) (A) (A) (A) (A) (A) (A) (A) (A) (A) (A) (A)
                 (A) (A) (A) (A) (A) (A) (A) (A) (A) (A) (A) (A)
                 (A) (A) (A) (A) (A) (A) (A) (A) (A) (A) (A) (A)
                 (A) (A) (A) (A) (A) (A) (A) (A) (A) (A) (A) (A)
                 (A) (A) (A) (A) (A) (A) (A) (A) (A) (A) (A) (A)
                 (A) (A) (A) (A) (A) (A) (A) (A) (A) (A) (A) (A)
                 (A) (A) (A) (A) (A) (A) (A) (A) (A) (A) (A) (A)
                 (A) (A) (A) (A) (A) (A) (A) (A) (A) (A) (A) (A)
                 (A) (A) (A) (A) (A) (A) (A) (A) (A) (A) (A) (A)
                 (A) (A) (A) (A) (A) (A) (A) (A) (A) (A) (A) (A)
                 (A) (A) (A) (A) (A)
 The electronic state is 1-A.
 Alpha  occ. eigenvalues -- -101.57982-101.57933-101.57901-101.57801-101.57793
 Alpha  occ. eigenvalues -- -101.57743-101.57700 -10.28188 -10.28127 -10.27930
 Alpha  occ. eigenvalues --  -10.27715 -10.27497 -10.27298 -10.27276 -10.24219
 Alpha  occ. eigenvalues --  -10.23826 -10.22288 -10.22223 -10.21975  -9.49446
 Alpha  occ. eigenvalues --   -9.49400  -9.49375  -9.49277  -9.49250  -9.49201
 Alpha  occ. eigenvalues --   -9.49169  -7.25950  -7.25904  -7.25862  -7.25765
 Alpha  occ. eigenvalues --   -7.25741  -7.25688  -7.25642  -7.24928  -7.24881
 Alpha  occ. eigenvalues --   -7.24857  -7.24841  -7.24794  -7.24784  -7.24755
 Alpha  occ. eigenvalues --   -7.24726  -7.24688  -7.24679  -7.24667  -7.24649
 Alpha  occ. eigenvalues --   -7.24621  -7.24600  -0.96459  -0.94977  -0.91688
 Alpha  occ. eigenvalues --   -0.90940  -0.89715  -0.88329  -0.86824  -0.85187
 Alpha  occ. eigenvalues --   -0.84626  -0.80192  -0.76118  -0.75123  -0.74419
 Alpha  occ. eigenvalues --   -0.67359  -0.64194  -0.63309  -0.61761  -0.55319
 Alpha  occ. eigenvalues --   -0.54808  -0.53724  -0.53064  -0.50052  -0.48544
 Alpha  occ. eigenvalues --   -0.47191  -0.47000  -0.46749  -0.46141  -0.45125
 Alpha  occ. eigenvalues --   -0.43980  -0.42376  -0.41872  -0.41271  -0.40397
 Alpha  occ. eigenvalues --   -0.39497  -0.38023  -0.37029  -0.35687  -0.35477
 Alpha  occ. eigenvalues --   -0.35363  -0.34989  -0.34266  -0.33774  -0.33571
 Alpha  occ. eigenvalues --   -0.33513  -0.32660  -0.31836  -0.28815  -0.27699
 Alpha  occ. eigenvalues --   -0.26877  -0.26742
 Alpha virt. eigenvalues --   -0.06310  -0.06085  -0.05987  -0.05221  -0.04978
 Alpha virt. eigenvalues --   -0.03182  -0.00819  -0.00262  -0.00049   0.01009
 Alpha virt. eigenvalues --    0.01824   0.02061   0.02237   0.02333   0.02596
 Alpha virt. eigenvalues --    0.03418   0.04402   0.05123   0.05283   0.05689
 Alpha virt. eigenvalues --    0.05841   0.06098   0.06347   0.06763   0.07735
 Alpha virt. eigenvalues --    0.07902   0.08365   0.08453   0.08880   0.09067
 Alpha virt. eigenvalues --    0.09598   0.09776   0.10307   0.10507   0.10661
 Alpha virt. eigenvalues --    0.11201   0.11660   0.11983   0.12264   0.12434
 Alpha virt. eigenvalues --    0.12831   0.13322   0.13786   0.13845   0.14233
 Alpha virt. eigenvalues --    0.14420   0.15179   0.15417   0.15819   0.16005
 Alpha virt. eigenvalues --    0.16641   0.16894   0.17273   0.17595   0.17816
 Alpha virt. eigenvalues --    0.18244   0.18375   0.18956   0.19011   0.19572
 Alpha virt. eigenvalues --    0.19778   0.20113   0.20495   0.20844   0.21304
 Alpha virt. eigenvalues --    0.21678   0.22329   0.22461   0.22735   0.22902
 Alpha virt. eigenvalues --    0.23344   0.23990   0.24224   0.24675   0.24816
 Alpha virt. eigenvalues --    0.25198   0.26043   0.26271   0.26722   0.26824
 Alpha virt. eigenvalues --    0.27114   0.27489   0.28077   0.28374   0.28786
 Alpha virt. eigenvalues --    0.29141   0.29175   0.29786   0.30329   0.30736
 Alpha virt. eigenvalues --    0.31343   0.31781   0.32281   0.33255   0.35256
 Alpha virt. eigenvalues --    0.40093   0.40320   0.41274   0.42733   0.43151
 Alpha virt. eigenvalues --    0.43523   0.44129   0.44982   0.45329   0.45470
 Alpha virt. eigenvalues --    0.45825   0.45842   0.46319   0.46809   0.47664
 Alpha virt. eigenvalues --    0.48105   0.48248   0.48275   0.49249   0.50119
 Alpha virt. eigenvalues --    0.50637   0.50893   0.51040   0.52109   0.53400
 Alpha virt. eigenvalues --    0.53498   0.56241   0.56641   0.57098   0.57284
 Alpha virt. eigenvalues --    0.57929   0.58490   0.59296   0.59786   0.60328
 Alpha virt. eigenvalues --    0.60658   0.61180   0.61696   0.62799   0.63381
 Alpha virt. eigenvalues --    0.63645   0.63841   0.64992   0.65273   0.66308
 Alpha virt. eigenvalues --    0.67089   0.67695   0.67915   0.68526   0.69048
 Alpha virt. eigenvalues --    0.70081   0.71586   0.74805   0.77521   0.77733
 Alpha virt. eigenvalues --    0.79021   0.80579   0.80611   0.81244   0.82375
 Alpha virt. eigenvalues --    0.83074   0.83388   0.83514   0.83862   0.84004
 Alpha virt. eigenvalues --    0.84265   0.84535   0.84684   0.84999   0.85308
 Alpha virt. eigenvalues --    0.85541   0.85663   0.85956   0.86776   0.87581
 Alpha virt. eigenvalues --    0.88503   0.88726   0.88948   0.89513   0.90442
 Alpha virt. eigenvalues --    0.91030   0.91409   0.92458   0.92971   0.93591
 Alpha virt. eigenvalues --    0.94203   0.94626   0.94812   0.95054   0.95411
 Alpha virt. eigenvalues --    0.95718   0.96497   0.96749   0.96931   0.98055
 Alpha virt. eigenvalues --    1.00275   1.00397   1.00710   1.02736   1.02968
 Alpha virt. eigenvalues --    1.03832   1.05015   1.05988   1.06707   1.09721
 Alpha virt. eigenvalues --    1.12765   1.15328   1.18055   1.19120   1.20058
 Alpha virt. eigenvalues --    1.20527   1.21463   1.22171   1.24304   1.25060
 Alpha virt. eigenvalues --    1.26266   1.27029   1.27246   1.28509   1.28720
 Alpha virt. eigenvalues --    1.29379   1.29748   1.30358   1.33642   1.34347
 Alpha virt. eigenvalues --    1.35787   1.37207   1.38795   1.42120   1.43186
 Alpha virt. eigenvalues --    1.47114   1.47388   1.47948   1.49306   1.55611
 Alpha virt. eigenvalues --    1.56261   1.58760   1.59774   1.63159   1.63767
 Alpha virt. eigenvalues --    1.64679   1.65919   1.67329   1.71387   1.72355
 Alpha virt. eigenvalues --    1.74407   1.74698   1.79016   1.79963   1.80409
 Alpha virt. eigenvalues --    1.83118   1.83774   1.84821   1.84860   1.85381
 Alpha virt. eigenvalues --    1.87669   1.91227   1.91849   1.93434   1.95275
 Alpha virt. eigenvalues --    1.96147   1.97451   2.01552   2.05735   2.06699
 Alpha virt. eigenvalues --    2.08627   2.11129   2.12425   2.17377   2.20288
 Alpha virt. eigenvalues --    2.22645   2.23292   2.23925   2.24781   2.24912
 Alpha virt. eigenvalues --    2.26152   2.26800   2.28181   2.29254   2.30697
 Alpha virt. eigenvalues --    2.32205   2.33105   2.33944   2.35543   2.36492
 Alpha virt. eigenvalues --    2.39959   2.40405   2.41635   2.42288   2.42614
 Alpha virt. eigenvalues --    2.46022   2.47133   2.49501   2.50185   2.52339
 Alpha virt. eigenvalues --    2.53190   2.54680   2.54911   2.58200   2.61108
 Alpha virt. eigenvalues --    2.62270   2.63290   2.67004   2.67141   2.68915
 Alpha virt. eigenvalues --    2.69229   2.69655   2.70126   2.74377   2.74705
 Alpha virt. eigenvalues --    2.76145   2.77784   2.81298   2.82245   2.83033
 Alpha virt. eigenvalues --    2.85910   2.88998   2.96170   2.96696   3.06256
 Alpha virt. eigenvalues --    3.07697   3.07779   3.09531   3.11251   3.12404
 Alpha virt. eigenvalues --    3.14683   3.16763   3.20112   3.22894   3.25277
 Alpha virt. eigenvalues --    3.28063   3.36048   3.37987   3.41162   3.50650
 Alpha virt. eigenvalues --    3.60361   3.64333   3.66717   3.74726   3.84186
 Alpha virt. eigenvalues --    3.90244   3.99417   4.03091   4.04049   4.31128
 Alpha virt. eigenvalues --    4.80271   4.80653   9.74551   9.77366   9.78872
 Alpha virt. eigenvalues --    9.80377   9.80649   9.83795   9.84899  23.31319
 Alpha virt. eigenvalues --   23.47301  23.79799  23.81813  23.85077  23.88746
 Alpha virt. eigenvalues --   23.92922  23.94490  23.97646  24.02331  24.10894
 Alpha virt. eigenvalues --   24.13029  25.76864  25.79158  25.80454  25.84264
 Alpha virt. eigenvalues --   25.89216  25.93937  25.98425  26.08285  26.10294
 Alpha virt. eigenvalues --   26.14439  26.17226  26.21622  26.30957  26.34882
 Alpha virt. eigenvalues --   26.48790  26.56798  26.60042  26.68651  26.75463
 Alpha virt. eigenvalues --   26.90398  27.05160 215.73577 215.76707 215.78408
 Alpha virt. eigenvalues --  215.80215 215.80446 215.84692 215.85681
          Condensed to atoms (all electrons):
               1          2          3          4          5          6
     1  C   22.086991  -6.764376  -5.569708  -1.652087  -6.774422   2.996746
     2  C   -6.764376  28.340108  -5.237590   0.728034   3.608747  -5.945650
     3  C   -5.569708  -5.237590  17.809713   3.273208  -0.540135   3.593826
     4  C   -1.652087   0.728034   3.273208  18.816279  -3.024488 -10.755496
     5  C   -6.774422   3.608747  -0.540135  -3.024488  22.740914  -4.520061
     6  C    2.996746  -5.945650   3.593826 -10.755496  -4.520061  30.254129
     7  C    7.170903  -1.779204  -4.767464  -1.360911  -4.249643  -1.003124
     8  C   -2.773642  -1.789448  -0.197745   0.122897  -0.569587  -1.529693
     9  C    0.425833  -0.048059  -0.036869  -0.156105   0.504214  -0.214958
    10  C   -0.529980   0.847749   0.359062   0.049334  -0.046216   0.659174
    11  C   -3.358429  -1.346985  -0.147278   0.072805  -0.402951  -1.330871
    12  C    1.432421  -3.849835  -1.752697   0.240568  -2.145009  -2.524862
    13  H    0.057115   0.060908   0.308725  -0.026530  -0.037702  -0.014859
    14  H    0.038392   0.007662  -0.088385   0.320737   0.004563   0.059017
    15  H    0.065075   0.071415   0.027151   0.004083   0.012029   0.080535
    16  Cl  -0.025637   0.318851  -0.209214  -0.223927   0.318445   0.002163
    17  Cl  -0.144638  -0.305242   0.282650   1.005339   0.188934  -2.809025
    18  Cl  -0.151668  -0.059334  -0.005859   0.002492  -0.010445  -0.059208
    19  Cl  -0.660697   0.049544   0.142866  -0.562934  -0.494908   1.174624
    20  Cl   0.000669  -0.040850  -0.005377  -0.001731  -0.000605  -0.036192
    21  Cl  -0.097912  -0.013707   0.001060   0.000876   0.011017  -0.026852
    22  Cl   0.336973  -0.745991  -0.917688  -0.306108   0.183061  -0.595893
               7          8          9         10         11         12
     1  C    7.170903  -2.773642   0.425833  -0.529980  -3.358429   1.432421
     2  C   -1.779204  -1.789448  -0.048059   0.847749  -1.346985  -3.849835
     3  C   -4.767464  -0.197745  -0.036869   0.359062  -0.147278  -1.752697
     4  C   -1.360911   0.122897  -0.156105   0.049334   0.072805   0.240568
     5  C   -4.249643  -0.569587   0.504214  -0.046216  -0.402951  -2.145009
     6  C   -1.003124  -1.529693  -0.214958   0.659174  -1.330871  -2.524862
     7  C   24.766914  -1.801258  -9.018529   6.008895  -3.284938  -2.641585
     8  C   -1.801258  11.528406   0.030902  -4.544450   4.269812   3.336585
     9  C   -9.018529   0.030902  24.809037  -9.614459  -5.363640   4.952890
    10  C    6.008895  -4.544450  -9.614459  25.742076  -1.234499  -9.565537
    11  C   -3.284938   4.269812  -5.363640  -1.234499  17.820191   0.030551
    12  C   -2.641585   3.336585   4.952890  -9.565537   0.030551  19.647593
    13  H    0.010393  -0.002853  -0.000737   0.000103  -0.000197   0.003092
    14  H    0.007678  -0.001122  -0.000179   0.000036   0.000034   0.001673
    15  H    0.036705   0.307701  -0.084711  -0.008609  -0.053303  -0.081338
    16  Cl  -0.539743  -0.180787   0.887187  -0.924321  -0.278137  -0.972152
    17  Cl  -0.104915   0.113350   0.091020  -0.095376   0.017282   0.268621
    18  Cl  -0.575526   0.236037  -0.073324  -0.396751  -0.080929   0.613559
    19  Cl  -0.137555  -0.006640   0.018157  -0.003010  -0.009385  -0.074313
    20  Cl   0.185508  -0.121962  -0.824352   0.228147   0.649013  -0.716634
    21  Cl  -0.891481   0.369263   0.081063  -0.644074  -0.005874   0.378277
    22  Cl   0.458458   0.017059   0.200614  -0.126024  -0.073082   0.392590
              13         14         15         16         17         18
     1  C    0.057115   0.038392   0.065075  -0.025637  -0.144638  -0.151668
     2  C    0.060908   0.007662   0.071415   0.318851  -0.305242  -0.059334
     3  C    0.308725  -0.088385   0.027151  -0.209214   0.282650  -0.005859
     4  C   -0.026530   0.320737   0.004083  -0.223927   1.005339   0.002492
     5  C   -0.037702   0.004563   0.012029   0.318445   0.188934  -0.010445
     6  C   -0.014859   0.059017   0.080535   0.002163  -2.809025  -0.059208
     7  C    0.010393   0.007678   0.036705  -0.539743  -0.104915  -0.575526
     8  C   -0.002853  -0.001122   0.307701  -0.180787   0.113350   0.236037
     9  C   -0.000737  -0.000179  -0.084711   0.887187   0.091020  -0.073324
    10  C    0.000103   0.000036  -0.008609  -0.924321  -0.095376  -0.396751
    11  C   -0.000197   0.000034  -0.053303  -0.278137   0.017282  -0.080929
    12  C    0.003092   0.001673  -0.081338  -0.972152   0.268621   0.613559
    13  H    0.502390  -0.007508   0.000005  -0.001058   0.000807  -0.000003
    14  H   -0.007508   0.500357  -0.000004  -0.000393  -0.001322  -0.000000
    15  H    0.000005  -0.000004   0.509856  -0.002822  -0.012816   0.000468
    16  Cl  -0.001058  -0.000393  -0.002822  18.363412   0.115634  -0.285487
    17  Cl   0.000807  -0.001322  -0.012816   0.115634  18.206390  -0.003483
    18  Cl  -0.000003  -0.000000   0.000468  -0.285487  -0.003483  17.424807
    19  Cl  -0.000438  -0.002377   0.000563   0.005055  -0.263988  -0.000047
    20  Cl  -0.000000   0.000000  -0.001650  -0.031279   0.011890  -0.202904
    21  Cl  -0.000011  -0.000001  -0.009392   0.006003  -0.007203   0.012206
    22  Cl  -0.009245   0.000937  -0.011963   0.136429  -0.082970  -0.006801
              19         20         21         22
     1  C   -0.660697   0.000669  -0.097912   0.336973
     2  C    0.049544  -0.040850  -0.013707  -0.745991
     3  C    0.142866  -0.005377   0.001060  -0.917688
     4  C   -0.562934  -0.001731   0.000876  -0.306108
     5  C   -0.494908  -0.000605   0.011017   0.183061
     6  C    1.174624  -0.036192  -0.026852  -0.595893
     7  C   -0.137555   0.185508  -0.891481   0.458458
     8  C   -0.006640  -0.121962   0.369263   0.017059
     9  C    0.018157  -0.824352   0.081063   0.200614
    10  C   -0.003010   0.228147  -0.644074  -0.126024
    11  C   -0.009385   0.649013  -0.005874  -0.073082
    12  C   -0.074313  -0.716634   0.378277   0.392590
    13  H   -0.000438  -0.000000  -0.000011  -0.009245
    14  H   -0.002377   0.000000  -0.000001   0.000937
    15  H    0.000563  -0.001650  -0.009392  -0.011963
    16  Cl   0.005055  -0.031279   0.006003   0.136429
    17  Cl  -0.263988   0.011890  -0.007203  -0.082970
    18  Cl  -0.000047  -0.202904   0.012206  -0.006801
    19  Cl  17.360761  -0.000011   0.000440  -0.008356
    20  Cl  -0.000011  17.487056  -0.212144   0.011536
    21  Cl   0.000440  -0.212144  17.474058  -0.001568
    22  Cl  -0.008356   0.011536  -0.001568  17.755576
 Mulliken charges:
               1
     1  C   -0.107923
     2  C   -0.106747
     3  C   -0.322252
     4  C   -0.566335
     5  C    1.244250
     6  C   -1.453472
     7  C   -0.489580
     8  C   -0.812826
     9  C   -0.564994
    10  C   -0.161270
    11  C    0.110808
    12  C   -0.974458
    13  H    0.157604
    14  H    0.160204
    15  H    0.151021
    16  Cl   0.521778
    17  Cl   0.529061
    18  Cl   0.622200
    19  Cl   0.472649
    20  Cl   0.621871
    21  Cl   0.575956
    22  Cl   0.392456
 Sum of Mulliken charges =  -0.00000
 Mulliken charges with hydrogens summed into heavy atoms:
               1
     1  C   -0.107923
     2  C   -0.106747
     3  C   -0.164649
     4  C   -0.406131
     5  C    1.244250
     6  C   -1.453472
     7  C   -0.489580
     8  C   -0.661805
     9  C   -0.564994
    10  C   -0.161270
    11  C    0.110808
    12  C   -0.974458
    16  Cl   0.521778
    17  Cl   0.529061
    18  Cl   0.622200
    19  Cl   0.472649
    20  Cl   0.621871
    21  Cl   0.575956
    22  Cl   0.392456
 Electronic spatial extent (au):  <R**2>=           8798.0946
 Charge=             -0.0000 electrons
 Dipole moment (field-independent basis, Debye):
    X=             -2.2378    Y=              0.4470    Z=              1.5162  Tot=              2.7398
 Quadrupole moment (field-independent basis, Debye-Ang):
   XX=           -151.1600   YY=           -157.9009   ZZ=           -156.5198
   XY=              0.3769   XZ=             -7.5243   YZ=              0.4263
 Traceless Quadrupole moment (field-independent basis, Debye-Ang):
   XX=              4.0336   YY=             -2.7074   ZZ=             -1.3262
   XY=              0.3769   XZ=             -7.5243   YZ=              0.4263
 Octapole moment (field-independent basis, Debye-Ang**2):
  XXX=            -29.6892  YYY=             -5.2997  ZZZ=            -10.4933  XYY=              9.0241
  XXY=            -12.0024  XXZ=             28.9115  XZZ=             -4.1719  YZZ=             -3.0201
  YYZ=             -4.4574  XYZ=              1.4307
 Hexadecapole moment (field-independent basis, Debye-Ang**3):
 XXXX=          -7320.7389 YYYY=          -1995.3824 ZZZZ=          -1828.0264 XXXY=             11.0764
 XXXZ=           -130.9427 YYYX=              3.8444 YYYZ=             22.9610 ZZZX=             13.9500
 ZZZY=            -21.4451 XXYY=          -1621.8557 XXZZ=          -1522.3699 YYZZ=           -662.3286
 XXYZ=             -6.3016 YYXZ=             10.2121 ZZXY=             -1.1947
 N-N= 2.382638650026D+03 E-N=-1.348671146748D+04  KE= 3.671259133883D+03
 1\1\GINC-CN076\FOpt\RB3LYP\6-311+G(d,p)\C12H3Cl7\20CY91R06\03-Apr-2022
 \0\\# opt b3lyp/6-311+g(d,p) scf=xqc\\Title Card Required\\0,1\C,-0.15
 9171178,2.0175403305,0.4238811957\C,1.1413256678,2.0224240434,0.940695
 8138\C,1.8960729393,3.1883958347,1.009468271\C,1.3537566158,4.38128882
 45,0.5548811212\C,0.0636733114,4.4129363557,0.0333378193\C,-0.68993612
 86,3.2364210606,-0.0331012926\C,-0.9507004584,0.7551618358,0.334807218
 3\C,-0.8515067504,-0.0291710308,-0.8104197641\C,-1.5663782941,-1.21313
 01176,-0.9301158619\C,-2.4043141265,-1.6418708098,0.1051674764\C,-2.51
 22967453,-0.8590399291,1.2665574829\C,-1.7854768525,0.3342777383,1.375
 248457\H,2.8982409087,3.1603238066,1.4158310344\H,1.9289655383,5.29676
 18884,0.6021225423\H,-0.2090696018,0.2850826786,-1.622096061\Cl,-1.912
 4062571,1.3133468671,2.8109062324\Cl,-2.3085927839,3.2661063345,-0.680
 6166946\Cl,-3.5455176805,-1.3722334269,2.5640270279\Cl,-0.5740798834,5
 .9368521404,-0.528271623\Cl,-3.297912895,-3.1217490864,-0.0438392457\C
 l,-1.3910888177,-2.1425380479,-2.3954379588\Cl,1.855393702,0.533372059
 2,1.5279841191\\Version=EM64L-G16RevB.01\State=1-A\HF=-3680.7455272\RM
 SD=4.205e-09\RMSF=7.976e-06\Dipole=0.917222,0.5634266,-0.0563262\Quadr
 upole=3.6507117,-1.5458392,-2.1048725,5.1488937,0.4430261,1.3040837\PG
 =C01 [X(C12H3Cl7)]\\@


 GOORD'S AXIOM:  A MEETING IS AN EVENT AT WHICH
 THE MINUTES ARE KEPT AND THE HOURS ARE LOST.
 Job cpu time:       1 days 10 hours  1 minutes 24.1 seconds.
 Elapsed time:       0 days  2 hours 17 minutes 52.1 seconds.
 File lengths (MBytes):  RWF=    161 Int=      0 D2E=      0 Chk=     25 Scr=      1
 Normal termination of Gaussian 16 at Sun Apr  3 12:50:29 2022.
