 Entering Gaussian System, Link 0=g16
 Input=2,2prime,3,4,4prime,5,5prime,6-Octachlorobiphenyl1.gjf
 Output=2,2prime,3,4,4prime,5,5prime,6-Octachlorobiphenyl1.log
 Initial command:
 /home/apps/g16/l1.exe "./Gau-76393.inp" -scrdir="./"
 Entering Link 1 = /home/apps/g16/l1.exe PID=     76394.
  
 Copyright (c) 1988-2017, Gaussian, Inc.  All Rights Reserved.
  
 This is part of the Gaussian(R) 16 program.  It is based on
 the Gaussian(R) 09 system (copyright 2009, Gaussian, Inc.),
 the Gaussian(R) 03 system (copyright 2003, Gaussian, Inc.),
 the Gaussian(R) 98 system (copyright 1998, Gaussian, Inc.),
 the Gaussian(R) 94 system (copyright 1995, Gaussian, Inc.),
 the Gaussian 92(TM) system (copyright 1992, Gaussian, Inc.),
 the Gaussian 90(TM) system (copyright 1990, Gaussian, Inc.),
 the Gaussian 88(TM) system (copyright 1988, Gaussian, Inc.),
 the Gaussian 86(TM) system (copyright 1986, Carnegie Mellon
 University), and the Gaussian 82(TM) system (copyright 1983,
 Carnegie Mellon University). Gaussian is a federally registered
 trademark of Gaussian, Inc.
  
 This software contains proprietary and confidential information,
 including trade secrets, belonging to Gaussian, Inc.
  
 This software is provided under written license and may be
 used, copied, transmitted, or stored only in accord with that
 written license.
  
 The following legend is applicable only to US Government
 contracts under FAR:
  
                    RESTRICTED RIGHTS LEGEND
  
 Use, reproduction and disclosure by the US Government is
 subject to restrictions as set forth in subparagraphs (a)
 and (c) of the Commercial Computer Software - Restricted
 Rights clause in FAR 52.227-19.
  
 Gaussian, Inc.
 340 Quinnipiac St., Bldg. 40, Wallingford CT 06492
  
  
 ---------------------------------------------------------------
 Warning -- This program may not be used in any manner that
 competes with the business of Gaussian, Inc. or will provide
 assistance to any competitor of Gaussian, Inc.  The licensee
 of this program is prohibited from giving any competitor of
 Gaussian, Inc. access to this program.  By using this program,
 the user acknowledges that Gaussian, Inc. is engaged in the
 business of creating and licensing software in the field of
 computational chemistry and represents and warrants to the
 licensee that it is not a competitor of Gaussian, Inc. and that
 it will not use this program in any manner prohibited above.
 ---------------------------------------------------------------
  

 Cite this work as:
 Gaussian 16, Revision B.01,
 M. J. Frisch, G. W. Trucks, H. B. Schlegel, G. E. Scuseria, 
 M. A. Robb, J. R. Cheeseman, G. Scalmani, V. Barone, 
 G. A. Petersson, H. Nakatsuji, X. Li, M. Caricato, A. V. Marenich, 
 J. Bloino, B. G. Janesko, R. Gomperts, B. Mennucci, H. P. Hratchian, 
 J. V. Ortiz, A. F. Izmaylov, J. L. Sonnenberg, D. Williams-Young, 
 F. Ding, F. Lipparini, F. Egidi, J. Goings, B. Peng, A. Petrone, 
 T. Henderson, D. Ranasinghe, V. G. Zakrzewski, J. Gao, N. Rega, 
 G. Zheng, W. Liang, M. Hada, M. Ehara, K. Toyota, R. Fukuda, 
 J. Hasegawa, M. Ishida, T. Nakajima, Y. Honda, O. Kitao, H. Nakai, 
 T. Vreven, K. Throssell, J. A. Montgomery, Jr., J. E. Peralta, 
 F. Ogliaro, M. J. Bearpark, J. J. Heyd, E. N. Brothers, K. N. Kudin, 
 V. N. Staroverov, T. A. Keith, R. Kobayashi, J. Normand, 
 K. Raghavachari, A. P. Rendell, J. C. Burant, S. S. Iyengar, 
 J. Tomasi, M. Cossi, J. M. Millam, M. Klene, C. Adamo, R. Cammi, 
 J. W. Ochterski, R. L. Martin, K. Morokuma, O. Farkas, 
 J. B. Foresman, and D. J. Fox, Gaussian, Inc., Wallingford CT, 2016.
 
 ******************************************
 Gaussian 16:  EM64L-G16RevB.01 20-Dec-2017
                30-Apr-2022 
 ******************************************
 %mem=120GB
 %nprocshared=40
 Will use up to   40 processors via shared memory.
 ------------------------
 # opt b3lyp/6-311+g(d,p)
 ------------------------
 1/18=20,19=15,26=3,38=1/1,3;
 2/9=110,12=2,17=6,18=5,40=1/2;
 3/5=4,6=6,7=111,11=2,25=1,30=1,71=1,74=-5/1,2,3;
 4//1;
 5/5=2,38=5/2;
 6/7=2,8=2,9=2,10=2,28=1/1;
 7//1,2,3,16;
 1/18=20,19=15,26=3/3(2);
 2/9=110/2;
 99//99;
 2/9=110/2;
 3/5=4,6=6,7=111,11=2,25=1,30=1,71=1,74=-5/1,2,3;
 4/5=5,16=3,69=1/1;
 5/5=2,38=5/2;
 7//1,2,3,16;
 1/18=20,19=15,26=3/3(-5);
 2/9=110/2;
 6/7=2,8=2,9=2,10=2,19=2,28=1/1;
 99/9=1/99;
 -------------------
 Title Card Required
 -------------------
 Symbolic Z-matrix:
 Charge =  0 Multiplicity = 1
 C                     0.48667   0.6567   -0.00392 
 C                     1.81905   0.68658  -0.43727 
 C                     2.52694   1.89603  -0.44334 
 C                     1.90245   3.0756   -0.01606 
 C                     0.57007   3.04571   0.41728 
 C                    -0.13782   1.83626   0.42335 
 C                    -0.54007  -1.0975    0.00489 
 C                     0.08442  -2.27707  -0.42238 
 C                    -0.62347  -3.48652  -0.41631 
 C                    -1.95585  -3.5164    0.01704 
 C                    -2.58034  -2.33684   0.44431 
 C                    -1.87245  -1.12739   0.43824 
 H                     2.29586  -0.21404  -0.7635 
 H                     0.09326   3.94634   0.74351 
 Cl                   -2.65673   0.35401   0.97485 
 Cl                   -1.81114   1.79873   0.96759 
 Cl                   -4.25366  -2.37437   0.98856 
 Cl                   -2.84489  -5.03534   0.02467 
 Cl                    2.79149   4.59453  -0.02369 
 Cl                    0.16081  -4.96792  -0.95292 
 Cl                    4.20026   1.93357  -0.98757 
 Cl                    1.75774  -2.23953  -0.96662 
 

 GradGradGradGradGradGradGradGradGradGradGradGradGradGradGradGradGradGrad
 Berny optimization.
 Initialization pass.
                           ----------------------------
                           !    Initial Parameters    !
                           ! (Angstroms and Degrees)  !
 --------------------------                            --------------------------
 ! Name  Definition              Value          Derivative Info.                !
 --------------------------------------------------------------------------------
 ! R1    R(1,2)                  1.4014         estimate D2E/DX2                !
 ! R2    R(1,6)                  1.4014         estimate D2E/DX2                !
 ! R3    R(2,3)                  1.4014         estimate D2E/DX2                !
 ! R4    R(2,13)                 1.07           estimate D2E/DX2                !
 ! R5    R(3,4)                  1.4014         estimate D2E/DX2                !
 ! R6    R(3,21)                 1.76           estimate D2E/DX2                !
 ! R7    R(4,5)                  1.4014         estimate D2E/DX2                !
 ! R8    R(4,19)                 1.76           estimate D2E/DX2                !
 ! R9    R(5,6)                  1.4014         estimate D2E/DX2                !
 ! R10   R(5,14)                 1.07           estimate D2E/DX2                !
 ! R11   R(6,16)                 1.76           estimate D2E/DX2                !
 ! R12   R(7,8)                  1.4014         estimate D2E/DX2                !
 ! R13   R(7,12)                 1.4014         estimate D2E/DX2                !
 ! R14   R(8,9)                  1.4014         estimate D2E/DX2                !
 ! R15   R(8,22)                 1.76           estimate D2E/DX2                !
 ! R16   R(9,10)                 1.4014         estimate D2E/DX2                !
 ! R17   R(9,20)                 1.76           estimate D2E/DX2                !
 ! R18   R(10,11)                1.4014         estimate D2E/DX2                !
 ! R19   R(10,18)                1.76           estimate D2E/DX2                !
 ! R20   R(11,12)                1.4014         estimate D2E/DX2                !
 ! R21   R(11,17)                1.76           estimate D2E/DX2                !
 ! R22   R(12,15)                1.76           estimate D2E/DX2                !
 ! R23   R(15,16)                1.674          estimate D2E/DX2                !
 ! A1    A(2,1,6)              120.0            estimate D2E/DX2                !
 ! A2    A(1,2,3)              120.0            estimate D2E/DX2                !
 ! A3    A(1,2,13)             120.0            estimate D2E/DX2                !
 ! A4    A(3,2,13)             120.0            estimate D2E/DX2                !
 ! A5    A(2,3,4)              120.0            estimate D2E/DX2                !
 ! A6    A(2,3,21)             120.0            estimate D2E/DX2                !
 ! A7    A(4,3,21)             120.0            estimate D2E/DX2                !
 ! A8    A(3,4,5)              120.0            estimate D2E/DX2                !
 ! A9    A(3,4,19)             120.0            estimate D2E/DX2                !
 ! A10   A(5,4,19)             120.0            estimate D2E/DX2                !
 ! A11   A(4,5,6)              120.0            estimate D2E/DX2                !
 ! A12   A(4,5,14)             120.0            estimate D2E/DX2                !
 ! A13   A(6,5,14)             120.0            estimate D2E/DX2                !
 ! A14   A(1,6,5)              120.0            estimate D2E/DX2                !
 ! A15   A(1,6,16)             120.0            estimate D2E/DX2                !
 ! A16   A(5,6,16)             120.0            estimate D2E/DX2                !
 ! A17   A(8,7,12)             120.0            estimate D2E/DX2                !
 ! A18   A(7,8,9)              120.0            estimate D2E/DX2                !
 ! A19   A(7,8,22)             120.0            estimate D2E/DX2                !
 ! A20   A(9,8,22)             120.0            estimate D2E/DX2                !
 ! A21   A(8,9,10)             120.0            estimate D2E/DX2                !
 ! A22   A(8,9,20)             120.0            estimate D2E/DX2                !
 ! A23   A(10,9,20)            120.0            estimate D2E/DX2                !
 ! A24   A(9,10,11)            120.0            estimate D2E/DX2                !
 ! A25   A(9,10,18)            120.0            estimate D2E/DX2                !
 ! A26   A(11,10,18)           120.0            estimate D2E/DX2                !
 ! A27   A(10,11,12)           120.0            estimate D2E/DX2                !
 ! A28   A(10,11,17)           120.0            estimate D2E/DX2                !
 ! A29   A(12,11,17)           120.0            estimate D2E/DX2                !
 ! A30   A(7,12,11)            120.0            estimate D2E/DX2                !
 ! A31   A(7,12,15)            120.0            estimate D2E/DX2                !
 ! A32   A(11,12,15)           120.0            estimate D2E/DX2                !
 ! A33   A(12,15,16)           120.0            estimate D2E/DX2                !
 ! A34   A(6,16,15)            120.0            estimate D2E/DX2                !
 ! D1    D(6,1,2,3)              0.0001         estimate D2E/DX2                !
 ! D2    D(6,1,2,13)           180.0            estimate D2E/DX2                !
 ! D3    D(2,1,6,5)             -0.0001         estimate D2E/DX2                !
 ! D4    D(2,1,6,16)           180.0            estimate D2E/DX2                !
 ! D5    D(1,2,3,4)              0.0            estimate D2E/DX2                !
 ! D6    D(1,2,3,21)           180.0            estimate D2E/DX2                !
 ! D7    D(13,2,3,4)          -179.9999         estimate D2E/DX2                !
 ! D8    D(13,2,3,21)            0.0001         estimate D2E/DX2                !
 ! D9    D(2,3,4,5)             -0.0001         estimate D2E/DX2                !
 ! D10   D(2,3,4,19)           180.0            estimate D2E/DX2                !
 ! D11   D(21,3,4,5)           179.9999         estimate D2E/DX2                !
 ! D12   D(21,3,4,19)            0.0            estimate D2E/DX2                !
 ! D13   D(3,4,5,6)              0.0001         estimate D2E/DX2                !
 ! D14   D(3,4,5,14)          -179.9999         estimate D2E/DX2                !
 ! D15   D(19,4,5,6)          -180.0            estimate D2E/DX2                !
 ! D16   D(19,4,5,14)            0.0            estimate D2E/DX2                !
 ! D17   D(4,5,6,1)              0.0            estimate D2E/DX2                !
 ! D18   D(4,5,6,16)           179.9999         estimate D2E/DX2                !
 ! D19   D(14,5,6,1)           180.0            estimate D2E/DX2                !
 ! D20   D(14,5,6,16)           -0.0001         estimate D2E/DX2                !
 ! D21   D(1,6,16,15)            0.0004         estimate D2E/DX2                !
 ! D22   D(5,6,16,15)         -179.9996         estimate D2E/DX2                !
 ! D23   D(12,7,8,9)             0.0001         estimate D2E/DX2                !
 ! D24   D(12,7,8,22)         -179.9998         estimate D2E/DX2                !
 ! D25   D(8,7,12,11)           -0.0001         estimate D2E/DX2                !
 ! D26   D(8,7,12,15)          179.9999         estimate D2E/DX2                !
 ! D27   D(7,8,9,10)             0.0            estimate D2E/DX2                !
 ! D28   D(7,8,9,20)           180.0            estimate D2E/DX2                !
 ! D29   D(22,8,9,10)          179.9998         estimate D2E/DX2                !
 ! D30   D(22,8,9,20)           -0.0002         estimate D2E/DX2                !
 ! D31   D(8,9,10,11)            0.0            estimate D2E/DX2                !
 ! D32   D(8,9,10,18)         -179.9999         estimate D2E/DX2                !
 ! D33   D(20,9,10,11)         180.0            estimate D2E/DX2                !
 ! D34   D(20,9,10,18)           0.0001         estimate D2E/DX2                !
 ! D35   D(9,10,11,12)           0.0            estimate D2E/DX2                !
 ! D36   D(9,10,11,17)        -179.9998         estimate D2E/DX2                !
 ! D37   D(18,10,11,12)        179.9999         estimate D2E/DX2                !
 ! D38   D(18,10,11,17)          0.0001         estimate D2E/DX2                !
 ! D39   D(10,11,12,7)           0.0            estimate D2E/DX2                !
 ! D40   D(10,11,12,15)       -179.9999         estimate D2E/DX2                !
 ! D41   D(17,11,12,7)         179.9999         estimate D2E/DX2                !
 ! D42   D(17,11,12,15)         -0.0001         estimate D2E/DX2                !
 ! D43   D(7,12,15,16)           0.0004         estimate D2E/DX2                !
 ! D44   D(11,12,15,16)       -179.9997         estimate D2E/DX2                !
 ! D45   D(12,15,16,6)          -0.0006         estimate D2E/DX2                !
 --------------------------------------------------------------------------------
 Trust Radius=3.00D-01 FncErr=1.00D-07 GrdErr=1.00D-06 EigMax=2.50D+02 EigMin=1.00D-04
 Number of steps in this run=    112 maximum allowed number of steps=    132.
 GradGradGradGradGradGradGradGradGradGradGradGradGradGradGradGradGradGrad

                          Input orientation:                          
 ---------------------------------------------------------------------
 Center     Atomic      Atomic             Coordinates (Angstroms)
 Number     Number       Type             X           Y           Z
 ---------------------------------------------------------------------
      1          6           0        0.486666    0.656695   -0.003918
      2          6           0        1.819047    0.686581   -0.437265
      3          6           0        2.526941    1.896032   -0.443337
      4          6           0        1.902454    3.075597   -0.016063
      5          6           0        0.570072    3.045712    0.417282
      6          6           0       -0.137822    1.836261    0.423355
      7          6           0       -0.540067   -1.097501    0.004890
      8          6           0        0.084420   -2.277066   -0.422385
      9          6           0       -0.623473   -3.486517   -0.416310
     10          6           0       -1.955853   -3.516404    0.017039
     11          6           0       -2.580340   -2.336839    0.444315
     12          6           0       -1.872447   -1.127387    0.438241
     13          1           0        2.295858   -0.214043   -0.763497
     14          1           0        0.093261    3.946336    0.743514
     15         17           0       -2.656731    0.354013    0.974852
     16         17           0       -1.811142    1.798728    0.967588
     17         17           0       -4.253657   -2.374373    0.988557
     18         17           0       -2.844885   -5.035338    0.024671
     19         17           0        2.791488    4.594531   -0.023688
     20         17           0        0.160813   -4.967917   -0.952920
     21         17           0        4.200261    1.933565   -0.987571
     22         17           0        1.757741   -2.239533   -0.966619
 ---------------------------------------------------------------------
                    Distance matrix (angstroms):
                    1          2          3          4          5
     1  C    0.000000
     2  C    1.401400   0.000000
     3  C    2.427296   1.401400   0.000000
     4  C    2.802800   2.427296   1.401400   0.000000
     5  C    2.427296   2.802800   2.427296   1.401400   0.000000
     6  C    1.401400   2.427296   2.802800   2.427296   1.401400
     7  C    2.032600   2.990630   4.309140   4.835400   4.309140
     8  C    2.990630   3.434000   4.835400   5.667570   5.410440
     9  C    4.309140   4.835400   6.236800   7.042858   6.692491
    10  C    4.835400   5.667570   7.042858   7.638200   7.042858
    11  C    4.309140   5.410440   6.692491   7.042858   6.236800
    12  C    2.990630   4.205249   5.410440   5.667570   4.835400
    13  H    2.146700   1.070000   2.146700   3.396345   3.872800
    14  H    3.396345   3.872800   3.396345   2.146700   1.070000
    15  Cl   3.306139   4.705026   5.591024   5.401398   4.238914
    16  Cl   2.743718   4.048303   4.562800   4.048303   2.743718
    17  Cl   5.713410   6.948392   8.140221   8.283064   7.278189
    18  Cl   6.595400   7.396352   8.781768   9.398200   8.781768
    19  Cl   4.562800   4.048303   2.743718   1.760000   2.743718
    20  Cl   5.713410   5.915150   7.278189   8.283064   8.140221
    21  Cl   4.048303   2.743718   1.760000   2.743718   4.048303
    22  Cl   3.306139   2.974242   4.238914   5.401398   5.591024
                    6          7          8          9         10
     6  C    0.000000
     7  C    2.990630   0.000000
     8  C    4.205249   1.401400   0.000000
     9  C    5.410440   2.427296   1.401400   0.000000
    10  C    5.667570   2.802800   2.427296   1.401400   0.000000
    11  C    4.835400   2.427296   2.802800   2.427296   1.401400
    12  C    3.434000   1.401400   2.427296   2.802800   2.427296
    13  H    3.396345   3.068124   3.043497   4.399104   5.439841
    14  H    2.146700   5.136824   6.331677   7.556865   7.772974
    15  Cl   2.974242   2.743718   4.048303   4.562800   4.048303
    16  Cl   1.760000   3.306139   4.705026   5.591024   5.401398
    17  Cl   5.915150   4.048303   4.562800   4.048303   2.743718
    18  Cl   7.396352   4.562800   4.048303   2.743718   1.760000
    19  Cl   4.048303   6.595400   7.396352   8.781768   9.398200
    20  Cl   6.948392   4.048303   2.743718   1.760000   2.743718
    21  Cl   4.562800   5.713410   5.915150   7.278189   8.283064
    22  Cl   4.705026   2.743718   1.760000   2.743718   4.048303
                   11         12         13         14         15
    11  C    0.000000
    12  C    1.401400   0.000000
    13  H    5.453657   4.433186   0.000000
    14  H    6.834907   5.449759   4.942800   0.000000
    15  Cl   2.743718   1.760000   5.279459   4.529985   0.000000
    16  Cl   4.238914   2.974242   4.890333   2.879094   1.674000
    17  Cl   1.760000   2.743718   7.115678   7.675097   3.161400
    18  Cl   2.743718   4.048303   7.091780   9.477337   5.475705
    19  Cl   8.781768   7.396352   4.890332   2.879094   6.975828
    20  Cl   4.048303   4.562800   5.214750   9.074490   6.322800
    21  Cl   8.140221   6.948392   2.879094   4.890332   7.305097
    22  Cl   4.562800   4.048303   2.105573   6.630235   5.475705
                   16         17         18         19         20
    16  Cl   0.000000
    17  Cl   4.835400   0.000000
    18  Cl   6.975828   3.161400   0.000000
    19  Cl   5.475705   9.961142  11.158200   0.000000
    20  Cl   7.305097   5.475705   3.161400   9.961142   0.000000
    21  Cl   6.322800   9.691861   9.961142   3.161400   7.996800
    22  Cl   5.725873   6.322800   5.475705   6.975828   3.161400
                   21         22
    21  Cl   0.000000
    22  Cl   4.835400   0.000000
 Stoichiometry    C12H2Cl8
 Framework group  C1[X(C12H2Cl8)]
 Deg. of freedom    60
 Full point group                 C1      NOp   1
 Largest Abelian subgroup         C1      NOp   1
 Largest concise Abelian subgroup C1      NOp   1
                         Standard orientation:                         
 ---------------------------------------------------------------------
 Center     Atomic      Atomic             Coordinates (Angstroms)
 Number     Number       Type             X           Y           Z
 ---------------------------------------------------------------------
      1          6           0        1.378990   -0.125743    0.000002
      2          6           0        2.187004    1.019262    0.000001
      3          6           0        3.582614    0.892004   -0.000001
      4          6           0        4.170210   -0.380258   -0.000001
      5          6           0        3.362197   -1.525263    0.000003
      6          6           0        1.966587   -1.398005    0.000004
      7          6           0       -0.645212    0.058833    0.000003
      8          6           0       -1.232808    1.331096    0.000003
      9          6           0       -2.628418    1.458354    0.000002
     10          6           0       -3.436432    0.313349    0.000001
     11          6           0       -2.848835   -0.958914    0.000000
     12          6           0       -1.453225   -1.086171    0.000001
     13          1           0        1.738361    1.990663   -0.000001
     14          1           0        3.810840   -2.496664    0.000005
     15         17           0       -0.715271   -2.683990   -0.000002
     16         17           0        0.951813   -2.836002    0.000007
     17         17           0       -3.863609   -2.396910   -0.000006
     18         17           0       -5.189160    0.473171   -0.000003
     19         17           0        5.922939   -0.540080   -0.000003
     20         17           0       -3.366373    3.056172    0.000003
     21         17           0        4.597388    2.330001   -0.000004
     22         17           0       -0.218034    2.769093    0.000001
 ---------------------------------------------------------------------
 Rotational constants (GHZ):           0.2980809           0.1033468           0.0767404
 Standard basis: 6-311+G(d,p) (5D, 7F)
 There are   536 symmetry adapted cartesian basis functions of A   symmetry.
 There are   516 symmetry adapted basis functions of A   symmetry.
   516 basis functions,   872 primitive gaussians,   536 cartesian basis functions
   105 alpha electrons      105 beta electrons
       nuclear repulsion energy      2666.7650828464 Hartrees.
 NAtoms=   22 NActive=   22 NUniq=   22 SFac= 1.00D+00 NAtFMM=   60 NAOKFM=F Big=F
 Integral buffers will be    131072 words long.
 Raffenetti 2 integral format.
 Two-electron integral symmetry is turned on.
 One-electron integrals computed using PRISM.
 NBasis=   516 RedAO= T EigKep=  1.75D-06  NBF=   516
 NBsUse=   508 1.00D-06 EigRej=  9.82D-07 NBFU=   508
 ExpMin= 4.38D-02 ExpMax= 1.06D+05 ExpMxC= 3.62D+03 IAcc=3 IRadAn=         5 AccDes= 0.00D+00
 Harris functional with IExCor=  402 and IRadAn=       5 diagonalized for initial guess.
 HarFok:  IExCor=  402 AccDes= 0.00D+00 IRadAn=         5 IDoV= 1 UseB2=F ITyADJ=14
 ICtDFT=  3500011 ScaDFX=  1.000000  1.000000  1.000000  1.000000
 FoFCou: FMM=F IPFlag=           0 FMFlag=      100000 FMFlg1=           0
         NFxFlg=           0 DoJE=T BraDBF=F KetDBF=T FulRan=T
         wScrn=  0.000000 ICntrl=       500 IOpCl=  0 I1Cent=   200000004 NGrid=           0
         NMat0=    1 NMatS0=      1 NMatT0=    0 NMatD0=    1 NMtDS0=    0 NMtDT0=    0
 Petite list used in FoFCou.
 Requested convergence on RMS density matrix=1.00D-08 within 128 cycles.
 Requested convergence on MAX density matrix=1.00D-06.
 Requested convergence on             energy=1.00D-06.
 No special actions if energy rises.
 EnCoef did     4 forward-backward iterations
 EnCoef did     3 forward-backward iterations
 EnCoef did   100 forward-backward iterations
 EnCoef did     1 forward-backward iterations
 EnCoef did     1 forward-backward iterations
 Restarting incremental Fock formation.
 SCF Done:  E(RB3LYP) =  -4139.80121920     A.U. after   31 cycles
            NFock= 31  Conv=0.51D-08     -V/T= 2.0022

 **********************************************************************

            Population analysis using the SCF Density.

 **********************************************************************

 Orbital symmetries:
       Occupied  (A) (A) (A) (A) (A) (A) (A) (A) (A) (A) (A) (A)
                 (A) (A) (A) (A) (A) (A) (A) (A) (A) (A) (A) (A)
                 (A) (A) (A) (A) (A) (A) (A) (A) (A) (A) (A) (A)
                 (A) (A) (A) (A) (A) (A) (A) (A) (A) (A) (A) (A)
                 (A) (A) (A) (A) (A) (A) (A) (A) (A) (A) (A) (A)
                 (A) (A) (A) (A) (A) (A) (A) (A) (A) (A) (A) (A)
                 (A) (A) (A) (A) (A) (A) (A) (A) (A) (A) (A) (A)
                 (A) (A) (A) (A) (A) (A) (A) (A) (A) (A) (A) (A)
                 (A) (A) (A) (A) (A) (A) (A) (A) (A)
       Virtual   (A) (A) (A) (A) (A) (A) (A) (A) (A) (A) (A) (A)
                 (A) (A) (A) (A) (A) (A) (A) (A) (A) (A) (A) (A)
                 (A) (A) (A) (A) (A) (A) (A) (A) (A) (A) (A) (A)
                 (A) (A) (A) (A) (A) (A) (A) (A) (A) (A) (A) (A)
                 (A) (A) (A) (A) (A) (A) (A) (A) (A) (A) (A) (A)
                 (A) (A) (A) (A) (A) (A) (A) (A) (A) (A) (A) (A)
                 (A) (A) (A) (A) (A) (A) (A) (A) (A) (A) (A) (A)
                 (A) (A) (A) (A) (A) (A) (A) (A) (A) (A) (A) (A)
                 (A) (A) (A) (A) (A) (A) (A) (A) (A) (A) (A) (A)
                 (A) (A) (A) (A) (A) (A) (A) (A) (A) (A) (A) (A)
                 (A) (A) (A) (A) (A) (A) (A) (A) (A) (A) (A) (A)
                 (A) (A) (A) (A) (A) (A) (A) (A) (A) (A) (A) (A)
                 (A) (A) (A) (A) (A) (A) (A) (A) (A) (A) (A) (A)
                 (A) (A) (A) (A) (A) (A) (A) (A) (A) (A) (A) (A)
                 (A) (A) (A) (A) (A) (A) (A) (A) (A) (A) (A) (A)
                 (A) (A) (A) (A) (A) (A) (A) (A) (A) (A) (A) (A)
                 (A) (A) (A) (A) (A) (A) (A) (A) (A) (A) (A) (A)
                 (A) (A) (A) (A) (A) (A) (A) (A) (A) (A) (A) (A)
                 (A) (A) (A) (A) (A) (A) (A) (A) (A) (A) (A) (A)
                 (A) (A) (A) (A) (A) (A) (A) (A) (A) (A) (A) (A)
                 (A) (A) (A) (A) (A) (A) (A) (A) (A) (A) (A) (A)
                 (A) (A) (A) (A) (A) (A) (A) (A) (A) (A) (A) (A)
                 (A) (A) (A) (A) (A) (A) (A) (A) (A) (A) (A) (A)
                 (A) (A) (A) (A) (A) (A) (A) (A) (A) (A) (A) (A)
                 (A) (A) (A) (A) (A) (A) (A) (A) (A) (A) (A) (A)
                 (A) (A) (A) (A) (A) (A) (A) (A) (A) (A) (A) (A)
                 (A) (A) (A) (A) (A) (A) (A) (A) (A) (A) (A) (A)
                 (A) (A) (A) (A) (A) (A) (A) (A) (A) (A) (A) (A)
                 (A) (A) (A) (A) (A) (A) (A) (A) (A) (A) (A) (A)
                 (A) (A) (A) (A) (A) (A) (A) (A) (A) (A) (A) (A)
                 (A) (A) (A) (A) (A) (A) (A) (A) (A) (A) (A) (A)
                 (A) (A) (A) (A) (A) (A) (A) (A) (A) (A) (A) (A)
                 (A) (A) (A) (A) (A) (A) (A) (A) (A) (A) (A) (A)
                 (A) (A) (A) (A) (A) (A) (A)
 The electronic state is 1-A.
 Alpha  occ. eigenvalues -- -101.67163-101.65066-101.58717-101.58228-101.57159
 Alpha  occ. eigenvalues -- -101.56810-101.56693-101.56062 -10.30114 -10.28908
 Alpha  occ. eigenvalues --  -10.28410 -10.27639 -10.27305 -10.26993 -10.26877
 Alpha  occ. eigenvalues --  -10.25300 -10.25249 -10.24950 -10.22666 -10.22385
 Alpha  occ. eigenvalues --   -9.59280  -9.57428  -9.50126  -9.49646  -9.48721
 Alpha  occ. eigenvalues --   -9.48243  -9.48205  -9.47530  -7.35620  -7.34949
 Alpha  occ. eigenvalues --   -7.34412  -7.34274  -7.32769  -7.32263  -7.26633
 Alpha  occ. eigenvalues --   -7.26142  -7.25597  -7.25544  -7.25170  -7.25130
 Alpha  occ. eigenvalues --   -7.25062  -7.24746  -7.24635  -7.24201  -7.24147
 Alpha  occ. eigenvalues --   -7.24004  -7.23726  -7.23692  -7.23661  -7.23645
 Alpha  occ. eigenvalues --   -7.23029  -7.22939  -1.14078  -0.95216  -0.94768
 Alpha  occ. eigenvalues --   -0.91356  -0.90030  -0.88485  -0.88336  -0.85861
 Alpha  occ. eigenvalues --   -0.85044  -0.83385  -0.79194  -0.77931  -0.74129
 Alpha  occ. eigenvalues --   -0.73833  -0.68255  -0.66670  -0.62708  -0.60950
 Alpha  occ. eigenvalues --   -0.59170  -0.56980  -0.54309  -0.53140  -0.52969
 Alpha  occ. eigenvalues --   -0.51767  -0.51353  -0.49432  -0.47181  -0.46231
 Alpha  occ. eigenvalues --   -0.45539  -0.45451  -0.45107  -0.43929  -0.42918
 Alpha  occ. eigenvalues --   -0.41783  -0.40179  -0.38840  -0.37577  -0.37232
 Alpha  occ. eigenvalues --   -0.37115  -0.35968  -0.34817  -0.34625  -0.34112
 Alpha  occ. eigenvalues --   -0.33655  -0.33240  -0.32679  -0.32505  -0.30466
 Alpha  occ. eigenvalues --   -0.29829  -0.28601  -0.26242  -0.25880  -0.14206
 Alpha virt. eigenvalues --   -0.10522  -0.07753  -0.07195  -0.07140  -0.05024
 Alpha virt. eigenvalues --   -0.03659  -0.03231  -0.02274  -0.01737  -0.00351
 Alpha virt. eigenvalues --    0.00315   0.01135   0.01249   0.02244   0.02693
 Alpha virt. eigenvalues --    0.02875   0.02915   0.03872   0.04328   0.04936
 Alpha virt. eigenvalues --    0.05104   0.05318   0.05779   0.06317   0.06830
 Alpha virt. eigenvalues --    0.07046   0.07143   0.07493   0.07972   0.08552
 Alpha virt. eigenvalues --    0.08794   0.09018   0.09155   0.09398   0.09976
 Alpha virt. eigenvalues --    0.10374   0.10460   0.10702   0.11062   0.11456
 Alpha virt. eigenvalues --    0.11699   0.12007   0.12569   0.13076   0.13402
 Alpha virt. eigenvalues --    0.13507   0.13754   0.13897   0.14884   0.15019
 Alpha virt. eigenvalues --    0.15301   0.15316   0.15613   0.16291   0.16499
 Alpha virt. eigenvalues --    0.16755   0.17096   0.17539   0.17907   0.18917
 Alpha virt. eigenvalues --    0.19281   0.19546   0.20225   0.20288   0.20396
 Alpha virt. eigenvalues --    0.20632   0.20868   0.21290   0.22384   0.22611
 Alpha virt. eigenvalues --    0.22690   0.23384   0.23603   0.23713   0.24093
 Alpha virt. eigenvalues --    0.24889   0.25310   0.25372   0.25937   0.26480
 Alpha virt. eigenvalues --    0.26920   0.27309   0.27677   0.27820   0.28523
 Alpha virt. eigenvalues --    0.28737   0.29111   0.30119   0.30320   0.31393
 Alpha virt. eigenvalues --    0.31874   0.31973   0.32889   0.33858   0.34106
 Alpha virt. eigenvalues --    0.35125   0.36372   0.38711   0.39124   0.40376
 Alpha virt. eigenvalues --    0.40977   0.41536   0.42376   0.42423   0.42762
 Alpha virt. eigenvalues --    0.43032   0.43583   0.43707   0.43855   0.44935
 Alpha virt. eigenvalues --    0.45130   0.45802   0.46165   0.46544   0.46922
 Alpha virt. eigenvalues --    0.47129   0.47350   0.47701   0.48175   0.49055
 Alpha virt. eigenvalues --    0.49375   0.49794   0.50662   0.51282   0.51557
 Alpha virt. eigenvalues --    0.52602   0.53695   0.54325   0.55318   0.56190
 Alpha virt. eigenvalues --    0.57047   0.57136   0.57905   0.58280   0.58964
 Alpha virt. eigenvalues --    0.59114   0.60347   0.60574   0.61007   0.61154
 Alpha virt. eigenvalues --    0.61822   0.62703   0.63824   0.64258   0.64275
 Alpha virt. eigenvalues --    0.64856   0.65475   0.66590   0.68694   0.68950
 Alpha virt. eigenvalues --    0.71595   0.73862   0.75347   0.76099   0.77600
 Alpha virt. eigenvalues --    0.79062   0.80341   0.80429   0.81210   0.82078
 Alpha virt. eigenvalues --    0.82291   0.83110   0.83313   0.83511   0.83726
 Alpha virt. eigenvalues --    0.83763   0.84440   0.84544   0.84880   0.85299
 Alpha virt. eigenvalues --    0.85577   0.85628   0.86088   0.87249   0.87282
 Alpha virt. eigenvalues --    0.87507   0.87884   0.88710   0.88729   0.89467
 Alpha virt. eigenvalues --    0.89712   0.90344   0.90903   0.92000   0.92345
 Alpha virt. eigenvalues --    0.92787   0.92932   0.93733   0.94194   0.94580
 Alpha virt. eigenvalues --    0.94911   0.95291   0.95540   0.96064   0.96617
 Alpha virt. eigenvalues --    0.97375   0.97734   0.99587   1.00403   1.00513
 Alpha virt. eigenvalues --    1.01179   1.02880   1.03470   1.04444   1.05126
 Alpha virt. eigenvalues --    1.06928   1.07649   1.11439   1.12833   1.14795
 Alpha virt. eigenvalues --    1.15622   1.18600   1.19151   1.19310   1.19808
 Alpha virt. eigenvalues --    1.21481   1.21751   1.22883   1.23069   1.25153
 Alpha virt. eigenvalues --    1.25388   1.26587   1.26737   1.28462   1.28945
 Alpha virt. eigenvalues --    1.29006   1.29204   1.29787   1.30215   1.30773
 Alpha virt. eigenvalues --    1.33530   1.34580   1.35426   1.45569   1.46951
 Alpha virt. eigenvalues --    1.47217   1.49974   1.50201   1.51741   1.53538
 Alpha virt. eigenvalues --    1.54390   1.57763   1.62115   1.64846   1.65018
 Alpha virt. eigenvalues --    1.66478   1.67430   1.71100   1.72959   1.73070
 Alpha virt. eigenvalues --    1.75567   1.75873   1.77721   1.81118   1.81935
 Alpha virt. eigenvalues --    1.84304   1.84548   1.85677   1.85927   1.86249
 Alpha virt. eigenvalues --    1.87459   1.87473   1.93594   1.94810   1.96493
 Alpha virt. eigenvalues --    1.96993   1.99699   2.05042   2.06349   2.09370
 Alpha virt. eigenvalues --    2.13619   2.14680   2.15636   2.19244   2.20983
 Alpha virt. eigenvalues --    2.22461   2.22657   2.22944   2.23634   2.25547
 Alpha virt. eigenvalues --    2.25997   2.26238   2.27655   2.28133   2.28466
 Alpha virt. eigenvalues --    2.29014   2.31199   2.32325   2.33701   2.35055
 Alpha virt. eigenvalues --    2.36016   2.39253   2.40102   2.41044   2.43265
 Alpha virt. eigenvalues --    2.43561   2.45126   2.49057   2.50002   2.51933
 Alpha virt. eigenvalues --    2.52126   2.53906   2.57932   2.58123   2.58449
 Alpha virt. eigenvalues --    2.59694   2.59803   2.60195   2.61864   2.64890
 Alpha virt. eigenvalues --    2.66570   2.69685   2.72362   2.73402   2.73957
 Alpha virt. eigenvalues --    2.74923   2.75978   2.76857   2.80272   2.83164
 Alpha virt. eigenvalues --    2.84433   2.84775   2.86136   2.87936   3.03377
 Alpha virt. eigenvalues --    3.05354   3.07479   3.08040   3.08333   3.13170
 Alpha virt. eigenvalues --    3.14518   3.14868   3.15716   3.22703   3.23633
 Alpha virt. eigenvalues --    3.27528   3.30731   3.34808   3.45344   3.50410
 Alpha virt. eigenvalues --    3.52216   3.55942   3.69823   3.74422   3.81810
 Alpha virt. eigenvalues --    3.85570   3.90738   3.97450   4.13145   4.78494
 Alpha virt. eigenvalues --    4.81486   9.65760   9.73779   9.74948   9.78444
 Alpha virt. eigenvalues --    9.79721   9.81513   9.85043   9.95104  23.23216
 Alpha virt. eigenvalues --   23.36247  23.77140  23.78695  23.79992  23.86063
 Alpha virt. eigenvalues --   23.92344  23.94102  23.95192  23.99481  24.01381
 Alpha virt. eigenvalues --   24.06254  25.72376  25.76375  25.76715  25.80080
 Alpha virt. eigenvalues --   25.84164  25.85132  25.90181  25.96601  26.04277
 Alpha virt. eigenvalues --   26.09080  26.11597  26.13569  26.16980  26.22197
 Alpha virt. eigenvalues --   26.37483  26.48500  26.50311  26.55999  26.70545
 Alpha virt. eigenvalues --   26.74699  26.78082  26.91934  26.97395  27.05975
 Alpha virt. eigenvalues --  215.66265 215.72898 215.74703 215.77983 215.79625
 Alpha virt. eigenvalues --  215.81480 215.85776 216.00597
          Condensed to atoms (all electrons):
               1          2          3          4          5          6
     1  C   28.925343  -0.390406  -5.947186   7.166644  -4.234882  -6.141072
     2  C   -0.390406  12.078058  -0.088039  -3.965554   2.810948  -1.550014
     3  C   -5.947186  -0.088039  16.013018  -4.403943  -0.748638   5.726637
     4  C    7.166644  -3.965554  -4.403943  25.674483  -6.014985 -11.153333
     5  C   -4.234882   2.810948  -0.748638  -6.014985  16.962862  -2.548895
     6  C   -6.141072  -1.550014   5.726637 -11.153333  -2.548895  23.657563
     7  C    5.541827  -1.189897  -3.436595   1.836465  -1.027270  -2.498647
     8  C   -2.697868   0.172444  -0.299807  -0.370396   0.466644  -0.019961
     9  C   -3.404757   0.218422   0.494375  -0.002555  -0.388642  -0.251598
    10  C   -0.370142   0.157896  -0.253048   0.050786   0.097833  -0.079954
    11  C   -5.453629  -0.086977  -0.470364  -0.099474   0.742911   0.705012
    12  C   -1.600320  -0.668432  -0.297453  -1.268817  -1.314825  -1.839428
    13  H    0.097525   0.224605  -0.111559   0.086487  -0.054711  -0.021210
    14  H   -0.001010  -0.023796  -0.023170  -0.147502   0.403234   0.088675
    15  Cl  -1.573401  -1.350624  -1.501266   3.792785   0.596135   2.041248
    16  Cl  -1.798126   0.797824   1.278643  -4.483740   0.669322   0.164929
    17  Cl   0.219943   0.024686   0.022389  -0.036946  -0.043411  -0.183024
    18  Cl  -0.167447  -0.015529  -0.006150   0.002849   0.002676   0.016590
    19  Cl   0.145599  -0.151413  -0.001302   0.098352  -0.226567  -0.487303
    20  Cl  -0.196910  -0.027865   0.020135   0.006933  -0.007723  -0.014299
    21  Cl  -1.328001   0.027311   0.179734  -0.680414   0.367724   0.859976
    22  Cl  -0.018604  -0.171965  -0.446181  -0.065050   0.096265  -0.057314
               7          8          9         10         11         12
     1  C    5.541827  -2.697868  -3.404757  -0.370142  -5.453629  -1.600320
     2  C   -1.189897   0.172444   0.218422   0.157896  -0.086977  -0.668432
     3  C   -3.436595  -0.299807   0.494375  -0.253048  -0.470364  -0.297453
     4  C    1.836465  -0.370396  -0.002555   0.050786  -0.099474  -1.268817
     5  C   -1.027270   0.466644  -0.388642   0.097833   0.742911  -1.314825
     6  C   -2.498647  -0.019961  -0.251598  -0.079954   0.705012  -1.839428
     7  C   27.844802  -3.848497  -6.047959   7.326741  -7.701328  -2.399166
     8  C   -3.848497  13.637719   1.158405  -4.820242   5.184347   0.941239
     9  C   -6.047959   1.158405  17.724984  -7.250453   1.217885   4.185925
    10  C    7.326741  -4.820242  -7.250453  22.753981  -4.845635  -4.923677
    11  C   -7.701328   5.184347   1.217885  -4.845635  20.139899  -6.825444
    12  C   -2.399166   0.941239   4.185925  -4.923677  -6.825444  39.933086
    13  H    0.096336   0.017057  -0.003861   0.006087  -0.009549   0.027390
    14  H    0.008668   0.001130   0.000452  -0.000070   0.000885   0.021333
    15  Cl  -5.985205  -3.835512  -1.679426  -1.005182   6.187224 -30.809920
    16  Cl   0.335614   0.988437   0.336091   0.244202  -0.966576  11.565325
    17  Cl  -0.155999   0.815414   0.381073   0.234332  -2.239599   2.219822
    18  Cl  -0.073357  -0.808099  -0.576110  -0.032543   0.412536  -0.116962
    19  Cl  -0.021628  -0.015458  -0.001355  -0.000565  -0.002234  -0.014784
    20  Cl  -1.098406   0.447335  -0.137311  -0.404591  -0.160887   0.733650
    21  Cl  -0.313722  -0.001508   0.007514  -0.006340  -0.004293  -0.047375
    22  Cl  -0.170171  -0.433892   0.426043  -0.529767   0.572178  -0.266474
              13         14         15         16         17         18
     1  C    0.097525  -0.001010  -1.573401  -1.798126   0.219943  -0.167447
     2  C    0.224605  -0.023796  -1.350624   0.797824   0.024686  -0.015529
     3  C   -0.111559  -0.023170  -1.501266   1.278643   0.022389  -0.006150
     4  C    0.086487  -0.147502   3.792785  -4.483740  -0.036946   0.002849
     5  C   -0.054711   0.403234   0.596135   0.669322  -0.043411   0.002676
     6  C   -0.021210   0.088675   2.041248   0.164929  -0.183024   0.016590
     7  C    0.096336   0.008668  -5.985205   0.335614  -0.155999  -0.073357
     8  C    0.017057   0.001130  -3.835512   0.988437   0.815414  -0.808099
     9  C   -0.003861   0.000452  -1.679426   0.336091   0.381073  -0.576110
    10  C    0.006087  -0.000070  -1.005182   0.244202   0.234332  -0.032543
    11  C   -0.009549   0.000885   6.187224  -0.966576  -2.239599   0.412536
    12  C    0.027390   0.021333 -30.809920  11.565325   2.219822  -0.116962
    13  H    0.540380   0.000034   0.009910  -0.004757  -0.000204   0.000259
    14  H    0.000034   0.489868  -0.042932   0.045950   0.000074  -0.000002
    15  Cl   0.009910  -0.042932  80.550251 -26.721555  -3.394176   0.610146
    16  Cl  -0.004757   0.045950 -26.721555  33.109769   0.313760  -0.060841
    17  Cl  -0.000204   0.000074  -3.394176   0.313760  18.959245  -0.636877
    18  Cl   0.000259  -0.000002   0.610146  -0.060841  -0.636877  18.081260
    19  Cl   0.001392  -0.005790   0.003542  -0.052430  -0.000076  -0.000002
    20  Cl   0.002108   0.000000   0.049402  -0.000728  -0.019289  -0.248628
    21  Cl  -0.024364   0.001704  -0.031514   0.042543   0.000257  -0.000106
    22  Cl  -0.043250  -0.000006  -0.206186   0.053282   0.037092  -0.031905
              19         20         21         22
     1  C    0.145599  -0.196910  -1.328001  -0.018604
     2  C   -0.151413  -0.027865   0.027311  -0.171965
     3  C   -0.001302   0.020135   0.179734  -0.446181
     4  C    0.098352   0.006933  -0.680414  -0.065050
     5  C   -0.226567  -0.007723   0.367724   0.096265
     6  C   -0.487303  -0.014299   0.859976  -0.057314
     7  C   -0.021628  -1.098406  -0.313722  -0.170171
     8  C   -0.015458   0.447335  -0.001508  -0.433892
     9  C   -0.001355  -0.137311   0.007514   0.426043
    10  C   -0.000565  -0.404591  -0.006340  -0.529767
    11  C   -0.002234  -0.160887  -0.004293   0.572178
    12  C   -0.014784   0.733650  -0.047375  -0.266474
    13  H    0.001392   0.002108  -0.024364  -0.043250
    14  H   -0.005790   0.000000   0.001704  -0.000006
    15  Cl   0.003542   0.049402  -0.031514  -0.206186
    16  Cl  -0.052430  -0.000728   0.042543   0.053282
    17  Cl  -0.000076  -0.019289   0.000257   0.037092
    18  Cl  -0.000002  -0.248628  -0.000106  -0.031905
    19  Cl  17.337373   0.000012  -0.179522   0.000457
    20  Cl   0.000012  17.688420   0.000180  -0.294993
    21  Cl  -0.179522   0.000180  17.592223  -0.020299
    22  Cl   0.000457  -0.294993  -0.020299  17.942833
 Mulliken charges:
               1
     1  C   -0.773121
     2  C   -0.831681
     3  C    0.299770
     4  C   -0.023075
     5  C   -0.606004
     6  C   -0.414577
     7  C   -1.022604
     8  C   -0.678930
     9  C   -0.407143
    10  C   -0.349646
    11  C   -0.296888
    12  C   -1.234693
    13  H    0.163897
    14  H    0.182270
    15  Cl   1.296257
    16  Cl   1.143060
    17  Cl   0.481513
    18  Cl   0.648241
    19  Cl   0.573701
    20  Cl   0.663455
    21  Cl   0.558292
    22  Cl   0.627905
 Sum of Mulliken charges =  -0.00000
 Mulliken charges with hydrogens summed into heavy atoms:
               1
     1  C   -0.773121
     2  C   -0.667784
     3  C    0.299770
     4  C   -0.023075
     5  C   -0.423734
     6  C   -0.414577
     7  C   -1.022604
     8  C   -0.678930
     9  C   -0.407143
    10  C   -0.349646
    11  C   -0.296888
    12  C   -1.234693
    15  Cl   1.296257
    16  Cl   1.143060
    17  Cl   0.481513
    18  Cl   0.648241
    19  Cl   0.573701
    20  Cl   0.663455
    21  Cl   0.558292
    22  Cl   0.627905
 Electronic spatial extent (au):  <R**2>=          11928.2135
 Charge=             -0.0000 electrons
 Dipole moment (field-independent basis, Debye):
    X=              3.3221    Y=             -3.3181    Z=              0.0000  Tot=              4.6953
 Quadrupole moment (field-independent basis, Debye-Ang):
   XX=           -186.2951   YY=           -164.6987   ZZ=           -170.7616
   XY=             -2.3670   XZ=             -0.0000   YZ=             -0.0000
 Traceless Quadrupole moment (field-independent basis, Debye-Ang):
   XX=            -12.3766   YY=              9.2198   ZZ=              3.1568
   XY=             -2.3670   XZ=             -0.0000   YZ=             -0.0000
 Octapole moment (field-independent basis, Debye-Ang**2):
  XXX=             37.1961  YYY=            -22.3604  ZZZ=             -0.0001  XYY=             14.0209
  XXY=             -7.5652  XXZ=              0.0000  XZZ=             -4.0755  YZZ=             -3.2958
  YYZ=             -0.0000  XYZ=              0.0000
 Hexadecapole moment (field-independent basis, Debye-Ang**3):
 XXXX=         -11673.2325 YYYY=          -3861.3216 ZZZZ=           -199.2542 XXXY=            -40.2289
 XXXZ=              0.0001 YYYX=             42.5996 YYYZ=             -0.0000 ZZZX=             -0.0001
 ZZZY=             -0.0000 XXYY=          -2555.0377 XXZZ=          -1979.2341 YYZZ=           -702.3795
 XXYZ=             -0.0001 YYXZ=             -0.0002 ZZXY=              7.0306
 N-N= 2.666765082846D+03 E-N=-1.514567890065D+04  KE= 4.130887553462D+03
 Calling FoFJK, ICntrl=      2127 FMM=F ISym2X=0 I1Cent= 0 IOpClX= 0 NMat=1 NMatS=1 NMatT=0.
 ***** Axes restored to original set *****
 -------------------------------------------------------------------
 Center     Atomic                   Forces (Hartrees/Bohr)
 Number     Number              X              Y              Z
 -------------------------------------------------------------------
      1        6          -0.017271442   -0.046961079   -0.003129378
      2        6          -0.006990696    0.022708862    0.006568115
      3        6          -0.000596648   -0.000263377    0.000147181
      4        6           0.000606110   -0.001934378   -0.000563222
      5        6          -0.009967879   -0.001591363    0.002985198
      6        6           0.028767179   -0.038724246   -0.016749852
      7        6          -0.011260333    0.023812311    0.008181927
      8        6          -0.010826203    0.018928461    0.007121794
      9        6           0.002668166   -0.002613971   -0.001369992
     10        6          -0.008140157    0.003291980    0.003300088
     11        6           0.035920942    0.006851344   -0.010547781
     12        6           0.039335471   -0.162665022   -0.043509034
     13        1           0.002472754    0.004648269    0.000058279
     14        1          -0.001406705    0.007677500    0.001905410
     15       17          -0.181714336   -0.295930724    0.004291217
     16       17           0.166418367    0.492282214    0.037624125
     17       17          -0.010529163    0.000158545    0.003498691
     18       17           0.000388842   -0.003933346   -0.000866829
     19       17          -0.009320005   -0.004815350    0.002166146
     20       17          -0.002381934    0.004802046    0.001686573
     21       17          -0.007580453   -0.003983684    0.001749248
     22       17           0.001408122   -0.021744990   -0.004547905
 -------------------------------------------------------------------
 Cartesian Forces:  Max     0.492282214 RMS     0.080866516

 GradGradGradGradGradGradGradGradGradGradGradGradGradGradGradGradGradGrad
 Berny optimization.
 FormGI is forming the generalized inverse of G from B-inverse, IUseBI=4.
 Internal  Forces:  Max     0.443445843 RMS     0.052248024
 Search for a local minimum.
 Step number   1 out of a maximum of  112
 All quantities printed in internal units (Hartrees-Bohrs-Radians)
 Mixed Optimization -- RFO/linear search
 Second derivative matrix not updated -- first step.
 ITU=  0
     Eigenvalues ---    0.00238   0.00238   0.01655   0.01655   0.02070
     Eigenvalues ---    0.02070   0.02070   0.02070   0.02070   0.02070
     Eigenvalues ---    0.02070   0.02070   0.02070   0.02070   0.02070
     Eigenvalues ---    0.02070   0.02070   0.02070   0.04287   0.16000
     Eigenvalues ---    0.16000   0.22929   0.23918   0.25000   0.25000
     Eigenvalues ---    0.25000   0.25000   0.25000   0.25000   0.25000
     Eigenvalues ---    0.25000   0.25000   0.25000   0.25000   0.25000
     Eigenvalues ---    0.25000   0.25000   0.29539   0.29539   0.29539
     Eigenvalues ---    0.29539   0.29539   0.29539   0.29539   0.29539
     Eigenvalues ---    0.37230   0.37230   0.41523   0.41797   0.42162
     Eigenvalues ---    0.42201   0.45389   0.45389   0.45389   0.45389
     Eigenvalues ---    0.45389   0.45389   0.45389   0.45389   1.31926
 RFO step:  Lambda=-2.75164635D-01 EMin= 2.37799043D-03
 Linear search not attempted -- first point.
 Maximum step size (   0.300) exceeded in Quadratic search.
    -- Step size scaled by   0.500
 Iteration  1 RMS(Cart)=  0.10680823 RMS(Int)=  0.00263351
 Iteration  2 RMS(Cart)=  0.00917794 RMS(Int)=  0.00002553
 Iteration  3 RMS(Cart)=  0.00001660 RMS(Int)=  0.00002436
 Iteration  4 RMS(Cart)=  0.00000000 RMS(Int)=  0.00002436
 Variable       Old X    -DE/DX   Delta X   Delta X   Delta X     New X
                                 (Linear)    (Quad)   (Total)
    R1        2.64826  -0.00438   0.00000  -0.00283  -0.00279   2.64547
    R2        2.64826   0.01154   0.00000   0.00813   0.00818   2.65644
    R3        2.64826  -0.00444   0.00000  -0.00309  -0.00309   2.64517
    R4        2.02201  -0.00283   0.00000  -0.00218  -0.00218   2.01982
    R5        2.64826  -0.00646   0.00000  -0.00465  -0.00470   2.64357
    R6        3.32592  -0.00783   0.00000  -0.00687  -0.00687   3.31905
    R7        2.64826  -0.01875   0.00000  -0.01304  -0.01308   2.63518
    R8        3.32592  -0.00887   0.00000  -0.00778  -0.00778   3.31814
    R9        2.64826  -0.01412   0.00000  -0.00964  -0.00963   2.63863
   R10        2.02201   0.00767   0.00000   0.00592   0.00592   2.02793
   R11        3.32592  -0.02009   0.00000  -0.01760  -0.01760   3.30831
   R12        2.64826   0.01007   0.00000   0.00732   0.00733   2.65559
   R13        2.64826  -0.00845   0.00000  -0.00568  -0.00566   2.64260
   R14        2.64826  -0.00140   0.00000  -0.00067  -0.00068   2.64758
   R15        3.32592   0.00228   0.00000   0.00200   0.00200   3.32792
   R16        2.64826  -0.01387   0.00000  -0.00963  -0.00965   2.63861
   R17        3.32592  -0.00562   0.00000  -0.00492  -0.00492   3.32099
   R18        2.64826  -0.01815   0.00000  -0.01286  -0.01287   2.63540
   R19        3.32592   0.00319   0.00000   0.00280   0.00280   3.32872
   R20        2.64826  -0.01506   0.00000  -0.01062  -0.01061   2.63766
   R21        3.32592   0.01109   0.00000   0.00972   0.00972   3.33564
   R22        3.32592   0.13964   0.00000   0.12238   0.12238   3.44830
   R23        3.16340   0.44345   0.00000   0.13907   0.13907   3.30248
    A1        2.09440  -0.04052   0.00000  -0.03790  -0.03778   2.05662
    A2        2.09440   0.01482   0.00000   0.01505   0.01509   2.10948
    A3        2.09440  -0.00292   0.00000  -0.00237  -0.00238   2.09201
    A4        2.09440  -0.01190   0.00000  -0.01269  -0.01270   2.08169
    A5        2.09440   0.00618   0.00000   0.00542   0.00536   2.09975
    A6        2.09440  -0.00954   0.00000  -0.00885  -0.00882   2.08558
    A7        2.09440   0.00336   0.00000   0.00343   0.00346   2.09786
    A8        2.09440  -0.00492   0.00000  -0.00533  -0.00543   2.08897
    A9        2.09440   0.01244   0.00000   0.01217   0.01222   2.10661
   A10        2.09440  -0.00752   0.00000  -0.00684  -0.00679   2.08761
   A11        2.09440  -0.00849   0.00000  -0.00886  -0.00891   2.08549
   A12        2.09440   0.00182   0.00000   0.00165   0.00167   2.09607
   A13        2.09440   0.00666   0.00000   0.00721   0.00723   2.10163
   A14        2.09440   0.03292   0.00000   0.03162   0.03167   2.12606
   A15        2.09440  -0.00792   0.00000  -0.00768  -0.00770   2.08669
   A16        2.09440  -0.02500   0.00000  -0.02394  -0.02397   2.07043
   A17        2.09440  -0.02639   0.00000  -0.02409  -0.02406   2.07034
   A18        2.09440   0.00850   0.00000   0.00904   0.00903   2.10342
   A19        2.09440   0.03257   0.00000   0.03054   0.03055   2.12494
   A20        2.09440  -0.04107   0.00000  -0.03958  -0.03957   2.05482
   A21        2.09440   0.00560   0.00000   0.00553   0.00549   2.09988
   A22        2.09440  -0.00304   0.00000  -0.00299  -0.00297   2.09142
   A23        2.09440  -0.00256   0.00000  -0.00254  -0.00251   2.09188
   A24        2.09440  -0.01273   0.00000  -0.01293  -0.01296   2.08144
   A25        2.09440   0.00224   0.00000   0.00253   0.00255   2.09694
   A26        2.09440   0.01050   0.00000   0.01040   0.01041   2.10481
   A27        2.09440   0.01131   0.00000   0.00971   0.00972   2.10411
   A28        2.09440  -0.00499   0.00000  -0.00422  -0.00422   2.09017
   A29        2.09440  -0.00632   0.00000  -0.00549  -0.00549   2.08890
   A30        2.09440   0.01371   0.00000   0.01274   0.01278   2.10717
   A31        2.09440  -0.00043   0.00000  -0.00026  -0.00027   2.09412
   A32        2.09440  -0.01328   0.00000  -0.01249  -0.01251   2.08189
   A33        2.09440   0.11431   0.00000   0.10884   0.10884   2.20323
   A34        2.09440  -0.19517   0.00000  -0.18583  -0.18583   1.90856
    D1        0.00000  -0.00000   0.00000  -0.00000  -0.00000   0.00000
    D2        3.14159   0.00000   0.00000   0.00000   0.00000   3.14159
    D3       -0.00000  -0.00000   0.00000  -0.00000  -0.00000  -0.00000
    D4        3.14159   0.00000   0.00000   0.00000   0.00000   3.14159
    D5        0.00000   0.00000   0.00000   0.00000   0.00000   0.00000
    D6        3.14159   0.00000   0.00000   0.00000   0.00000   3.14159
    D7       -3.14159  -0.00000   0.00000  -0.00000  -0.00000  -3.14159
    D8        0.00000  -0.00000   0.00000  -0.00000  -0.00000   0.00000
    D9       -0.00000   0.00000   0.00000   0.00000   0.00000  -0.00000
   D10        3.14159  -0.00000   0.00000  -0.00000  -0.00000   3.14159
   D11        3.14159   0.00000   0.00000   0.00000   0.00000   3.14159
   D12        0.00000  -0.00000   0.00000  -0.00000  -0.00000   0.00000
   D13        0.00000  -0.00000   0.00000  -0.00000  -0.00000   0.00000
   D14       -3.14159  -0.00000   0.00000  -0.00000  -0.00000  -3.14159
   D15       -3.14159  -0.00000   0.00000  -0.00000  -0.00000  -3.14159
   D16        0.00000   0.00000   0.00000   0.00000   0.00000   0.00000
   D17       -0.00000   0.00000   0.00000   0.00000   0.00000  -0.00000
   D18        3.14159   0.00000   0.00000   0.00000   0.00000   3.14159
   D19        3.14159   0.00000   0.00000   0.00000   0.00000   3.14159
   D20       -0.00000   0.00000   0.00000   0.00000   0.00000  -0.00000
   D21        0.00001  -0.00000   0.00000  -0.00000  -0.00000   0.00001
   D22       -3.14159  -0.00000   0.00000  -0.00000  -0.00000  -3.14159
   D23        0.00000   0.00000   0.00000   0.00000   0.00000   0.00000
   D24       -3.14159  -0.00000   0.00000  -0.00000  -0.00000  -3.14159
   D25       -0.00000   0.00000   0.00000  -0.00000  -0.00000  -0.00000
   D26        3.14159   0.00000   0.00000   0.00000   0.00000   3.14159
   D27       -0.00000  -0.00000   0.00000  -0.00000  -0.00000  -0.00000
   D28        3.14159  -0.00000   0.00000  -0.00000  -0.00000   3.14159
   D29        3.14159   0.00000   0.00000   0.00000   0.00000   3.14159
   D30       -0.00000   0.00000   0.00000   0.00000   0.00000  -0.00000
   D31       -0.00000   0.00000   0.00000   0.00000   0.00000  -0.00000
   D32       -3.14159  -0.00000   0.00000  -0.00000  -0.00000  -3.14159
   D33        3.14159   0.00000   0.00000   0.00000   0.00000   3.14159
   D34        0.00000   0.00000   0.00000   0.00000   0.00000   0.00000
   D35        0.00000  -0.00000   0.00000  -0.00000  -0.00000   0.00000
   D36       -3.14159  -0.00000   0.00000  -0.00000  -0.00000  -3.14159
   D37        3.14159   0.00000   0.00000   0.00000   0.00000   3.14159
   D38        0.00000  -0.00000   0.00000  -0.00000  -0.00000   0.00000
   D39        0.00000   0.00000   0.00000   0.00000   0.00000   0.00000
   D40       -3.14159  -0.00000   0.00000  -0.00000  -0.00000  -3.14159
   D41        3.14159   0.00000   0.00000   0.00000   0.00000   3.14159
   D42       -0.00000  -0.00000   0.00000  -0.00000  -0.00000  -0.00000
   D43        0.00001  -0.00000   0.00000  -0.00000  -0.00000   0.00001
   D44       -3.14159   0.00000   0.00000   0.00000   0.00000  -3.14159
   D45       -0.00001  -0.00000   0.00000  -0.00000  -0.00000  -0.00001
         Item               Value     Threshold  Converged?
 Maximum Force            0.443446     0.000450     NO 
 RMS     Force            0.052248     0.000300     NO 
 Maximum Displacement     0.406521     0.001800     NO 
 RMS     Displacement     0.114228     0.001200     NO 
 Predicted change in Energy=-1.155754D-01
 GradGradGradGradGradGradGradGradGradGradGradGradGradGradGradGradGradGrad

                          Input orientation:                          
 ---------------------------------------------------------------------
 Center     Atomic      Atomic             Coordinates (Angstroms)
 Number     Number       Type             X           Y           Z
 ---------------------------------------------------------------------
      1          6           0        0.319466    0.678106    0.055188
      2          6           0        1.646994    0.646750   -0.388060
      3          6           0        2.419919    1.813223   -0.423629
      4          6           0        1.874066    3.034517   -0.014425
      5          6           0        0.553451    3.086359    0.430391
      6          6           0       -0.207825    1.916249    0.461439
      7          6           0       -0.437322   -1.083541   -0.026340
      8          6           0        0.163613   -2.281371   -0.449286
      9          6           0       -0.557887   -3.482287   -0.437124
     10          6           0       -1.885057   -3.502763   -0.003722
     11          6           0       -2.483266   -2.315112    0.416415
     12          6           0       -1.766983   -1.117180    0.405412
     13          1           0        2.080736   -0.277448   -0.704529
     14          1           0        0.128115    4.019748    0.745817
     15         17           0       -2.583957    0.416400    0.962592
     16         17           0       -1.863196    2.007259    1.023900
     17         17           0       -4.160331   -2.325821    0.966932
     18         17           0       -2.788026   -5.015139    0.009734
     19         17           0        2.834284    4.504035   -0.054783
     20         17           0        0.211490   -4.969761   -0.969963
     21         17           0        4.081769    1.732575   -0.986278
     22         17           0        1.832555   -2.333663   -1.008950
 ---------------------------------------------------------------------
                    Distance matrix (angstroms):
                    1          2          3          4          5
     1  C    0.000000
     2  C    1.399923   0.000000
     3  C    2.435089   1.399763   0.000000
     4  C    2.823880   2.427467   1.398914   0.000000
     5  C    2.448512   2.795960   2.415353   1.394479   0.000000
     6  C    1.405728   2.402837   2.774706   2.410651   1.396303
     7  C    1.919056   2.732970   4.088142   4.722399   4.310256
     8  C    3.006209   3.282996   4.675177   5.601198   5.453287
     9  C    4.280303   4.681117   6.075355   6.968630   6.718242
    10  C    4.726844   5.462742   6.853382   7.541030   7.039268
    11  C    4.116448   5.145761   6.464522   6.913066   6.196590
    12  C    2.774704   3.923810   5.177327   5.538058   4.801539
    13  H    2.142972   1.068844   2.136552   3.389405   3.864693
    14  H    3.417624   3.869081   3.389502   2.144060   1.073135
    15  Cl   3.053151   4.447276   5.376941   5.261469   4.153943
    16  Cl   2.732958   4.020702   4.525269   4.012542   2.712358
    17  Cl   5.470232   6.663123   7.897153   8.130819   7.197174
    18  Cl   6.486264   7.203099   8.598664   9.302292   8.773636
    19  Cl   4.579752   4.049614   2.747401   1.755885   2.728992
    20  Cl   5.741167   5.826189   7.154335   8.230776   8.184070
    21  Cl   4.043697   2.732217   1.756367   2.741078   4.035928
    22  Cl   3.534485   3.050049   4.228979   5.459685   5.751909
                    6          7          8          9         10
     6  C    0.000000
     7  C    3.047841   0.000000
     8  C    4.311311   1.405277   0.000000
     9  C    5.483990   2.436650   1.401039   0.000000
    10  C    5.691675   2.819411   2.426391   1.396294   0.000000
    11  C    4.804589   2.428721   2.785058   2.407886   1.394591
    12  C    3.411129   1.398406   2.411027   2.786667   2.423290
    13  H    3.377765   2.729532   2.784999   4.159908   5.159583
    14  H    2.149055   5.192254   6.413551   7.625646   7.823224
    15  Cl   2.854243   2.799258   4.101281   4.611282   4.096591
    16  Cl   1.750685   3.562185   4.966949   5.828683   5.605071
    17  Cl   5.820050   4.048536   4.550181   4.035640   2.739385
    18  Cl   7.409832   4.580892   4.049242   2.742779   1.761482
    19  Cl   4.027102   6.474969   7.302729   8.685295   9.294277
    20  Cl   7.045698   4.051430   2.738765   1.757395   2.735181
    21  Cl   4.531030   5.410562   5.634898   7.001626   7.998574
    22  Cl   4.938314   2.771403   1.761058   2.713031   4.024664
                   11         12         13         14         15
    11  C    0.000000
    12  C    1.395788   0.000000
    13  H    5.122373   4.091707   0.000000
    14  H    6.859902   5.485918   4.937826   0.000000
    15  Cl   2.787401   1.824763   5.002007   4.515135   0.000000
    16  Cl   4.408675   3.186519   4.874623   2.844777   1.747595
    17  Cl   1.765143   2.739385   6.777945   7.661978   3.163028
    18  Cl   2.747438   4.048849   6.830866   9.522336   5.518260
    19  Cl   8.660204   7.278839   4.883911   2.863363   6.863027
    20  Cl   4.028762   4.544050   5.057898   9.152165   6.368675
    21  Cl   7.839069   6.653256   2.850212   4.884946   7.068402
    22  Cl   4.545143   4.054248   2.093391   6.808095   5.563758
                   16         17         18         19         20
    16  Cl   0.000000
    17  Cl   4.904657   0.000000
    18  Cl   7.155272   3.167315   0.000000
    19  Cl   5.428053   9.829317  11.055732   0.000000
    20  Cl   7.547093   5.463955   3.155782   9.872659   0.000000
    21  Cl   6.281630   9.392434   9.680794   3.178819   7.739550
    22  Cl   6.052657   6.310218   5.438548   6.976246   3.094896
                   21         22
    21  Cl   0.000000
    22  Cl   4.646910   0.000000
 Stoichiometry    C12H2Cl8
 Framework group  C1[X(C12H2Cl8)]
 Deg. of freedom    60
 Full point group                 C1      NOp   1
 Largest Abelian subgroup         C1      NOp   1
 Largest concise Abelian subgroup C1      NOp   1
                         Standard orientation:                         
 ---------------------------------------------------------------------
 Center     Atomic      Atomic             Coordinates (Angstroms)
 Number     Number       Type             X           Y           Z
 ---------------------------------------------------------------------
      1          6           0        1.298367   -0.266150    0.000002
      2          6           0        2.022444    0.931971   -0.000001
      3          6           0        3.422190    0.925081   -0.000003
      4          6           0        4.122176   -0.286109   -0.000001
      5          6           0        3.418919   -1.490270    0.000004
      6          6           0        2.022750   -1.470866    0.000005
      7          6           0       -0.583667    0.108983    0.000005
      8          6           0       -1.233162    1.355162    0.000005
      9          6           0       -2.632295    1.428221    0.000003
     10          6           0       -3.398964    0.261235    0.000000
     11          6           0       -2.756333   -0.976468   -0.000001
     12          6           0       -1.362612   -1.052388    0.000001
     13          1           0        1.504419    1.866892   -0.000004
     14          1           0        3.949281   -2.423187    0.000007
     15         17           0       -0.557954   -2.690157   -0.000001
     16         17           0        1.162717   -2.995740    0.000010
     17         17           0       -3.712607   -2.460136   -0.000009
     18         17           0       -5.157771    0.358265   -0.000005
     19         17           0        5.877939   -0.306792   -0.000004
     20         17           0       -3.425774    2.996285    0.000004
     21         17           0        4.294440    2.449550   -0.000007
     22         17           0       -0.333494    2.869071    0.000005
 ---------------------------------------------------------------------
 Rotational constants (GHZ):           0.2880191           0.1071540           0.0780984
 Standard basis: 6-311+G(d,p) (5D, 7F)
 There are   536 symmetry adapted cartesian basis functions of A   symmetry.
 There are   516 symmetry adapted basis functions of A   symmetry.
   516 basis functions,   872 primitive gaussians,   536 cartesian basis functions
   105 alpha electrons      105 beta electrons
       nuclear repulsion energy      2670.9679361035 Hartrees.
 NAtoms=   22 NActive=   22 NUniq=   22 SFac= 1.00D+00 NAtFMM=   60 NAOKFM=F Big=F
 Integral buffers will be    131072 words long.
 Raffenetti 2 integral format.
 Two-electron integral symmetry is turned on.
 One-electron integrals computed using PRISM.
 NBasis=   516 RedAO= T EigKep=  1.23D-06  NBF=   516
 NBsUse=   508 1.00D-06 EigRej=  9.06D-07 NBFU=   508
 Initial guess from the checkpoint file:  "./Gau-76394.chk"
 B after Tr=    -0.000000    0.000000   -0.000000
         Rot=    0.999884   -0.000000   -0.000000   -0.015219 Ang=  -1.74 deg.
 ExpMin= 4.38D-02 ExpMax= 1.06D+05 ExpMxC= 3.62D+03 IAcc=3 IRadAn=         5 AccDes= 0.00D+00
 Harris functional with IExCor=  402 and IRadAn=       5 diagonalized for initial guess.
 HarFok:  IExCor=  402 AccDes= 0.00D+00 IRadAn=         5 IDoV= 1 UseB2=F ITyADJ=14
 ICtDFT=  3500011 ScaDFX=  1.000000  1.000000  1.000000  1.000000
 FoFCou: FMM=F IPFlag=           0 FMFlag=      100000 FMFlg1=           0
         NFxFlg=           0 DoJE=T BraDBF=F KetDBF=T FulRan=T
         wScrn=  0.000000 ICntrl=       500 IOpCl=  0 I1Cent=   200000004 NGrid=           0
         NMat0=    1 NMatS0=      1 NMatT0=    0 NMatD0=    1 NMtDS0=    0 NMtDT0=    0
 Petite list used in FoFCou.
 Requested convergence on RMS density matrix=1.00D-08 within 128 cycles.
 Requested convergence on MAX density matrix=1.00D-06.
 Requested convergence on             energy=1.00D-06.
 No special actions if energy rises.
 SCF Done:  E(RB3LYP) =  -4139.92544070     A.U. after   19 cycles
            NFock= 19  Conv=0.90D-08     -V/T= 2.0022
 Calling FoFJK, ICntrl=      2127 FMM=F ISym2X=0 I1Cent= 0 IOpClX= 0 NMat=1 NMatS=1 NMatT=0.
 ***** Axes restored to original set *****
 -------------------------------------------------------------------
 Center     Atomic                   Forces (Hartrees/Bohr)
 Number     Number              X              Y              Z
 -------------------------------------------------------------------
      1        6           0.003497599   -0.066713766   -0.013681928
      2        6          -0.003246077    0.025042252    0.005772741
      3        6           0.001485045   -0.001108826   -0.000697363
      4        6           0.002630714   -0.000225510   -0.000909296
      5        6          -0.005621489   -0.005291466    0.000858320
      6        6           0.006037951   -0.037441674   -0.009020861
      7        6          -0.020218989    0.054949390    0.016981613
      8        6           0.002579801    0.018498737    0.002624406
      9        6           0.004223377   -0.005818122   -0.002484198
     10        6          -0.009530052   -0.005654238    0.002077868
     11        6           0.017151124    0.001241181   -0.005417545
     12        6          -0.000611280   -0.119373691   -0.022217647
     13        1           0.002798325    0.003036432   -0.000351695
     14        1          -0.002244497    0.004630510    0.001609170
     15       17          -0.077552107   -0.275288372   -0.026149587
     16       17           0.092346839    0.422387413    0.048901202
     17       17          -0.001023046   -0.000254784    0.000289157
     18       17           0.002937297    0.001622123   -0.000663097
     19       17          -0.006968790   -0.003884329    0.001566387
     20       17          -0.003376390    0.005297733    0.002107324
     21       17          -0.005863650   -0.002660841    0.001432070
     22       17           0.000568296   -0.012990148   -0.002627043
 -------------------------------------------------------------------
 Cartesian Forces:  Max     0.422387413 RMS     0.067244488

 GradGradGradGradGradGradGradGradGradGradGradGradGradGradGradGradGradGrad
 Berny optimization.
 Using GEDIIS/GDIIS optimizer.
 FormGI is forming the generalized inverse of G from B-inverse, IUseBI=4.
 Internal  Forces:  Max     0.343716959 RMS     0.044319630
 Search for a local minimum.
 Step number   2 out of a maximum of  112
 All quantities printed in internal units (Hartrees-Bohrs-Radians)
 Mixed Optimization -- RFO/linear search
 Update second derivatives using D2CorX and points    1    2
 DE= -1.24D-01 DEPred=-1.16D-01 R= 1.07D+00
 TightC=F SS=  1.41D+00  RLast= 3.00D-01 DXNew= 5.0454D-01 9.0000D-01
 Trust test= 1.07D+00 RLast= 3.00D-01 DXMaxT set to 5.05D-01
 ITU=  1  0
 Use linear search instead of GDIIS.
     Eigenvalues ---    0.00238   0.00238   0.01660   0.01670   0.02070
     Eigenvalues ---    0.02070   0.02070   0.02070   0.02070   0.02070
     Eigenvalues ---    0.02070   0.02070   0.02070   0.02070   0.02070
     Eigenvalues ---    0.02070   0.02070   0.02070   0.04287   0.05615
     Eigenvalues ---    0.16002   0.16005   0.22939   0.23942   0.25000
     Eigenvalues ---    0.25000   0.25000   0.25000   0.25000   0.25000
     Eigenvalues ---    0.25000   0.25000   0.25000   0.25000   0.25000
     Eigenvalues ---    0.25000   0.27977   0.29525   0.29539   0.29539
     Eigenvalues ---    0.29539   0.29539   0.29539   0.29539   0.37219
     Eigenvalues ---    0.37230   0.41321   0.41556   0.41899   0.42090
     Eigenvalues ---    0.44968   0.45128   0.45389   0.45389   0.45389
     Eigenvalues ---    0.45389   0.45389   0.45389   0.68256   1.85955
 RFO step:  Lambda=-2.21896969D-01 EMin= 2.37799043D-03
 Quartic linear search produced a step of  1.00559.
 Maximum step size (   0.505) exceeded in Quadratic search.
    -- Step size scaled by   0.733
 Iteration  1 RMS(Cart)=  0.31222571 RMS(Int)=  0.04153844
 Iteration  2 RMS(Cart)=  0.31096564 RMS(Int)=  0.01581388
 Iteration  3 RMS(Cart)=  0.22285874 RMS(Int)=  0.00375696
 Iteration  4 RMS(Cart)=  0.00676217 RMS(Int)=  0.00015880
 Iteration  5 RMS(Cart)=  0.00000465 RMS(Int)=  0.00015880
 Iteration  6 RMS(Cart)=  0.00000000 RMS(Int)=  0.00015880
 Variable       Old X    -DE/DX   Delta X   Delta X   Delta X     New X
                                 (Linear)    (Quad)   (Total)
    R1        2.64547   0.00010  -0.00281   0.00050  -0.00200   2.64347
    R2        2.65644   0.04537   0.00822   0.05703   0.06543   2.72187
    R3        2.64517  -0.00481  -0.00311  -0.00636  -0.00934   2.63583
    R4        2.01982  -0.00139  -0.00220  -0.00159  -0.00378   2.01604
    R5        2.64357  -0.00643  -0.00472  -0.00883  -0.01373   2.62984
    R6        3.31905  -0.00588  -0.00690  -0.00680  -0.01370   3.30535
    R7        2.63518  -0.01139  -0.01315  -0.01476  -0.02822   2.60697
    R8        3.31814  -0.00710  -0.00782  -0.00840  -0.01622   3.30192
    R9        2.63863  -0.01142  -0.00969  -0.01393  -0.02374   2.61489
   R10        2.02793   0.00539   0.00596   0.00659   0.01255   2.04048
   R11        3.30831   0.00162  -0.01770   0.00956  -0.00815   3.30017
   R12        2.65559   0.00454   0.00737   0.00538   0.01274   2.66833
   R13        2.64260  -0.02039  -0.00569  -0.02605  -0.03156   2.61104
   R14        2.64758   0.00808  -0.00069   0.01035   0.00948   2.65706
   R15        3.32792   0.00176   0.00201   0.00205   0.00406   3.33198
   R16        2.63861   0.00120  -0.00970   0.00205  -0.00783   2.63078
   R17        3.32099  -0.00660  -0.00495  -0.00872  -0.01367   3.30732
   R18        2.63540  -0.00678  -0.01294  -0.00825  -0.02119   2.61421
   R19        3.32872  -0.00290   0.00282  -0.00579  -0.00298   3.32574
   R20        2.63766  -0.01039  -0.01067  -0.01341  -0.02390   2.61376
   R21        3.33564   0.00106   0.00977  -0.00211   0.00766   3.34330
   R22        3.44830   0.05209   0.12307   0.03593   0.15900   3.60730
   R23        3.30248   0.34372   0.13985   0.29397   0.43382   3.73630
    A1        2.05662  -0.03490  -0.03799  -0.03830  -0.07556   1.98106
    A2        2.10948   0.01665   0.01517   0.02081   0.03638   2.14586
    A3        2.09201  -0.00438  -0.00240  -0.00703  -0.00962   2.08239
    A4        2.08169  -0.01227  -0.01277  -0.01379  -0.02676   2.05493
    A5        2.09975   0.00502   0.00539   0.00389   0.00918   2.10893
    A6        2.08558  -0.00746  -0.00887  -0.00724  -0.01606   2.06951
    A7        2.09786   0.00244   0.00348   0.00336   0.00689   2.10474
    A8        2.08897  -0.00208  -0.00546  -0.00275  -0.00875   2.08022
    A9        2.10661   0.00762   0.01228   0.00767   0.02023   2.12684
   A10        2.08761  -0.00554  -0.00683  -0.00493  -0.01148   2.07613
   A11        2.08549   0.00055  -0.00896   0.00672  -0.00273   2.08276
   A12        2.09607  -0.00015   0.00168  -0.00025   0.00167   2.09774
   A13        2.10163  -0.00040   0.00727  -0.00646   0.00105   2.10268
   A14        2.12606   0.01476   0.03184   0.00963   0.04148   2.16754
   A15        2.08669   0.01379  -0.00774   0.02809   0.02034   2.10704
   A16        2.07043  -0.02855  -0.02410  -0.03771  -0.06182   2.00861
   A17        2.07034  -0.02042  -0.02419  -0.02488  -0.04882   2.02152
   A18        2.10342  -0.00019   0.00908  -0.00530   0.00359   2.10701
   A19        2.12494   0.02197   0.03072   0.02164   0.05246   2.17740
   A20        2.05482  -0.02178  -0.03980  -0.01634  -0.05604   1.99878
   A21        2.09988   0.00728   0.00552   0.01154   0.01669   2.11658
   A22        2.09142  -0.00268  -0.00299  -0.00395  -0.00675   2.08467
   A23        2.09188  -0.00459  -0.00253  -0.00759  -0.00994   2.08194
   A24        2.08144  -0.00931  -0.01303  -0.00743  -0.02065   2.06079
   A25        2.09694   0.00165   0.00256   0.00060   0.00326   2.10020
   A26        2.10481   0.00767   0.01047   0.00683   0.01739   2.12220
   A27        2.10411  -0.00707   0.00977  -0.01785  -0.00791   2.09620
   A28        2.09017   0.00311  -0.00425   0.00782   0.00349   2.09366
   A29        2.08890   0.00396  -0.00553   0.01003   0.00442   2.09332
   A30        2.10717   0.02971   0.01285   0.04392   0.05710   2.16428
   A31        2.09412  -0.08921  -0.00028  -0.15703  -0.15748   1.93664
   A32        2.08189   0.05950  -0.01258   0.11311   0.10037   2.18226
   A33        2.20323  -0.02292   0.10945  -0.10184   0.00761   2.21084
   A34        1.90856  -0.24213  -0.18687  -0.32404  -0.51091   1.39766
    D1        0.00000  -0.00000  -0.00000  -0.00000  -0.00000   0.00000
    D2        3.14159  -0.00000   0.00000  -0.00000  -0.00000   3.14159
    D3       -0.00000   0.00000  -0.00000   0.00000   0.00000  -0.00000
    D4        3.14159   0.00000   0.00000   0.00000   0.00000   3.14159
    D5        0.00000  -0.00000   0.00000  -0.00000  -0.00000   0.00000
    D6        3.14159   0.00000   0.00000   0.00000   0.00000   3.14159
    D7       -3.14159  -0.00000  -0.00000  -0.00000  -0.00000  -3.14159
    D8        0.00000  -0.00000  -0.00000   0.00000  -0.00000   0.00000
    D9       -0.00000   0.00000   0.00000   0.00000   0.00000  -0.00000
   D10        3.14159   0.00000  -0.00000   0.00000   0.00000   3.14159
   D11        3.14159   0.00000   0.00000  -0.00000   0.00000   3.14159
   D12        0.00000  -0.00000  -0.00000  -0.00000  -0.00000   0.00000
   D13        0.00000  -0.00000  -0.00000   0.00000  -0.00000   0.00000
   D14       -3.14159  -0.00000  -0.00000  -0.00000  -0.00000  -3.14159
   D15       -3.14159  -0.00000  -0.00000   0.00000   0.00000  -3.14159
   D16        0.00000  -0.00000   0.00000  -0.00000  -0.00000   0.00000
   D17       -0.00000   0.00000   0.00000  -0.00000  -0.00000  -0.00000
   D18        3.14159   0.00000   0.00000  -0.00000  -0.00000   3.14159
   D19        3.14159   0.00000   0.00000  -0.00000  -0.00000   3.14159
   D20       -0.00000   0.00000   0.00000   0.00000   0.00000  -0.00000
   D21        0.00001   0.00000  -0.00000   0.00000   0.00000   0.00001
   D22       -3.14159   0.00000  -0.00000   0.00000   0.00000  -3.14158
   D23        0.00000  -0.00000   0.00000  -0.00000  -0.00000   0.00000
   D24       -3.14159  -0.00000  -0.00000  -0.00000  -0.00000  -3.14159
   D25       -0.00000   0.00000  -0.00000   0.00000   0.00000  -0.00000
   D26        3.14159   0.00000   0.00000  -0.00000   0.00000   3.14159
   D27       -0.00000  -0.00000  -0.00000   0.00000  -0.00000  -0.00000
   D28        3.14159  -0.00000  -0.00000   0.00000  -0.00000   3.14159
   D29        3.14159   0.00000   0.00000   0.00000   0.00000   3.14159
   D30       -0.00000   0.00000   0.00000   0.00000   0.00000  -0.00000
   D31       -0.00000   0.00000   0.00000   0.00000   0.00000   0.00000
   D32       -3.14159  -0.00000  -0.00000   0.00000  -0.00000  -3.14159
   D33        3.14159   0.00000   0.00000   0.00000   0.00000  -3.14159
   D34        0.00000   0.00000   0.00000  -0.00000  -0.00000   0.00000
   D35        0.00000  -0.00000  -0.00000   0.00000  -0.00000   0.00000
   D36       -3.14159  -0.00000  -0.00000   0.00000  -0.00000  -3.14159
   D37        3.14159   0.00000   0.00000   0.00000   0.00000   3.14159
   D38        0.00000  -0.00000  -0.00000   0.00000  -0.00000   0.00000
   D39        0.00000  -0.00000   0.00000  -0.00000  -0.00000   0.00000
   D40       -3.14159  -0.00000  -0.00000   0.00000  -0.00000  -3.14159
   D41        3.14159   0.00000   0.00000  -0.00000  -0.00000   3.14159
   D42       -0.00000  -0.00000  -0.00000   0.00000   0.00000  -0.00000
   D43        0.00001   0.00000  -0.00000   0.00000   0.00000   0.00001
   D44       -3.14159   0.00000   0.00000   0.00000   0.00000  -3.14159
   D45       -0.00001   0.00000  -0.00000   0.00001   0.00000  -0.00001
         Item               Value     Threshold  Converged?
 Maximum Force            0.343717     0.000450     NO 
 RMS     Force            0.044320     0.000300     NO 
 Maximum Displacement     2.922947     0.001800     NO 
 RMS     Displacement     0.833732     0.001200     NO 
 Predicted change in Energy=-2.918049D-01
 GradGradGradGradGradGradGradGradGradGradGradGradGradGradGradGradGradGrad

                          Input orientation:                          
 ---------------------------------------------------------------------
 Center     Atomic      Atomic             Coordinates (Angstroms)
 Number     Number       Type             X           Y           Z
 ---------------------------------------------------------------------
      1          6           0       -0.530329    0.452871    0.292851
      2          6           0        0.703173    0.010470   -0.196618
      3          6           0        1.790162    0.861755   -0.394848
      4          6           0        1.693915    2.220120   -0.108023
      5          6           0        0.504605    2.722451    0.378140
      6          6           0       -0.565165    1.865931    0.569715
      7          6           0       -0.341942   -0.364866    0.077214
      8          6           0        0.500609   -1.395378   -0.393909
      9          6           0        0.033595   -2.718234   -0.488493
[...]
                 (A) (A) (A) (A) (A) (A) (A) (A) (A) (A) (A) (A)
                 (A) (A) (A) (A) (A) (A) (A) (A) (A) (A) (A) (A)
                 (A) (A) (A) (A) (A) (A) (A) (A) (A) (A) (A) (A)
                 (A) (A) (A) (A) (A) (A) (A) (A) (A) (A) (A) (A)
                 (A) (A) (A) (A) (A) (A) (A) (A) (A) (A) (A) (A)
                 (A) (A) (A) (A) (A) (A) (A) (A) (A) (A) (A) (A)
                 (A) (A) (A) (A) (A) (A) (A) (A) (A) (A) (A) (A)
                 (A) (A) (A) (A) (A) (A) (A) (A) (A) (A) (A) (A)
                 (A) (A) (A) (A) (A) (A) (A) (A) (A) (A) (A) (A)
                 (A) (A) (A) (A) (A) (A) (A) (A) (A) (A) (A) (A)
                 (A) (A) (A) (A) (A) (A) (A) (A) (A) (A) (A) (A)
                 (A) (A) (A) (A) (A) (A) (A) (A) (A) (A) (A) (A)
                 (A) (A) (A) (A) (A) (A) (A) (A) (A) (A) (A) (A)
                 (A) (A) (A) (A) (A) (A) (A) (A) (A) (A)
 The electronic state is 1-A.
 Alpha  occ. eigenvalues -- -101.58682-101.58570-101.58570-101.58491-101.58491
 Alpha  occ. eigenvalues -- -101.57924-101.57830-101.57783 -10.29118 -10.28797
 Alpha  occ. eigenvalues --  -10.28791 -10.28701 -10.28700 -10.27700 -10.27342
 Alpha  occ. eigenvalues --  -10.27340 -10.24929 -10.23835 -10.22516 -10.22446
 Alpha  occ. eigenvalues --   -9.50148  -9.50036  -9.50035  -9.49967  -9.49966
 Alpha  occ. eigenvalues --   -9.49380  -9.49299  -9.49238  -7.26657  -7.26544
 Alpha  occ. eigenvalues --   -7.26544  -7.26462  -7.26461  -7.25868  -7.25771
 Alpha  occ. eigenvalues --   -7.25727  -7.25629  -7.25536  -7.25514  -7.25513
 Alpha  occ. eigenvalues --   -7.25447  -7.25446  -7.25427  -7.25427  -7.25368
 Alpha  occ. eigenvalues --   -7.25367  -7.24859  -7.24798  -7.24775  -7.24735
 Alpha  occ. eigenvalues --   -7.24715  -7.24660  -0.97713  -0.95040  -0.93099
 Alpha  occ. eigenvalues --   -0.92302  -0.90637  -0.88557  -0.88409  -0.87479
 Alpha  occ. eigenvalues --   -0.85239  -0.84361  -0.80184  -0.76650  -0.75147
 Alpha  occ. eigenvalues --   -0.74248  -0.67072  -0.65325  -0.63839  -0.61476
 Alpha  occ. eigenvalues --   -0.56778  -0.55427  -0.53981  -0.52876  -0.50286
 Alpha  occ. eigenvalues --   -0.49162  -0.47878  -0.47591  -0.47441  -0.46853
 Alpha  occ. eigenvalues --   -0.45457  -0.45092  -0.43766  -0.42026  -0.41889
 Alpha  occ. eigenvalues --   -0.41778  -0.39890  -0.39636  -0.37137  -0.36795
 Alpha  occ. eigenvalues --   -0.36430  -0.36420  -0.36047  -0.35154  -0.35108
 Alpha  occ. eigenvalues --   -0.34095  -0.33861  -0.33712  -0.33316  -0.33024
 Alpha  occ. eigenvalues --   -0.31905  -0.28722  -0.28102  -0.27286  -0.26837
 Alpha virt. eigenvalues --   -0.07007  -0.06898  -0.06369  -0.06084  -0.05520
 Alpha virt. eigenvalues --   -0.03144  -0.01284  -0.00816  -0.00481   0.00245
 Alpha virt. eigenvalues --    0.01014   0.01925   0.01989   0.02217   0.02355
 Alpha virt. eigenvalues --    0.02763   0.03595   0.04319   0.04657   0.04866
 Alpha virt. eigenvalues --    0.05509   0.05795   0.06318   0.06622   0.07260
 Alpha virt. eigenvalues --    0.07387   0.07868   0.08088   0.08105   0.08375
 Alpha virt. eigenvalues --    0.08923   0.09270   0.09475   0.10078   0.10159
 Alpha virt. eigenvalues --    0.10391   0.10517   0.10997   0.11278   0.11735
 Alpha virt. eigenvalues --    0.11868   0.12216   0.12398   0.13176   0.13326
 Alpha virt. eigenvalues --    0.13512   0.13892   0.14307   0.14954   0.15223
 Alpha virt. eigenvalues --    0.15284   0.15395   0.16396   0.16469   0.16747
 Alpha virt. eigenvalues --    0.17123   0.17282   0.17569   0.18387   0.18734
 Alpha virt. eigenvalues --    0.19095   0.19509   0.19768   0.19936   0.20402
 Alpha virt. eigenvalues --    0.20635   0.20814   0.21154   0.21363   0.21903
 Alpha virt. eigenvalues --    0.22160   0.22391   0.22973   0.23484   0.23766
 Alpha virt. eigenvalues --    0.24027   0.24577   0.24671   0.25257   0.25328
 Alpha virt. eigenvalues --    0.26014   0.26293   0.26861   0.27149   0.27434
 Alpha virt. eigenvalues --    0.27651   0.28225   0.28366   0.28399   0.28705
 Alpha virt. eigenvalues --    0.28860   0.29817   0.30071   0.30079   0.30577
 Alpha virt. eigenvalues --    0.31425   0.31805   0.32507   0.34044   0.36265
 Alpha virt. eigenvalues --    0.37993   0.40185   0.41903   0.42362   0.42779
 Alpha virt. eigenvalues --    0.43296   0.43328   0.44006   0.44195   0.44448
 Alpha virt. eigenvalues --    0.45218   0.45363   0.45992   0.46260   0.46402
 Alpha virt. eigenvalues --    0.47068   0.47333   0.47899   0.48160   0.48514
 Alpha virt. eigenvalues --    0.49078   0.49480   0.49868   0.50422   0.50426
 Alpha virt. eigenvalues --    0.52310   0.53213   0.54054   0.55927   0.56720
 Alpha virt. eigenvalues --    0.56949   0.57077   0.57862   0.58384   0.59207
 Alpha virt. eigenvalues --    0.59949   0.60182   0.60624   0.60979   0.61566
 Alpha virt. eigenvalues --    0.61997   0.62258   0.63391   0.63905   0.64197
 Alpha virt. eigenvalues --    0.64988   0.65345   0.66316   0.67740   0.68028
 Alpha virt. eigenvalues --    0.68227   0.68723   0.69253   0.70857   0.75613
 Alpha virt. eigenvalues --    0.77930   0.78100   0.78440   0.78694   0.81369
 Alpha virt. eigenvalues --    0.82076   0.82557   0.82611   0.82784   0.83332
 Alpha virt. eigenvalues --    0.83363   0.83458   0.83588   0.84129   0.84199
 Alpha virt. eigenvalues --    0.84249   0.84381   0.84992   0.85383   0.85529
 Alpha virt. eigenvalues --    0.85589   0.86160   0.87063   0.88638   0.88702
 Alpha virt. eigenvalues --    0.89048   0.89506   0.89829   0.89972   0.89994
 Alpha virt. eigenvalues --    0.90859   0.91640   0.91898   0.92421   0.92952
 Alpha virt. eigenvalues --    0.93609   0.93789   0.94064   0.94091   0.94806
 Alpha virt. eigenvalues --    0.95275   0.96228   0.96422   0.97254   0.97326
 Alpha virt. eigenvalues --    1.00266   1.00464   1.01113   1.02230   1.03409
 Alpha virt. eigenvalues --    1.03593   1.05373   1.06585   1.07284   1.09006
 Alpha virt. eigenvalues --    1.09823   1.13974   1.14401   1.16950   1.18137
 Alpha virt. eigenvalues --    1.19769   1.20348   1.21825   1.21862   1.24420
 Alpha virt. eigenvalues --    1.25237   1.25616   1.27006   1.27124   1.27420
 Alpha virt. eigenvalues --    1.27424   1.28361   1.29001   1.29288   1.29301
 Alpha virt. eigenvalues --    1.32025   1.32456   1.33669   1.35770   1.38332
 Alpha virt. eigenvalues --    1.38927   1.41725   1.46168   1.47065   1.48703
 Alpha virt. eigenvalues --    1.52163   1.54734   1.56421   1.57902   1.58039
 Alpha virt. eigenvalues --    1.62622   1.64232   1.64775   1.67324   1.68162
 Alpha virt. eigenvalues --    1.72627   1.73386   1.73890   1.74412   1.77804
 Alpha virt. eigenvalues --    1.79779   1.80309   1.80997   1.82506   1.83611
 Alpha virt. eigenvalues --    1.84617   1.86770   1.89124   1.90624   1.93464
 Alpha virt. eigenvalues --    1.95547   1.97134   1.98469   2.01057   2.04497
 Alpha virt. eigenvalues --    2.06097   2.09751   2.11507   2.12374   2.13264
 Alpha virt. eigenvalues --    2.21402   2.21999   2.22522   2.22800   2.23158
 Alpha virt. eigenvalues --    2.23377   2.24460   2.25858   2.26522   2.26988
 Alpha virt. eigenvalues --    2.28555   2.30724   2.32165   2.33170   2.33349
 Alpha virt. eigenvalues --    2.34193   2.35278   2.38797   2.40514   2.41041
 Alpha virt. eigenvalues --    2.42555   2.42629   2.43655   2.45101   2.45954
 Alpha virt. eigenvalues --    2.48944   2.51197   2.51379   2.52209   2.54106
 Alpha virt. eigenvalues --    2.56261   2.57101   2.59959   2.61671   2.63023
 Alpha virt. eigenvalues --    2.63620   2.65794   2.66401   2.68508   2.70740
 Alpha virt. eigenvalues --    2.73227   2.74104   2.75573   2.76782   2.81006
 Alpha virt. eigenvalues --    2.81994   2.82407   2.84347   2.88372   2.95598
 Alpha virt. eigenvalues --    2.96970   3.03618   3.06155   3.06751   3.09064
 Alpha virt. eigenvalues --    3.10735   3.11816   3.12436   3.14053   3.15212
 Alpha virt. eigenvalues --    3.20883   3.23060   3.24946   3.27888   3.35248
 Alpha virt. eigenvalues --    3.45801   3.50358   3.52952   3.56324   3.66452
 Alpha virt. eigenvalues --    3.75072   3.80348   3.87856   3.88747   3.93355
 Alpha virt. eigenvalues --    4.11016   4.29059   4.79766   4.80672   9.73566
 Alpha virt. eigenvalues --    9.75939   9.78028   9.79381   9.80400   9.81038
 Alpha virt. eigenvalues --    9.83147   9.85597  23.26628  23.47077  23.76461
 Alpha virt. eigenvalues --   23.80911  23.83128  23.88280  23.91713  23.91781
 Alpha virt. eigenvalues --   23.96411  24.01761  24.05902  24.12402  25.76184
 Alpha virt. eigenvalues --   25.77818  25.78212  25.84048  25.85259  25.85986
 Alpha virt. eigenvalues --   25.96757  25.96976  26.06970  26.08668  26.09514
 Alpha virt. eigenvalues --   26.15176  26.19068  26.27006  26.34816  26.36780
 Alpha virt. eigenvalues --   26.48400  26.51539  26.54414  26.70863  26.77050
 Alpha virt. eigenvalues --   26.77202  26.82372  27.13986 215.72674 215.75077
 Alpha virt. eigenvalues --  215.77529 215.78923 215.80291 215.81104 215.83821
 Alpha virt. eigenvalues --  215.86757
          Condensed to atoms (all electrons):
               1          2          3          4          5          6
     1  C   50.227051   0.450885 -14.603064  -6.271376  -5.597326  -3.508957
     2  C    0.450885  29.229035  -2.492652 -11.109621   2.154305 -12.597852
     3  C  -14.603064  -2.492652  38.073967  -4.979947 -13.500592   0.073197
     4  C   -6.271376 -11.109621  -4.979947  33.511405   4.598303  -8.722744
     5  C   -5.597326   2.154305 -13.500592   4.598303  32.813605  -6.163959
     6  C   -3.508957 -12.597852   0.073197  -8.722744  -6.163959  70.236554
     7  C    9.700597  -3.319634   2.067912   0.203742  -4.371817  -7.168345
     8  C   -2.878820   0.745853   0.399148   0.103507  -1.332464  -8.622558
     9  C   -6.802339   0.956487   0.257489   0.138264  -0.145364  -4.122505
    10  C   -4.068536   0.389846  -0.332653  -0.020355   0.304872  -0.844265
    11  C   -6.805045   0.956763   0.258748   0.138405  -0.146150  -4.125209
    12  C   -2.858924   0.734153   0.396085   0.101978  -1.329688  -8.588864
    13  H   -0.071100   0.239844   0.001663   0.060589  -0.061392  -0.179068
    14  H    0.135956  -0.044592   0.032860  -0.001627   0.206980   0.009468
    15  Cl   0.075673   0.045928   0.114180   0.074173  -0.047885   0.601437
    16  Cl  -0.110495  -0.365561   0.789841  -0.692830  -1.249080   0.218249
    17  Cl  -0.241260   0.036444   0.022676   0.000912  -0.010826  -0.104072
    18  Cl  -0.164345   0.015129   0.009264  -0.003073  -0.006007  -0.092068
    19  Cl  -0.037979   0.407495   0.144341  -1.086921   0.281769  -0.345596
    20  Cl  -0.241105   0.036509   0.022672   0.000918  -0.010820  -0.104098
    21  Cl  -0.559667   0.332427  -1.085275  -0.259163   0.227502   0.801355
    22  Cl   0.072676   0.045749   0.115040   0.073940  -0.048808   0.600096
               7          8          9         10         11         12
     1  C    9.700597  -2.878820  -6.802339  -4.068536  -6.805045  -2.858924
     2  C   -3.319634   0.745853   0.956487   0.389846   0.956763   0.734153
     3  C    2.067912   0.399148   0.257489  -0.332653   0.258748   0.396085
     4  C    0.203742   0.103507   0.138264  -0.020355   0.138405   0.101978
     5  C   -4.371817  -1.332464  -0.145364   0.304872  -0.146150  -1.329688
     6  C   -7.168345  -8.622558  -4.122505  -0.844265  -4.125209  -8.588864
     7  C   31.111135  -1.671881  -9.734761   2.830796  -9.733697  -1.661747
     8  C   -1.671881  21.354082  -5.800758  -8.016590  11.146032   3.865317
     9  C   -9.734761  -5.800758  32.935339  -2.126791 -10.735268  11.130885
    10  C    2.830796  -8.016590  -2.126791  29.131371  -2.130045  -8.031013
    11  C   -9.733697  11.146032 -10.735268  -2.130045  32.938802  -5.810996
    12  C   -1.661747   3.865317  11.130885  -8.031013  -5.810996  21.343271
    13  H    0.132249   0.098659   0.021988   0.023662   0.022008   0.098459
    14  H    0.018677   0.001160  -0.000904   0.000228  -0.000905   0.001158
    15  Cl  -0.059366  -1.093605   1.534806  -0.540533  -1.851628  -0.873746
    16  Cl   0.467052   0.055959  -0.225978  -0.261820  -0.225582   0.056749
    17  Cl  -1.098225   0.681164  -0.619560  -0.469782   1.199001  -0.005850
    18  Cl   0.112468  -0.728130  -0.016096   0.892073  -0.017094  -0.728590
    19  Cl  -0.039995  -0.044480  -0.001578  -0.003967  -0.001580  -0.044433
    20  Cl  -1.097903  -0.004997   1.198629  -0.470229  -0.619690   0.680768
    21  Cl  -0.181779  -0.058391  -0.013789  -0.002431  -0.013794  -0.058159
    22  Cl  -0.058919  -0.874015  -1.850322  -0.539508   1.535716  -1.091913
              13         14         15         16         17         18
     1  C   -0.071100   0.135956   0.075673  -0.110495  -0.241260  -0.164345
     2  C    0.239844  -0.044592   0.045928  -0.365561   0.036444   0.015129
     3  C    0.001663   0.032860   0.114180   0.789841   0.022676   0.009264
     4  C    0.060589  -0.001627   0.074173  -0.692830   0.000912  -0.003073
     5  C   -0.061392   0.206980  -0.047885  -1.249080  -0.010826  -0.006007
     6  C   -0.179068   0.009468   0.601437   0.218249  -0.104072  -0.092068
     7  C    0.132249   0.018677  -0.059366   0.467052  -1.098225   0.112468
     8  C    0.098659   0.001160  -1.093605   0.055959   0.681164  -0.728130
     9  C    0.021988  -0.000904   1.534806  -0.225978  -0.619560  -0.016096
    10  C    0.023662   0.000228  -0.540533  -0.261820  -0.469782   0.892073
    11  C    0.022008  -0.000905  -1.851628  -0.225582   1.199001  -0.017094
    12  C    0.098459   0.001158  -0.873746   0.056749  -0.005850  -0.728590
    13  H    0.516229   0.000049  -0.018654  -0.000955   0.000444   0.000234
    14  H    0.000049   0.488607  -0.001242  -0.008295  -0.000003  -0.000000
    15  Cl  -0.018654  -0.001242  18.938359   0.050819  -0.388520  -0.026923
    16  Cl  -0.000955  -0.008295   0.050819  18.102067  -0.005083   0.012517
    17  Cl   0.000444  -0.000003  -0.388520  -0.005083  17.575968  -0.232949
    18  Cl   0.000234  -0.000000  -0.026923   0.012517  -0.232949  17.552593
    19  Cl  -0.001956  -0.008939   0.010970  -0.040043   0.000029  -0.000004
    20  Cl   0.000444  -0.000003   0.032242  -0.005090  -0.008584  -0.233047
    21  Cl  -0.016128   0.000100  -0.003770  -0.001796   0.000204   0.000101
    22  Cl  -0.018623  -0.001241  -0.170443   0.050975   0.032245  -0.026873
              19         20         21         22
     1  C   -0.037979  -0.241105  -0.559667   0.072676
     2  C    0.407495   0.036509   0.332427   0.045749
     3  C    0.144341   0.022672  -1.085275   0.115040
     4  C   -1.086921   0.000918  -0.259163   0.073940
     5  C    0.281769  -0.010820   0.227502  -0.048808
     6  C   -0.345596  -0.104098   0.801355   0.600096
     7  C   -0.039995  -1.097903  -0.181779  -0.058919
     8  C   -0.044480  -0.004997  -0.058391  -0.874015
     9  C   -0.001578   1.198629  -0.013789  -1.850322
    10  C   -0.003967  -0.470229  -0.002431  -0.539508
    11  C   -0.001580  -0.619690  -0.013794   1.535716
    12  C   -0.044433   0.680768  -0.058159  -1.091913
    13  H   -0.001956   0.000444  -0.016128  -0.018623
    14  H   -0.008939  -0.000003   0.000100  -0.001241
    15  Cl   0.010970   0.032242  -0.003770  -0.170443
    16  Cl  -0.040043  -0.005090  -0.001796   0.050975
    17  Cl   0.000029  -0.008584   0.000204   0.032245
    18  Cl  -0.000004  -0.233047   0.000101  -0.026873
    19  Cl  17.468462   0.000029  -0.177125   0.010959
    20  Cl   0.000029  17.576034   0.000203  -0.388474
    21  Cl  -0.177125   0.000203  17.528681  -0.003745
    22  Cl   0.010959  -0.388474  -0.003745  18.937667
 Mulliken charges:
               1
     1  C    0.157499
     2  C   -0.846941
     3  C    0.215101
     4  C    0.141522
     5  C   -0.565157
     6  C   -1.250198
     7  C   -0.446559
     8  C   -1.324192
     9  C    0.022127
    10  C    0.285669
    11  C    0.021208
    12  C   -1.324898
    13  H    0.151359
    14  H    0.172508
    15  Cl   0.597729
    16  Cl   0.388378
    17  Cl   0.635627
    18  Cl   0.680819
    19  Cl   0.510543
    20  Cl   0.635593
    21  Cl   0.544440
    22  Cl   0.597821
 Sum of Mulliken charges =  -0.00000
 Mulliken charges with hydrogens summed into heavy atoms:
               1
     1  C    0.157499
     2  C   -0.695581
     3  C    0.215101
     4  C    0.141522
     5  C   -0.392649
     6  C   -1.250198
     7  C   -0.446559
     8  C   -1.324192
     9  C    0.022127
    10  C    0.285669
    11  C    0.021208
    12  C   -1.324898
    15  Cl   0.597729
    16  Cl   0.388378
    17  Cl   0.635627
    18  Cl   0.680819
    19  Cl   0.510543
    20  Cl   0.635593
    21  Cl   0.544440
    22  Cl   0.597821
 Electronic spatial extent (au):  <R**2>=          10752.4690
 Charge=              0.0000 electrons
 Dipole moment (field-independent basis, Debye):
    X=             -0.0854    Y=             -0.0001    Z=             -0.0189  Tot=              0.0875
 Quadrupole moment (field-independent basis, Debye-Ang):
   XX=           -172.6276   YY=           -170.5390   ZZ=           -167.4332
   XY=             -0.0008   XZ=             -3.4518   YZ=              0.0005
 Traceless Quadrupole moment (field-independent basis, Debye-Ang):
   XX=             -2.4276   YY=             -0.3391   ZZ=              2.7667
   XY=             -0.0008   XZ=             -3.4518   YZ=              0.0005
 Octapole moment (field-independent basis, Debye-Ang**2):
  XXX=            -34.5560  YYY=             -0.0044  ZZZ=              0.3041  XYY=             -7.1601
  XXY=              0.0018  XXZ=            -17.2340  XZZ=              3.7241  YZZ=              0.0005
  YYZ=             -0.0229  XYZ=              0.0004
 Hexadecapole moment (field-independent basis, Debye-Ang**3):
 XXXX=          -9790.4689 YYYY=          -2504.3913 ZZZZ=          -1492.7126 XXXY=             -0.0286
 XXXZ=            -62.3562 YYYX=             -0.0086 YYYZ=             -0.0017 ZZZX=             20.2150
 ZZZY=             -0.0003 XXYY=          -2057.5611 XXZZ=          -1872.5854 YYZZ=           -706.4222
 XXYZ=              0.0062 YYXZ=             -0.1349 ZZXY=             -0.0036
 N-N= 2.692631025296D+03 E-N=-1.519862519828D+04  KE= 4.129825044508D+03
 1\1\GINC-CN081\FOpt\RB3LYP\6-311+G(d,p)\C12H2Cl8\20CY91R06\30-Apr-2022
 \0\\# opt b3lyp/6-311+g(d,p)\\Title Card Required\\0,1\C,0.3259512422,
 0.4379575158,-0.0086278565\C,1.031238161,0.7860811945,-1.1604778438\C,
 1.7135975475,1.9945873591,-1.2563641006\C,1.6952149462,2.8834043813,-0
 .1771285657\C,0.996365333,2.5520898767,0.9801876813\C,0.3204943412,1.3
 410828352,1.0586522702\C,-0.3925876877,-0.8685257454,0.0517159458\C,0.
 2516337256,-2.0192633253,0.5216368362\C,-0.4094146542,-3.2524206965,0.
 5730456912\C,-1.7417892822,-3.3384115785,0.145747367\C,-2.4034751557,-
 2.1974693124,-0.3292264676\C,-1.7228096765,-0.9746594424,-0.3717542472
 \H,1.0512120229,0.1044761593,-2.0010940907\H,0.9821274937,3.2393120142
 ,1.8147300968\Cl,-2.5360910984,0.4512382439,-0.955053824\Cl,-0.5457095
 069,0.9640994621,2.5327522989\Cl,-4.0520386698,-2.3025330033,-0.859652
 8169\Cl,-2.5727187153,-4.8601965957,0.2030155101\Cl,2.5307704981,4.411
 6544422,-0.2377583419\Cl,0.4113710555,-4.6638030768,1.1598614257\Cl,2.
 5735311288,2.3609846374,-2.7284862305\Cl,1.9057346388,-1.8985512144,1.
 0550096763\\Version=EM64L-G16RevB.01\State=1-A\HF=-4140.3599941\RMSD=5
 .210e-09\RMSF=1.169e-05\Dipole=-0.0189607,-0.0266993,0.0106012\Quadrup
 ole=-1.1754732,0.0143993,1.161074,-1.0762232,0.7821423,2.6883722\PG=C0
 1 [X(C12H2Cl8)]\\@


 We find comfort among those who agree with us -- growth among those who don't.
 -- Frank A. Clark
 Job cpu time:       5 days  9 hours 53 minutes 46.6 seconds.
 Elapsed time:       0 days 10 hours 52 minutes  0.2 seconds.
 File lengths (MBytes):  RWF=    171 Int=      0 D2E=      0 Chk=     25 Scr=      1
 Normal termination of Gaussian 16 at Sat Apr 30 12:31:03 2022.
