 Entering Gaussian System, Link 0=g16
 Input=2,2prime,3,4,5prime,6-Hexachlorobiphenyl1.gjf
 Output=2,2prime,3,4,5prime,6-Hexachlorobiphenyl1.log
 Initial command:
 /home/apps/g16/l1.exe "./Gau-8514.inp" -scrdir="./"
 Entering Link 1 = /home/apps/g16/l1.exe PID=      8560.
  
 Copyright (c) 1988-2017, Gaussian, Inc.  All Rights Reserved.
  
 This is part of the Gaussian(R) 16 program.  It is based on
 the Gaussian(R) 09 system (copyright 2009, Gaussian, Inc.),
 the Gaussian(R) 03 system (copyright 2003, Gaussian, Inc.),
 the Gaussian(R) 98 system (copyright 1998, Gaussian, Inc.),
 the Gaussian(R) 94 system (copyright 1995, Gaussian, Inc.),
 the Gaussian 92(TM) system (copyright 1992, Gaussian, Inc.),
 the Gaussian 90(TM) system (copyright 1990, Gaussian, Inc.),
 the Gaussian 88(TM) system (copyright 1988, Gaussian, Inc.),
 the Gaussian 86(TM) system (copyright 1986, Carnegie Mellon
 University), and the Gaussian 82(TM) system (copyright 1983,
 Carnegie Mellon University). Gaussian is a federally registered
 trademark of Gaussian, Inc.
  
 This software contains proprietary and confidential information,
 including trade secrets, belonging to Gaussian, Inc.
  
 This software is provided under written license and may be
 used, copied, transmitted, or stored only in accord with that
 written license.
  
 The following legend is applicable only to US Government
 contracts under FAR:
  
                    RESTRICTED RIGHTS LEGEND
  
 Use, reproduction and disclosure by the US Government is
 subject to restrictions as set forth in subparagraphs (a)
 and (c) of the Commercial Computer Software - Restricted
 Rights clause in FAR 52.227-19.
  
 Gaussian, Inc.
 340 Quinnipiac St., Bldg. 40, Wallingford CT 06492
  
  
 ---------------------------------------------------------------
 Warning -- This program may not be used in any manner that
 competes with the business of Gaussian, Inc. or will provide
 assistance to any competitor of Gaussian, Inc.  The licensee
 of this program is prohibited from giving any competitor of
 Gaussian, Inc. access to this program.  By using this program,
 the user acknowledges that Gaussian, Inc. is engaged in the
 business of creating and licensing software in the field of
 computational chemistry and represents and warrants to the
 licensee that it is not a competitor of Gaussian, Inc. and that
 it will not use this program in any manner prohibited above.
 ---------------------------------------------------------------
  

 Cite this work as:
 Gaussian 16, Revision B.01,
 M. J. Frisch, G. W. Trucks, H. B. Schlegel, G. E. Scuseria, 
 M. A. Robb, J. R. Cheeseman, G. Scalmani, V. Barone, 
 G. A. Petersson, H. Nakatsuji, X. Li, M. Caricato, A. V. Marenich, 
 J. Bloino, B. G. Janesko, R. Gomperts, B. Mennucci, H. P. Hratchian, 
 J. V. Ortiz, A. F. Izmaylov, J. L. Sonnenberg, D. Williams-Young, 
 F. Ding, F. Lipparini, F. Egidi, J. Goings, B. Peng, A. Petrone, 
 T. Henderson, D. Ranasinghe, V. G. Zakrzewski, J. Gao, N. Rega, 
 G. Zheng, W. Liang, M. Hada, M. Ehara, K. Toyota, R. Fukuda, 
 J. Hasegawa, M. Ishida, T. Nakajima, Y. Honda, O. Kitao, H. Nakai, 
 T. Vreven, K. Throssell, J. A. Montgomery, Jr., J. E. Peralta, 
 F. Ogliaro, M. J. Bearpark, J. J. Heyd, E. N. Brothers, K. N. Kudin, 
 V. N. Staroverov, T. A. Keith, R. Kobayashi, J. Normand, 
 K. Raghavachari, A. P. Rendell, J. C. Burant, S. S. Iyengar, 
 J. Tomasi, M. Cossi, J. M. Millam, M. Klene, C. Adamo, R. Cammi, 
 J. W. Ochterski, R. L. Martin, K. Morokuma, O. Farkas, 
 J. B. Foresman, and D. J. Fox, Gaussian, Inc., Wallingford CT, 2016.
 
 ******************************************
 Gaussian 16:  EM64L-G16RevB.01 20-Dec-2017
                13-Apr-2022 
 ******************************************
 %mem=48GB
 %nprocshared=16
 Will use up to   16 processors via shared memory.
 --------------------------------
 # opt b3lyp/6-311+g(d,p) scf=xqc
 --------------------------------
 1/18=20,19=15,26=3,38=1/1,3;
 2/9=110,12=2,17=6,18=5,40=1/2;
 3/5=4,6=6,7=111,11=2,25=1,30=1,71=1,74=-5/1,2,3;
 4//1;
 5/5=2,8=3,13=1,38=5/2,8;
 6/7=2,8=2,9=2,10=2,28=1/1;
 7//1,2,3,16;
 1/18=20,19=15,26=3/3(2);
 2/9=110/2;
 99//99;
 2/9=110/2;
 3/5=4,6=6,7=111,11=2,25=1,30=1,71=1,74=-5/1,2,3;
 4/5=5,16=3,69=1/1;
 5/5=2,8=3,13=1,38=5/2,8;
 7//1,2,3,16;
 1/18=20,19=15,26=3/3(-5);
 2/9=110/2;
 6/7=2,8=2,9=2,10=2,19=2,28=1/1;
 99/9=1/99;
 -------------------
 Title Card Required
 -------------------
 Symbolic Z-matrix:
 Charge =  0 Multiplicity = 1
 C                     0.0696    0.22495  -0.00414 
 C                     1.40198   0.25484  -0.43748 
 C                     2.10988   1.46429  -0.44356 
 C                     1.48539   2.64386  -0.01628 
 C                     0.15301   2.61397   0.41706 
 C                    -0.55488   1.40452   0.42314 
 C                    -1.00825  -1.61658   0.00511 
 C                    -0.38376  -2.79614  -0.42217 
 C                    -1.09166  -4.0056   -0.41609 
 C                    -2.42404  -4.03548   0.01726 
 C                    -3.04852  -2.85592   0.44453 
 C                    -2.34063  -1.64647   0.43846 
 H                     1.87879  -0.64578  -0.76372 
 H                     2.02588   3.5673   -0.02092 
 H                    -0.3238    3.5146    0.74329 
 H                    -0.61485  -4.90622  -0.74233 
 Cl                   -3.12491  -0.16507   0.97507 
 Cl                   -2.22821   1.36699   0.96737 
 Cl                   -4.72184  -2.89345   0.98878 
 Cl                   -3.31307  -5.55442   0.02489 
 Cl                    3.7832    1.50182  -0.98779 
 Cl                    1.28956  -2.75861  -0.9664 
 

 GradGradGradGradGradGradGradGradGradGradGradGradGradGradGradGradGradGrad
 Berny optimization.
 Initialization pass.
                           ----------------------------
                           !    Initial Parameters    !
                           ! (Angstroms and Degrees)  !
 --------------------------                            --------------------------
 ! Name  Definition              Value          Derivative Info.                !
 --------------------------------------------------------------------------------
 ! R1    R(1,2)                  1.4014         estimate D2E/DX2                !
 ! R2    R(1,6)                  1.4014         estimate D2E/DX2                !
 ! R3    R(2,3)                  1.4014         estimate D2E/DX2                !
 ! R4    R(2,13)                 1.07           estimate D2E/DX2                !
 ! R5    R(3,4)                  1.4014         estimate D2E/DX2                !
 ! R6    R(3,21)                 1.76           estimate D2E/DX2                !
 ! R7    R(4,5)                  1.4014         estimate D2E/DX2                !
 ! R8    R(4,14)                 1.07           estimate D2E/DX2                !
 ! R9    R(5,6)                  1.4014         estimate D2E/DX2                !
 ! R10   R(5,15)                 1.07           estimate D2E/DX2                !
 ! R11   R(6,18)                 1.76           estimate D2E/DX2                !
 ! R12   R(7,8)                  1.4014         estimate D2E/DX2                !
 ! R13   R(7,12)                 1.4014         estimate D2E/DX2                !
 ! R14   R(8,9)                  1.4014         estimate D2E/DX2                !
 ! R15   R(8,22)                 1.76           estimate D2E/DX2                !
 ! R16   R(9,10)                 1.4014         estimate D2E/DX2                !
 ! R17   R(9,16)                 1.07           estimate D2E/DX2                !
 ! R18   R(10,11)                1.4014         estimate D2E/DX2                !
 ! R19   R(10,20)                1.76           estimate D2E/DX2                !
 ! R20   R(11,12)                1.4014         estimate D2E/DX2                !
 ! R21   R(11,19)                1.76           estimate D2E/DX2                !
 ! R22   R(12,17)                1.76           estimate D2E/DX2                !
 ! R23   R(17,18)                1.7752         estimate D2E/DX2                !
 ! A1    A(2,1,6)              120.0            estimate D2E/DX2                !
 ! A2    A(1,2,3)              120.0            estimate D2E/DX2                !
 ! A3    A(1,2,13)             120.0            estimate D2E/DX2                !
 ! A4    A(3,2,13)             120.0            estimate D2E/DX2                !
 ! A5    A(2,3,4)              120.0            estimate D2E/DX2                !
 ! A6    A(2,3,21)             120.0            estimate D2E/DX2                !
 ! A7    A(4,3,21)             120.0            estimate D2E/DX2                !
 ! A8    A(3,4,5)              120.0            estimate D2E/DX2                !
 ! A9    A(3,4,14)             120.0            estimate D2E/DX2                !
 ! A10   A(5,4,14)             120.0            estimate D2E/DX2                !
 ! A11   A(4,5,6)              120.0            estimate D2E/DX2                !
 ! A12   A(4,5,15)             120.0            estimate D2E/DX2                !
 ! A13   A(6,5,15)             120.0            estimate D2E/DX2                !
 ! A14   A(1,6,5)              120.0            estimate D2E/DX2                !
 ! A15   A(1,6,18)             120.0            estimate D2E/DX2                !
 ! A16   A(5,6,18)             120.0            estimate D2E/DX2                !
 ! A17   A(8,7,12)             120.0            estimate D2E/DX2                !
 ! A18   A(7,8,9)              120.0            estimate D2E/DX2                !
 ! A19   A(7,8,22)             120.0            estimate D2E/DX2                !
 ! A20   A(9,8,22)             120.0            estimate D2E/DX2                !
 ! A21   A(8,9,10)             120.0            estimate D2E/DX2                !
 ! A22   A(8,9,16)             120.0            estimate D2E/DX2                !
 ! A23   A(10,9,16)            120.0            estimate D2E/DX2                !
 ! A24   A(9,10,11)            120.0            estimate D2E/DX2                !
 ! A25   A(9,10,20)            120.0            estimate D2E/DX2                !
 ! A26   A(11,10,20)           120.0            estimate D2E/DX2                !
 ! A27   A(10,11,12)           120.0            estimate D2E/DX2                !
 ! A28   A(10,11,19)           120.0            estimate D2E/DX2                !
 ! A29   A(12,11,19)           120.0            estimate D2E/DX2                !
 ! A30   A(7,12,11)            120.0            estimate D2E/DX2                !
 ! A31   A(7,12,17)            120.0            estimate D2E/DX2                !
 ! A32   A(11,12,17)           120.0            estimate D2E/DX2                !
 ! A33   A(12,17,18)           120.0            estimate D2E/DX2                !
 ! A34   A(6,18,17)            120.0            estimate D2E/DX2                !
 ! D1    D(6,1,2,3)              0.0001         estimate D2E/DX2                !
 ! D2    D(6,1,2,13)           180.0            estimate D2E/DX2                !
 ! D3    D(2,1,6,5)             -0.0001         estimate D2E/DX2                !
 ! D4    D(2,1,6,18)           180.0            estimate D2E/DX2                !
 ! D5    D(1,2,3,4)              0.0            estimate D2E/DX2                !
 ! D6    D(1,2,3,21)           180.0            estimate D2E/DX2                !
 ! D7    D(13,2,3,4)          -179.9999         estimate D2E/DX2                !
 ! D8    D(13,2,3,21)            0.0001         estimate D2E/DX2                !
 ! D9    D(2,3,4,5)             -0.0001         estimate D2E/DX2                !
 ! D10   D(2,3,4,14)           180.0            estimate D2E/DX2                !
 ! D11   D(21,3,4,5)           179.9999         estimate D2E/DX2                !
 ! D12   D(21,3,4,14)            0.0            estimate D2E/DX2                !
 ! D13   D(3,4,5,6)              0.0001         estimate D2E/DX2                !
 ! D14   D(3,4,5,15)          -179.9999         estimate D2E/DX2                !
 ! D15   D(14,4,5,6)          -180.0            estimate D2E/DX2                !
 ! D16   D(14,4,5,15)            0.0            estimate D2E/DX2                !
 ! D17   D(4,5,6,1)              0.0            estimate D2E/DX2                !
 ! D18   D(4,5,6,18)           179.9999         estimate D2E/DX2                !
 ! D19   D(15,5,6,1)           180.0            estimate D2E/DX2                !
 ! D20   D(15,5,6,18)           -0.0001         estimate D2E/DX2                !
 ! D21   D(1,6,18,17)            0.0004         estimate D2E/DX2                !
 ! D22   D(5,6,18,17)         -179.9996         estimate D2E/DX2                !
 ! D23   D(12,7,8,9)             0.0001         estimate D2E/DX2                !
 ! D24   D(12,7,8,22)         -179.9998         estimate D2E/DX2                !
 ! D25   D(8,7,12,11)           -0.0001         estimate D2E/DX2                !
 ! D26   D(8,7,12,17)          179.9999         estimate D2E/DX2                !
 ! D27   D(7,8,9,10)             0.0            estimate D2E/DX2                !
 ! D28   D(7,8,9,16)           180.0            estimate D2E/DX2                !
 ! D29   D(22,8,9,10)          179.9998         estimate D2E/DX2                !
 ! D30   D(22,8,9,16)           -0.0002         estimate D2E/DX2                !
 ! D31   D(8,9,10,11)            0.0            estimate D2E/DX2                !
 ! D32   D(8,9,10,20)         -179.9999         estimate D2E/DX2                !
 ! D33   D(16,9,10,11)         180.0            estimate D2E/DX2                !
 ! D34   D(16,9,10,20)           0.0001         estimate D2E/DX2                !
 ! D35   D(9,10,11,12)           0.0            estimate D2E/DX2                !
 ! D36   D(9,10,11,19)        -179.9998         estimate D2E/DX2                !
 ! D37   D(20,10,11,12)        179.9999         estimate D2E/DX2                !
 ! D38   D(20,10,11,19)          0.0001         estimate D2E/DX2                !
 ! D39   D(10,11,12,7)           0.0            estimate D2E/DX2                !
 ! D40   D(10,11,12,17)       -179.9999         estimate D2E/DX2                !
 ! D41   D(19,11,12,7)         179.9999         estimate D2E/DX2                !
 ! D42   D(19,11,12,17)         -0.0001         estimate D2E/DX2                !
 ! D43   D(7,12,17,18)           0.0004         estimate D2E/DX2                !
 ! D44   D(11,12,17,18)       -179.9997         estimate D2E/DX2                !
 ! D45   D(12,17,18,6)          -0.0006         estimate D2E/DX2                !
 --------------------------------------------------------------------------------
 Trust Radius=3.00D-01 FncErr=1.00D-07 GrdErr=1.00D-06 EigMax=2.50D+02 EigMin=1.00D-04
 Number of steps in this run=    112 maximum allowed number of steps=    132.
 GradGradGradGradGradGradGradGradGradGradGradGradGradGradGradGradGradGrad

                          Input orientation:                          
 ---------------------------------------------------------------------
 Center     Atomic      Atomic             Coordinates (Angstroms)
 Number     Number       Type             X           Y           Z
 ---------------------------------------------------------------------
      1          6           0        0.069603    0.224955   -0.004138
      2          6           0        1.401984    0.254841   -0.437484
      3          6           0        2.109878    1.464292   -0.443557
      4          6           0        1.485391    2.643857   -0.016282
      5          6           0        0.153009    2.613971    0.417063
      6          6           0       -0.554885    1.404520    0.423135
      7          6           0       -1.008250   -1.616580    0.005109
      8          6           0       -0.383762   -2.796145   -0.422165
      9          6           0       -1.091655   -4.005596   -0.416091
     10          6           0       -2.424035   -4.035483    0.017259
     11          6           0       -3.048522   -2.855918    0.444534
     12          6           0       -2.340630   -1.646466    0.438460
     13          1           0        1.878795   -0.645784   -0.763716
     14          1           0        2.025883    3.567299   -0.020918
     15          1           0       -0.323802    3.514596    0.743294
     16          1           0       -0.614845   -4.906220   -0.742325
     17         17           0       -3.124914   -0.165067    0.975071
     18         17           0       -2.228205    1.366987    0.967369
     19         17           0       -4.721840   -2.893453    0.988777
     20         17           0       -3.313068   -5.554417    0.024890
     21         17           0        3.783198    1.501825   -0.987790
     22         17           0        1.289558   -2.758612   -0.966400
 ---------------------------------------------------------------------
                    Distance matrix (angstroms):
                    1          2          3          4          5
     1  C    0.000000
     2  C    1.401400   0.000000
     3  C    2.427296   1.401400   0.000000
     4  C    2.802800   2.427296   1.401400   0.000000
     5  C    2.427296   2.802800   2.427296   1.401400   0.000000
     6  C    1.401400   2.427296   2.802800   2.427296   1.401400
     7  C    2.133800   3.083396   4.406335   4.936600   4.406335
     8  C    3.083396   3.535200   4.936600   5.766463   5.501071
     9  C    4.406335   4.936600   6.338000   7.142565   6.786900
    10  C    4.936600   5.766463   7.142565   7.739400   7.142565
    11  C    4.406335   5.501071   6.786900   7.142565   6.338000
    12  C    3.083396   4.288287   5.501071   5.766463   4.936600
    13  H    2.146700   1.070000   2.146700   3.396345   3.872800
    14  H    3.872800   3.396345   2.146700   1.070000   2.146700
    15  H    3.396345   3.872800   3.396345   2.146700   1.070000
    16  H    5.228991   5.549512   6.935186   7.870311   7.647684
    17  Cl   3.363913   4.760719   5.663070   5.488874   4.333498
    18  Cl   2.743718   4.048303   4.562800   4.048303   2.743718
    19  Cl   5.802437   7.031870   8.228845   8.378642   7.377176
    20  Cl   6.696600   7.496198   8.882008   9.499400   8.882008
    21  Cl   4.048303   2.743718   1.760000   2.743718   4.048303
    22  Cl   3.363913   3.061582   4.333498   5.488874   5.663070
                    6          7          8          9         10
     6  C    0.000000
     7  C    3.083396   0.000000
     8  C    4.288287   1.401400   0.000000
     9  C    5.501071   2.427296   1.401400   0.000000
    10  C    5.766463   2.802800   2.427296   1.401400   0.000000
    11  C    4.936600   2.427296   2.802800   2.427296   1.401400
    12  C    3.535200   1.401400   2.427296   2.802800   2.427296
    13  H    3.396345   3.141427   3.140044   4.498084   5.533022
    14  H    3.396345   6.006600   6.816217   8.199022   8.809400
    15  H    2.146700   5.228991   6.417736   7.647684   7.870311
    16  H    6.417736   3.396345   2.146700   1.070000   2.146700
    17  Cl   3.061582   2.743718   4.048303   4.562800   4.048303
    18  Cl   1.760000   3.363913   4.760719   5.663070   5.488874
    19  Cl   6.012989   4.048303   4.562800   4.048303   2.743718
    20  Cl   7.496198   4.562800   4.048303   2.743718   1.760000
    21  Cl   4.562800   5.802437   6.012989   7.377176   8.378642
    22  Cl   4.760719   2.743718   1.760000   2.743718   4.048303
                   11         12         13         14         15
    11  C    0.000000
    12  C    1.401400   0.000000
    13  H    5.533807   4.500015   0.000000
    14  H    8.199022   6.816217   4.280590   0.000000
    15  H    6.935186   5.549512   4.942800   2.471400   0.000000
    16  H    3.396345   3.872800   4.936600   8.904741   8.555812
    17  Cl   2.743718   1.760000   5.318983   6.438421   4.630320
    18  Cl   4.333498   3.061582   4.890332   4.890332   2.879094
    19  Cl   1.760000   2.743718   7.189689   9.396412   7.775994
    20  Cl   2.743718   4.048303   7.188326  10.569400   9.575950
    21  Cl   8.228845   7.031870   2.879094   2.879094   4.890332
    22  Cl   4.562800   4.048303   2.202799   6.438421   6.699188
                   16         17         18         19         20
    16  H    0.000000
    17  Cl   5.632800   0.000000
    18  Cl   6.699188   1.775200   0.000000
    19  Cl   4.890332   3.161400   4.936600   0.000000
    20  Cl   2.879094   5.475705   7.069020   3.161400   0.000000
    21  Cl   7.775994   7.372474   6.322800   9.775528  10.058483
    22  Cl   2.879094   5.475705   5.756274   6.322800   5.475705
                   21         22
    21  Cl   0.000000
    22  Cl   4.936600   0.000000
 Stoichiometry    C12H4Cl6
 Framework group  C1[X(C12H4Cl6)]
 Deg. of freedom    60
 Full point group                 C1      NOp   1
 Largest Abelian subgroup         C1      NOp   1
 Largest concise Abelian subgroup C1      NOp   1
                         Standard orientation:                         
 ---------------------------------------------------------------------
 Center     Atomic      Atomic             Coordinates (Angstroms)
 Number     Number       Type             X           Y           Z
 ---------------------------------------------------------------------
      1          6           0       -1.658197    0.224765    0.000002
      2          6           0       -2.671238   -0.743569    0.000000
      3          6           0       -4.016360   -0.350417   -0.000002
      4          6           0       -4.348441    1.011069   -0.000002
      5          6           0       -3.335401    1.979403    0.000001
      6          6           0       -1.990279    1.586251    0.000003
      7          6           0        0.389913   -0.373857    0.000003
      8          6           0        0.721994   -1.735343    0.000004
      9          6           0        2.067116   -2.128495    0.000004
     10          6           0        3.080157   -1.160161    0.000002
     11          6           0        2.748076    0.201325    0.000001
     12          6           0        1.402953    0.594477    0.000001
     13          1           0       -2.417687   -1.783094   -0.000001
     14          1           0       -5.375472    1.311250   -0.000004
     15          1           0       -3.588952    3.018928    0.000003
     16          1           0        2.320667   -3.168020    0.000005
     17         17           0        0.985897    2.304350   -0.000003
     18         17           0       -0.718014    2.802368    0.000006
     19         17           0        4.020340    1.417443   -0.000006
     20         17           0        4.769478   -1.653916   -0.000001
     21         17           0       -5.288625   -1.566534   -0.000005
     22         17           0       -0.550271   -2.951460    0.000002
 ---------------------------------------------------------------------
 Rotational constants (GHZ):           0.4037315           0.1459661           0.1072064
 Standard basis: 6-311+G(d,p) (5D, 7F)
 There are   486 symmetry adapted cartesian basis functions of A   symmetry.
 There are   468 symmetry adapted basis functions of A   symmetry.
   468 basis functions,   782 primitive gaussians,   486 cartesian basis functions
    89 alpha electrons       89 beta electrons
       nuclear repulsion energy      2028.4268358473 Hartrees.
 NAtoms=   22 NActive=   22 NUniq=   22 SFac= 1.00D+00 NAtFMM=   60 NAOKFM=F Big=F
 Integral buffers will be    131072 words long.
 Raffenetti 2 integral format.
 Two-electron integral symmetry is turned on.
 One-electron integrals computed using PRISM.
 NBasis=   468 RedAO= T EigKep=  1.34D-06  NBF=   468
 NBsUse=   462 1.00D-06 EigRej=  8.76D-07 NBFU=   462
 ExpMin= 4.38D-02 ExpMax= 1.06D+05 ExpMxC= 3.62D+03 IAcc=3 IRadAn=         5 AccDes= 0.00D+00
 Harris functional with IExCor=  402 and IRadAn=       5 diagonalized for initial guess.
 HarFok:  IExCor=  402 AccDes= 0.00D+00 IRadAn=         5 IDoV= 1 UseB2=F ITyADJ=14
 ICtDFT=  3500011 ScaDFX=  1.000000  1.000000  1.000000  1.000000
 FoFCou: FMM=F IPFlag=           0 FMFlag=      100000 FMFlg1=           0
         NFxFlg=           0 DoJE=T BraDBF=F KetDBF=T FulRan=T
         wScrn=  0.000000 ICntrl=       500 IOpCl=  0 I1Cent=   200000004 NGrid=           0
         NMat0=    1 NMatS0=      1 NMatT0=    0 NMatD0=    1 NMtDS0=    0 NMtDT0=    0
 Petite list used in FoFCou.
 Requested convergence on RMS density matrix=1.00D-08 within  32 cycles.
 Requested convergence on MAX density matrix=1.00D-06.
 Requested convergence on             energy=1.00D-06.
 No special actions if energy rises.
 EnCoef did     2 forward-backward iterations
 EnCoef did     5 forward-backward iterations
 Restarting incremental Fock formation.
 SCF Done:  E(RB3LYP) =  -3220.66328659     A.U. after   24 cycles
            NFock= 24  Conv=0.30D-08     -V/T= 2.0022
 QCSCF skips out because SCF is already converged.

 **********************************************************************

            Population analysis using the SCF Density.

 **********************************************************************

 Orbital symmetries:
       Occupied  (A) (A) (A) (A) (A) (A) (A) (A) (A) (A) (A) (A)
                 (A) (A) (A) (A) (A) (A) (A) (A) (A) (A) (A) (A)
                 (A) (A) (A) (A) (A) (A) (A) (A) (A) (A) (A) (A)
                 (A) (A) (A) (A) (A) (A) (A) (A) (A) (A) (A) (A)
                 (A) (A) (A) (A) (A) (A) (A) (A) (A) (A) (A) (A)
                 (A) (A) (A) (A) (A) (A) (A) (A) (A) (A) (A) (A)
                 (A) (A) (A) (A) (A) (A) (A) (A) (A) (A) (A) (A)
                 (A) (A) (A) (A) (A)
       Virtual   (A) (A) (A) (A) (A) (A) (A) (A) (A) (A) (A) (A)
                 (A) (A) (A) (A) (A) (A) (A) (A) (A) (A) (A) (A)
                 (A) (A) (A) (A) (A) (A) (A) (A) (A) (A) (A) (A)
                 (A) (A) (A) (A) (A) (A) (A) (A) (A) (A) (A) (A)
                 (A) (A) (A) (A) (A) (A) (A) (A) (A) (A) (A) (A)
                 (A) (A) (A) (A) (A) (A) (A) (A) (A) (A) (A) (A)
                 (A) (A) (A) (A) (A) (A) (A) (A) (A) (A) (A) (A)
                 (A) (A) (A) (A) (A) (A) (A) (A) (A) (A) (A) (A)
                 (A) (A) (A) (A) (A) (A) (A) (A) (A) (A) (A) (A)
                 (A) (A) (A) (A) (A) (A) (A) (A) (A) (A) (A) (A)
                 (A) (A) (A) (A) (A) (A) (A) (A) (A) (A) (A) (A)
                 (A) (A) (A) (A) (A) (A) (A) (A) (A) (A) (A) (A)
                 (A) (A) (A) (A) (A) (A) (A) (A) (A) (A) (A) (A)
                 (A) (A) (A) (A) (A) (A) (A) (A) (A) (A) (A) (A)
                 (A) (A) (A) (A) (A) (A) (A) (A) (A) (A) (A) (A)
                 (A) (A) (A) (A) (A) (A) (A) (A) (A) (A) (A) (A)
                 (A) (A) (A) (A) (A) (A) (A) (A) (A) (A) (A) (A)
                 (A) (A) (A) (A) (A) (A) (A) (A) (A) (A) (A) (A)
                 (A) (A) (A) (A) (A) (A) (A) (A) (A) (A) (A) (A)
                 (A) (A) (A) (A) (A) (A) (A) (A) (A) (A) (A) (A)
                 (A) (A) (A) (A) (A) (A) (A) (A) (A) (A) (A) (A)
                 (A) (A) (A) (A) (A) (A) (A) (A) (A) (A) (A) (A)
                 (A) (A) (A) (A) (A) (A) (A) (A) (A) (A) (A) (A)
                 (A) (A) (A) (A) (A) (A) (A) (A) (A) (A) (A) (A)
                 (A) (A) (A) (A) (A) (A) (A) (A) (A) (A) (A) (A)
                 (A) (A) (A) (A) (A) (A) (A) (A) (A) (A) (A) (A)
                 (A) (A) (A) (A) (A) (A) (A) (A) (A) (A) (A) (A)
                 (A) (A) (A) (A) (A) (A) (A) (A) (A) (A) (A) (A)
                 (A) (A) (A) (A) (A) (A) (A) (A) (A) (A) (A) (A)
                 (A) (A) (A) (A) (A) (A) (A) (A) (A) (A) (A) (A)
                 (A) (A) (A) (A) (A) (A) (A) (A) (A) (A) (A) (A)
                 (A)
 The electronic state is 1-A.
 Alpha  occ. eigenvalues -- -101.60178-101.59971-101.57558-101.57100-101.57072
 Alpha  occ. eigenvalues -- -101.56816 -10.27578 -10.27499 -10.27333 -10.27283
 Alpha  occ. eigenvalues --  -10.26747 -10.26408 -10.24690 -10.24437 -10.22264
 Alpha  occ. eigenvalues --  -10.22215 -10.21315 -10.21070  -9.52612  -9.52441
 Alpha  occ. eigenvalues --   -9.49071  -9.48529  -9.48509  -9.48293  -7.29119
 Alpha  occ. eigenvalues --   -7.29066  -7.28084  -7.27787  -7.27730  -7.27482
 Alpha  occ. eigenvalues --   -7.25534  -7.25003  -7.24998  -7.24775  -7.24542
 Alpha  occ. eigenvalues --   -7.24509  -7.24009  -7.23990  -7.23972  -7.23930
 Alpha  occ. eigenvalues --   -7.23779  -7.23705  -1.05416  -0.94160  -0.91797
 Alpha  occ. eigenvalues --   -0.90153  -0.88674  -0.86980  -0.84974  -0.82946
 Alpha  occ. eigenvalues --   -0.78457  -0.77715  -0.74297  -0.74131  -0.66589
 Alpha  occ. eigenvalues --   -0.64962  -0.62121  -0.60953  -0.58195  -0.54117
 Alpha  occ. eigenvalues --   -0.52338  -0.51486  -0.50688  -0.48733  -0.48518
 Alpha  occ. eigenvalues --   -0.47667  -0.46806  -0.45232  -0.44535  -0.44350
 Alpha  occ. eigenvalues --   -0.42991  -0.42196  -0.41530  -0.40180  -0.39198
 Alpha  occ. eigenvalues --   -0.37635  -0.36014  -0.35203  -0.34317  -0.34108
 Alpha  occ. eigenvalues --   -0.33401  -0.32787  -0.32100  -0.31714  -0.29394
 Alpha  occ. eigenvalues --   -0.28086  -0.26429  -0.25702  -0.14816
 Alpha virt. eigenvalues --   -0.07902  -0.06960  -0.06565  -0.05644  -0.04942
 Alpha virt. eigenvalues --   -0.03309  -0.01509  -0.00782  -0.00299   0.00468
 Alpha virt. eigenvalues --    0.00758   0.01235   0.02470   0.03112   0.03451
 Alpha virt. eigenvalues --    0.03973   0.04174   0.05012   0.05442   0.05642
 Alpha virt. eigenvalues --    0.05653   0.06494   0.07095   0.07354   0.07449
 Alpha virt. eigenvalues --    0.07758   0.07920   0.08713   0.09511   0.09517
 Alpha virt. eigenvalues --    0.10220   0.10457   0.10738   0.10738   0.10940
 Alpha virt. eigenvalues --    0.11101   0.11643   0.12654   0.13086   0.13208
 Alpha virt. eigenvalues --    0.13613   0.13807   0.14292   0.14450   0.14728
 Alpha virt. eigenvalues --    0.15069   0.15469   0.15956   0.16317   0.16517
 Alpha virt. eigenvalues --    0.17350   0.17413   0.17962   0.18468   0.18517
 Alpha virt. eigenvalues --    0.19325   0.19707   0.19812   0.19923   0.20397
 Alpha virt. eigenvalues --    0.21331   0.21622   0.21893   0.22194   0.22295
 Alpha virt. eigenvalues --    0.23070   0.23293   0.23660   0.23852   0.24090
 Alpha virt. eigenvalues --    0.24990   0.25531   0.25961   0.26554   0.26648
 Alpha virt. eigenvalues --    0.26867   0.27619   0.28150   0.28430   0.28582
 Alpha virt. eigenvalues --    0.29203   0.30106   0.30544   0.31543   0.32005
 Alpha virt. eigenvalues --    0.33335   0.33707   0.34452   0.35093   0.35977
 Alpha virt. eigenvalues --    0.38703   0.39734   0.41233   0.41638   0.42310
 Alpha virt. eigenvalues --    0.43002   0.43330   0.43702   0.43734   0.43926
 Alpha virt. eigenvalues --    0.44338   0.45629   0.46016   0.46465   0.46820
 Alpha virt. eigenvalues --    0.46940   0.48123   0.48442   0.49320   0.49763
 Alpha virt. eigenvalues --    0.50596   0.51107   0.51862   0.52926   0.53649
 Alpha virt. eigenvalues --    0.53770   0.54487   0.54851   0.56408   0.56760
 Alpha virt. eigenvalues --    0.57526   0.58076   0.58220   0.59607   0.59714
 Alpha virt. eigenvalues --    0.59998   0.60518   0.60725   0.61882   0.62559
 Alpha virt. eigenvalues --    0.63105   0.63955   0.64600   0.66006   0.66508
 Alpha virt. eigenvalues --    0.66816   0.68325   0.69106   0.70027   0.70428
 Alpha virt. eigenvalues --    0.74740   0.75433   0.76764   0.78481   0.78896
 Alpha virt. eigenvalues --    0.80346   0.80997   0.81590   0.82297   0.83057
 Alpha virt. eigenvalues --    0.83537   0.83724   0.84239   0.84421   0.84720
 Alpha virt. eigenvalues --    0.84965   0.85027   0.85417   0.85498   0.85784
 Alpha virt. eigenvalues --    0.86274   0.86884   0.87450   0.88054   0.88745
 Alpha virt. eigenvalues --    0.89128   0.90369   0.91363   0.91817   0.92845
 Alpha virt. eigenvalues --    0.93976   0.94117   0.94666   0.95002   0.95132
 Alpha virt. eigenvalues --    0.95825   0.95879   0.96070   0.96726   0.97753
 Alpha virt. eigenvalues --    0.98671   0.98970   1.01211   1.01441   1.02836
 Alpha virt. eigenvalues --    1.03516   1.04500   1.06399   1.07350   1.09554
 Alpha virt. eigenvalues --    1.11182   1.12490   1.13722   1.17367   1.18116
 Alpha virt. eigenvalues --    1.19928   1.20603   1.22315   1.23171   1.23223
 Alpha virt. eigenvalues --    1.25809   1.26000   1.26682   1.26971   1.27131
 Alpha virt. eigenvalues --    1.28724   1.28799   1.29284   1.29843   1.30266
 Alpha virt. eigenvalues --    1.33960   1.40042   1.44486   1.47753   1.48622
 Alpha virt. eigenvalues --    1.49395   1.50562   1.51944   1.54809   1.55161
 Alpha virt. eigenvalues --    1.56889   1.58647   1.59495   1.60741   1.63641
 Alpha virt. eigenvalues --    1.65996   1.68643   1.68768   1.69894   1.73113
 Alpha virt. eigenvalues --    1.74548   1.76077   1.78376   1.80961   1.83700
 Alpha virt. eigenvalues --    1.83976   1.85887   1.85926   1.86239   1.86667
 Alpha virt. eigenvalues --    1.88048   1.88893   1.90618   1.93941   1.95581
 Alpha virt. eigenvalues --    1.97193   2.00342   2.02244   2.03738   2.04320
 Alpha virt. eigenvalues --    2.05084   2.07609   2.12845   2.13618   2.19239
 Alpha virt. eigenvalues --    2.19594   2.21242   2.22917   2.23643   2.26001
 Alpha virt. eigenvalues --    2.26865   2.27104   2.27148   2.28314   2.29358
 Alpha virt. eigenvalues --    2.29859   2.30925   2.32310   2.34991   2.39816
 Alpha virt. eigenvalues --    2.40632   2.42421   2.42722   2.43516   2.46140
 Alpha virt. eigenvalues --    2.49048   2.52297   2.54164   2.55913   2.56089
 Alpha virt. eigenvalues --    2.57434   2.58792   2.59649   2.60666   2.61627
 Alpha virt. eigenvalues --    2.62465   2.63931   2.68419   2.69391   2.71515
 Alpha virt. eigenvalues --    2.72868   2.73406   2.74244   2.74723   2.75261
 Alpha virt. eigenvalues --    2.76580   2.77025   2.77342   2.80228   2.84266
 Alpha virt. eigenvalues --    2.85762   2.86180   2.87349   2.94869   3.04185
 Alpha virt. eigenvalues --    3.06296   3.07160   3.09286   3.10209   3.14161
 Alpha virt. eigenvalues --    3.15841   3.21331   3.23477   3.27298   3.28768
 Alpha virt. eigenvalues --    3.31605   3.36855   3.40258   3.49077   3.53077
 Alpha virt. eigenvalues --    3.63285   3.66451   3.74860   3.79076   3.85735
 Alpha virt. eigenvalues --    3.92026   4.02631   4.07056   4.14706   4.79802
 Alpha virt. eigenvalues --    4.80034   9.71927   9.76602   9.78254   9.80973
 Alpha virt. eigenvalues --    9.82485   9.92849  23.29062  23.43149  23.78499
 Alpha virt. eigenvalues --   23.81787  23.83157  23.90309  23.93562  23.95860
 Alpha virt. eigenvalues --   23.97544  24.03274  24.04658  24.10200  25.74845
 Alpha virt. eigenvalues --   25.78492  25.81156  25.83259  25.86053  25.98906
 Alpha virt. eigenvalues --   26.09400  26.12307  26.14346  26.23933  26.34828
 Alpha virt. eigenvalues --   26.48070  26.59655  26.60973  26.70043  26.83603
 Alpha virt. eigenvalues --   26.98352  27.15533 215.71705 215.75728 215.78809
 Alpha virt. eigenvalues --  215.81637 215.82839 215.97975
          Condensed to atoms (all electrons):
               1          2          3          4          5          6
     1  C   22.495148  -0.163021  -3.870927   1.756399  -3.731603  -1.279084
     2  C   -0.163021  15.186326  -0.678400  -4.357221  -1.892918  -3.541017
     3  C   -3.870927  -0.678400  19.222329  -7.017141  -1.084302   2.484161
     4  C    1.756399  -4.357221  -7.017141  21.297703  -0.386766  -3.692333
     5  C   -3.731603  -1.892918  -1.084302  -0.386766  16.013465  -2.506805
     6  C   -1.279084  -3.541017   2.484161  -3.692333  -2.506805  21.845316
     7  C    5.538828  -0.002355  -2.704303   1.069311  -1.191838  -3.039225
     8  C   -3.941713   2.805151  -1.081920   0.169755  -0.045906  -2.335654
     9  C   -2.355190   0.095034   0.486470   0.243369  -0.003387  -0.026896
    10  C    0.741464  -0.210694  -0.001392   0.003238  -0.107715  -0.705813
    11  C   -3.537397   0.374448  -0.503555   0.024319   0.031078   0.167914
    12  C   -1.454069  -1.115905   0.066612  -0.409311   0.498611  -1.662110
    13  H    0.060640   0.203015  -0.093170   0.065633  -0.003738   0.049874
    14  H    0.008408   0.052145   0.094520   0.249490  -0.060414  -0.006358
    15  H   -0.006838  -0.018386  -0.007305  -0.078360   0.400562  -0.028906
    16  H    0.003154  -0.002858  -0.000732   0.000049   0.000295   0.001645
    17  Cl  -1.541873   0.979555  -0.592101   1.553256  -0.658006   9.279986
    18  Cl  -1.899673  -0.956606   1.407805  -3.870127   0.875424  -8.229426
    19  Cl  -0.038224   0.005816  -0.000894  -0.007534  -0.029953  -0.133661
    20  Cl  -0.075555  -0.000778  -0.000885   0.001012  -0.000609   0.008076
    21  Cl  -0.479896   0.278826  -0.751977  -0.004635   0.157264   0.210477
    22  Cl   0.249089  -0.080145  -0.491915  -0.033731   0.057662  -0.106520
               7          8          9         10         11         12
     1  C    5.538828  -3.941713  -2.355190   0.741464  -3.537397  -1.454069
     2  C   -0.002355   2.805151   0.095034  -0.210694   0.374448  -1.115905
     3  C   -2.704303  -1.081920   0.486470  -0.001392  -0.503555   0.066612
     4  C    1.069311   0.169755   0.243369   0.003238   0.024319  -0.409311
     5  C   -1.191838  -0.045906  -0.003387  -0.107715   0.031078   0.498611
     6  C   -3.039225  -2.335654  -0.026896  -0.705813   0.167914  -1.662110
     7  C   23.442617  -6.023490  -5.254819   3.858080  -4.048978   1.672682
     8  C   -6.023490  28.967392   3.472200  -7.917574  -0.310521  -6.725079
     9  C   -5.254819   3.472200  18.148303  -2.014756  -6.997682  -0.587743
    10  C    3.858080  -7.917574  -2.014756  24.242018  -5.852164  -3.906538
    11  C   -4.048978  -0.310521  -6.997682  -5.852164  25.115638  -0.519373
    12  C    1.672682  -6.725079  -0.587743  -3.906538  -0.519373  26.468151
    13  H    0.064927  -0.049168   0.022367   0.008918  -0.002572   0.001675
    14  H    0.000882  -0.000148  -0.000091   0.000000   0.000093   0.001090
    15  H    0.002727  -0.000139  -0.000037   0.000091   0.000244   0.012015
    16  H    0.032318  -0.151484   0.253806   0.094840   0.019955   0.088378
    17  Cl  -7.984767  -1.214832   0.940313  -2.409967   4.995414 -15.141846
    18  Cl   2.187248   0.277829  -0.637790   1.043501  -1.470308   9.847122
    19  Cl  -0.634657   0.896449   0.996425   0.231763  -1.957662   0.425197
    20  Cl  -0.146105  -0.541774  -0.282858  -0.865101   0.952470   0.127449
    21  Cl  -0.149254  -0.011527  -0.003448  -0.000926  -0.005957  -0.018032
    22  Cl  -0.033893   0.037375  -0.098553  -0.621718   0.222408  -0.071352
              13         14         15         16         17         18
     1  C    0.060640   0.008408  -0.006838   0.003154  -1.541873  -1.899673
     2  C    0.203015   0.052145  -0.018386  -0.002858   0.979555  -0.956606
     3  C   -0.093170   0.094520  -0.007305  -0.000732  -0.592101   1.407805
     4  C    0.065633   0.249490  -0.078360   0.000049   1.553256  -3.870127
     5  C   -0.003738  -0.060414   0.400562   0.000295  -0.658006   0.875424
     6  C    0.049874  -0.006358  -0.028906   0.001645   9.279986  -8.229426
     7  C    0.064927   0.000882   0.002727   0.032318  -7.984767   2.187248
     8  C   -0.049168  -0.000148  -0.000139  -0.151484  -1.214832   0.277829
     9  C    0.022367  -0.000091  -0.000037   0.253806   0.940313  -0.637790
    10  C    0.008918   0.000000   0.000091   0.094840  -2.409967   1.043501
    11  C   -0.002572   0.000093   0.000244   0.019955   4.995414  -1.470308
    12  C    0.001675   0.001090   0.012015   0.088378 -15.141846   9.847122
    13  H    0.546134  -0.000426   0.000073   0.000018  -0.007540   0.012801
    14  H   -0.000426   0.505480  -0.006559  -0.000000  -0.001898   0.013326
    15  H    0.000073  -0.006559   0.512112  -0.000000  -0.031219   0.093993
    16  H    0.000018  -0.000000  -0.000000   0.499206   0.015003  -0.002267
    17  Cl  -0.007540  -0.001898  -0.031219   0.015003  59.099791 -30.506705
    18  Cl   0.012801   0.013326   0.093993  -0.002267 -30.506705  47.628179
    19  Cl   0.000030   0.000001   0.000022  -0.004816  -1.196108   0.062115
    20  Cl   0.000100  -0.000000  -0.000001   0.001754   0.208754  -0.034824
    21  Cl  -0.024652  -0.005701   0.000151   0.000005   0.009046  -0.032976
    22  Cl  -0.020361   0.000065   0.000000  -0.015034  -0.070390   0.024205
              19         20         21         22
     1  C   -0.038224  -0.075555  -0.479896   0.249089
     2  C    0.005816  -0.000778   0.278826  -0.080145
     3  C   -0.000894  -0.000885  -0.751977  -0.491915
     4  C   -0.007534   0.001012  -0.004635  -0.033731
     5  C   -0.029953  -0.000609   0.157264   0.057662
     6  C   -0.133661   0.008076   0.210477  -0.106520
     7  C   -0.634657  -0.146105  -0.149254  -0.033893
     8  C    0.896449  -0.541774  -0.011527   0.037375
     9  C    0.996425  -0.282858  -0.003448  -0.098553
    10  C    0.231763  -0.865101  -0.000926  -0.621718
    11  C   -1.957662   0.952470  -0.005957   0.222408
    12  C    0.425197   0.127449  -0.018032  -0.071352
    13  H    0.000030   0.000100  -0.024652  -0.020361
    14  H    0.000001  -0.000000  -0.005701   0.000065
    15  H    0.000022  -0.000001   0.000151   0.000000
    16  H   -0.004816   0.001754   0.000005  -0.015034
    17  Cl  -1.196108   0.208754   0.009046  -0.070390
    18  Cl   0.062115  -0.034824  -0.032976   0.024205
    19  Cl  18.103437  -0.364090  -0.000042   0.012027
    20  Cl  -0.364090  17.540768  -0.000032  -0.028650
    21  Cl  -0.000042  -0.000032  17.440140  -0.017778
    22  Cl   0.012027  -0.028650  -0.017778  17.510045
 Mulliken charges:
               1
     1  C   -0.478065
     2  C   -0.960013
     3  C    1.119022
     4  C   -0.576376
     5  C   -0.330399
     6  C   -0.753640
     7  C   -0.655936
     8  C   -0.275222
     9  C   -0.395037
    10  C    0.390445
    11  C   -0.697811
    12  C   -1.597626
    13  H    0.165424
    14  H    0.156093
    15  H    0.155761
    16  H    0.166764
    17  Cl   1.276137
    18  Cl   1.167153
    19  Cl   0.634359
    20  Cl   0.500880
    21  Cl   0.410923
    22  Cl   0.577163
 Sum of Mulliken charges =  -0.00000
 Mulliken charges with hydrogens summed into heavy atoms:
               1
     1  C   -0.478065
     2  C   -0.794589
     3  C    1.119022
     4  C   -0.420283
     5  C   -0.174638
     6  C   -0.753640
     7  C   -0.655936
     8  C   -0.275222
     9  C   -0.228273
    10  C    0.390445
    11  C   -0.697811
    12  C   -1.597626
    17  Cl   1.276137
    18  Cl   1.167153
    19  Cl   0.634359
    20  Cl   0.500880
    21  Cl   0.410923
    22  Cl   0.577163
 Electronic spatial extent (au):  <R**2>=           8710.0458
 Charge=             -0.0000 electrons
 Dipole moment (field-independent basis, Debye):
    X=             -1.7379    Y=              1.4865    Z=              0.0000  Tot=              2.2869
 Quadrupole moment (field-independent basis, Debye-Ang):
   XX=           -150.4865   YY=           -138.6637   ZZ=           -147.6580
   XY=             -7.5045   XZ=              0.0000   YZ=             -0.0000
 Traceless Quadrupole moment (field-independent basis, Debye-Ang):
   XX=             -4.8838   YY=              6.9390   ZZ=             -2.0552
   XY=             -7.5045   XZ=              0.0000   YZ=             -0.0000
 Octapole moment (field-independent basis, Debye-Ang**2):
  XXX=            -31.2206  YYY=             10.7596  ZZZ=             -0.0001  XYY=              2.1473
  XXY=             29.9355  XXZ=             -0.0000  XZZ=             10.4431  YZZ=              3.4814
  YYZ=             -0.0001  XYZ=              0.0000
 Hexadecapole moment (field-independent basis, Debye-Ang**3):
 XXXX=          -8356.4776 YYYY=          -2964.2986 ZZZZ=           -172.6078 XXXY=           -109.0092
 XXXZ=             -0.0001 YYYX=             37.8605 YYYZ=             -0.0002 ZZZX=             -0.0001
 ZZZY=              0.0000 XXYY=          -1817.0029 XXZZ=          -1468.0607 YYZZ=           -547.5129
 XXYZ=             -0.0001 YYXZ=              0.0002 ZZXY=             22.4712
 N-N= 2.028426835847D+03 E-N=-1.168556608474D+04  KE= 3.213638152032D+03
 Calling FoFJK, ICntrl=      2127 FMM=F ISym2X=0 I1Cent= 0 IOpClX= 0 NMat=1 NMatS=1 NMatT=0.
 ***** Axes restored to original set *****
 -------------------------------------------------------------------
 Center     Atomic                   Forces (Hartrees/Bohr)
 Number     Number              X              Y              Z
 -------------------------------------------------------------------
      1        6          -0.019667609   -0.021981466    0.002351390
      2        6          -0.007482505    0.009610085    0.004270082
      3        6          -0.013522063    0.003796850    0.005168092
      4        6          -0.003463232   -0.012825044   -0.001267890
      5        6           0.007006026   -0.009651110   -0.004120577
      6        6           0.031137173   -0.005633325   -0.011316195
      7        6           0.005471743    0.031507760    0.004114698
      8        6          -0.016930469    0.012035963    0.007838469
      9        6          -0.003847578    0.008523497    0.002868346
     10        6           0.003570212    0.003730731   -0.000475546
     11        6           0.003175565    0.003998836   -0.000295153
     12        6           0.015042601   -0.067216238   -0.017579680
     13        1           0.002676865    0.002161284   -0.000476053
     14        1           0.003983937    0.008189586    0.000225545
     15        1          -0.002017756    0.007151483    0.002007898
     16        1           0.003536283   -0.007792930   -0.002628639
     17       17          -0.204997243   -0.352528390    0.001332325
     18       17           0.198139769    0.410267177    0.011770563
     19       17           0.000431350   -0.003638487   -0.000825521
     20       17           0.006149571   -0.000005383   -0.002027064
     21       17          -0.004371370   -0.000437276    0.001358055
     22       17          -0.004021270   -0.019263604   -0.002293146
 -------------------------------------------------------------------
 Cartesian Forces:  Max     0.410267177 RMS     0.076295919

 GradGradGradGradGradGradGradGradGradGradGradGradGradGradGradGradGradGrad
 Berny optimization.
 FormGI is forming the generalized inverse of G from B-inverse, IUseBI=4.
 Internal  Forces:  Max     0.434295535 RMS     0.045652757
 Search for a local minimum.
 Step number   1 out of a maximum of  112
 All quantities printed in internal units (Hartrees-Bohrs-Radians)
 Mixed Optimization -- RFO/linear search
 Second derivative matrix not updated -- first step.
 ITU=  0
     Eigenvalues ---    0.00238   0.00238   0.01655   0.01655   0.02070
     Eigenvalues ---    0.02070   0.02070   0.02070   0.02070   0.02070
     Eigenvalues ---    0.02070   0.02070   0.02070   0.02070   0.02070
     Eigenvalues ---    0.02070   0.02070   0.02070   0.02948   0.16000
     Eigenvalues ---    0.16000   0.16000   0.16000   0.22319   0.23430
     Eigenvalues ---    0.23485   0.24560   0.25000   0.25000   0.25000
     Eigenvalues ---    0.25000   0.25000   0.25000   0.25000   0.25000
     Eigenvalues ---    0.25000   0.25000   0.29539   0.29539   0.29539
     Eigenvalues ---    0.29539   0.29539   0.29539   0.37230   0.37230
     Eigenvalues ---    0.37230   0.37230   0.41511   0.41665   0.42020
     Eigenvalues ---    0.42170   0.45389   0.45389   0.45389   0.45389
     Eigenvalues ---    0.45389   0.45389   0.45389   0.45389   0.81410
 RFO step:  Lambda=-2.29624031D-01 EMin= 2.37799121D-03
 Linear search not attempted -- first point.
 Maximum step size (   0.300) exceeded in Quadratic search.
    -- Step size scaled by   0.574
 Iteration  1 RMS(Cart)=  0.21770164 RMS(Int)=  0.00697227
 Iteration  2 RMS(Cart)=  0.01349178 RMS(Int)=  0.00002878
 Iteration  3 RMS(Cart)=  0.00006368 RMS(Int)=  0.00001756
 Iteration  4 RMS(Cart)=  0.00000000 RMS(Int)=  0.00001756
 Variable       Old X    -DE/DX   Delta X   Delta X   Delta X     New X
                                 (Linear)    (Quad)   (Total)
    R1        2.64826  -0.00917   0.00000  -0.00769  -0.00768   2.64059
    R2        2.64826  -0.00438   0.00000  -0.00360  -0.00358   2.64468
    R3        2.64826  -0.00349   0.00000  -0.00300  -0.00300   2.64526
    R4        2.02201  -0.00048   0.00000  -0.00046  -0.00046   2.02155
    R5        2.64826  -0.01260   0.00000  -0.01065  -0.01067   2.63759
    R6        3.32592  -0.00459   0.00000  -0.00501  -0.00501   3.32091
    R7        2.64826  -0.01456   0.00000  -0.01223  -0.01224   2.63602
    R8        2.02201   0.00908   0.00000   0.00865   0.00865   2.03066
    R9        2.64826  -0.00604   0.00000  -0.00500  -0.00500   2.64327
   R10        2.02201   0.00753   0.00000   0.00718   0.00718   2.02919
   R11        3.32592  -0.00530   0.00000  -0.00580  -0.00580   3.32012
   R12        2.64826   0.00510   0.00000   0.00456   0.00459   2.65285
   R13        2.64826   0.00221   0.00000   0.00235   0.00237   2.65064
   R14        2.64826  -0.00934   0.00000  -0.00806  -0.00806   2.64020
   R15        3.32592  -0.00352   0.00000  -0.00385  -0.00385   3.32207
   R16        2.64826  -0.01975   0.00000  -0.01707  -0.01710   2.63117
   R17        2.02201   0.00894   0.00000   0.00852   0.00852   2.03053
   R18        2.64826  -0.00891   0.00000  -0.00776  -0.00779   2.64047
   R19        3.32592  -0.00311   0.00000  -0.00340  -0.00340   3.32252
   R20        2.64826  -0.00140   0.00000  -0.00096  -0.00096   2.64730
   R21        3.32592  -0.00059   0.00000  -0.00064  -0.00064   3.32528
   R22        3.32592   0.04114   0.00000   0.04496   0.04496   3.37088
   R23        3.35464   0.43430   0.00000   0.23873   0.23873   3.59337
    A1        2.09440  -0.02341   0.00000  -0.02766  -0.02761   2.06679
    A2        2.09440   0.00469   0.00000   0.00599   0.00600   2.10040
    A3        2.09440   0.00113   0.00000   0.00212   0.00212   2.09652
    A4        2.09440  -0.00582   0.00000  -0.00812  -0.00812   2.08627
    A5        2.09440   0.01057   0.00000   0.01254   0.01251   2.10690
    A6        2.09440  -0.00586   0.00000  -0.00695  -0.00694   2.08746
    A7        2.09440  -0.00471   0.00000  -0.00558  -0.00557   2.08883
    A8        2.09440  -0.00761   0.00000  -0.00973  -0.00977   2.08462
    A9        2.09440   0.00456   0.00000   0.00598   0.00600   2.10039
   A10        2.09440   0.00305   0.00000   0.00375   0.00377   2.09817
   A11        2.09440  -0.00641   0.00000  -0.00798  -0.00799   2.08641
   A12        2.09440   0.00160   0.00000   0.00162   0.00162   2.09602
   A13        2.09440   0.00481   0.00000   0.00636   0.00636   2.10076
   A14        2.09440   0.02217   0.00000   0.02684   0.02686   2.12126
   A15        2.09440  -0.03661   0.00000  -0.04396  -0.04397   2.05043
   A16        2.09440   0.01444   0.00000   0.01712   0.01711   2.11150
   A17        2.09440  -0.02797   0.00000  -0.03199  -0.03190   2.06249
   A18        2.09440   0.01305   0.00000   0.01556   0.01559   2.10999
   A19        2.09440   0.02589   0.00000   0.03100   0.03099   2.12538
   A20        2.09440  -0.03895   0.00000  -0.04656  -0.04658   2.04782
   A21        2.09440   0.00501   0.00000   0.00515   0.00512   2.09952
   A22        2.09440  -0.00197   0.00000  -0.00179  -0.00177   2.09262
   A23        2.09440  -0.00304   0.00000  -0.00337  -0.00335   2.09105
   A24        2.09440  -0.00297   0.00000  -0.00480  -0.00487   2.08953
   A25        2.09440  -0.00796   0.00000  -0.00890  -0.00886   2.08553
   A26        2.09440   0.01093   0.00000   0.01370   0.01373   2.10813
   A27        2.09440  -0.00279   0.00000  -0.00356  -0.00360   2.09080
   A28        2.09440  -0.00477   0.00000  -0.00560  -0.00558   2.08881
   A29        2.09440   0.00756   0.00000   0.00916   0.00918   2.10357
   A30        2.09440   0.01566   0.00000   0.01964   0.01966   2.11405
   A31        2.09440  -0.02160   0.00000  -0.02629  -0.02630   2.06809
   A32        2.09440   0.00594   0.00000   0.00665   0.00664   2.10104
   A33        2.09440  -0.00478   0.00000  -0.00572  -0.00572   2.08867
   A34        2.09440  -0.11696   0.00000  -0.13991  -0.13991   1.95448
    D1        0.00000  -0.00000   0.00000  -0.00000  -0.00000   0.00000
    D2        3.14159   0.00000   0.00000   0.00000   0.00000   3.14159
    D3       -0.00000  -0.00000   0.00000  -0.00000  -0.00000  -0.00000
    D4        3.14159   0.00000   0.00000   0.00000   0.00000   3.14159
    D5        0.00000  -0.00000   0.00000  -0.00000  -0.00000   0.00000
    D6        3.14159   0.00000   0.00000   0.00000   0.00000   3.14159
    D7       -3.14159  -0.00000   0.00000  -0.00000  -0.00000  -3.14159
    D8        0.00000  -0.00000   0.00000  -0.00000  -0.00000   0.00000
    D9       -0.00000   0.00000   0.00000   0.00000   0.00000  -0.00000
   D10        3.14159  -0.00000   0.00000  -0.00000  -0.00000   3.14159
   D11        3.14159   0.00000   0.00000   0.00000   0.00000   3.14159
   D12        0.00000  -0.00000   0.00000  -0.00000  -0.00000   0.00000
   D13        0.00000  -0.00000   0.00000  -0.00000  -0.00000   0.00000
   D14       -3.14159  -0.00000   0.00000  -0.00000  -0.00000  -3.14159
   D15       -3.14159  -0.00000   0.00000  -0.00000  -0.00000  -3.14159
   D16        0.00000  -0.00000   0.00000  -0.00000  -0.00000   0.00000
   D17       -0.00000   0.00000   0.00000   0.00000   0.00000  -0.00000
   D18        3.14159  -0.00000   0.00000  -0.00000  -0.00000   3.14159
   D19        3.14159   0.00000   0.00000   0.00000   0.00000   3.14159
   D20       -0.00000  -0.00000   0.00000  -0.00000  -0.00000  -0.00000
   D21        0.00001  -0.00000   0.00000  -0.00000  -0.00000   0.00001
   D22       -3.14159  -0.00000   0.00000  -0.00000  -0.00000  -3.14159
   D23        0.00000   0.00000   0.00000   0.00000   0.00000   0.00000
   D24       -3.14159  -0.00000   0.00000  -0.00000  -0.00000  -3.14159
   D25       -0.00000   0.00000   0.00000  -0.00000  -0.00000  -0.00000
   D26        3.14159   0.00000   0.00000   0.00000   0.00000   3.14159
   D27       -0.00000  -0.00000   0.00000  -0.00000  -0.00000  -0.00000
   D28        3.14159  -0.00000   0.00000  -0.00000  -0.00000   3.14159
   D29        3.14159   0.00000   0.00000   0.00000   0.00000   3.14159
   D30       -0.00000   0.00000   0.00000   0.00000   0.00000  -0.00000
   D31       -0.00000   0.00000   0.00000   0.00000   0.00000  -0.00000
   D32       -3.14159  -0.00000   0.00000  -0.00000  -0.00000  -3.14159
   D33        3.14159   0.00000   0.00000   0.00000   0.00000   3.14159
   D34        0.00000  -0.00000   0.00000  -0.00000  -0.00000   0.00000
   D35        0.00000  -0.00000   0.00000  -0.00000  -0.00000   0.00000
   D36       -3.14159  -0.00000   0.00000  -0.00000  -0.00000  -3.14159
   D37        3.14159   0.00000   0.00000   0.00000   0.00000   3.14159
   D38        0.00000  -0.00000   0.00000  -0.00000  -0.00000   0.00000
   D39        0.00000   0.00000   0.00000   0.00000   0.00000   0.00000
   D40       -3.14159  -0.00000   0.00000  -0.00000  -0.00000  -3.14159
   D41        3.14159   0.00000   0.00000   0.00000   0.00000   3.14159
   D42       -0.00000  -0.00000   0.00000  -0.00000  -0.00000  -0.00000
   D43        0.00001  -0.00000   0.00000  -0.00000  -0.00000   0.00001
   D44       -3.14159   0.00000   0.00000   0.00000   0.00000  -3.14159
   D45       -0.00001  -0.00000   0.00000  -0.00000  -0.00000  -0.00001
         Item               Value     Threshold  Converged?
 Maximum Force            0.434296     0.000450     NO 
 RMS     Force            0.045653     0.000300     NO 
 Maximum Displacement     0.880929     0.001800     NO 
 RMS     Displacement     0.226545     0.001200     NO 
 Predicted change in Energy=-1.042832D-01
 GradGradGradGradGradGradGradGradGradGradGradGradGradGradGradGradGradGrad

                          Input orientation:                          
 ---------------------------------------------------------------------
 Center     Atomic      Atomic             Coordinates (Angstroms)
 Number     Number       Type             X           Y           Z
 ---------------------------------------------------------------------
      1          6           0       -0.191884    0.190643    0.075568
      2          6           0        1.124220    0.075650   -0.379625
      3          6           0        1.952338    1.202570   -0.440806
      4          6           0        1.480076    2.456425   -0.049732
      5          6           0        0.167932    2.583167    0.406359
      6          6           0       -0.654074    1.452947    0.464908
      7          6           0       -0.982276   -1.418757    0.033704
      8          6           0       -0.297321   -2.562260   -0.406721
      9          6           0       -0.926497   -3.809417   -0.433660
     10          6           0       -2.250299   -3.937280   -0.021536
     11          6           0       -2.950052   -2.811496    0.420437
     12          6           0       -2.315258   -1.562940    0.445788
     13          1           0        1.505723   -0.876263   -0.684088
     14          1           0        2.120985    3.317537   -0.099158
     15          1           0       -0.206254    3.542809    0.709863
     16          1           0       -0.387066   -4.674222   -0.773799
     17         17           0       -3.193751   -0.115484    1.007063
     18         17           0       -2.312503    1.569314    1.033138
     19         17           0       -4.623033   -2.974317    0.941040
     20         17           0       -3.021392   -5.516797   -0.064137
     21         17           0        3.604335    1.035657   -1.016410
     22         17           0        1.374936   -2.490082   -0.944100
 ---------------------------------------------------------------------
                    Distance matrix (angstroms):
                    1          2          3          4          5
     1  C    0.000000
     2  C    1.397338   0.000000
     3  C    2.426587   1.399811   0.000000
     4  C    2.818673   2.429723   1.395752   0.000000
     5  C    2.441938   2.796408   2.409946   1.394920   0.000000
     6  C    1.399506   2.402606   2.770630   2.413797   1.398756
     7  C    1.793499   2.615611   3.963392   4.592077   4.180579
     8  C    2.796819   2.996679   4.385895   5.336084   5.230008
     9  C    4.098713   4.393416   5.779945   6.723078   6.539766
    10  C    4.613702   5.255398   6.652519   7.402429   6.967580
    11  C    4.091364   5.057213   6.394364   6.899136   6.230924
    12  C    2.778640   3.898243   5.162023   5.550262   4.833011
    13  H    2.144116   1.069757   2.140140   3.392621   3.866059
    14  H    3.893245   3.403239   2.149012   1.074580   2.146919
    15  H    3.411679   3.870186   3.385304   2.144976   1.073799
    16  H    4.942310   5.000064   6.334065   7.406525   7.373635
    17  Cl   3.157943   4.539197   5.505981   5.438400   4.352526
    18  Cl   2.704571   4.004747   4.527238   4.042676   2.751965
    19  Cl   5.513719   6.639079   7.911472   8.229370   7.356960
    20  Cl   6.371852   6.968579   8.368378   9.156183   8.717945
    21  Cl   4.039522   2.734607   1.757348   2.732311   4.028389
    22  Cl   3.268170   2.639028   3.771257   5.027811   5.386878
                    6          7          8          9         10
     6  C    0.000000
     7  C    2.922385   0.000000
     8  C    4.124185   1.403830   0.000000
     9  C    5.345477   2.436555   1.397136   0.000000
    10  C    5.642616   2.820265   2.419332   1.392353   0.000000
    11  C    4.843446   2.441603   2.789855   2.412489   1.397278
    12  C    3.443178   1.402656   2.407796   2.783657   2.420765
    13  H    3.377889   2.645688   2.484047   3.818613   4.890450
    14  H    3.390549   5.663953   6.365125   7.758384   8.470332
    15  H    2.151295   5.067202   6.207006   7.475402   7.788761
    16  H    6.256827   3.406522   2.145503   1.074508   2.140238
    17  Cl   3.033788   2.745281   4.046579   4.567414   4.068690
    18  Cl   1.756933   3.420079   4.817059   5.744847   5.607030
    19  Cl   5.964898   4.061790   4.549509   4.031323   2.735638
    20  Cl   7.379797   4.578373   4.033263   2.727687   1.758201
    21  Cl   4.527966   5.306966   5.342251   6.659038   7.745748
    22  Cl   4.652920   2.767723   1.757962   2.701442   4.010964
                   11         12         13         14         15
    11  C    0.000000
    12  C    1.400891   0.000000
    13  H    4.981870   4.043272   0.000000
    14  H    7.971853   6.617876   4.278861   0.000000
    15  H    6.927437   5.530489   4.939855   2.474127   0.000000
    16  H    3.385978   3.858159   4.244430   8.403194   8.351859
    17  Cl   2.769837   1.783790   5.052112   6.423067   4.732502
    18  Cl   4.469157   3.186849   4.848563   4.898387   2.904389
    19  Cl   1.759660   2.750106   6.678662   9.281768   7.876186
    20  Cl   2.749282   4.048657   6.512577  10.222070   9.518431
    21  Cl   7.734669   6.628146   2.858329   2.872047   4.877132
    22  Cl   4.546514   4.050792   1.639855   5.915992   6.452250
                   16         17         18         19         20
    16  H    0.000000
    17  Cl   5.641900   0.000000
    18  Cl   6.778943   1.901532   0.000000
    19  Cl   4.875834   3.196894   5.098197   0.000000
    20  Cl   2.855385   5.509206   7.205519   3.168570   0.000000
    21  Cl   6.970858   7.185648   6.284458   9.359545   9.367056
    22  Cl   2.811426   5.506238   5.829698   6.305859   5.409532
                   21         22
    21  Cl   0.000000
    22  Cl   4.172084   0.000000
 Stoichiometry    C12H4Cl6
 Framework group  C1[X(C12H4Cl6)]
 Deg. of freedom    60
 Full point group                 C1      NOp   1
 Largest Abelian subgroup         C1      NOp   1
 Largest concise Abelian subgroup C1      NOp   1
                         Standard orientation:                         
 ---------------------------------------------------------------------
 Center     Atomic      Atomic             Coordinates (Angstroms)
 Number     Number       Type             X           Y           Z
 ---------------------------------------------------------------------
      1          6           0       -1.428128    0.400973    0.000001
      2          6           0       -2.336911   -0.660472   -0.000002
      3          6           0       -3.714489   -0.411972   -0.000004
      4          6           0       -4.203086    0.895467   -0.000003
      5          6           0       -3.305164    1.962958    0.000002
      6          6           0       -1.929948    1.707416    0.000004
      7          6           0        0.245347   -0.244103    0.000005
      8          6           0        0.500450   -1.624560    0.000006
      9          6           0        1.809760   -2.112100    0.000005
     10          6           0        2.887479   -1.230527    0.000002
     11          6           0        2.655367    0.147337    0.000000
     12          6           0        1.340909    0.631789    0.000001
     13          1           0       -1.983180   -1.670054   -0.000005
     14          1           0       -5.261816    1.079345   -0.000004
     15          1           0       -3.669569    2.973034    0.000005
     16          1           0        1.986644   -3.171948    0.000007
     17         17           0        1.026591    2.387669   -0.000003
     18         17           0       -0.765613    3.023143    0.000008
     19         17           0        4.018184    1.260501   -0.000008
     20         17           0        4.526417   -1.867043   -0.000002
     21         17           0       -4.840045   -1.761563   -0.000008
     22         17           0       -0.800923   -2.806448    0.000006
 ---------------------------------------------------------------------
 Rotational constants (GHZ):           0.3851510           0.1618737           0.1139726
 Standard basis: 6-311+G(d,p) (5D, 7F)
 There are   486 symmetry adapted cartesian basis functions of A   symmetry.
 There are   468 symmetry adapted basis functions of A   symmetry.
   468 basis functions,   782 primitive gaussians,   486 cartesian basis functions
    89 alpha electrons       89 beta electrons
       nuclear repulsion energy      2059.8419609386 Hartrees.
 NAtoms=   22 NActive=   22 NUniq=   22 SFac= 1.00D+00 NAtFMM=   60 NAOKFM=F Big=F
 Integral buffers will be    131072 words long.
 Raffenetti 2 integral format.
 Two-electron integral symmetry is turned on.
 One-electron integrals computed using PRISM.
 NBasis=   468 RedAO= T EigKep=  1.18D-06  NBF=   468
 NBsUse=   462 1.00D-06 EigRej=  5.84D-07 NBFU=   462
 Initial guess from the checkpoint file:  "./Gau-8560.chk"
 B after Tr=     0.000000    0.000000    0.000000
         Rot=    0.999983    0.000000    0.000000    0.005820 Ang=   0.67 deg.
 ExpMin= 4.38D-02 ExpMax= 1.06D+05 ExpMxC= 3.62D+03 IAcc=3 IRadAn=         5 AccDes= 0.00D+00
 Harris functional with IExCor=  402 and IRadAn=       5 diagonalized for initial guess.
 HarFok:  IExCor=  402 AccDes= 0.00D+00 IRadAn=         5 IDoV= 1 UseB2=F ITyADJ=14
 ICtDFT=  3500011 ScaDFX=  1.000000  1.000000  1.000000  1.000000
 FoFCou: FMM=F IPFlag=           0 FMFlag=      100000 FMFlg1=           0
         NFxFlg=           0 DoJE=T BraDBF=F KetDBF=T FulRan=T
         wScrn=  0.000000 ICntrl=       500 IOpCl=  0 I1Cent=   200000004 NGrid=           0
         NMat0=    1 NMatS0=      1 NMatT0=    0 NMatD0=    1 NMtDS0=    0 NMtDT0=    0
 Petite list used in FoFCou.
 Requested convergence on RMS density matrix=1.00D-08 within  32 cycles.
 Requested convergence on MAX density matrix=1.00D-06.
 Requested convergence on             energy=1.00D-06.
 No special actions if energy rises.
 SCF Done:  E(RB3LYP) =  -3220.77000469     A.U. after   20 cycles
            NFock= 20  Conv=0.49D-08     -V/T= 2.0022
 QCSCF skips out because SCF is already converged.
 Calling FoFJK, ICntrl=      2127 FMM=F ISym2X=0 I1Cent= 0 IOpClX= 0 NMat=1 NMatS=1 NMatT=0.
 ***** Axes restored to original set *****
 -------------------------------------------------------------------
 Center     Atomic                   Forces (Hartrees/Bohr)
 Number     Number              X              Y              Z
 -------------------------------------------------------------------
      1        6          -0.002789683   -0.064644315   -0.011222052
      2        6           0.003397099    0.050798814    0.008421606
      3        6          -0.013350835    0.002553013    0.004878126
      4        6          -0.000276159   -0.008057868   -0.001422577
      5        6           0.000463630   -0.010874932   -0.002194968
      6        6          -0.010567741   -0.016002774    0.000476295
      7        6           0.012318104    0.065573740    0.008257487
      8        6          -0.011368355    0.006948849    0.005050565
      9        6          -0.000094031    0.004285146    0.000835676
     10        6          -0.000265927   -0.000515853   -0.000009256
     11        6          -0.002845231   -0.001607972    0.000635377
     12        6          -0.017644247   -0.044218299   -0.002491412
     13        1           0.001690690    0.040887965    0.007122350
     14        1           0.002837683    0.005151033    0.000032507
     15        1          -0.003308295    0.003279240    0.001705839
     16        1           0.002781518   -0.003721886   -0.001615377
     17       17          -0.116008755   -0.306171375   -0.019279489
     18       17           0.143460569    0.363948875    0.021086036
     19       17           0.006917139    0.000212014   -0.002239180
     20       17           0.005574771    0.001910303   -0.001477912
     21       17          -0.000730291   -0.000345096    0.000175789
     22       17          -0.000191653   -0.089388624   -0.016725430
 -------------------------------------------------------------------
 Cartesian Forces:  Max     0.363948875 RMS     0.065827253

 GradGradGradGradGradGradGradGradGradGradGradGradGradGradGradGradGradGrad
 Berny optimization.
 Using GEDIIS/GDIIS optimizer.
 FormGI is forming the generalized inverse of G from B-inverse, IUseBI=4.
 Internal  Forces:  Max     0.541439542 RMS     0.087030569
 Search for a local minimum.
 Step number   2 out of a maximum of  112
 All quantities printed in internal units (Hartrees-Bohrs-Radians)
 Mixed Optimization -- RFO/linear search
 Update second derivatives using D2CorX and points    1    2
 DE= -1.07D-01 DEPred=-1.04D-01 R= 1.02D+00
 TightC=F SS=  1.41D+00  RLast= 3.00D-01 DXNew= 5.0454D-01 9.0000D-01
 Trust test= 1.02D+00 RLast= 3.00D-01 DXMaxT set to 5.05D-01
 ITU=  1  0
 Use linear search instead of GDIIS.
     Eigenvalues ---    0.00238   0.00238   0.01667   0.01672   0.02070
     Eigenvalues ---    0.02070   0.02070   0.02070   0.02070   0.02070
     Eigenvalues ---    0.02070   0.02070   0.02070   0.02070   0.02070
     Eigenvalues ---    0.02070   0.02070   0.02070   0.02306   0.02948
     Eigenvalues ---    0.16000   0.16000   0.16001   0.16019   0.22359
     Eigenvalues ---    0.23443   0.23485   0.24603   0.25000   0.25000
     Eigenvalues ---    0.25000   0.25000   0.25000   0.25000   0.25000
     Eigenvalues ---    0.25000   0.28644   0.29537   0.29539   0.29539
     Eigenvalues ---    0.29539   0.29539   0.32721   0.37201   0.37230
     Eigenvalues ---    0.37230   0.37367   0.41438   0.41620   0.41926
     Eigenvalues ---    0.42105   0.45302   0.45389   0.45389   0.45389
     Eigenvalues ---    0.45389   0.45389   0.45389   0.45649   9.57662
 RFO step:  Lambda=-3.74005468D-01 EMin= 2.37799121D-03
 Quartic linear search produced a step of  0.27149.
 Maximum step size (   0.505) exceeded in Quadratic search.
    -- Step size scaled by   0.621
 Iteration  1 RMS(Cart)=  0.12808990 RMS(Int)=  0.03151674
 Iteration  2 RMS(Cart)=  0.04672533 RMS(Int)=  0.01145731
 Iteration  3 RMS(Cart)=  0.02674880 RMS(Int)=  0.00007363
 Iteration  4 RMS(Cart)=  0.00000893 RMS(Int)=  0.00007360
 Iteration  5 RMS(Cart)=  0.00000000 RMS(Int)=  0.00007360
 Variable       Old X    -DE/DX   Delta X   Delta X   Delta X     New X
                                 (Linear)    (Quad)   (Total)
    R1        2.64059   0.01577  -0.00208  -0.00790  -0.00992   2.63067
    R2        2.64468   0.01695  -0.00097  -0.00210  -0.00301   2.64168
    R3        2.64526  -0.01807  -0.00082  -0.00695  -0.00776   2.63750
    R4        2.02155  -0.03781  -0.00012  -0.00715  -0.00728   2.01427
    R5        2.63759  -0.04999  -0.00290  -0.02263  -0.02560   2.61199
    R6        3.32091  -0.00071  -0.00136  -0.00555  -0.00691   3.31399
    R7        2.63602  -0.03586  -0.00332  -0.02258  -0.02597   2.61005
    R8        2.03066   0.00582   0.00235   0.01172   0.01407   2.04473
    R9        2.64327   0.00300  -0.00136  -0.00638  -0.00774   2.63553
   R10        2.02919   0.00457   0.00195   0.00968   0.01162   2.04081
   R11        3.32012  -0.02413  -0.00157  -0.01095  -0.01252   3.30760
   R12        2.65285   0.11436   0.00125   0.02442   0.02579   2.67864
   R13        2.65064   0.06684   0.00064   0.01372   0.01449   2.66513
   R14        2.64020  -0.01722  -0.00219  -0.01357  -0.01575   2.62445
   R15        3.32207   0.00126  -0.00105  -0.00392  -0.00496   3.31710
   R16        2.63117  -0.06423  -0.00464  -0.03351  -0.03828   2.59289
   R17        2.03053   0.00490   0.00231   0.01139   0.01370   2.04423
   R18        2.64047  -0.04682  -0.00211  -0.01820  -0.02045   2.62003
   R19        3.32252  -0.00413  -0.00092  -0.00447  -0.00540   3.31712
   R20        2.64730   0.01155  -0.00026   0.00031   0.00004   2.64734
   R21        3.32528  -0.00726  -0.00017  -0.00210  -0.00228   3.32300
   R22        3.37088   0.04982   0.01221   0.05825   0.07046   3.44133
   R23        3.59337   0.38129   0.06481   0.45799   0.52281   4.11618
    A1        2.06679  -0.08304  -0.00749  -0.04386  -0.05116   2.01563
    A2        2.10040   0.05843   0.00163   0.01805   0.01974   2.12014
    A3        2.09652  -0.01183   0.00058  -0.00123  -0.00069   2.09583
    A4        2.08627  -0.04661  -0.00220  -0.01682  -0.01906   2.06722
    A5        2.10690   0.00270   0.00340   0.01222   0.01554   2.12244
    A6        2.08746  -0.00205  -0.00188  -0.00692  -0.00877   2.07869
    A7        2.08883  -0.00065  -0.00151  -0.00530  -0.00677   2.08205
    A8        2.08462  -0.02630  -0.00265  -0.01516  -0.01797   2.06666
    A9        2.10039   0.01402   0.00163   0.00857   0.01027   2.11067
   A10        2.09817   0.01228   0.00102   0.00660   0.00770   2.10586
   A11        2.08641   0.03309  -0.00217  -0.00037  -0.00262   2.08378
   A12        2.09602  -0.01458   0.00044  -0.00098  -0.00050   2.09552
   A13        2.10076  -0.01851   0.00173   0.00135   0.00312   2.10388
   A14        2.12126   0.01510   0.00729   0.02912   0.03647   2.15772
   A15        2.05043   0.14039  -0.01194  -0.01337  -0.02533   2.02510
   A16        2.11150  -0.15549   0.00464  -0.01576  -0.01114   2.10036
   A17        2.06249  -0.10014  -0.00866  -0.05146  -0.05974   2.00275
   A18        2.10999   0.04029   0.00423   0.02402   0.02836   2.13835
   A19        2.12538   0.13089   0.00841   0.05708   0.06543   2.19082
   A20        2.04782  -0.17119  -0.01265  -0.08109  -0.09380   1.95402
   A21        2.09952   0.02170   0.00139   0.00959   0.01084   2.11035
   A22        2.09262  -0.01125  -0.00048  -0.00435  -0.00475   2.08787
   A23        2.09105  -0.01045  -0.00091  -0.00525  -0.00608   2.08496
   A24        2.08953  -0.01780  -0.00132  -0.00863  -0.01024   2.07928
   A25        2.08553   0.00149  -0.00241  -0.00819  -0.01045   2.07508
   A26        2.10813   0.01631   0.00373   0.01682   0.02069   2.12882
   A27        2.09080   0.04851  -0.00098   0.00613   0.00500   2.09579
   A28        2.08881  -0.02503  -0.00152  -0.01039  -0.01182   2.07699
   A29        2.10357  -0.02347   0.00249   0.00425   0.00683   2.11040
   A30        2.11405   0.00744   0.00534   0.02035   0.02579   2.13984
   A31        2.06809   0.20622  -0.00714   0.01758   0.01039   2.07848
   A32        2.10104  -0.21366   0.00180  -0.03793  -0.03618   2.06486
   A33        2.08867   0.54144  -0.00155   0.10724   0.10569   2.19436
   A34        1.95448   0.29976  -0.03799  -0.07329  -0.11127   1.84321
    D1        0.00000  -0.00000  -0.00000  -0.00000  -0.00000   0.00000
    D2        3.14159  -0.00000   0.00000  -0.00000  -0.00000   3.14159
    D3       -0.00000   0.00000  -0.00000   0.00000   0.00000  -0.00000
    D4        3.14159   0.00000   0.00000   0.00000   0.00000   3.14159
    D5        0.00000   0.00000  -0.00000   0.00000   0.00000   0.00000
    D6        3.14159   0.00000   0.00000   0.00000   0.00000   3.14159
    D7       -3.14159   0.00000  -0.00000   0.00000   0.00000  -3.14159
    D8        0.00000   0.00000  -0.00000   0.00000   0.00000   0.00000
    D9       -0.00000   0.00000   0.00000   0.00000   0.00000  -0.00000
   D10        3.14159  -0.00000  -0.00000  -0.00000  -0.00000   3.14159
   D11        3.14159   0.00000   0.00000   0.00000   0.00000   3.14159
   D12        0.00000  -0.00000  -0.00000  -0.00000  -0.00000   0.00000
   D13        0.00000  -0.00000  -0.00000  -0.00000  -0.00000   0.00000
   D14       -3.14159  -0.00000  -0.00000  -0.00000  -0.00000  -3.14159
   D15       -3.14159  -0.00000  -0.00000  -0.00000  -0.00000  -3.14159
   D16        0.00000  -0.00000  -0.00000  -0.00000  -0.00000   0.00000
   D17       -0.00000   0.00000   0.00000   0.00000   0.00000  -0.00000
   D18        3.14159  -0.00000  -0.00000  -0.00000  -0.00000   3.14159
   D19        3.14159   0.00000   0.00000   0.00000   0.00000   3.14159
   D20       -0.00000  -0.00000  -0.00000  -0.00000  -0.00000  -0.00000
   D21        0.00001  -0.00000  -0.00000  -0.00000  -0.00000   0.00001
   D22       -3.14159  -0.00000  -0.00000  -0.00000  -0.00000  -3.14159
   D23        0.00000  -0.00000   0.00000  -0.00000  -0.00000   0.00000
   D24       -3.14159  -0.00000  -0.00000  -0.00000  -0.00000  -3.14159
   D25       -0.00000   0.00000  -0.00000   0.00000   0.00000  -0.00000
   D26        3.14159   0.00000   0.00000   0.00000   0.00000   3.14159
   D27       -0.00000  -0.00000  -0.00000  -0.00000  -0.00000  -0.00000
   D28        3.14159  -0.00000  -0.00000  -0.00000  -0.00000   3.14159
   D29        3.14159   0.00000   0.00000   0.00000   0.00000   3.14159
   D30       -0.00000   0.00000   0.00000   0.00000   0.00000  -0.00000
   D31       -0.00000   0.00000   0.00000   0.00000   0.00000   0.00000
   D32       -3.14159  -0.00000  -0.00000  -0.00000  -0.00000  -3.14159
   D33        3.14159   0.00000   0.00000   0.00000   0.00000  -3.14159
   D34        0.00000   0.00000  -0.00000  -0.00000  -0.00000   0.00000
   D35        0.00000  -0.00000  -0.00000  -0.00000  -0.00000   0.00000
   D36       -3.14159  -0.00000  -0.00000  -0.00000  -0.00000  -3.14159
   D37        3.14159   0.00000   0.00000   0.00000   0.00000   3.14159
   D38        0.00000  -0.00000  -0.00000  -0.00000  -0.00000   0.00000
   D39        0.00000  -0.00000   0.00000  -0.00000  -0.00000   0.00000
   D40       -3.14159  -0.00000  -0.00000  -0.00000  -0.00000  -3.14159
   D41        3.14159   0.00000   0.00000   0.00000   0.00000   3.14159
   D42       -0.00000  -0.00000  -0.00000  -0.00000  -0.00000  -0.00000
   D43        0.00001  -0.00000  -0.00000  -0.00000  -0.00000   0.00001
   D44       -3.14159   0.00000   0.00000   0.00000   0.00000  -3.14159
   D45       -0.00001  -0.00001  -0.00000  -0.00000  -0.00000  -0.00001
         Item               Value     Threshold  Converged?
 Maximum Force            0.541440     0.000450     NO 
 RMS     Force            0.087031     0.000300     NO 
 Maximum Displacement     0.964814     0.001800     NO 
 RMS     Displacement     0.183660     0.001200     NO 
 Predicted change in Energy=-2.722252D-01
 GradGradGradGradGradGradGradGradGradGradGradGradGradGradGradGradGradGrad

                          Input orientation:                          
 ---------------------------------------------------------------------
 Center     Atomic      Atomic             Coordinates (Angstroms)
 Number     Number       Type             X           Y           Z
 ---------------------------------------------------------------------
      1          6           0       -0.216078    0.362979    0.115905
      2          6           0        1.095501    0.251487   -0.337137
      3          6           0        1.939253    1.361093   -0.406721
      4          6           0        1.512420    2.620487   -0.029576
      5          6           0        0.216313    2.766367    0.424826
      6          6           0       -0.616208    1.649305    0.489309
      7          6           0       -0.898575   -1.588643   -0.025782
      8          6           0       -0.311544   -2.807760   -0.448146
      9          6           0       -1.005374   -4.010823   -0.445501
     10          6           0       -2.310631   -4.070887   -0.026751
     11          6           0       -2.937421   -2.909388    0.397892
     12          6           0       -2.240087   -1.694364    0.396340
     13          1           0        1.477098   -0.696297   -0.640854
     14          1           0        2.175858    3.473256   -0.087990
     15          1           0       -0.145088    3.738331    0.726431
     16          1           0       -0.511199   -4.913872   -0.777913
     17         17           0       -3.110116   -0.198621    0.963895
     18         17           0       -2.263023    1.805741    1.061237
     19         17           0       -4.610257   -2.990335    0.933828
     20         17           0       -3.136921   -5.619478   -0.045357
     21         17           0        3.580505    1.149464   -0.987180
     22         17           0        1.334458   -3.000639   -1.026660
 ---------------------------------------------------------------------
                    Distance matrix (angstroms):
[...]
                 (A) (A) (A) (A) (A) (A) (A) (A) (A) (A) (A) (A)
                 (A) (A) (A) (A) (A) (A) (A) (A) (A) (A) (A) (A)
                 (A) (A) (A) (A) (A) (A) (A) (A) (A) (A) (A) (A)
                 (A) (A) (A) (A) (A) (A) (A) (A) (A) (A) (A) (A)
                 (A) (A) (A) (A) (A) (A) (A) (A) (A) (A) (A) (A)
                 (A) (A) (A) (A) (A) (A) (A) (A) (A) (A) (A) (A)
                 (A) (A) (A) (A) (A) (A) (A) (A) (A) (A) (A) (A)
                 (A) (A) (A) (A) (A) (A) (A) (A) (A) (A) (A) (A)
                 (A) (A) (A) (A) (A) (A) (A) (A) (A) (A) (A) (A)
                 (A) (A) (A) (A) (A) (A) (A) (A) (A) (A) (A) (A)
                 (A) (A) (A) (A) (A) (A) (A) (A) (A) (A) (A) (A)
                 (A) (A) (A) (A) (A) (A) (A) (A) (A) (A) (A) (A)
                 (A) (A) (A) (A) (A) (A) (A) (A) (A) (A) (A) (A)
                 (A) (A) (A) (A) (A) (A) (A) (A) (A) (A) (A) (A)
                 (A) (A) (A) (A) (A) (A) (A) (A) (A) (A) (A) (A)
                 (A) (A) (A) (A) (A) (A) (A) (A) (A) (A) (A) (A)
                 (A) (A) (A) (A) (A) (A) (A) (A) (A) (A) (A) (A)
                 (A) (A) (A) (A) (A) (A) (A) (A) (A) (A) (A) (A)
                 (A) (A) (A) (A) (A) (A) (A) (A) (A) (A) (A) (A)
                 (A) (A) (A) (A) (A) (A) (A) (A) (A) (A) (A) (A)
                 (A) (A) (A) (A) (A) (A) (A) (A) (A) (A) (A) (A)
                 (A) (A) (A) (A) (A) (A) (A) (A) (A) (A) (A) (A)
                 (A) (A) (A) (A) (A) (A) (A) (A) (A) (A) (A) (A)
                 (A) (A) (A) (A) (A) (A) (A) (A) (A) (A) (A) (A)
                 (A) (A) (A) (A) (A) (A) (A) (A) (A) (A) (A) (A)
                 (A) (A) (A) (A) (A) (A) (A) (A) (A) (A) (A) (A)
                 (A) (A) (A)
 The electronic state is 1-A.
 Alpha  occ. eigenvalues -- -101.58046-101.57969-101.57902-101.57763-101.57021
 Alpha  occ. eigenvalues -- -101.56915 -10.28221 -10.27984 -10.27918 -10.27546
 Alpha  occ. eigenvalues --  -10.26281 -10.26044 -10.24021 -10.23112 -10.22366
 Alpha  occ. eigenvalues --  -10.21480 -10.21375 -10.21318  -9.49503  -9.49432
 Alpha  occ. eigenvalues --   -9.49379  -9.49232  -9.48491  -9.48370  -7.25996
 Alpha  occ. eigenvalues --   -7.25936  -7.25871  -7.25710  -7.24981  -7.24957
 Alpha  occ. eigenvalues --   -7.24917  -7.24911  -7.24861  -7.24837  -7.24830
 Alpha  occ. eigenvalues --   -7.24781  -7.24710  -7.24658  -7.23971  -7.23932
 Alpha  occ. eigenvalues --   -7.23848  -7.23815  -0.96216  -0.93085  -0.91094
 Alpha  occ. eigenvalues --   -0.90630  -0.89318  -0.87407  -0.84440  -0.83841
 Alpha  occ. eigenvalues --   -0.81005  -0.76538  -0.75281  -0.73881  -0.66754
 Alpha  occ. eigenvalues --   -0.64333  -0.63566  -0.61022  -0.55088  -0.54940
 Alpha  occ. eigenvalues --   -0.52854  -0.51937  -0.49784  -0.48457  -0.47119
 Alpha  occ. eigenvalues --   -0.46724  -0.45933  -0.45726  -0.43749  -0.43566
 Alpha  occ. eigenvalues --   -0.41977  -0.40509  -0.40142  -0.39842  -0.38923
 Alpha  occ. eigenvalues --   -0.38235  -0.35887  -0.35716  -0.34664  -0.34119
 Alpha  occ. eigenvalues --   -0.33581  -0.33258  -0.33109  -0.32886  -0.32255
 Alpha  occ. eigenvalues --   -0.29086  -0.27955  -0.26943  -0.26232
 Alpha virt. eigenvalues --   -0.06276  -0.05989  -0.05302  -0.04727  -0.04520
 Alpha virt. eigenvalues --   -0.01155  -0.00442  -0.00010   0.00493   0.00961
 Alpha virt. eigenvalues --    0.01136   0.01931   0.02445   0.02688   0.03480
 Alpha virt. eigenvalues --    0.04067   0.04531   0.05377   0.05475   0.05653
 Alpha virt. eigenvalues --    0.06182   0.06549   0.07024   0.07231   0.08108
 Alpha virt. eigenvalues --    0.08605   0.08801   0.08963   0.09578   0.09823
 Alpha virt. eigenvalues --    0.10239   0.10604   0.10741   0.10880   0.11572
 Alpha virt. eigenvalues --    0.12068   0.12204   0.12360   0.12693   0.12774
 Alpha virt. eigenvalues --    0.13474   0.13732   0.13915   0.14377   0.14706
 Alpha virt. eigenvalues --    0.15191   0.15824   0.15989   0.16446   0.16792
 Alpha virt. eigenvalues --    0.17201   0.17431   0.18090   0.18551   0.18760
 Alpha virt. eigenvalues --    0.19014   0.19348   0.19683   0.19954   0.20112
 Alpha virt. eigenvalues --    0.20460   0.21349   0.21450   0.21765   0.22335
 Alpha virt. eigenvalues --    0.22646   0.22947   0.23269   0.23383   0.24045
 Alpha virt. eigenvalues --    0.24314   0.24792   0.25088   0.25712   0.25934
 Alpha virt. eigenvalues --    0.26254   0.26811   0.27007   0.27644   0.27767
 Alpha virt. eigenvalues --    0.28193   0.28549   0.28942   0.29499   0.29948
 Alpha virt. eigenvalues --    0.30233   0.30466   0.31209   0.31841   0.32173
 Alpha virt. eigenvalues --    0.32806   0.33934   0.35860   0.39096   0.40893
 Alpha virt. eigenvalues --    0.42112   0.43054   0.43801   0.43940   0.44762
 Alpha virt. eigenvalues --    0.45057   0.45136   0.45587   0.46439   0.46851
 Alpha virt. eigenvalues --    0.46966   0.48215   0.48336   0.49421   0.50032
 Alpha virt. eigenvalues --    0.50418   0.50823   0.51107   0.51921   0.52548
 Alpha virt. eigenvalues --    0.53982   0.54830   0.56566   0.57319   0.57520
 Alpha virt. eigenvalues --    0.57627   0.58345   0.58765   0.59625   0.60438
 Alpha virt. eigenvalues --    0.60603   0.61017   0.62376   0.62676   0.63325
 Alpha virt. eigenvalues --    0.63346   0.63824   0.64537   0.65158   0.66585
 Alpha virt. eigenvalues --    0.67579   0.67766   0.68499   0.68883   0.69298
 Alpha virt. eigenvalues --    0.69616   0.70565   0.72351   0.75104   0.78235
 Alpha virt. eigenvalues --    0.78824   0.80717   0.81783   0.82031   0.82185
 Alpha virt. eigenvalues --    0.83078   0.83332   0.83745   0.83991   0.84232
 Alpha virt. eigenvalues --    0.84473   0.84912   0.85036   0.85355   0.85824
 Alpha virt. eigenvalues --    0.86093   0.86249   0.86621   0.87275   0.88803
 Alpha virt. eigenvalues --    0.89025   0.89999   0.90151   0.90449   0.91532
 Alpha virt. eigenvalues --    0.91914   0.92449   0.93261   0.94167   0.94409
 Alpha virt. eigenvalues --    0.94840   0.95408   0.95860   0.96075   0.97337
 Alpha virt. eigenvalues --    0.97517   0.98481   0.99063   0.99310   1.01091
 Alpha virt. eigenvalues --    1.02436   1.02818   1.03715   1.04219   1.05432
 Alpha virt. eigenvalues --    1.05769   1.10035   1.11931   1.15301   1.15665
 Alpha virt. eigenvalues --    1.16754   1.19718   1.21388   1.22752   1.23379
 Alpha virt. eigenvalues --    1.24311   1.24751   1.25996   1.26444   1.27827
 Alpha virt. eigenvalues --    1.28450   1.29669   1.30565   1.31410   1.31882
 Alpha virt. eigenvalues --    1.34330   1.36063   1.37666   1.40848   1.44393
 Alpha virt. eigenvalues --    1.47438   1.47584   1.48710   1.49420   1.54900
 Alpha virt. eigenvalues --    1.56403   1.57071   1.57653   1.58772   1.60630
 Alpha virt. eigenvalues --    1.62473   1.63538   1.66914   1.68612   1.69051
 Alpha virt. eigenvalues --    1.70388   1.75020   1.76376   1.78463   1.79569
 Alpha virt. eigenvalues --    1.81159   1.81635   1.82537   1.84339   1.85470
 Alpha virt. eigenvalues --    1.87275   1.91834   1.92466   1.93467   1.94088
 Alpha virt. eigenvalues --    1.95391   1.96224   1.99191   2.01005   2.02667
 Alpha virt. eigenvalues --    2.04572   2.04781   2.07165   2.11692   2.13330
 Alpha virt. eigenvalues --    2.15013   2.19462   2.22702   2.24664   2.25027
 Alpha virt. eigenvalues --    2.25410   2.25977   2.27364   2.27766   2.29693
 Alpha virt. eigenvalues --    2.30749   2.31885   2.32330   2.34923   2.36318
 Alpha virt. eigenvalues --    2.37448   2.40620   2.42478   2.43676   2.44463
 Alpha virt. eigenvalues --    2.45880   2.47006   2.50245   2.51602   2.52800
 Alpha virt. eigenvalues --    2.54898   2.55861   2.57735   2.58928   2.60681
 Alpha virt. eigenvalues --    2.61804   2.65785   2.66908   2.67944   2.69004
 Alpha virt. eigenvalues --    2.70017   2.70299   2.73265   2.74857   2.75099
 Alpha virt. eigenvalues --    2.75240   2.77750   2.79725   2.82395   2.83116
 Alpha virt. eigenvalues --    2.83618   2.85858   2.89249   2.96639   2.98126
 Alpha virt. eigenvalues --    3.05681   3.07910   3.08577   3.09976   3.11570
 Alpha virt. eigenvalues --    3.13516   3.14188   3.19433   3.22465   3.25469
 Alpha virt. eigenvalues --    3.28198   3.34520   3.39285   3.41509   3.50403
 Alpha virt. eigenvalues --    3.54413   3.62410   3.66351   3.72698   3.78310
 Alpha virt. eigenvalues --    3.86380   3.91538   4.00472   4.04512   4.12126
 Alpha virt. eigenvalues --    4.32971   4.80035   4.81673   9.75279   9.77828
 Alpha virt. eigenvalues --    9.79048   9.80866   9.83400   9.85195  23.33681
 Alpha virt. eigenvalues --   23.53393  23.81171  23.83411  23.85141  23.91383
 Alpha virt. eigenvalues --   23.93832  23.97770  24.02572  24.06801  24.09636
 Alpha virt. eigenvalues --   24.14209  25.77152  25.81642  25.82420  25.85549
 Alpha virt. eigenvalues --   25.94027  25.97263  26.08995  26.11024  26.14945
 Alpha virt. eigenvalues --   26.25838  26.29606  26.37664  26.49886  26.61741
 Alpha virt. eigenvalues --   26.64201  26.68550  26.78326  27.02427 215.74400
 Alpha virt. eigenvalues --  215.77089 215.78565 215.80801 215.83870 215.86256
          Condensed to atoms (all electrons):
               1          2          3          4          5          6
     1  C   29.458126  -0.423082  -7.178938  -1.730749  -1.871005  -3.655006
     2  C   -0.423082  30.516790  -7.714103 -11.339964   2.453004   2.861621
     3  C   -7.178938  -7.714103  23.982801  -0.226778  -2.338766  -4.521929
     4  C   -1.730749 -11.339964  -0.226778  19.092335   1.781920  -1.614700
     5  C   -1.871005   2.453004  -2.338766   1.781920  16.430525  -6.101823
     6  C   -3.655006   2.861621  -4.521929  -1.614700  -6.101823  39.657611
     7  C    9.941343  -6.640584   3.326438   0.181431  -3.472397  -5.866290
     8  C   -5.243164  -1.405675   0.456699   0.140431   0.068610  -6.689432
     9  C   -5.204858  -0.439613  -0.324361   0.035112   0.538797  -1.788076
    10  C   -1.026175  -0.094284  -0.177141   0.033783   0.157467  -0.024867
    11  C   -4.064466  -0.584871   0.893291  -0.018543  -0.473947  -2.774888
    12  C   -1.114461  -1.634208  -0.134780   0.246710  -0.196890  -4.367649
    13  H    0.003885   0.127399   0.034927   0.093615  -0.032805  -0.161678
    14  H    0.045123   0.043301   0.031837   0.308294  -0.047438  -0.034028
    15  H    0.106927  -0.042023  -0.025963  -0.040234   0.323583   0.027648
    16  H    0.022815  -0.000035  -0.000324   0.000112  -0.000249   0.000248
    17  Cl  -0.758040   0.088208   0.210476  -0.105014  -0.054541   0.422398
    18  Cl  -0.525433  -0.221074   0.117179  -0.005134  -0.745908   0.945232
    19  Cl  -0.174803   0.002390   0.030660   0.000323  -0.009819  -0.109147
    20  Cl  -0.043446  -0.006238   0.005884  -0.000830  -0.002191  -0.050822
    21  Cl  -0.360315   1.114971  -1.566503  -0.166695   0.158163   0.279724
    22  Cl   0.139834   0.059734   0.369904  -0.077893  -0.235470   0.240811
               7          8          9         10         11         12
     1  C    9.941343  -5.243164  -5.204858  -1.026175  -4.064466  -1.114461
     2  C   -6.640584  -1.405675  -0.439613  -0.094284  -0.584871  -1.634208
     3  C    3.326438   0.456699  -0.324361  -0.177141   0.893291  -0.134780
     4  C    0.181431   0.140431   0.035112   0.033783  -0.018543   0.246710
     5  C   -3.472397   0.068610   0.538797   0.157467  -0.473947  -0.196890
     6  C   -5.866290  -6.689432  -1.788076  -0.024867  -2.774888  -4.367649
     7  C   32.273063 -11.626944  -9.475852   1.184014  -4.705566   1.710611
     8  C  -11.626944  37.723133  -3.451104  -5.829312   7.673486  -5.452911
     9  C   -9.475852  -3.451104  30.644402   3.391636 -12.278365   5.602442
    10  C    1.184014  -5.829312   3.391636  22.365470  -8.585580  -4.212445
    11  C   -4.705566   7.673486 -12.278365  -8.585580  32.566313  -2.961751
    12  C    1.710611  -5.452911   5.602442  -4.212445  -2.961751  22.336309
    13  H    0.137054   0.060468   0.018838   0.007865   0.010983   0.079202
    14  H    0.005610   0.000992   0.000049   0.000036   0.000019   0.001016
    15  H    0.013023  -0.003343  -0.000588   0.000121  -0.000581   0.001494
    16  H    0.157831   0.022084   0.090927   0.022684   0.053999  -0.016227
    17  Cl  -0.522994   0.108080   1.008970   0.691441  -0.731073  -1.987630
    18  Cl   0.300461  -0.234254  -0.386806  -0.100691   0.028872  -0.323375
    19  Cl  -0.964474   0.600485   0.067942  -0.712244   0.102257   0.555546
    20  Cl   0.050881  -0.456683   0.007208  -0.438290   0.366520  -0.122609
    21  Cl  -0.173597  -0.043397  -0.002341   0.003178  -0.008733  -0.060251
    22  Cl  -0.013135  -0.085660  -1.331528  -0.661743   0.813095  -0.463450
              13         14         15         16         17         18
     1  C    0.003885   0.045123   0.106927   0.022815  -0.758040  -0.525433
     2  C    0.127399   0.043301  -0.042023  -0.000035   0.088208  -0.221074
     3  C    0.034927   0.031837  -0.025963  -0.000324   0.210476   0.117179
     4  C    0.093615   0.308294  -0.040234   0.000112  -0.105014  -0.005134
     5  C   -0.032805  -0.047438   0.323583  -0.000249  -0.054541  -0.745908
     6  C   -0.161678  -0.034028   0.027648   0.000248   0.422398   0.945232
     7  C    0.137054   0.005610   0.013023   0.157831  -0.522994   0.300461
     8  C    0.060468   0.000992  -0.003343   0.022084   0.108080  -0.234254
     9  C    0.018838   0.000049  -0.000588   0.090927   1.008970  -0.386806
    10  C    0.007865   0.000036   0.000121   0.022684   0.691441  -0.100691
    11  C    0.010983   0.000019  -0.000581   0.053999  -0.731073   0.028872
    12  C    0.079202   0.001016   0.001494  -0.016227  -1.987630  -0.323375
    13  H    0.518168  -0.000280   0.000048   0.000004  -0.012197  -0.002793
    14  H   -0.000280   0.505141  -0.007643  -0.000000  -0.000322   0.000295
    15  H    0.000048  -0.007643   0.506312   0.000000  -0.001031  -0.012195
    16  H    0.000004  -0.000000   0.000000   0.489492   0.000490  -0.000610
    17  Cl  -0.012197  -0.000322  -0.001031   0.000490  18.407335   0.078693
    18  Cl  -0.002793   0.000295  -0.012195  -0.000610   0.078693  17.625445
    19  Cl   0.000608   0.000000  -0.000001  -0.000727  -0.353087  -0.002780
    20  Cl   0.000106   0.000000  -0.000001  -0.007869  -0.012594   0.004920
    21  Cl  -0.019099  -0.007927   0.000697  -0.000012  -0.000263  -0.013080
    22  Cl  -0.010086  -0.000272  -0.000801  -0.008494  -0.066854   0.078079
              19         20         21         22
     1  C   -0.174803  -0.043446  -0.360315   0.139834
     2  C    0.002390  -0.006238   1.114971   0.059734
     3  C    0.030660   0.005884  -1.566503   0.369904
     4  C    0.000323  -0.000830  -0.166695  -0.077893
     5  C   -0.009819  -0.002191   0.158163  -0.235470
     6  C   -0.109147  -0.050822   0.279724   0.240811
     7  C   -0.964474   0.050881  -0.173597  -0.013135
     8  C    0.600485  -0.456683  -0.043397  -0.085660
     9  C    0.067942   0.007208  -0.002341  -1.331528
    10  C   -0.712244  -0.438290   0.003178  -0.661743
    11  C    0.102257   0.366520  -0.008733   0.813095
    12  C    0.555546  -0.122609  -0.060251  -0.463450
    13  H    0.000608   0.000106  -0.019099  -0.010086
    14  H    0.000000   0.000000  -0.007927  -0.000272
    15  H   -0.000001  -0.000001   0.000697  -0.000801
    16  H   -0.000727  -0.007869  -0.000012  -0.008494
    17  Cl  -0.353087  -0.012594  -0.000263  -0.066854
    18  Cl  -0.002780   0.004920  -0.013080   0.078079
    19  Cl  17.551407  -0.189006   0.000061   0.004181
    20  Cl  -0.189006  17.406292   0.000057  -0.041843
    21  Cl   0.000061   0.000057  17.441502  -0.001172
    22  Cl   0.004181  -0.041843  -0.001172  17.880410
 Mulliken charges:
               1
     1  C   -0.344114
     2  C   -0.721665
     3  C    0.749492
     4  C   -0.587533
     5  C   -0.328818
     6  C   -0.674958
     7  C    0.180070
     8  C   -0.332590
     9  C   -0.722832
    10  C    0.005077
    11  C    0.679528
    12  C   -1.484695
    13  H    0.145763
    14  H    0.156196
    15  H    0.154552
    16  H    0.173859
    17  Cl   0.589549
    18  Cl   0.394956
    19  Cl   0.600227
    20  Cl   0.530552
    21  Cl   0.425031
    22  Cl   0.412352
 Sum of Mulliken charges =  -0.00000
 Mulliken charges with hydrogens summed into heavy atoms:
               1
     1  C   -0.344114
     2  C   -0.575901
     3  C    0.749492
     4  C   -0.431336
     5  C   -0.174266
     6  C   -0.674958
     7  C    0.180070
     8  C   -0.332590
     9  C   -0.548973
    10  C    0.005077
    11  C    0.679528
    12  C   -1.484695
    17  Cl   0.589549
    18  Cl   0.394956
    19  Cl   0.600227
    20  Cl   0.530552
    21  Cl   0.425031
    22  Cl   0.412352
 Electronic spatial extent (au):  <R**2>=           7728.6825
 Charge=             -0.0000 electrons
 Dipole moment (field-independent basis, Debye):
    X=             -0.9217    Y=             -0.6834    Z=             -0.1838  Tot=              1.1620
 Quadrupole moment (field-independent basis, Debye-Ang):
   XX=           -140.6567   YY=           -145.5630   ZZ=           -145.0369
   XY=             -2.7968   XZ=              6.3790   YZ=             -1.1038
 Traceless Quadrupole moment (field-independent basis, Debye-Ang):
   XX=              3.0955   YY=             -1.8108   ZZ=             -1.2847
   XY=             -2.7968   XZ=              6.3790   YZ=             -1.1038
 Octapole moment (field-independent basis, Debye-Ang**2):
  XXX=            -19.4665  YYY=              3.9334  ZZZ=             -0.7642  XYY=             17.5466
  XXY=             -4.0839  XXZ=            -32.9546  XZZ=              0.5104  YZZ=              2.4668
  YYZ=              1.5169  XYZ=             -0.2945
 Hexadecapole moment (field-independent basis, Debye-Ang**3):
 XXXX=          -6591.3198 YYYY=          -1879.4692 ZZZZ=          -1447.4884 XXXY=              5.9402
 XXXZ=            137.2672 YYYX=             19.6568 YYYZ=            -15.8618 ZZZX=            -17.1143
 ZZZY=             10.8871 XXYY=          -1441.6418 XXZZ=          -1357.6152 YYZZ=           -579.3953
 XXYZ=            -12.5801 YYXZ=             -1.4670 ZZXY=             -0.2448
 N-N= 2.050644686417D+03 E-N=-1.173038008642D+04  KE= 3.212689443159D+03
 1\1\GINC-CN124\FOpt\RB3LYP\6-311+G(d,p)\C12H4Cl6\20CY91R06\13-Apr-2022
 \0\\# opt b3lyp/6-311+g(d,p) scf=xqc\\Title Card Required\\0,1\C,-0.11
 92657165,-0.0290095238,-0.0024763561\C,0.5986065659,0.2867601756,-1.16
 00341679\C,1.2876167681,1.489183842,-1.2491313678\C,1.2798434579,2.399
 5196154,-0.1972429589\C,0.5695408853,2.0936458836,0.9581994315\C,-0.12
 22029269,0.8895666762,1.0516800629\C,-0.8462428939,-1.3293461201,0.077
 1815617\C,-0.2223094912,-2.4836769377,0.5626216969\C,-0.8815681705,-3.
 7029303957,0.6301297105\C,-2.2007022184,-3.7912356291,0.2048782404\C,-
 2.8697581308,-2.6656473664,-0.2905104009\C,-2.1786058696,-1.4459172227
 ,-0.3474837916\H,0.6146464034,-0.4108054421,-1.9874528988\H,1.82019616
 46,3.3337566485,-0.2775445114\H,0.5516093287,2.7884591897,1.78778987\H
 ,-0.376461822,-4.57919612,1.0107790767\Cl,-2.9880833444,-0.0268410503,
 -0.9560910218\Cl,-1.0062549164,0.5386083277,2.5252042958\Cl,-4.5175619
 425,-2.7815967414,-0.8227148363\Cl,-2.9939901212,-5.3403719268,0.30549
 14549\Cl,2.1815247836,1.8630009049,-2.7125455099\Cl,1.4383081078,-2.41
 85236881,1.1133676732\\Version=EM64L-G16RevB.01\State=1-A\HF=-3221.133
 5459\RMSD=3.527e-09\RMSF=1.998e-05\Dipole=0.3889074,0.1772524,0.162293
 9\Quadrupole=-3.3658929,5.7609233,-2.3950304,0.785526,1.4678699,1.8978
 161\PG=C01 [X(C12H4Cl6)]\\@


 THE PROMISED LAND ALWAYS LIES ON THE OTHER SIDE OF A WILDERNESS.

                         -- HAVELOCK ELLIS
 Job cpu time:       1 days 19 hours 21 minutes 18.3 seconds.
 Elapsed time:       0 days  5 hours 45 minutes  4.4 seconds.
 File lengths (MBytes):  RWF=    140 Int=      0 D2E=      0 Chk=     22 Scr=      1
 Normal termination of Gaussian 16 at Wed Apr 13 23:33:53 2022.
