 Entering Gaussian System, Link 0=g16
 Input=2,2prime,4,4prime,6-Pentachlorobiphenyl1.gjf
 Output=2,2prime,4,4prime,6-Pentachlorobiphenyl1.log
 Initial command:
 /home/apps/g16/l1.exe "./Gau-161126.inp" -scrdir="./"
 Entering Link 1 = /home/apps/g16/l1.exe PID=    161127.
  
 Copyright (c) 1988-2017, Gaussian, Inc.  All Rights Reserved.
  
 This is part of the Gaussian(R) 16 program.  It is based on
 the Gaussian(R) 09 system (copyright 2009, Gaussian, Inc.),
 the Gaussian(R) 03 system (copyright 2003, Gaussian, Inc.),
 the Gaussian(R) 98 system (copyright 1998, Gaussian, Inc.),
 the Gaussian(R) 94 system (copyright 1995, Gaussian, Inc.),
 the Gaussian 92(TM) system (copyright 1992, Gaussian, Inc.),
 the Gaussian 90(TM) system (copyright 1990, Gaussian, Inc.),
 the Gaussian 88(TM) system (copyright 1988, Gaussian, Inc.),
 the Gaussian 86(TM) system (copyright 1986, Carnegie Mellon
 University), and the Gaussian 82(TM) system (copyright 1983,
 Carnegie Mellon University). Gaussian is a federally registered
 trademark of Gaussian, Inc.
  
 This software contains proprietary and confidential information,
 including trade secrets, belonging to Gaussian, Inc.
  
 This software is provided under written license and may be
 used, copied, transmitted, or stored only in accord with that
 written license.
  
 The following legend is applicable only to US Government
 contracts under FAR:
  
                    RESTRICTED RIGHTS LEGEND
  
 Use, reproduction and disclosure by the US Government is
 subject to restrictions as set forth in subparagraphs (a)
 and (c) of the Commercial Computer Software - Restricted
 Rights clause in FAR 52.227-19.
  
 Gaussian, Inc.
 340 Quinnipiac St., Bldg. 40, Wallingford CT 06492
  
  
 ---------------------------------------------------------------
 Warning -- This program may not be used in any manner that
 competes with the business of Gaussian, Inc. or will provide
 assistance to any competitor of Gaussian, Inc.  The licensee
 of this program is prohibited from giving any competitor of
 Gaussian, Inc. access to this program.  By using this program,
 the user acknowledges that Gaussian, Inc. is engaged in the
 business of creating and licensing software in the field of
 computational chemistry and represents and warrants to the
 licensee that it is not a competitor of Gaussian, Inc. and that
 it will not use this program in any manner prohibited above.
 ---------------------------------------------------------------
  

 Cite this work as:
 Gaussian 16, Revision B.01,
 M. J. Frisch, G. W. Trucks, H. B. Schlegel, G. E. Scuseria, 
 M. A. Robb, J. R. Cheeseman, G. Scalmani, V. Barone, 
 G. A. Petersson, H. Nakatsuji, X. Li, M. Caricato, A. V. Marenich, 
 J. Bloino, B. G. Janesko, R. Gomperts, B. Mennucci, H. P. Hratchian, 
 J. V. Ortiz, A. F. Izmaylov, J. L. Sonnenberg, D. Williams-Young, 
 F. Ding, F. Lipparini, F. Egidi, J. Goings, B. Peng, A. Petrone, 
 T. Henderson, D. Ranasinghe, V. G. Zakrzewski, J. Gao, N. Rega, 
 G. Zheng, W. Liang, M. Hada, M. Ehara, K. Toyota, R. Fukuda, 
 J. Hasegawa, M. Ishida, T. Nakajima, Y. Honda, O. Kitao, H. Nakai, 
 T. Vreven, K. Throssell, J. A. Montgomery, Jr., J. E. Peralta, 
 F. Ogliaro, M. J. Bearpark, J. J. Heyd, E. N. Brothers, K. N. Kudin, 
 V. N. Staroverov, T. A. Keith, R. Kobayashi, J. Normand, 
 K. Raghavachari, A. P. Rendell, J. C. Burant, S. S. Iyengar, 
 J. Tomasi, M. Cossi, J. M. Millam, M. Klene, C. Adamo, R. Cammi, 
 J. W. Ochterski, R. L. Martin, K. Morokuma, O. Farkas, 
 J. B. Foresman, and D. J. Fox, Gaussian, Inc., Wallingford CT, 2016.
 
 ******************************************
 Gaussian 16:  EM64L-G16RevB.01 20-Dec-2017
                12-Apr-2022 
 ******************************************
 %mem=16GB
 %nprocshared=8
 Will use up to    8 processors via shared memory.
 --------------------------------
 # opt b3lyp/6-311+g(d,p) scf=xqc
 --------------------------------
 1/18=20,19=15,26=3,38=1/1,3;
 2/9=110,12=2,17=6,18=5,40=1/2;
 3/5=4,6=6,7=111,11=2,25=1,30=1,71=1,74=-5/1,2,3;
 4//1;
 5/5=2,8=3,13=1,38=5/2,8;
 6/7=2,8=2,9=2,10=2,28=1/1;
 7//1,2,3,16;
 1/18=20,19=15,26=3/3(2);
 2/9=110/2;
 99//99;
 2/9=110/2;
 3/5=4,6=6,7=111,11=2,25=1,30=1,71=1,74=-5/1,2,3;
 4/5=5,16=3,69=1/1;
 5/5=2,8=3,13=1,38=5/2,8;
 7//1,2,3,16;
 1/18=20,19=15,26=3/3(-5);
 2/9=110/2;
 6/7=2,8=2,9=2,10=2,19=2,28=1/1;
 99/9=1/99;
 -------------------
 Title Card Required
 -------------------
 Symbolic Z-matrix:
 Charge =  0 Multiplicity = 1
 C                     1.04377   0.54147  -0.00392 
 C                     2.37615   0.57135  -0.43726 
 C                     3.08404   1.7808   -0.44333 
 C                     2.45955   2.96037  -0.01606 
 C                     1.12717   2.93048   0.41728 
 C                     0.41928   1.72103   0.42336 
 C                     0.01759  -1.21178   0.00489 
 C                     0.64208  -2.39135  -0.42239 
 C                    -0.06582  -3.6008   -0.41631 
 C                    -1.3982   -3.63068   0.01704 
 C                    -2.02268  -2.45112   0.44431 
 C                    -1.31479  -1.24167   0.43824 
 H                     2.85296  -0.32927  -0.76349 
 H                     4.10134   1.80362  -0.7742 
 H                     0.65036   3.83111   0.74352 
 H                     0.41099  -4.50142  -0.74255 
 H                    -3.03999  -2.47394   0.77519 
 Cl                   -2.09908   0.23973   0.97485 
 Cl                   -1.25404   1.6835    0.96759 
 Cl                   -2.28723  -5.14962   0.02467 
 Cl                    3.34859   4.4793   -0.02369 
 Cl                    2.3154   -2.35381  -0.96662 
 

 GradGradGradGradGradGradGradGradGradGradGradGradGradGradGradGradGradGrad
 Berny optimization.
 Initialization pass.
                           ----------------------------
                           !    Initial Parameters    !
                           ! (Angstroms and Degrees)  !
 --------------------------                            --------------------------
 ! Name  Definition              Value          Derivative Info.                !
 --------------------------------------------------------------------------------
 ! R1    R(1,2)                  1.4014         estimate D2E/DX2                !
 ! R2    R(1,6)                  1.4014         estimate D2E/DX2                !
 ! R3    R(2,3)                  1.4014         estimate D2E/DX2                !
 ! R4    R(2,13)                 1.07           estimate D2E/DX2                !
 ! R5    R(3,4)                  1.4014         estimate D2E/DX2                !
 ! R6    R(3,14)                 1.07           estimate D2E/DX2                !
 ! R7    R(4,5)                  1.4014         estimate D2E/DX2                !
 ! R8    R(4,21)                 1.76           estimate D2E/DX2                !
 ! R9    R(5,6)                  1.4014         estimate D2E/DX2                !
 ! R10   R(5,15)                 1.07           estimate D2E/DX2                !
 ! R11   R(6,19)                 1.76           estimate D2E/DX2                !
 ! R12   R(7,8)                  1.4014         estimate D2E/DX2                !
 ! R13   R(7,12)                 1.4014         estimate D2E/DX2                !
 ! R14   R(8,9)                  1.4014         estimate D2E/DX2                !
 ! R15   R(8,22)                 1.76           estimate D2E/DX2                !
 ! R16   R(9,10)                 1.4014         estimate D2E/DX2                !
 ! R17   R(9,16)                 1.07           estimate D2E/DX2                !
 ! R18   R(10,11)                1.4014         estimate D2E/DX2                !
 ! R19   R(10,20)                1.76           estimate D2E/DX2                !
 ! R20   R(11,12)                1.4014         estimate D2E/DX2                !
 ! R21   R(11,17)                1.07           estimate D2E/DX2                !
 ! R22   R(12,18)                1.76           estimate D2E/DX2                !
 ! R23   R(18,19)                1.6729         estimate D2E/DX2                !
 ! A1    A(2,1,6)              120.0            estimate D2E/DX2                !
 ! A2    A(1,2,3)              120.0            estimate D2E/DX2                !
 ! A3    A(1,2,13)             120.0            estimate D2E/DX2                !
 ! A4    A(3,2,13)             120.0            estimate D2E/DX2                !
 ! A5    A(2,3,4)              120.0            estimate D2E/DX2                !
 ! A6    A(2,3,14)             120.0            estimate D2E/DX2                !
 ! A7    A(4,3,14)             120.0            estimate D2E/DX2                !
 ! A8    A(3,4,5)              120.0            estimate D2E/DX2                !
 ! A9    A(3,4,21)             120.0            estimate D2E/DX2                !
 ! A10   A(5,4,21)             120.0            estimate D2E/DX2                !
 ! A11   A(4,5,6)              120.0            estimate D2E/DX2                !
 ! A12   A(4,5,15)             120.0            estimate D2E/DX2                !
 ! A13   A(6,5,15)             120.0            estimate D2E/DX2                !
 ! A14   A(1,6,5)              120.0            estimate D2E/DX2                !
 ! A15   A(1,6,19)             120.0            estimate D2E/DX2                !
 ! A16   A(5,6,19)             120.0            estimate D2E/DX2                !
 ! A17   A(8,7,12)             120.0            estimate D2E/DX2                !
 ! A18   A(7,8,9)              120.0            estimate D2E/DX2                !
 ! A19   A(7,8,22)             120.0            estimate D2E/DX2                !
 ! A20   A(9,8,22)             120.0            estimate D2E/DX2                !
 ! A21   A(8,9,10)             120.0            estimate D2E/DX2                !
 ! A22   A(8,9,16)             120.0            estimate D2E/DX2                !
 ! A23   A(10,9,16)            120.0            estimate D2E/DX2                !
 ! A24   A(9,10,11)            120.0            estimate D2E/DX2                !
 ! A25   A(9,10,20)            120.0            estimate D2E/DX2                !
 ! A26   A(11,10,20)           120.0            estimate D2E/DX2                !
 ! A27   A(10,11,12)           120.0            estimate D2E/DX2                !
 ! A28   A(10,11,17)           120.0            estimate D2E/DX2                !
 ! A29   A(12,11,17)           120.0            estimate D2E/DX2                !
 ! A30   A(7,12,11)            120.0            estimate D2E/DX2                !
 ! A31   A(7,12,18)            120.0            estimate D2E/DX2                !
 ! A32   A(11,12,18)           120.0            estimate D2E/DX2                !
 ! A33   A(12,18,19)           120.0            estimate D2E/DX2                !
 ! A34   A(6,19,18)            120.0            estimate D2E/DX2                !
 ! D1    D(6,1,2,3)              0.0001         estimate D2E/DX2                !
 ! D2    D(6,1,2,13)           180.0            estimate D2E/DX2                !
 ! D3    D(2,1,6,5)             -0.0001         estimate D2E/DX2                !
 ! D4    D(2,1,6,19)           180.0            estimate D2E/DX2                !
 ! D5    D(1,2,3,4)              0.0            estimate D2E/DX2                !
 ! D6    D(1,2,3,14)           180.0            estimate D2E/DX2                !
 ! D7    D(13,2,3,4)          -179.9999         estimate D2E/DX2                !
 ! D8    D(13,2,3,14)            0.0001         estimate D2E/DX2                !
 ! D9    D(2,3,4,5)             -0.0001         estimate D2E/DX2                !
 ! D10   D(2,3,4,21)           180.0            estimate D2E/DX2                !
 ! D11   D(14,3,4,5)           179.9999         estimate D2E/DX2                !
 ! D12   D(14,3,4,21)            0.0            estimate D2E/DX2                !
 ! D13   D(3,4,5,6)              0.0001         estimate D2E/DX2                !
 ! D14   D(3,4,5,15)          -179.9999         estimate D2E/DX2                !
 ! D15   D(21,4,5,6)          -180.0            estimate D2E/DX2                !
 ! D16   D(21,4,5,15)            0.0            estimate D2E/DX2                !
 ! D17   D(4,5,6,1)              0.0            estimate D2E/DX2                !
 ! D18   D(4,5,6,19)           179.9999         estimate D2E/DX2                !
 ! D19   D(15,5,6,1)           180.0            estimate D2E/DX2                !
 ! D20   D(15,5,6,19)           -0.0001         estimate D2E/DX2                !
 ! D21   D(1,6,19,18)            0.0004         estimate D2E/DX2                !
 ! D22   D(5,6,19,18)         -179.9996         estimate D2E/DX2                !
 ! D23   D(12,7,8,9)             0.0001         estimate D2E/DX2                !
 ! D24   D(12,7,8,22)         -179.9998         estimate D2E/DX2                !
 ! D25   D(8,7,12,11)           -0.0001         estimate D2E/DX2                !
 ! D26   D(8,7,12,18)          179.9999         estimate D2E/DX2                !
 ! D27   D(7,8,9,10)             0.0            estimate D2E/DX2                !
 ! D28   D(7,8,9,16)           180.0            estimate D2E/DX2                !
 ! D29   D(22,8,9,10)          179.9998         estimate D2E/DX2                !
 ! D30   D(22,8,9,16)           -0.0002         estimate D2E/DX2                !
 ! D31   D(8,9,10,11)            0.0            estimate D2E/DX2                !
 ! D32   D(8,9,10,20)         -179.9999         estimate D2E/DX2                !
 ! D33   D(16,9,10,11)         180.0            estimate D2E/DX2                !
 ! D34   D(16,9,10,20)           0.0001         estimate D2E/DX2                !
 ! D35   D(9,10,11,12)           0.0            estimate D2E/DX2                !
 ! D36   D(9,10,11,17)        -179.9998         estimate D2E/DX2                !
 ! D37   D(20,10,11,12)        179.9999         estimate D2E/DX2                !
 ! D38   D(20,10,11,17)          0.0001         estimate D2E/DX2                !
 ! D39   D(10,11,12,7)           0.0            estimate D2E/DX2                !
 ! D40   D(10,11,12,18)       -179.9999         estimate D2E/DX2                !
 ! D41   D(17,11,12,7)         179.9999         estimate D2E/DX2                !
 ! D42   D(17,11,12,18)         -0.0001         estimate D2E/DX2                !
 ! D43   D(7,12,18,19)           0.0004         estimate D2E/DX2                !
 ! D44   D(11,12,18,19)       -179.9997         estimate D2E/DX2                !
 ! D45   D(12,18,19,6)          -0.0006         estimate D2E/DX2                !
 --------------------------------------------------------------------------------
 Trust Radius=3.00D-01 FncErr=1.00D-07 GrdErr=1.00D-06 EigMax=2.50D+02 EigMin=1.00D-04
 Number of steps in this run=    112 maximum allowed number of steps=    132.
 GradGradGradGradGradGradGradGradGradGradGradGradGradGradGradGradGradGrad

                          Input orientation:                          
 ---------------------------------------------------------------------
 Center     Atomic      Atomic             Coordinates (Angstroms)
 Number     Number       Type             X           Y           Z
 ---------------------------------------------------------------------
      1          6           0        1.043766    0.541467   -0.003916
      2          6           0        2.376147    0.571353   -0.437263
      3          6           0        3.084040    1.780803   -0.443335
      4          6           0        2.459553    2.960369   -0.016060
      5          6           0        1.127171    2.930483    0.417285
      6          6           0        0.419278    1.721032    0.423357
      7          6           0        0.017588   -1.211780    0.004888
      8          6           0        0.642075   -2.391345   -0.422387
      9          6           0       -0.065818   -3.600797   -0.416313
     10          6           0       -1.398198   -3.630683    0.017037
     11          6           0       -2.022685   -2.451118    0.444312
     12          6           0       -1.314792   -1.241667    0.438238
     13          1           0        2.852957   -0.329272   -0.763495
     14          1           0        4.101343    1.803622   -0.774204
     15          1           0        0.650361    3.831108    0.743516
     16          1           0        0.410992   -4.501421   -0.742547
     17          1           0       -3.039986   -2.473937    0.775187
     18         17           0       -2.099077    0.239733    0.974850
     19         17           0       -1.254043    1.683499    0.967591
     20         17           0       -2.287230   -5.149618    0.024668
     21         17           0        3.348588    4.479302   -0.023686
     22         17           0        2.315395   -2.353812   -0.966621
 ---------------------------------------------------------------------
                    Distance matrix (angstroms):
                    1          2          3          4          5
     1  C    0.000000
     2  C    1.401400   0.000000
     3  C    2.427296   1.401400   0.000000
     4  C    2.802800   2.427296   1.401400   0.000000
     5  C    2.427296   2.802800   2.427296   1.401400   0.000000
     6  C    1.401400   2.427296   2.802800   2.427296   1.401400
     7  C    2.031500   2.989625   4.308084   4.834300   4.308084
     8  C    2.989625   3.432900   4.834300   5.666495   5.409457
     9  C    4.308084   4.834300   6.235700   7.041774   6.691466
    10  C    4.834300   5.666495   7.041774   7.637100   7.041774
    11  C    4.308084   5.409457   6.691466   7.041774   6.235700
    12  C    2.989625   4.204351   5.409457   5.666495   4.834300
    13  H    2.146700   1.070000   2.146700   3.396345   3.872800
    14  H    3.396345   2.146700   1.070000   2.146700   3.396345
    15  H    3.396345   3.872800   3.396345   2.146700   1.070000
    16  H    5.135824   5.448675   6.833817   7.771916   7.555879
    17  H    5.135824   6.330744   7.555879   7.771916   6.833817
    18  Cl   3.305523   4.704429   5.590246   5.400450   4.237887
    19  Cl   2.743718   4.048303   4.562800   4.048303   2.743718
    20  Cl   6.594300   7.395266   8.780678   9.397100   8.780678
    21  Cl   4.562800   4.048303   2.743718   1.760000   2.743718
    22  Cl   3.305523   2.973298   4.237887   5.400450   5.590246
                    6          7          8          9         10
     6  C    0.000000
     7  C    2.989625   0.000000
     8  C    4.204351   1.401400   0.000000
     9  C    5.409457   2.427296   1.401400   0.000000
    10  C    5.666495   2.802800   2.427296   1.401400   0.000000
    11  C    4.834300   2.427296   2.802800   2.427296   1.401400
    12  C    3.432900   1.401400   2.427296   2.802800   2.427296
    13  H    3.396345   3.067336   3.042450   4.398029   5.438829
    14  H    3.872800   5.135824   5.448675   6.833817   7.771916
    15  H    2.146700   5.135824   6.330744   7.555879   7.771916
    16  H    6.330744   3.396345   2.146700   1.070000   2.146700
    17  H    5.448675   3.396345   3.872800   3.396345   2.146700
    18  Cl   2.973298   2.743718   4.048303   4.562800   4.048303
    19  Cl   1.760000   3.305523   4.704429   5.590246   5.400450
    20  Cl   7.395266   4.562800   4.048303   2.743718   1.760000
    21  Cl   4.048303   6.594300   7.395266   8.780678   9.397100
    22  Cl   4.704429   2.743718   1.760000   2.743718   4.048303
                   11         12         13         14         15
    11  C    0.000000
    12  C    1.401400   0.000000
    13  H    5.452790   4.432467   0.000000
    14  H    7.555879   6.330744   2.471400   0.000000
    15  H    6.833817   5.448675   4.942800   4.280590   0.000000
    16  H    3.396345   3.872800   4.834300   7.305700   8.467391
    17  H    1.070000   2.146700   6.457082   8.467391   7.305700
    18  Cl   2.743718   1.760000   5.279038   6.629490   4.528895
    19  Cl   4.237887   2.973298   4.890332   5.632800   2.879094
    20  Cl   2.743718   4.048303   7.090731   9.476266   9.476266
    21  Cl   8.780678   7.395266   4.890332   2.879094   2.879094
    22  Cl   4.562800   4.048303   2.104518   4.528895   6.629490
                   16         17         18         19         20
    16  H    0.000000
    17  H    4.280590   0.000000
    18  Cl   5.632800   2.879094   0.000000
    19  Cl   6.629490   4.528895   1.672900   0.000000
    20  Cl   2.879094   2.879094   5.475705   6.974816   0.000000
    21  Cl   9.476266   9.476266   6.974816   5.475705  11.157100
    22  Cl   2.879094   5.632800   5.475705   5.725552   5.475705
                   21         22
    21  Cl   0.000000
    22  Cl   6.974816   0.000000
 Stoichiometry    C12H5Cl5
 Framework group  C1[X(C12H5Cl5)]
 Deg. of freedom    60
 Full point group                 C1      NOp   1
 Largest Abelian subgroup         C1      NOp   1
 Largest concise Abelian subgroup C1      NOp   1
                         Standard orientation:                         
 ---------------------------------------------------------------------
 Center     Atomic      Atomic             Coordinates (Angstroms)
 Number     Number       Type             X           Y           Z
 ---------------------------------------------------------------------
      1          6           0        1.086292    0.311163    0.000002
      2          6           0        1.745373    1.547907    0.000000
      3          6           0        3.145965    1.595498   -0.000001
      4          6           0        3.887476    0.406345   -0.000002
      5          6           0        3.228395   -0.830398    0.000002
      6          6           0        1.827803   -0.877989    0.000003
      7          6           0       -0.944036    0.242174    0.000003
      8          6           0       -1.685547    1.431327    0.000003
      9          6           0       -3.086138    1.383736    0.000002
     10          6           0       -3.745219    0.146992    0.000000
     11          6           0       -3.003708   -1.042160   -0.000001
     12          6           0       -1.603117   -0.994569   -0.000000
     13          1           0        1.179213    2.455851   -0.000001
     14          1           0        3.649188    2.539779   -0.000003
     15          1           0        3.794555   -1.738342    0.000004
     16          1           0       -3.652298    2.291680    0.000003
     17          1           0       -3.506931   -1.986441   -0.000005
     18         17           0       -0.671863   -2.488010   -0.000004
     19         17           0        1.000072   -2.431199    0.000006
     20         17           0       -5.504204    0.087224   -0.000003
     21         17           0        5.646461    0.466114   -0.000004
     22         17           0       -0.857816    2.984537    0.000001
 ---------------------------------------------------------------------
 Rotational constants (GHZ):           0.5489031           0.1536816           0.1200657
 Standard basis: 6-311+G(d,p) (5D, 7F)
 There are   461 symmetry adapted cartesian basis functions of A   symmetry.
 There are   444 symmetry adapted basis functions of A   symmetry.
   444 basis functions,   737 primitive gaussians,   461 cartesian basis functions
    81 alpha electrons       81 beta electrons
       nuclear repulsion energy      1727.8360971235 Hartrees.
 NAtoms=   22 NActive=   22 NUniq=   22 SFac= 1.00D+00 NAtFMM=   60 NAOKFM=F Big=F
 Integral buffers will be    131072 words long.
 Raffenetti 2 integral format.
 Two-electron integral symmetry is turned on.
 One-electron integrals computed using PRISM.
 NBasis=   444 RedAO= T EigKep=  1.18D-06  NBF=   444
 NBsUse=   439 1.00D-06 EigRej=  8.13D-07 NBFU=   439
 ExpMin= 4.38D-02 ExpMax= 1.06D+05 ExpMxC= 3.62D+03 IAcc=3 IRadAn=         5 AccDes= 0.00D+00
 Harris functional with IExCor=  402 and IRadAn=       5 diagonalized for initial guess.
 HarFok:  IExCor=  402 AccDes= 0.00D+00 IRadAn=         5 IDoV= 1 UseB2=F ITyADJ=14
 ICtDFT=  3500011 ScaDFX=  1.000000  1.000000  1.000000  1.000000
 FoFCou: FMM=F IPFlag=           0 FMFlag=      100000 FMFlg1=           0
         NFxFlg=           0 DoJE=T BraDBF=F KetDBF=T FulRan=T
         wScrn=  0.000000 ICntrl=       500 IOpCl=  0 I1Cent=   200000004 NGrid=           0
         NMat0=    1 NMatS0=      1 NMatT0=    0 NMatD0=    1 NMtDS0=    0 NMtDT0=    0
 Petite list used in FoFCou.
 Requested convergence on RMS density matrix=1.00D-08 within  32 cycles.
 Requested convergence on MAX density matrix=1.00D-06.
 Requested convergence on             energy=1.00D-06.
 No special actions if energy rises.
 EnCoef did     4 forward-backward iterations
 EnCoef did     2 forward-backward iterations
 EnCoef did   100 forward-backward iterations
 EnCoef did     1 forward-backward iterations
 Restarting incremental Fock formation.
 SCF Done:  E(RB3LYP) =  -2760.94852743     A.U. after   27 cycles
            NFock= 27  Conv=0.34D-08     -V/T= 2.0020
 QCSCF skips out because SCF is already converged.

 **********************************************************************

            Population analysis using the SCF Density.

 **********************************************************************

 Orbital symmetries:
       Occupied  (A) (A) (A) (A) (A) (A) (A) (A) (A) (A) (A) (A)
                 (A) (A) (A) (A) (A) (A) (A) (A) (A) (A) (A) (A)
                 (A) (A) (A) (A) (A) (A) (A) (A) (A) (A) (A) (A)
                 (A) (A) (A) (A) (A) (A) (A) (A) (A) (A) (A) (A)
                 (A) (A) (A) (A) (A) (A) (A) (A) (A) (A) (A) (A)
                 (A) (A) (A) (A) (A) (A) (A) (A) (A) (A) (A) (A)
                 (A) (A) (A) (A) (A) (A) (A) (A) (A)
       Virtual   (A) (A) (A) (A) (A) (A) (A) (A) (A) (A) (A) (A)
                 (A) (A) (A) (A) (A) (A) (A) (A) (A) (A) (A) (A)
                 (A) (A) (A) (A) (A) (A) (A) (A) (A) (A) (A) (A)
                 (A) (A) (A) (A) (A) (A) (A) (A) (A) (A) (A) (A)
                 (A) (A) (A) (A) (A) (A) (A) (A) (A) (A) (A) (A)
                 (A) (A) (A) (A) (A) (A) (A) (A) (A) (A) (A) (A)
                 (A) (A) (A) (A) (A) (A) (A) (A) (A) (A) (A) (A)
                 (A) (A) (A) (A) (A) (A) (A) (A) (A) (A) (A) (A)
                 (A) (A) (A) (A) (A) (A) (A) (A) (A) (A) (A) (A)
                 (A) (A) (A) (A) (A) (A) (A) (A) (A) (A) (A) (A)
                 (A) (A) (A) (A) (A) (A) (A) (A) (A) (A) (A) (A)
                 (A) (A) (A) (A) (A) (A) (A) (A) (A) (A) (A) (A)
                 (A) (A) (A) (A) (A) (A) (A) (A) (A) (A) (A) (A)
                 (A) (A) (A) (A) (A) (A) (A) (A) (A) (A) (A) (A)
                 (A) (A) (A) (A) (A) (A) (A) (A) (A) (A) (A) (A)
                 (A) (A) (A) (A) (A) (A) (A) (A) (A) (A) (A) (A)
                 (A) (A) (A) (A) (A) (A) (A) (A) (A) (A) (A) (A)
                 (A) (A) (A) (A) (A) (A) (A) (A) (A) (A) (A) (A)
                 (A) (A) (A) (A) (A) (A) (A) (A) (A) (A) (A) (A)
                 (A) (A) (A) (A) (A) (A) (A) (A) (A) (A) (A) (A)
                 (A) (A) (A) (A) (A) (A) (A) (A) (A) (A) (A) (A)
                 (A) (A) (A) (A) (A) (A) (A) (A) (A) (A) (A) (A)
                 (A) (A) (A) (A) (A) (A) (A) (A) (A) (A) (A) (A)
                 (A) (A) (A) (A) (A) (A) (A) (A) (A) (A) (A) (A)
                 (A) (A) (A) (A) (A) (A) (A) (A) (A) (A) (A) (A)
                 (A) (A) (A) (A) (A) (A) (A) (A) (A) (A) (A) (A)
                 (A) (A) (A) (A) (A) (A) (A) (A) (A) (A) (A) (A)
                 (A) (A) (A) (A) (A) (A) (A) (A) (A) (A) (A) (A)
                 (A) (A) (A) (A) (A) (A) (A) (A) (A) (A) (A) (A)
                 (A) (A) (A) (A) (A) (A) (A) (A) (A) (A)
 The electronic state is 1-A.
 Alpha  occ. eigenvalues -- -101.61530-101.61065-101.56969-101.56819-101.56637
 Alpha  occ. eigenvalues --  -10.27273 -10.26873 -10.26020 -10.26004 -10.25452
 Alpha  occ. eigenvalues --  -10.23601 -10.23212 -10.21964 -10.21419 -10.21289
 Alpha  occ. eigenvalues --  -10.20689 -10.20284  -9.54212  -9.53828  -9.48524
 Alpha  occ. eigenvalues --   -9.48247  -9.48070  -7.30777  -7.30514  -7.29646
 Alpha  occ. eigenvalues --   -7.29226  -7.29161  -7.28735  -7.24970  -7.24719
 Alpha  occ. eigenvalues --   -7.24536  -7.24000  -7.23962  -7.23727  -7.23693
 Alpha  occ. eigenvalues --   -7.23553  -7.23517  -1.10738  -0.92377  -0.91583
 Alpha  occ. eigenvalues --   -0.88852  -0.88028  -0.85639  -0.82840  -0.78582
 Alpha  occ. eigenvalues --   -0.76503  -0.75375  -0.73669  -0.67688  -0.63862
 Alpha  occ. eigenvalues --   -0.62675  -0.60291  -0.57649  -0.54153  -0.51903
 Alpha  occ. eigenvalues --   -0.51780  -0.51337  -0.50085  -0.48925  -0.48244
 Alpha  occ. eigenvalues --   -0.46437  -0.44601  -0.44123  -0.42919  -0.42437
 Alpha  occ. eigenvalues --   -0.42053  -0.40711  -0.39437  -0.37867  -0.36921
 Alpha  occ. eigenvalues --   -0.35079  -0.34247  -0.33439  -0.33078  -0.32176
 Alpha  occ. eigenvalues --   -0.31749  -0.28561  -0.27772  -0.26627  -0.25235
 Alpha  occ. eigenvalues --   -0.11928
 Alpha virt. eigenvalues --   -0.08348  -0.06157  -0.05278  -0.04522  -0.04485
 Alpha virt. eigenvalues --   -0.02495  -0.01114   0.00058   0.00421   0.00838
 Alpha virt. eigenvalues --    0.00971   0.01671   0.02671   0.03338   0.03499
 Alpha virt. eigenvalues --    0.04197   0.05385   0.05497   0.05689   0.05834
 Alpha virt. eigenvalues --    0.06004   0.07195   0.07338   0.07489   0.07958
 Alpha virt. eigenvalues --    0.08515   0.08934   0.09268   0.09583   0.10082
 Alpha virt. eigenvalues --    0.10315   0.10913   0.11053   0.11480   0.11864
 Alpha virt. eigenvalues --    0.12620   0.12722   0.12728   0.13165   0.13284
 Alpha virt. eigenvalues --    0.14313   0.14338   0.14873   0.15373   0.15675
 Alpha virt. eigenvalues --    0.15958   0.16954   0.17297   0.17823   0.17868
 Alpha virt. eigenvalues --    0.17941   0.18160   0.18409   0.19233   0.19518
 Alpha virt. eigenvalues --    0.20429   0.20695   0.21132   0.21296   0.21697
 Alpha virt. eigenvalues --    0.22268   0.22724   0.23138   0.23409   0.23532
 Alpha virt. eigenvalues --    0.23752   0.24042   0.24235   0.24435   0.24872
 Alpha virt. eigenvalues --    0.25449   0.25941   0.26895   0.27360   0.28207
 Alpha virt. eigenvalues --    0.28314   0.29436   0.30019   0.30347   0.30954
 Alpha virt. eigenvalues --    0.31471   0.32151   0.33235   0.33766   0.34576
 Alpha virt. eigenvalues --    0.34818   0.37688   0.39545   0.39996   0.40743
 Alpha virt. eigenvalues --    0.41188   0.41539   0.42377   0.43429   0.43726
 Alpha virt. eigenvalues --    0.44272   0.45282   0.45303   0.45704   0.47142
 Alpha virt. eigenvalues --    0.47369   0.47776   0.48767   0.49742   0.49831
 Alpha virt. eigenvalues --    0.50125   0.51104   0.52393   0.52975   0.53358
 Alpha virt. eigenvalues --    0.53648   0.54965   0.55652   0.57077   0.57681
 Alpha virt. eigenvalues --    0.57826   0.57919   0.58442   0.59804   0.59813
 Alpha virt. eigenvalues --    0.60618   0.60861   0.61967   0.63020   0.63730
 Alpha virt. eigenvalues --    0.64081   0.64549   0.65615   0.65775   0.66558
 Alpha virt. eigenvalues --    0.68271   0.68399   0.69971   0.70131   0.71269
 Alpha virt. eigenvalues --    0.76010   0.76106   0.76167   0.78403   0.79776
 Alpha virt. eigenvalues --    0.81818   0.81966   0.82995   0.83417   0.83521
 Alpha virt. eigenvalues --    0.83818   0.84281   0.84354   0.84533   0.84638
 Alpha virt. eigenvalues --    0.85456   0.85560   0.85654   0.86758   0.87084
 Alpha virt. eigenvalues --    0.87390   0.88934   0.89562   0.90095   0.90492
 Alpha virt. eigenvalues --    0.90585   0.93010   0.93434   0.94383   0.94862
 Alpha virt. eigenvalues --    0.94911   0.95822   0.96843   0.97073   0.97342
 Alpha virt. eigenvalues --    0.97794   0.99988   1.00528   1.01008   1.02787
 Alpha virt. eigenvalues --    1.03659   1.05602   1.06152   1.08003   1.08489
 Alpha virt. eigenvalues --    1.09142   1.11520   1.11616   1.14586   1.15084
 Alpha virt. eigenvalues --    1.17984   1.19326   1.20338   1.21485   1.22678
 Alpha virt. eigenvalues --    1.22915   1.23729   1.25721   1.27436   1.28100
 Alpha virt. eigenvalues --    1.28624   1.29939   1.30253   1.30465   1.30695
 Alpha virt. eigenvalues --    1.32991   1.44363   1.47152   1.48921   1.50605
 Alpha virt. eigenvalues --    1.51146   1.52277   1.55264   1.55618   1.56289
 Alpha virt. eigenvalues --    1.56533   1.59971   1.60609   1.60768   1.62706
 Alpha virt. eigenvalues --    1.67032   1.67979   1.69113   1.69223   1.70867
 Alpha virt. eigenvalues --    1.73583   1.77886   1.80060   1.80547   1.82917
 Alpha virt. eigenvalues --    1.86483   1.86793   1.87785   1.87919   1.88495
 Alpha virt. eigenvalues --    1.89479   1.90926   1.92826   1.95424   1.95665
 Alpha virt. eigenvalues --    1.96252   1.97163   1.99756   1.99987   2.04873
 Alpha virt. eigenvalues --    2.06545   2.07480   2.08465   2.10602   2.15272
 Alpha virt. eigenvalues --    2.18411   2.19102   2.21793   2.22940   2.25930
 Alpha virt. eigenvalues --    2.27069   2.27419   2.27778   2.27867   2.29629
 Alpha virt. eigenvalues --    2.30290   2.30883   2.33868   2.37522   2.39345
 Alpha virt. eigenvalues --    2.40103   2.43853   2.44892   2.50852   2.51617
 Alpha virt. eigenvalues --    2.52890   2.54100   2.55865   2.56494   2.57790
 Alpha virt. eigenvalues --    2.60741   2.60965   2.62575   2.62649   2.63015
 Alpha virt. eigenvalues --    2.65084   2.68509   2.70597   2.71727   2.73389
 Alpha virt. eigenvalues --    2.73974   2.74492   2.74694   2.75787   2.77554
 Alpha virt. eigenvalues --    2.77990   2.78561   2.81147   2.83821   2.84261
 Alpha virt. eigenvalues --    2.86420   2.86774   2.88272   2.91354   3.04684
 Alpha virt. eigenvalues --    3.06311   3.10669   3.11244   3.14323   3.16707
 Alpha virt. eigenvalues --    3.20431   3.22826   3.27902   3.31145   3.33572
 Alpha virt. eigenvalues --    3.36264   3.38643   3.47255   3.53792   3.61168
 Alpha virt. eigenvalues --    3.66453   3.72514   3.78593   3.80982   3.87174
 Alpha virt. eigenvalues --    4.00207   4.08998   4.09678   4.16414   4.80111
 Alpha virt. eigenvalues --    4.80613   9.70496   9.77085   9.77272   9.83393
 Alpha virt. eigenvalues --    9.98187  23.37062  23.44277  23.81754  23.82577
 Alpha virt. eigenvalues --   23.85357  23.90684  23.96986  23.99046  24.01426
 Alpha virt. eigenvalues --   24.02519  24.07276  24.11257  25.76804  25.81571
 Alpha virt. eigenvalues --   25.81963  25.83610  25.95698  26.09400  26.11635
 Alpha virt. eigenvalues --   26.25452  26.34558  26.57957  26.59907  26.68671
 Alpha virt. eigenvalues --   26.77469  26.93871  27.00712 215.71885 215.76266
 Alpha virt. eigenvalues --  215.77186 215.83810 216.04274
          Condensed to atoms (all electrons):
               1          2          3          4          5          6
     1  C   22.230220  -1.362668  -3.097649   0.355137  -5.715824   0.564016
     2  C   -1.362668  15.945631   1.378334  -1.516522  -1.547592  -6.576939
     3  C   -3.097649   1.378334  17.261795   0.971131  -8.950501  -0.928129
     4  C    0.355137  -1.516522   0.971131  18.753328  -3.876204  -4.720498
     5  C   -5.715824  -1.547592  -8.950501  -3.876204  23.595780   0.298256
     6  C    0.564016  -6.576939  -0.928129  -4.720498   0.298256  24.633729
     7  C    6.498577   3.097700  -0.423297   0.316531  -2.996683  -7.139481
     8  C   -1.551691   2.902812   0.201625  -0.034309   0.657358  -1.858703
     9  C   -1.934877  -0.508729   0.113028  -0.016225   0.144224   0.967828
    10  C    0.025031   0.170294   0.115565  -0.061050  -0.075675  -0.543780
    11  C   -2.061533   0.137487  -0.083190  -0.013488  -0.257095   1.316234
    12  C   -3.338011  -5.697563  -0.447118  -0.852437   2.091601   1.636442
    13  H   -0.020196   0.348558  -0.037724  -0.021997  -0.037757   0.064879
    14  H   -0.023238  -0.044552   0.282393   0.030420   0.060670   0.043877
    15  H   -0.062055  -0.021236   0.055630  -0.056878   0.391115  -0.095546
    16  H   -0.013879   0.009610  -0.000119   0.000303  -0.000179  -0.003416
    17  H   -0.003551  -0.002700  -0.000031   0.000348   0.000071   0.019162
    18  Cl   1.519279   1.349527  -0.119961   2.210336  -3.933958  13.305825
    19  Cl  -5.879918  -0.881293   0.195934  -4.730245   6.001068 -13.830833
    20  Cl  -0.079677   0.006385   0.000471  -0.000141  -0.003436  -0.009428
    21  Cl  -0.244418   0.043739   0.399067  -1.521264   0.431057   0.066304
    22  Cl   0.651952  -0.604733  -0.625462  -0.048765   0.157381   0.102632
               7          8          9         10         11         12
     1  C    6.498577  -1.551691  -1.934877   0.025031  -2.061533  -3.338011
     2  C    3.097700   2.902812  -0.508729   0.170294   0.137487  -5.697563
     3  C   -0.423297   0.201625   0.113028   0.115565  -0.083190  -0.447118
     4  C    0.316531  -0.034309  -0.016225  -0.061050  -0.013488  -0.852437
     5  C   -2.996683   0.657358   0.144224  -0.075675  -0.257095   2.091601
     6  C   -7.139481  -1.858703   0.967828  -0.543780   1.316234   1.636442
     7  C   29.572915   1.147841  -3.974684   1.581197  -8.657811  -5.384565
     8  C    1.147841  16.334668  -0.577609  -4.733245  -0.424803  -4.735999
     9  C   -3.974684  -0.577609  19.206965  -0.180428  -8.285880   0.701652
    10  C    1.581197  -4.733245  -0.180428  21.499943  -2.497233  -4.663648
    11  C   -8.657811  -0.424803  -8.285880  -2.497233  23.033520  -1.439780
    12  C   -5.384565  -4.735999   0.701652  -4.663648  -1.439780  35.614341
    13  H    0.029354  -0.005876   0.029606   0.012509  -0.008410  -0.020484
    14  H   -0.005353   0.004665  -0.000809   0.000106   0.000041  -0.003235
    15  H   -0.005253  -0.001231   0.000078   0.000377  -0.000740   0.022373
    16  H    0.010242  -0.005567   0.238364  -0.019565   0.048420   0.065571
    17  H   -0.093442  -0.008204   0.048979  -0.035239   0.405059  -0.147390
    18  Cl -10.139281  -0.978943   0.576574  -5.043914   9.044446 -23.493020
    19  Cl   3.992021   0.799042  -0.267852   1.707111  -4.887449  16.920352
    20  Cl  -0.241442  -0.043779   0.276776  -1.660219   0.582865   0.133827
    21  Cl  -0.063087  -0.006170  -0.000902  -0.000365  -0.003004  -0.009474
    22  Cl  -0.451629  -0.708378  -0.028608  -0.365755   0.225049   0.582861
              13         14         15         16         17         18
     1  C   -0.020196  -0.023238  -0.062055  -0.013879  -0.003551   1.519279
     2  C    0.348558  -0.044552  -0.021236   0.009610  -0.002700   1.349527
     3  C   -0.037724   0.282393   0.055630  -0.000119  -0.000031  -0.119961
     4  C   -0.021997   0.030420  -0.056878   0.000303   0.000348   2.210336
     5  C   -0.037757   0.060670   0.391115  -0.000179   0.000071  -3.933958
     6  C    0.064879   0.043877  -0.095546  -0.003416   0.019162  13.305825
     7  C    0.029354  -0.005353  -0.005253   0.010242  -0.093442 -10.139281
     8  C   -0.005876   0.004665  -0.001231  -0.005567  -0.008204  -0.978943
     9  C    0.029606  -0.000809   0.000078   0.238364   0.048979   0.576574
    10  C    0.012509   0.000106   0.000377  -0.019565  -0.035239  -5.043914
    11  C   -0.008410   0.000041  -0.000740   0.048420   0.405059   9.044446
    12  C   -0.020484  -0.003235   0.022373   0.065571  -0.147390 -23.493020
    13  H    0.579467  -0.009288   0.000098  -0.000000  -0.000000  -0.018912
    14  H   -0.009288   0.519127  -0.000170  -0.000000  -0.000000  -0.003236
    15  H    0.000098  -0.000170   0.508415  -0.000000  -0.000000  -0.060019
    16  H   -0.000000  -0.000000  -0.000000   0.507251  -0.000099   0.019431
    17  H   -0.000000  -0.000000  -0.000000  -0.000099   0.518637   0.192020
    18  Cl  -0.018912  -0.003236  -0.060019   0.019431   0.192020  85.001721
    19  Cl   0.026743   0.011990   0.160089  -0.004394  -0.050328 -53.964563
    20  Cl   0.000046  -0.000001  -0.000001  -0.005171   0.000825   0.185736
    21  Cl   0.001214  -0.011274  -0.002004  -0.000000  -0.000000  -0.038583
    22  Cl  -0.055080   0.000407  -0.000067  -0.009114   0.001083   0.108800
              19         20         21         22
     1  C   -5.879918  -0.079677  -0.244418   0.651952
     2  C   -0.881293   0.006385   0.043739  -0.604733
     3  C    0.195934   0.000471   0.399067  -0.625462
     4  C   -4.730245  -0.000141  -1.521264  -0.048765
     5  C    6.001068  -0.003436   0.431057   0.157381
     6  C  -13.830833  -0.009428   0.066304   0.102632
     7  C    3.992021  -0.241442  -0.063087  -0.451629
     8  C    0.799042  -0.043779  -0.006170  -0.708378
     9  C   -0.267852   0.276776  -0.000902  -0.028608
    10  C    1.707111  -1.660219  -0.000365  -0.365755
    11  C   -4.887449   0.582865  -0.003004   0.225049
    12  C   16.920352   0.133827  -0.009474   0.582861
    13  H    0.026743   0.000046   0.001214  -0.055080
    14  H    0.011990  -0.000001  -0.011274   0.000407
    15  H    0.160089  -0.000001  -0.002004  -0.000067
    16  H   -0.004394  -0.005171  -0.000000  -0.009114
    17  H   -0.050328   0.000825  -0.000000   0.001083
    18  Cl -53.964563   0.185736  -0.038583   0.108800
    19  Cl  70.412776  -0.050061   0.096076  -0.076190
    20  Cl  -0.050061  17.501681  -0.000006  -0.011391
    21  Cl   0.096076  -0.000006  17.437165  -0.001846
    22  Cl  -0.076190  -0.011391  -0.001846  17.587867
 Mulliken charges:
               1
     1  C   -0.455029
     2  C   -0.625550
     3  C   -0.261794
     4  C    0.832487
     5  C   -0.433678
     6  C   -1.312433
     7  C   -0.670369
     8  C   -0.373503
     9  C   -0.527471
    10  C    0.767980
    11  C   -0.172707
    12  C   -1.536296
    13  H    0.143250
    14  H    0.147458
    15  H    0.167026
    16  H    0.162309
    17  H    0.154800
    18  Cl   1.280694
    19  Cl   1.299925
    20  Cl   0.416140
    21  Cl   0.427774
    22  Cl   0.568987
 Sum of Mulliken charges =  -0.00000
 Mulliken charges with hydrogens summed into heavy atoms:
               1
     1  C   -0.455029
     2  C   -0.482300
     3  C   -0.114336
     4  C    0.832487
     5  C   -0.266653
     6  C   -1.312433
     7  C   -0.670369
     8  C   -0.373503
     9  C   -0.365161
    10  C    0.767980
    11  C   -0.017907
    12  C   -1.536296
    18  Cl   1.280694
    19  Cl   1.299925
    20  Cl   0.416140
    21  Cl   0.427774
    22  Cl   0.568987
 Electronic spatial extent (au):  <R**2>=           7810.7048
 Charge=             -0.0000 electrons
 Dipole moment (field-independent basis, Debye):
    X=              0.3188    Y=             -0.9370    Z=             -0.0000  Tot=              0.9898
 Quadrupole moment (field-independent basis, Debye-Ang):
   XX=           -145.4378   YY=           -125.1840   ZZ=           -135.9158
   XY=              1.3878   XZ=             -0.0000   YZ=             -0.0000
 Traceless Quadrupole moment (field-independent basis, Debye-Ang):
   XX=             -9.9252   YY=             10.3285   ZZ=             -0.4033
   XY=              1.3878   XZ=             -0.0000   YZ=             -0.0000
 Octapole moment (field-independent basis, Debye-Ang**2):
  XXX=             -2.9442  YYY=             -8.2327  ZZZ=             -0.0000  XYY=              5.6902
  XXY=              3.1747  XXZ=              0.0000  XZZ=             -1.1383  YZZ=             -6.9627
  YYZ=             -0.0000  XYZ=              0.0000
 Hexadecapole moment (field-independent basis, Debye-Ang**3):
 XXXX=          -8357.0755 YYYY=          -2219.4518 ZZZZ=           -160.3215 XXXY=            -26.6471
 XXXZ=              0.0000 YYYX=             36.6168 YYYZ=             -0.0001 ZZZX=             -0.0000
 ZZZY=             -0.0000 XXYY=          -1652.7865 XXZZ=          -1403.8435 YYZZ=           -415.1384
 XXYZ=              0.0001 YYXZ=             -0.0003 ZZXY=             -4.0113
 N-N= 1.727836097124D+03 E-N=-9.991738729795D+03  KE= 2.755543505954D+03
 Calling FoFJK, ICntrl=      2127 FMM=F ISym2X=0 I1Cent= 0 IOpClX= 0 NMat=1 NMatS=1 NMatT=0.
 ***** Axes restored to original set *****
 -------------------------------------------------------------------
 Center     Atomic                   Forces (Hartrees/Bohr)
 Number     Number              X              Y              Z
 -------------------------------------------------------------------
      1        6          -0.026039482   -0.026976458    0.003512739
      2        6          -0.009561018    0.022830167    0.007437672
      3        6          -0.012658277    0.003814632    0.004886816
      4        6          -0.002645559   -0.014631656   -0.001876508
      5        6          -0.000192611   -0.001190840   -0.000159987
      6        6           0.051098013    0.001032668   -0.016640533
      7        6           0.003534568    0.035281328    0.005461426
      8        6          -0.025300258    0.012227240    0.010631891
      9        6          -0.001813121    0.005270922    0.001587261
     10        6           0.010472204    0.013267996   -0.000958380
     11        6           0.008381466   -0.002681581   -0.003265028
     12        6           0.023727085   -0.096461773   -0.025933293
     13        1           0.002752558    0.005976503    0.000215538
     14        1           0.008754071    0.000515255   -0.002787262
     15        1          -0.000966008    0.007614026    0.001748236
     16        1           0.004103964   -0.007706031   -0.002799359
     17        1          -0.008034278   -0.003886601    0.001916983
     18       17          -0.279927963   -0.452314954    0.007279095
     19       17           0.256768093    0.526874034    0.014353712
     20       17           0.000536368   -0.000625764   -0.000294219
     21       17          -0.002333259   -0.002084824    0.000377129
     22       17          -0.000656554   -0.026144288   -0.004693930
 -------------------------------------------------------------------
 Cartesian Forces:  Max     0.526874034 RMS     0.098960192

 GradGradGradGradGradGradGradGradGradGradGradGradGradGradGradGradGradGrad
 Berny optimization.
 FormGI is forming the generalized inverse of G from B-inverse, IUseBI=4.
 Internal  Forces:  Max     0.585832934 RMS     0.060303807
 Search for a local minimum.
 Step number   1 out of a maximum of  112
 All quantities printed in internal units (Hartrees-Bohrs-Radians)
 Mixed Optimization -- RFO/linear search
 Second derivative matrix not updated -- first step.
 ITU=  0
     Eigenvalues ---    0.00238   0.00238   0.01655   0.01655   0.02070
     Eigenvalues ---    0.02070   0.02070   0.02070   0.02070   0.02070
     Eigenvalues ---    0.02070   0.02070   0.02070   0.02070   0.02070
     Eigenvalues ---    0.02070   0.02070   0.02070   0.04301   0.16000
     Eigenvalues ---    0.16000   0.16000   0.16000   0.16000   0.22308
     Eigenvalues ---    0.23478   0.23491   0.23493   0.24544   0.25000
     Eigenvalues ---    0.25000   0.25000   0.25000   0.25000   0.25000
     Eigenvalues ---    0.25000   0.25000   0.29539   0.29539   0.29539
     Eigenvalues ---    0.29539   0.29539   0.37230   0.37230   0.37230
     Eigenvalues ---    0.37230   0.37230   0.41409   0.41554   0.42102
     Eigenvalues ---    0.42118   0.45389   0.45389   0.45389   0.45389
     Eigenvalues ---    0.45389   0.45389   0.45389   0.45389   1.32680
 RFO step:  Lambda=-2.66975080D-01 EMin= 2.37799083D-03
 Linear search not attempted -- first point.
 Maximum step size (   0.300) exceeded in Quadratic search.
    -- Step size scaled by   0.623
 Iteration  1 RMS(Cart)=  0.22955576 RMS(Int)=  0.00554006
 Iteration  2 RMS(Cart)=  0.01290569 RMS(Int)=  0.00003948
 Iteration  3 RMS(Cart)=  0.00004797 RMS(Int)=  0.00003620
 Iteration  4 RMS(Cart)=  0.00000000 RMS(Int)=  0.00003620
 Variable       Old X    -DE/DX   Delta X   Delta X   Delta X     New X
                                 (Linear)    (Quad)   (Total)
    R1        2.64826  -0.00155   0.00000  -0.00124  -0.00121   2.64705
    R2        2.64826  -0.00760   0.00000  -0.00632  -0.00627   2.64199
    R3        2.64826  -0.00531   0.00000  -0.00474  -0.00475   2.64351
    R4        2.02201  -0.00387   0.00000  -0.00377  -0.00377   2.01824
    R5        2.64826  -0.01801   0.00000  -0.01581  -0.01586   2.63240
    R6        2.02201   0.00920   0.00000   0.00896   0.00896   2.03097
    R7        2.64826  -0.01557   0.00000  -0.01356  -0.01359   2.63467
    R8        3.32592  -0.00298   0.00000  -0.00330  -0.00330   3.32262
    R9        2.64826  -0.00492   0.00000  -0.00410  -0.00409   2.64417
   R10        2.02201   0.00737   0.00000   0.00718   0.00718   2.02919
   R11        3.32592   0.00875   0.00000   0.00969   0.00969   3.33561
   R12        2.64826   0.01604   0.00000   0.01447   0.01453   2.66279
   R13        2.64826   0.00306   0.00000   0.00334   0.00340   2.65166
   R14        2.64826  -0.00974   0.00000  -0.00850  -0.00851   2.63975
   R15        3.32592   0.00027   0.00000   0.00030   0.00030   3.32622
   R16        2.64826  -0.02495   0.00000  -0.02225  -0.02231   2.62595
   R17        2.02201   0.00917   0.00000   0.00893   0.00893   2.03094
   R18        2.64826  -0.01962   0.00000  -0.01756  -0.01762   2.63065
   R19        3.32592   0.00027   0.00000   0.00030   0.00030   3.32621
   R20        2.64826  -0.00031   0.00000  -0.00018  -0.00018   2.64809
   R21        2.02201   0.00831   0.00000   0.00810   0.00810   2.03011
   R22        3.32592   0.07241   0.00000   0.08021   0.08021   3.40613
   R23        3.16132   0.58583   0.00000   0.22899   0.22899   3.39031
    A1        2.09440  -0.03281   0.00000  -0.03901  -0.03890   2.05550
    A2        2.09440   0.01608   0.00000   0.02034   0.02035   2.11475
    A3        2.09440  -0.00266   0.00000  -0.00231  -0.00232   2.09208
    A4        2.09440  -0.01343   0.00000  -0.01803  -0.01803   2.07636
    A5        2.09440   0.00087   0.00000   0.00036   0.00029   2.09468
    A6        2.09440  -0.00011   0.00000   0.00030   0.00033   2.09473
    A7        2.09440  -0.00077   0.00000  -0.00066  -0.00062   2.09377
    A8        2.09440  -0.00173   0.00000  -0.00272  -0.00281   2.09159
    A9        2.09440   0.00257   0.00000   0.00342   0.00346   2.09786
   A10        2.09440  -0.00085   0.00000  -0.00070  -0.00066   2.09374
   A11        2.09440  -0.00670   0.00000  -0.00864  -0.00867   2.08573
   A12        2.09440   0.00056   0.00000   0.00025   0.00026   2.09466
   A13        2.09440   0.00614   0.00000   0.00839   0.00840   2.10280
   A14        2.09440   0.02427   0.00000   0.02968   0.02973   2.12412
   A15        2.09440  -0.01682   0.00000  -0.02048  -0.02051   2.07389
   A16        2.09440  -0.00745   0.00000  -0.00919  -0.00922   2.08518
   A17        2.09440  -0.03824   0.00000  -0.04359  -0.04341   2.05098
   A18        2.09440   0.01901   0.00000   0.02348   0.02352   2.11791
   A19        2.09440   0.03468   0.00000   0.04150   0.04148   2.13588
   A20        2.09440  -0.05369   0.00000  -0.06498  -0.06500   2.02940
   A21        2.09440   0.00242   0.00000   0.00175   0.00166   2.09606
   A22        2.09440  -0.00123   0.00000  -0.00091  -0.00086   2.09353
   A23        2.09440  -0.00119   0.00000  -0.00084  -0.00080   2.09360
   A24        2.09440  -0.00217   0.00000  -0.00464  -0.00477   2.08962
   A25        2.09440  -0.00030   0.00000   0.00065   0.00071   2.09511
   A26        2.09440   0.00247   0.00000   0.00399   0.00406   2.09845
   A27        2.09440   0.00254   0.00000   0.00227   0.00221   2.09660
   A28        2.09440  -0.00508   0.00000  -0.00669  -0.00667   2.08773
   A29        2.09440   0.00254   0.00000   0.00443   0.00446   2.09885
   A30        2.09440   0.01645   0.00000   0.02074   0.02080   2.11520
   A31        2.09440   0.00798   0.00000   0.00916   0.00913   2.10352
   A32        2.09440  -0.02443   0.00000  -0.02990  -0.02993   2.06446
   A33        2.09440   0.10091   0.00000   0.12159   0.12159   2.21599
   A34        2.09440  -0.02046   0.00000  -0.02466  -0.02466   2.06974
    D1        0.00000   0.00000   0.00000   0.00000   0.00000   0.00000
    D2        3.14159   0.00000   0.00000   0.00000   0.00000   3.14159
    D3       -0.00000  -0.00000   0.00000  -0.00000  -0.00000  -0.00000
    D4        3.14159   0.00000   0.00000   0.00000   0.00000   3.14159
    D5        0.00000  -0.00000   0.00000  -0.00000  -0.00000   0.00000
    D6        3.14159  -0.00000   0.00000  -0.00000  -0.00000   3.14159
    D7       -3.14159  -0.00000   0.00000  -0.00000  -0.00000  -3.14159
    D8        0.00000  -0.00000   0.00000  -0.00000  -0.00000   0.00000
    D9       -0.00000   0.00000   0.00000   0.00000   0.00000  -0.00000
   D10        3.14159  -0.00000   0.00000  -0.00000  -0.00000   3.14159
   D11        3.14159   0.00000   0.00000   0.00000   0.00000   3.14159
   D12        0.00000  -0.00000   0.00000  -0.00000  -0.00000   0.00000
   D13        0.00000  -0.00000   0.00000  -0.00000  -0.00000   0.00000
   D14       -3.14159  -0.00000   0.00000  -0.00000  -0.00000  -3.14159
   D15       -3.14159  -0.00000   0.00000  -0.00000  -0.00000  -3.14159
   D16        0.00000  -0.00000   0.00000  -0.00000  -0.00000   0.00000
   D17       -0.00000   0.00000   0.00000   0.00000   0.00000  -0.00000
   D18        3.14159  -0.00000   0.00000  -0.00000  -0.00000   3.14159
   D19        3.14159   0.00000   0.00000   0.00000   0.00000   3.14159
   D20       -0.00000  -0.00000   0.00000  -0.00000  -0.00000  -0.00000
   D21        0.00001  -0.00000   0.00000  -0.00000  -0.00000   0.00001
   D22       -3.14159  -0.00000   0.00000  -0.00000  -0.00000  -3.14159
   D23        0.00000   0.00000   0.00000   0.00000   0.00000   0.00000
   D24       -3.14159  -0.00000   0.00000  -0.00000  -0.00000  -3.14159
   D25       -0.00000  -0.00000   0.00000  -0.00000  -0.00000  -0.00000
   D26        3.14159   0.00000   0.00000   0.00000   0.00000   3.14159
   D27       -0.00000  -0.00000   0.00000  -0.00000  -0.00000  -0.00000
   D28        3.14159  -0.00000   0.00000  -0.00000  -0.00000   3.14159
   D29        3.14159   0.00000   0.00000   0.00000   0.00000   3.14159
   D30       -0.00000   0.00000   0.00000   0.00000   0.00000  -0.00000
   D31       -0.00000   0.00000   0.00000   0.00000   0.00000  -0.00000
   D32       -3.14159  -0.00000   0.00000  -0.00000  -0.00000  -3.14159
   D33        3.14159   0.00000   0.00000   0.00000   0.00000   3.14159
   D34        0.00000   0.00000   0.00000   0.00000   0.00000   0.00000
   D35        0.00000  -0.00000   0.00000  -0.00000  -0.00000   0.00000
   D36       -3.14159  -0.00000   0.00000  -0.00000  -0.00000  -3.14159
   D37        3.14159   0.00000   0.00000   0.00000   0.00000   3.14159
   D38        0.00000  -0.00000   0.00000  -0.00000  -0.00000   0.00000
   D39        0.00000   0.00000   0.00000   0.00000   0.00000   0.00000
   D40       -3.14159  -0.00000   0.00000  -0.00000  -0.00000  -3.14159
   D41        3.14159   0.00000   0.00000   0.00000   0.00000   3.14159
   D42       -0.00000  -0.00000   0.00000  -0.00000  -0.00000  -0.00000
   D43        0.00001  -0.00000   0.00000  -0.00000  -0.00000   0.00001
   D44       -3.14159   0.00000   0.00000   0.00000   0.00000  -3.14159
   D45       -0.00001  -0.00000   0.00000  -0.00000  -0.00000  -0.00001
         Item               Value     Threshold  Converged?
 Maximum Force            0.585833     0.000450     NO 
 RMS     Force            0.060304     0.000300     NO 
 Maximum Displacement     1.116193     0.001800     NO 
 RMS     Displacement     0.240636     0.001200     NO 
 Predicted change in Energy=-1.265241D-01
 GradGradGradGradGradGradGradGradGradGradGradGradGradGradGradGradGradGrad

                          Input orientation:                          
 ---------------------------------------------------------------------
 Center     Atomic      Atomic             Coordinates (Angstroms)
 Number     Number       Type             X           Y           Z
 ---------------------------------------------------------------------
      1          6           0        1.164076    0.708085   -0.012257
      2          6           0        2.496361    0.819640   -0.430232
      3          6           0        3.158513    2.051817   -0.416968
      4          6           0        2.492952    3.195940    0.017179
      5          6           0        1.166561    3.109324    0.437893
      6          6           0        0.517198    1.870035    0.419080
      7          6           0        0.073693   -1.465660   -0.061282
      8          6           0        0.569600   -2.722656   -0.460738
      9          6           0       -0.229112   -3.867674   -0.412639
     10          6           0       -1.541701   -3.783316    0.035650
     11          6           0       -2.056623   -2.553579    0.436252
     12          6           0       -1.254429   -1.405635    0.387556
     13          1           0        3.022652   -0.046779   -0.766339
     14          1           0        4.180986    2.116281   -0.741718
     15          1           0        0.650801    3.989478    0.773110
     16          1           0        0.172166   -4.815206   -0.722799
     17          1           0       -3.071606   -2.490360    0.782525
     18         17           0       -1.971568    0.160625    0.917984
     19         17           0       -1.162075    1.761335    0.951907
     20         17           0       -2.546847   -5.227003    0.095671
     21         17           0        3.320597    4.747104    0.035830
     22         17           0        2.215231   -2.944476   -1.044563
 ---------------------------------------------------------------------
                    Distance matrix (angstroms):
                    1          2          3          4          5
     1  C    0.000000
     2  C    1.400760   0.000000
     3  C    2.438685   1.398886   0.000000
     4  C    2.820674   2.418055   1.393008   0.000000
     5  C    2.443069   2.786514   2.411842   1.394208   0.000000
     6  C    1.398081   2.396194   2.776430   2.413121   1.399237
     7  C    2.432386   3.350826   4.692043   5.252569   4.730117
     8  C    3.510629   4.032517   5.431388   6.241591   5.930926
     9  C    4.799880   5.422124   6.820293   7.582151   7.165878
    10  C    5.243683   6.140862   7.506374   8.061562   7.416533
    11  C    4.605704   5.732282   7.009657   7.343788   6.515933
    12  C    3.236793   4.437234   5.663505   5.945968   5.123336
    13  H    2.143074   1.068004   2.131813   3.377826   3.854379
    14  H    3.408354   2.148550   1.074742   2.142672   3.385908
    15  H    3.412886   3.860310   3.385179   2.143515   1.073802
    16  H    5.656457   6.102374   7.494519   8.373296   8.070577
    17  H    5.366818   6.590079   7.802855   7.992751   7.031166
    18  Cl   3.316222   4.713213   5.628183   5.473256   4.332802
    19  Cl   2.729455   4.022592   4.541550   4.036215   2.739312
    20  Cl   7.000562   7.891287   9.262567   9.815890   9.132407
    21  Cl   4.578927   4.039995   2.737859   1.758253   2.735663
    22  Cl   3.938500   3.824265   5.123144   6.237718   6.320275
                    6          7          8          9         10
     6  C    0.000000
     7  C    3.399162   0.000000
     8  C    4.676498   1.409087   0.000000
     9  C    5.845514   2.446389   1.396897   0.000000
    10  C    6.028802   2.826734   2.414330   1.389593   0.000000
    11  C    5.117930   2.443226   2.780328   2.405672   1.392078
    12  C    3.724200   1.403199   2.404419   2.784462   2.420688
    13  H    3.369970   3.347639   3.642962   5.029743   5.953000
    14  H    3.851160   5.492099   6.044532   7.440765   8.255828
    15  H    2.152958   5.548675   6.825080   7.994692   8.109701
    16  H    6.790831   3.415665   2.146019   1.074728   2.139482
    17  H    5.659033   3.413932   3.854613   3.377156   2.137795
    18  Cl   3.060220   2.790494   4.083101   4.586273   4.064230
    19  Cl   1.765129   3.600995   5.010033   5.866698   5.632654
    20  Cl   7.736983   4.586891   4.036531   2.734602   1.760157
    21  Cl   4.035276   7.010724   7.975706   9.328235   9.818860
    22  Cl   5.310845   2.782072   1.760158   2.688203   3.998131
                   11         12         13         14         15
    11  C    0.000000
    12  C    1.401307   0.000000
    13  H    5.790449   4.633723   0.000000
    14  H    7.880544   6.574412   2.453808   0.000000
    15  H    7.089091   5.734614   4.928180   4.273848   0.000000
    16  H    3.380216   3.859176   5.555634   8.007279   8.943674
    17  H    1.074287   2.152850   6.746114   8.726085   7.472932
    18  Cl   2.757934   1.802446   5.274675   6.665818   4.643052
    19  Cl   4.436732   3.218185   4.871713   5.616285   2.878040
    20  Cl   2.739254   4.044551   7.654874   9.994437   9.778926
    21  Cl   9.076056   7.675335   4.869658   2.875079   2.871479
    22  Cl   4.538099   4.056789   3.020924   5.437570   7.336968
                   16         17         18         19         20
    16  H    0.000000
    17  H    4.265321   0.000000
    18  Cl   5.660977   2.873352   0.000000
    19  Cl   6.916338   4.663894   1.794074   0.000000
    20  Cl   2.869233   2.869905   5.480299   7.175486   0.000000
    21  Cl  10.095837   9.684973   7.058400   5.463366  11.572091
    22  Cl   2.788778   5.612051   5.569787   6.126723   5.402541
                   21         22
    21  Cl   0.000000
    22  Cl   7.845348   0.000000
 Stoichiometry    C12H5Cl5
 Framework group  C1[X(C12H5Cl5)]
 Deg. of freedom    60
 Full point group                 C1      NOp   1
 Largest Abelian subgroup         C1      NOp   1
 Largest concise Abelian subgroup C1      NOp   1
                         Standard orientation:                         
 ---------------------------------------------------------------------
 Center     Atomic      Atomic             Coordinates (Angstroms)
 Number     Number       Type             X           Y           Z
 ---------------------------------------------------------------------
      1          6           0        1.320254    0.368338   -0.000003
      2          6           0        2.015088    1.584617   -0.000007
      3          6           0        3.413540    1.619473   -0.000007
      4          6           0        4.140231    0.431032   -0.000003
      5          6           0        3.470347   -0.791700    0.000003
      6          6           0        2.071242   -0.810919    0.000003
      7          6           0       -1.112100    0.380985    0.000005
      8          6           0       -2.015574    1.462309    0.000006
      9          6           0       -3.397010    1.255056    0.000003
     10          6           0       -3.907717   -0.037287   -0.000001
     11          6           0       -3.037130   -1.123546   -0.000002
     12          6           0       -1.651520   -0.914389    0.000000
     13          1           0        1.474730    2.505837   -0.000011
     14          1           0        3.927869    2.563155   -0.000011
     15          1           0        4.027701   -1.709528    0.000008
     16          1           0       -4.065792    2.096347    0.000004
     17          1           0       -3.433844   -2.121900   -0.000008
     18         17           0       -0.570074   -2.356362   -0.000003
     19         17           0        1.223998   -2.359420    0.000009
     20         17           0       -5.648639   -0.296787   -0.000007
     21         17           0        5.898069    0.469260   -0.000004
     22         17           0       -1.479152    3.138737    0.000007
 ---------------------------------------------------------------------
 Rotational constants (GHZ):           0.5485721           0.1375173           0.1099538
 Standard basis: 6-311+G(d,p) (5D, 7F)
 There are   461 symmetry adapted cartesian basis functions of A   symmetry.
 There are   444 symmetry adapted basis functions of A   symmetry.
   444 basis functions,   737 primitive gaussians,   461 cartesian basis functions
    81 alpha electrons       81 beta electrons
       nuclear repulsion energy      1677.1760681102 Hartrees.
 NAtoms=   22 NActive=   22 NUniq=   22 SFac= 1.00D+00 NAtFMM=   60 NAOKFM=F Big=F
 Integral buffers will be    131072 words long.
 Raffenetti 2 integral format.
 Two-electron integral symmetry is turned on.
 One-electron integrals computed using PRISM.
 NBasis=   444 RedAO= T EigKep=  1.20D-06  NBF=   444
 NBsUse=   440 1.00D-06 EigRej=  9.32D-07 NBFU=   440
 Initial guess from the checkpoint file:  "./Gau-161127.chk"
 B after Tr=     0.000000   -0.000000   -0.000000
         Rot=    0.999791    0.000000    0.000000   -0.020429 Ang=   2.34 deg.
 ExpMin= 4.38D-02 ExpMax= 1.06D+05 ExpMxC= 3.62D+03 IAcc=3 IRadAn=         5 AccDes= 0.00D+00
 Harris functional with IExCor=  402 and IRadAn=       5 diagonalized for initial guess.
 HarFok:  IExCor=  402 AccDes= 0.00D+00 IRadAn=         5 IDoV= 1 UseB2=F ITyADJ=14
 ICtDFT=  3500011 ScaDFX=  1.000000  1.000000  1.000000  1.000000
 FoFCou: FMM=F IPFlag=           0 FMFlag=      100000 FMFlg1=           0
         NFxFlg=           0 DoJE=T BraDBF=F KetDBF=T FulRan=T
         wScrn=  0.000000 ICntrl=       500 IOpCl=  0 I1Cent=   200000004 NGrid=           0
         NMat0=    1 NMatS0=      1 NMatT0=    0 NMatD0=    1 NMtDS0=    0 NMtDT0=    0
 Petite list used in FoFCou.
 Requested convergence on RMS density matrix=1.00D-08 within  32 cycles.
 Requested convergence on MAX density matrix=1.00D-06.
 Requested convergence on             energy=1.00D-06.
 No special actions if energy rises.
 SCF Done:  E(RB3LYP) =  -2761.06100258     A.U. after   20 cycles
            NFock= 20  Conv=0.46D-08     -V/T= 2.0023
 QCSCF skips out because SCF is already converged.
 Calling FoFJK, ICntrl=      2127 FMM=F ISym2X=0 I1Cent= 0 IOpClX= 0 NMat=1 NMatS=1 NMatT=0.
 ***** Axes restored to original set *****
 -------------------------------------------------------------------
 Center     Atomic                   Forces (Hartrees/Bohr)
 Number     Number              X              Y              Z
 -------------------------------------------------------------------
      1        6          -0.006712638   -0.010407559    0.000256727
      2        6          -0.013958378    0.006783491    0.005872682
      3        6          -0.004302612   -0.000005955    0.001416538
      4        6          -0.002145792   -0.009607526   -0.001097669
      5        6          -0.007549943    0.003743199    0.003190489
      6        6           0.026582925   -0.023487693   -0.013168742
      7        6          -0.026659896    0.007561310    0.010203644
      8        6          -0.010094772    0.020885798    0.007248563
      9        6          -0.000937267   -0.000727204    0.000172118
     10        6           0.006085758    0.006277107   -0.000826084
     11        6          -0.001339939    0.003522488    0.001103015
     12        6           0.030780837   -0.072941288   -0.023840134
     13        1           0.004561667   -0.009279120   -0.003245626
     14        1           0.005514323    0.000258433   -0.001768156
     15        1          -0.001116172    0.005135298    0.001332220
     16        1           0.002777197   -0.004342592   -0.001730546
     17        1          -0.005945602   -0.001837251    0.001613729
     18       17          -0.128874825   -0.299494362   -0.013786379
     19       17           0.131433858    0.374342428    0.027000073
     20       17           0.001595440    0.002559664   -0.000044935
     21       17          -0.002863348   -0.002849600    0.000408155
     22       17           0.003169178    0.003910934   -0.000309681
 -------------------------------------------------------------------
 Cartesian Forces:  Max     0.374342428 RMS     0.064595173

 GradGradGradGradGradGradGradGradGradGradGradGradGradGradGradGradGradGrad
 Berny optimization.
 Using GEDIIS/GDIIS optimizer.
 FormGI is forming the generalized inverse of G from B-inverse, IUseBI=4.
 Internal  Forces:  Max     0.357346963 RMS     0.042782898
 Search for a local minimum.
 Step number   2 out of a maximum of  112
 All quantities printed in internal units (Hartrees-Bohrs-Radians)
 Mixed Optimization -- RFO/linear search
 Update second derivatives using D2CorX and points    1    2
 DE= -1.12D-01 DEPred=-1.27D-01 R= 8.89D-01
 TightC=F SS=  1.41D+00  RLast= 3.00D-01 DXNew= 5.0454D-01 9.0000D-01
 Trust test= 8.89D-01 RLast= 3.00D-01 DXMaxT set to 5.05D-01
 ITU=  1  0
 Use linear search instead of GDIIS.
 Linear search step of   0.600 exceeds DXMaxT=   0.505 but not scaled.
 Quartic linear search produced a step of  2.00000.
 Iteration  1 RMS(Cart)=  0.31666021 RMS(Int)=  0.03020718
 Iteration  2 RMS(Cart)=  0.13231316 RMS(Int)=  0.00660854
 Iteration  3 RMS(Cart)=  0.01342921 RMS(Int)=  0.00021351
 Iteration  4 RMS(Cart)=  0.00000995 RMS(Int)=  0.00021350
 Iteration  5 RMS(Cart)=  0.00000000 RMS(Int)=  0.00021350
 Variable       Old X    -DE/DX   Delta X   Delta X   Delta X     New X
                                 (Linear)    (Quad)   (Total)
    R1        2.64705  -0.01231  -0.00242   0.00000  -0.00225   2.64481
    R2        2.64199   0.00007  -0.01255   0.00000  -0.01228   2.62971
    R3        2.64351  -0.00008  -0.00950   0.00000  -0.00958   2.63393
    R4        2.01824   0.01080  -0.00754   0.00000  -0.00754   2.01069
    R5        2.63240   0.00282  -0.03172   0.00000  -0.03198   2.60042
    R6        2.03097   0.00580   0.01792   0.00000   0.01792   2.04889
    R7        2.63467  -0.00164  -0.02718   0.00000  -0.02736   2.60731
    R8        3.32262  -0.00386  -0.00660   0.00000  -0.00660   3.31602
    R9        2.64417  -0.00863  -0.00818   0.00000  -0.00808   2.63609
   R10        2.02919   0.00516   0.01437   0.00000   0.01437   2.04356
   R11        3.33561  -0.00228   0.01938   0.00000   0.01938   3.35499
   R12        2.66279  -0.02733   0.02905   0.00000   0.02936   2.69215
   R13        2.65166  -0.04051   0.00680   0.00000   0.00716   2.65883
   R14        2.63975   0.00101  -0.01702   0.00000  -0.01707   2.62269
   R15        3.32622   0.00257   0.00060   0.00000   0.00060   3.32682
   R16        2.62595   0.00440  -0.04462   0.00000  -0.04500   2.58095
   R17        2.03094   0.00536   0.01787   0.00000   0.01787   2.04881
   R18        2.63065   0.00173  -0.03523   0.00000  -0.03555   2.59509
   R19        3.32621  -0.00301   0.00059   0.00000   0.00059   3.32681
   R20        2.64809  -0.00675  -0.00035   0.00000  -0.00030   2.64778
   R21        2.03011   0.00603   0.01620   0.00000   0.01620   2.04631
   R22        3.40613   0.03218   0.16042   0.00000   0.16042   3.56655
   R23        3.39031   0.35735   0.45797   0.00000   0.45797   3.84828
    A1        2.05550  -0.00323  -0.07780   0.00000  -0.07714   1.97835
    A2        2.11475  -0.00346   0.04071   0.00000   0.04077   2.15552
    A3        2.09208   0.00079  -0.00464   0.00000  -0.00467   2.08740
    A4        2.07636   0.00267  -0.03607   0.00000  -0.03610   2.04026
    A5        2.09468   0.00069   0.00058   0.00000   0.00019   2.09487
    A6        2.09473  -0.00044   0.00067   0.00000   0.00087   2.09560
    A7        2.09377  -0.00025  -0.00125   0.00000  -0.00105   2.09272
    A8        2.09159   0.00666  -0.00561   0.00000  -0.00611   2.08548
    A9        2.09786  -0.00123   0.00693   0.00000   0.00718   2.10504
   A10        2.09374  -0.00543  -0.00132   0.00000  -0.00107   2.09267
   A11        2.08573  -0.01673  -0.01733   0.00000  -0.01747   2.06826
   A12        2.09466   0.00668   0.00053   0.00000   0.00060   2.09526
   A13        2.10280   0.01005   0.01680   0.00000   0.01687   2.11967
   A14        2.12412   0.01607   0.05946   0.00000   0.05977   2.18389
   A15        2.07389  -0.03933  -0.04102   0.00000  -0.04117   2.03271
   A16        2.08518   0.02327  -0.01844   0.00000  -0.01859   2.06658
   A17        2.05098   0.00605  -0.08683   0.00000  -0.08580   1.96518
   A18        2.11791  -0.00264   0.04703   0.00000   0.04724   2.16515
   A19        2.13588  -0.00589   0.08297   0.00000   0.08286   2.21874
   A20        2.02940   0.00853  -0.13000   0.00000  -0.13010   1.89930
   A21        2.09606  -0.00531   0.00332   0.00000   0.00283   2.09889
   A22        2.09353   0.00176  -0.00173   0.00000  -0.00148   2.09205
   A23        2.09360   0.00355  -0.00159   0.00000  -0.00135   2.09225
   A24        2.08962   0.00287  -0.00955   0.00000  -0.01032   2.07931
   A25        2.09511  -0.00116   0.00143   0.00000   0.00181   2.09692
   A26        2.09845  -0.00171   0.00812   0.00000   0.00850   2.10696
   A27        2.09660  -0.01975   0.00442   0.00000   0.00408   2.10068
   A28        2.08773   0.00761  -0.01333   0.00000  -0.01316   2.07457
   A29        2.09885   0.01214   0.00891   0.00000   0.00908   2.10793
   A30        2.11520   0.01878   0.04160   0.00000   0.04197   2.15716
   A31        2.10352  -0.06990   0.01826   0.00000   0.01808   2.12160
   A32        2.06446   0.05112  -0.05986   0.00000  -0.06004   2.00442
   A33        2.21599  -0.06829   0.24318   0.00000   0.24318   2.45917
   A34        2.06974  -0.19697  -0.04932   0.00000  -0.04932   2.02042
    D1        0.00000  -0.00000   0.00000   0.00000   0.00000   0.00000
    D2        3.14159   0.00000   0.00000   0.00000   0.00000   3.14159
    D3       -0.00000   0.00000  -0.00000   0.00000  -0.00000  -0.00000
    D4        3.14159  -0.00000   0.00000   0.00000   0.00000  -3.14159
    D5        0.00000  -0.00000  -0.00000   0.00000  -0.00000   0.00000
    D6        3.14159   0.00000  -0.00000   0.00000  -0.00000   3.14159
    D7       -3.14159  -0.00000  -0.00000   0.00000  -0.00000  -3.14159
    D8        0.00000  -0.00000  -0.00000   0.00000  -0.00000   0.00000
    D9       -0.00000   0.00000   0.00000   0.00000   0.00000  -0.00000
   D10        3.14159   0.00000  -0.00000   0.00000  -0.00000   3.14159
   D11        3.14159   0.00000   0.00000   0.00000   0.00000   3.14159
   D12        0.00000  -0.00000  -0.00000   0.00000  -0.00000   0.00000
   D13        0.00000  -0.00000  -0.00000   0.00000  -0.00000   0.00000
   D14       -3.14159  -0.00000  -0.00000   0.00000  -0.00000  -3.14159
   D15       -3.14159  -0.00000  -0.00000   0.00000  -0.00000  -3.14159
   D16        0.00000   0.00000  -0.00000   0.00000  -0.00000   0.00000
   D17       -0.00000   0.00000   0.00000   0.00000   0.00000   0.00000
   D18        3.14159   0.00000  -0.00000   0.00000  -0.00000   3.14159
   D19        3.14159  -0.00000   0.00000   0.00000   0.00000   3.14159
   D20       -0.00000   0.00000  -0.00000   0.00000  -0.00000  -0.00000
   D21        0.00001   0.00000  -0.00000   0.00000  -0.00000   0.00000
   D22       -3.14159   0.00000  -0.00000   0.00000  -0.00000  -3.14159
   D23        0.00000   0.00000   0.00000   0.00000   0.00000   0.00000
   D24       -3.14159  -0.00000  -0.00000   0.00000  -0.00000  -3.14159
   D25       -0.00000  -0.00000  -0.00000   0.00000  -0.00000  -0.00000
   D26        3.14159  -0.00000   0.00000   0.00000   0.00000   3.14159
   D27       -0.00000  -0.00000  -0.00000   0.00000  -0.00000  -0.00000
   D28        3.14159  -0.00000  -0.00000   0.00000  -0.00000   3.14159
   D29        3.14159   0.00000   0.00000   0.00000   0.00000   3.14159
   D30       -0.00000   0.00000   0.00000   0.00000   0.00000  -0.00000
   D31       -0.00000   0.00000   0.00000   0.00000   0.00000  -0.00000
   D32       -3.14159  -0.00000  -0.00000   0.00000  -0.00000  -3.14159
   D33        3.14159   0.00000   0.00000   0.00000   0.00000  -3.14159
   D34        0.00000  -0.00000   0.00000   0.00000   0.00000   0.00000
   D35        0.00000   0.00000  -0.00000   0.00000  -0.00000  -0.00000
   D36       -3.14159  -0.00000  -0.00000   0.00000  -0.00000  -3.14159
   D37        3.14159   0.00000   0.00000   0.00000   0.00000   3.14159
   D38        0.00000  -0.00000  -0.00000   0.00000  -0.00000   0.00000
   D39        0.00000  -0.00000   0.00000   0.00000   0.00000   0.00000
   D40       -3.14159   0.00000  -0.00000   0.00000  -0.00000   3.14159
   D41        3.14159   0.00000   0.00000   0.00000   0.00000   3.14159
   D42       -0.00000   0.00000  -0.00000   0.00000  -0.00000  -0.00000
   D43        0.00001   0.00000  -0.00000   0.00000  -0.00000   0.00001
   D44       -3.14159   0.00000   0.00000   0.00000   0.00000  -3.14159
   D45       -0.00001   0.00000  -0.00001   0.00000  -0.00001  -0.00002
         Item               Value     Threshold  Converged?
 Maximum Force            0.357347     0.000450     NO 
 RMS     Force            0.042783     0.000300     NO 
 Maximum Displacement     2.129997     0.001800     NO 
 RMS     Displacement     0.456270     0.001200     NO 
 Predicted change in Energy=-1.756090D-02
 GradGradGradGradGradGradGradGradGradGradGradGradGradGradGradGradGradGrad

                          Input orientation:                          
 ---------------------------------------------------------------------
 Center     Atomic      Atomic             Coordinates (Angstroms)
 Number     Number       Type             X           Y           Z
 ---------------------------------------------------------------------
      1          6           0        1.393483    1.019592   -0.029329
      2          6           0        2.711847    1.291221   -0.412651
      3          6           0        3.281532    2.562273   -0.361623
      4          6           0        2.539454    3.632107    0.083776
      5          6           0        1.231893    3.434825    0.477499
      6          6           0        0.703509    2.145604    0.409452
      7          6           0        0.198297   -1.984574   -0.199800
      8          6           0        0.417808   -3.353114   -0.529144
      9          6           0       -0.541942   -4.347238   -0.399645
     10          6           0       -1.788642   -4.043477    0.068148
     11          6           0       -2.077366   -2.744438    0.407245
     12          6           0       -1.104494   -1.744889    0.274442
     13          1           0        3.330297    0.500311   -0.764935
     14          1           0        4.309674    2.709655   -0.672665
     15          1           0        0.640466    4.269138    0.829032
     16          1           0       -0.300995   -5.368911   -0.670909
     17          1           0       -3.067176   -2.508523    0.777663
     18         17           0       -1.667773   -0.017285    0.784482
     19         17           0       -0.979257    1.894646    0.916709
     20         17           0       -3.003798   -5.306828    0.231234
     21         17           0        3.241306    5.238847    0.154306
     22         17           0        1.899306   -4.071622   -1.152186
 ---------------------------------------------------------------------
                    Distance matrix (angstroms):
                    1          2          3          4          5
     1  C    0.000000
     2  C    1.399571   0.000000
     3  C    2.460693   1.393814   0.000000
     4  C    2.855044   2.399147   1.376083   0.000000
     5  C    2.473123   2.752756   2.380439   1.379730   0.000000
     6  C    1.391580   2.332218   2.722934   2.384627   1.394959
     7  C    3.237676   4.134498   5.496030   6.091678   5.558502
     8  C    4.508028   5.181316   6.574252   7.326007   6.910296
     9  C    5.717155   6.509956   7.896945   8.567301   8.029718
    10  C    5.980810   6.996040   8.338303   8.811768   8.075655
    11  C    5.138610   6.316275   7.580905   7.879085   7.009952
    12  C    3.738252   4.924888   6.180085   6.498215   5.685893
    13  H    2.135888   1.064013   2.101601   3.339744   3.815536
    14  H    3.431379   2.152351   1.084225   2.134666   3.364741
    15  H    3.444323   3.834107   3.362480   2.137140   1.081406
    16  H    6.640471   7.314457   8.708263   9.468687   9.009682
    17  H    5.744242   7.017977   8.204696   8.344047   7.341354
    18  Cl   3.332971   4.725080   5.697657   5.613360   4.518779
    19  Cl   2.700112   3.969328   4.498242   4.011718   2.730246
    20  Cl   7.708928   8.753139  10.088588  10.519218   9.716904
    21  Cl   4.609803   4.023123   2.726142   1.754760   2.719685
    22  Cl   5.238046   5.474232   6.822324   7.828463   7.710257
[...]
                 (A) (A) (A) (A) (A) (A) (A) (A) (A) (A) (A) (A)
                 (A) (A) (A) (A) (A) (A) (A) (A) (A) (A) (A) (A)
                 (A) (A) (A) (A) (A) (A) (A) (A) (A)
       Virtual   (A) (A) (A) (A) (A) (A) (A) (A) (A) (A) (A) (A)
                 (A) (A) (A) (A) (A) (A) (A) (A) (A) (A) (A) (A)
                 (A) (A) (A) (A) (A) (A) (A) (A) (A) (A) (A) (A)
                 (A) (A) (A) (A) (A) (A) (A) (A) (A) (A) (A) (A)
                 (A) (A) (A) (A) (A) (A) (A) (A) (A) (A) (A) (A)
                 (A) (A) (A) (A) (A) (A) (A) (A) (A) (A) (A) (A)
                 (A) (A) (A) (A) (A) (A) (A) (A) (A) (A) (A) (A)
                 (A) (A) (A) (A) (A) (A) (A) (A) (A) (A) (A) (A)
                 (A) (A) (A) (A) (A) (A) (A) (A) (A) (A) (A) (A)
                 (A) (A) (A) (A) (A) (A) (A) (A) (A) (A) (A) (A)
                 (A) (A) (A) (A) (A) (A) (A) (A) (A) (A) (A) (A)
                 (A) (A) (A) (A) (A) (A) (A) (A) (A) (A) (A) (A)
                 (A) (A) (A) (A) (A) (A) (A) (A) (A) (A) (A) (A)
                 (A) (A) (A) (A) (A) (A) (A) (A) (A) (A) (A) (A)
                 (A) (A) (A) (A) (A) (A) (A) (A) (A) (A) (A) (A)
                 (A) (A) (A) (A) (A) (A) (A) (A) (A) (A) (A) (A)
                 (A) (A) (A) (A) (A) (A) (A) (A) (A) (A) (A) (A)
                 (A) (A) (A) (A) (A) (A) (A) (A) (A) (A) (A) (A)
                 (A) (A) (A) (A) (A) (A) (A) (A) (A) (A) (A) (A)
                 (A) (A) (A) (A) (A) (A) (A) (A) (A) (A) (A) (A)
                 (A) (A) (A) (A) (A) (A) (A) (A) (A) (A) (A) (A)
                 (A) (A) (A) (A) (A) (A) (A) (A) (A) (A) (A) (A)
                 (A) (A) (A) (A) (A) (A) (A) (A) (A) (A) (A) (A)
                 (A) (A) (A) (A) (A) (A) (A) (A) (A) (A) (A) (A)
                 (A) (A) (A) (A) (A) (A) (A) (A) (A) (A) (A) (A)
                 (A) (A) (A) (A) (A) (A) (A) (A) (A) (A) (A) (A)
                 (A) (A) (A) (A) (A) (A) (A) (A) (A) (A) (A) (A)
                 (A) (A) (A) (A) (A) (A) (A) (A) (A) (A) (A) (A)
                 (A) (A) (A) (A) (A) (A) (A) (A) (A) (A) (A) (A)
                 (A) (A) (A) (A) (A) (A) (A) (A) (A) (A) (A)
 The electronic state is 1-A.
 Alpha  occ. eigenvalues -- -101.57570-101.57428-101.57427-101.56923-101.56897
 Alpha  occ. eigenvalues --  -10.27300 -10.27300 -10.27091 -10.26448 -10.26205
 Alpha  occ. eigenvalues --  -10.23364 -10.22442 -10.21765 -10.21764 -10.21226
 Alpha  occ. eigenvalues --  -10.21171 -10.20774  -9.49023  -9.48897  -9.48896
 Alpha  occ. eigenvalues --   -9.48394  -9.48352  -7.25497  -7.25371  -7.25371
 Alpha  occ. eigenvalues --   -7.24860  -7.24819  -7.24501  -7.24461  -7.24379
 Alpha  occ. eigenvalues --   -7.24379  -7.24324  -7.24324  -7.23875  -7.23834
 Alpha  occ. eigenvalues --   -7.23831  -7.23795  -0.94741  -0.92610  -0.89954
 Alpha  occ. eigenvalues --   -0.89746  -0.88896  -0.84852  -0.83404  -0.79716
 Alpha  occ. eigenvalues --   -0.76988  -0.76618  -0.73811  -0.65024  -0.64020
 Alpha  occ. eigenvalues --   -0.63722  -0.61149  -0.56127  -0.53413  -0.52127
 Alpha  occ. eigenvalues --   -0.51600  -0.49151  -0.48342  -0.46584  -0.46171
 Alpha  occ. eigenvalues --   -0.45916  -0.44381  -0.43241  -0.42737  -0.41120
 Alpha  occ. eigenvalues --   -0.39946  -0.39609  -0.38787  -0.38258  -0.37611
 Alpha  occ. eigenvalues --   -0.34455  -0.34158  -0.33852  -0.33599  -0.32936
 Alpha  occ. eigenvalues --   -0.32872  -0.32690  -0.27986  -0.27508  -0.27468
 Alpha  occ. eigenvalues --   -0.26679
 Alpha virt. eigenvalues --   -0.05771  -0.05449  -0.04817  -0.04427  -0.03262
 Alpha virt. eigenvalues --   -0.01471  -0.00559   0.00701   0.01307   0.01391
 Alpha virt. eigenvalues --    0.01640   0.01798   0.02105   0.03346   0.04172
 Alpha virt. eigenvalues --    0.04315   0.05062   0.05404   0.05967   0.05989
 Alpha virt. eigenvalues --    0.06692   0.06932   0.08372   0.08617   0.08798
 Alpha virt. eigenvalues --    0.08911   0.09068   0.09132   0.09891   0.10506
 Alpha virt. eigenvalues --    0.10614   0.11021   0.11435   0.11503   0.11643
 Alpha virt. eigenvalues --    0.12547   0.12560   0.12919   0.13315   0.13460
 Alpha virt. eigenvalues --    0.13914   0.14339   0.14991   0.15375   0.15614
 Alpha virt. eigenvalues --    0.15931   0.16703   0.17158   0.17337   0.17564
 Alpha virt. eigenvalues --    0.17933   0.18512   0.18957   0.19102   0.19661
 Alpha virt. eigenvalues --    0.19790   0.20116   0.20725   0.20941   0.21156
 Alpha virt. eigenvalues --    0.21668   0.22216   0.22858   0.22885   0.23312
 Alpha virt. eigenvalues --    0.23684   0.23769   0.24005   0.24762   0.25085
 Alpha virt. eigenvalues --    0.25909   0.26242   0.26363   0.26936   0.27036
 Alpha virt. eigenvalues --    0.27494   0.28138   0.28349   0.28654   0.29122
 Alpha virt. eigenvalues --    0.29973   0.30153   0.30198   0.31520   0.32241
 Alpha virt. eigenvalues --    0.33174   0.33715   0.35238   0.36291   0.39336
 Alpha virt. eigenvalues --    0.39967   0.41757   0.43444   0.43909   0.44891
 Alpha virt. eigenvalues --    0.45424   0.45809   0.45986   0.46237   0.47211
 Alpha virt. eigenvalues --    0.47249   0.48423   0.48976   0.50013   0.50023
 Alpha virt. eigenvalues --    0.50484   0.51207   0.52981   0.53830   0.53970
 Alpha virt. eigenvalues --    0.54825   0.56075   0.56379   0.57794   0.57826
 Alpha virt. eigenvalues --    0.58109   0.58416   0.59770   0.60775   0.61222
 Alpha virt. eigenvalues --    0.61542   0.62045   0.63180   0.64300   0.64630
 Alpha virt. eigenvalues --    0.64995   0.65469   0.66008   0.66515   0.67746
 Alpha virt. eigenvalues --    0.68228   0.68301   0.69149   0.70047   0.70629
 Alpha virt. eigenvalues --    0.71381   0.72548   0.75450   0.78919   0.80355
 Alpha virt. eigenvalues --    0.81064   0.82664   0.82781   0.83027   0.83373
 Alpha virt. eigenvalues --    0.83824   0.83988   0.84245   0.84436   0.84750
 Alpha virt. eigenvalues --    0.84980   0.85052   0.85581   0.86261   0.86447
 Alpha virt. eigenvalues --    0.86964   0.88407   0.89120   0.89699   0.89868
 Alpha virt. eigenvalues --    0.91339   0.91671   0.92042   0.92456   0.94282
 Alpha virt. eigenvalues --    0.94693   0.95325   0.95360   0.95584   0.95728
 Alpha virt. eigenvalues --    0.96816   0.97387   0.97677   0.98643   1.00035
 Alpha virt. eigenvalues --    1.01260   1.02752   1.03146   1.03601   1.05890
 Alpha virt. eigenvalues --    1.06866   1.08044   1.09865   1.11084   1.18206
 Alpha virt. eigenvalues --    1.18309   1.19212   1.20356   1.22186   1.23526
 Alpha virt. eigenvalues --    1.23601   1.24530   1.24545   1.26439   1.27562
 Alpha virt. eigenvalues --    1.30445   1.30458   1.31350   1.32963   1.33254
 Alpha virt. eigenvalues --    1.33841   1.41914   1.42799   1.46469   1.47999
 Alpha virt. eigenvalues --    1.48686   1.52055   1.54059   1.54682   1.55123
 Alpha virt. eigenvalues --    1.55931   1.57475   1.58451   1.59628   1.59767
 Alpha virt. eigenvalues --    1.60636   1.66237   1.67858   1.68518   1.70971
 Alpha virt. eigenvalues --    1.72803   1.74976   1.77241   1.81736   1.82162
 Alpha virt. eigenvalues --    1.82170   1.83777   1.84838   1.87005   1.91723
 Alpha virt. eigenvalues --    1.92344   1.92853   1.92995   1.93514   1.94811
 Alpha virt. eigenvalues --    1.97308   1.98763   2.00310   2.00369   2.03587
 Alpha virt. eigenvalues --    2.04740   2.04939   2.05418   2.09260   2.13751
 Alpha virt. eigenvalues --    2.14942   2.18905   2.23104   2.23215   2.25423
 Alpha virt. eigenvalues --    2.25682   2.26281   2.27364   2.29770   2.31302
 Alpha virt. eigenvalues --    2.31770   2.35758   2.36529   2.38688   2.39599
 Alpha virt. eigenvalues --    2.41162   2.43056   2.45917   2.48359   2.48377
 Alpha virt. eigenvalues --    2.49950   2.51957   2.52705   2.55044   2.55577
 Alpha virt. eigenvalues --    2.56916   2.58425   2.61551   2.63541   2.67270
 Alpha virt. eigenvalues --    2.68916   2.69644   2.70049   2.70402   2.72193
 Alpha virt. eigenvalues --    2.73255   2.73554   2.75763   2.75917   2.76119
 Alpha virt. eigenvalues --    2.77947   2.80695   2.82840   2.82901   2.83319
 Alpha virt. eigenvalues --    2.86221   2.89215   2.96327   2.98110   3.08869
 Alpha virt. eigenvalues --    3.09523   3.09534   3.12381   3.13056   3.13606
 Alpha virt. eigenvalues --    3.18369   3.21542   3.23003   3.27755   3.32253
 Alpha virt. eigenvalues --    3.32477   3.42184   3.47579   3.55177   3.57871
 Alpha virt. eigenvalues --    3.66798   3.69901   3.76366   3.79245   3.84236
 Alpha virt. eigenvalues --    3.97830   4.06199   4.07330   4.12469   4.34975
 Alpha virt. eigenvalues --    4.80090   4.81407   9.76347   9.77017   9.79684
 Alpha virt. eigenvalues --    9.83128   9.84481  23.39122  23.55369  23.84490
 Alpha virt. eigenvalues --   23.85545  23.86417  23.91610  23.95357  24.03416
 Alpha virt. eigenvalues --   24.05176  24.07208  24.10479  24.14711  25.81165
 Alpha virt. eigenvalues --   25.81554  25.82249  25.92334  25.96606  26.09665
 Alpha virt. eigenvalues --   26.10475  26.22868  26.30284  26.33969  26.57448
 Alpha virt. eigenvalues --   26.59019  26.62642  26.66366  26.92674 215.75447
 Alpha virt. eigenvalues --  215.76100 215.79304 215.83374 215.85454
          Condensed to atoms (all electrons):
               1          2          3          4          5          6
     1  C   26.728657  -2.396656  -2.737836  -5.170790  -0.428913  -2.812735
     2  C   -2.396656  12.862176  -0.386875   0.220433   1.092222  -3.647509
     3  C   -2.737836  -0.386875  19.934015  -3.327350 -10.235780  -0.331001
     4  C   -5.170790   0.220433  -3.327350  18.471908  -0.498645   0.048036
     5  C   -0.428913   1.092222 -10.235780  -0.498645  24.474543  -5.204113
     6  C   -2.812735  -3.647509  -0.331001   0.048036  -5.204113  38.575017
     7  C    8.334899  -3.068969   1.412987  -1.819511  -1.607174  -3.473655
     8  C   -3.146135   0.527153   0.496867  -0.587008  -0.438578  -5.772312
     9  C   -4.038526   0.394899   0.187835  -0.108430  -0.054216  -2.526299
    10  C   -0.909977   0.023146   0.053379  -0.039493  -0.021656  -0.736621
    11  C   -4.043592   0.390679   0.188551  -0.109227  -0.055555  -2.532917
    12  C   -3.149042   0.532789   0.498640  -0.588561  -0.438813  -5.787821
    13  H   -0.008759   0.329434  -0.043088  -0.026510  -0.037615  -0.104193
    14  H    0.029170  -0.063245   0.302062   0.032531   0.065996  -0.014414
    15  H    0.070806  -0.032321   0.083024   0.028458   0.196227  -0.000400
    16  H    0.025475  -0.002050  -0.000383  -0.000000   0.000030   0.003518
    17  H    0.025472  -0.002036  -0.000383   0.000000   0.000031   0.003519
    18  Cl   0.175628   0.082616   0.029113   0.026941  -0.013077   0.396999
    19  Cl  -0.635710  -0.554411   0.459986  -0.336147  -0.900571   0.884722
    20  Cl  -0.032293   0.004301   0.005315  -0.000985  -0.001685  -0.058383
    21  Cl  -0.249592   0.214637   0.123420  -1.158382   0.498996  -0.098886
    22  Cl   0.177075   0.081344   0.029812   0.026919  -0.013155   0.397209
               7          8          9         10         11         12
     1  C    8.334899  -3.146135  -4.038526  -0.909977  -4.043592  -3.149042
     2  C   -3.068969   0.527153   0.394899   0.023146   0.390679   0.532789
     3  C    1.412987   0.496867   0.187835   0.053379   0.188551   0.498640
     4  C   -1.819511  -0.587008  -0.108430  -0.039493  -0.109227  -0.588561
     5  C   -1.607174  -0.438578  -0.054216  -0.021656  -0.055555  -0.438813
     6  C   -3.473655  -5.772312  -2.526299  -0.736621  -2.532917  -5.787821
     7  C   19.054700   0.009497  -5.673226  -1.394601  -5.688990   0.020696
     8  C    0.009497  18.638687  -4.782245  -2.313774   6.861166  -2.260910
     9  C   -5.673226  -4.782245  28.101245  -0.923451 -10.972198   6.852836
    10  C   -1.394601  -2.313774  -0.923451  16.305052  -0.916682  -2.318584
    11  C   -5.688990   6.861166 -10.972198  -0.916682  28.116586  -4.777200
    12  C    0.020696  -2.260910   6.852836  -2.318584  -4.777200  18.648976
    13  H    0.071973   0.068354   0.016791   0.007405   0.016892   0.068400
    14  H    0.001707   0.001584  -0.000013   0.000044  -0.000014   0.001586
    15  H    0.011551  -0.000292  -0.000518   0.000121  -0.000515  -0.000285
    16  H    0.104772   0.071694   0.084407   0.045390   0.051938  -0.026322
    17  H    0.104921  -0.026301   0.051903   0.045324   0.084353   0.071669
    18  Cl  -0.420340  -0.794499   0.681103  -0.328444  -1.060977   0.181907
    19  Cl   0.399379  -0.093563  -0.126860   0.020924  -0.127653  -0.093616
    20  Cl  -0.087459  -0.112197   0.315982  -0.997661   0.315527  -0.111988
    21  Cl  -0.048312  -0.029823  -0.001398  -0.000630  -0.001426  -0.029877
    22  Cl  -0.421693   0.183112  -1.060476  -0.328721   0.680184  -0.794013
              13         14         15         16         17         18
     1  C   -0.008759   0.029170   0.070806   0.025475   0.025472   0.175628
     2  C    0.329434  -0.063245  -0.032321  -0.002050  -0.002036   0.082616
     3  C   -0.043088   0.302062   0.083024  -0.000383  -0.000383   0.029113
     4  C   -0.026510   0.032531   0.028458  -0.000000   0.000000   0.026941
     5  C   -0.037615   0.065996   0.196227   0.000030   0.000031  -0.013077
     6  C   -0.104193  -0.014414  -0.000400   0.003518   0.003519   0.396999
     7  C    0.071973   0.001707   0.011551   0.104772   0.104921  -0.420340
     8  C    0.068354   0.001584  -0.000292   0.071694  -0.026301  -0.794499
     9  C    0.016791  -0.000013  -0.000518   0.084407   0.051903   0.681103
    10  C    0.007405   0.000044   0.000121   0.045390   0.045324  -0.328444
    11  C    0.016892  -0.000014  -0.000515   0.051938   0.084353  -1.060977
    12  C    0.068400   0.001586  -0.000285  -0.026322   0.071669   0.181907
    13  H    0.531902  -0.007246   0.000049   0.000001   0.000001  -0.008589
    14  H   -0.007246   0.508402  -0.000276   0.000000   0.000000  -0.000476
    15  H    0.000049  -0.000276   0.492998   0.000000   0.000000  -0.000756
    16  H    0.000001   0.000000   0.000000   0.493304  -0.000221   0.000255
    17  H    0.000001   0.000000   0.000000  -0.000221   0.493309  -0.007215
    18  Cl  -0.008589  -0.000476  -0.000756   0.000255  -0.007215  17.748682
    19  Cl  -0.001515   0.000770  -0.003849  -0.000648  -0.000649   0.009073
    20  Cl   0.000124  -0.000001  -0.000002  -0.013498  -0.013498  -0.028115
    21  Cl  -0.000774  -0.011848  -0.013300  -0.000001  -0.000001   0.005498
    22  Cl  -0.008589  -0.000479  -0.000756  -0.007208   0.000256  -0.051569
              19         20         21         22
     1  C   -0.635710  -0.032293  -0.249592   0.177075
     2  C   -0.554411   0.004301   0.214637   0.081344
     3  C    0.459986   0.005315   0.123420   0.029812
     4  C   -0.336147  -0.000985  -1.158382   0.026919
     5  C   -0.900571  -0.001685   0.498996  -0.013155
     6  C    0.884722  -0.058383  -0.098886   0.397209
     7  C    0.399379  -0.087459  -0.048312  -0.421693
     8  C   -0.093563  -0.112197  -0.029823   0.183112
     9  C   -0.126860   0.315982  -0.001398  -1.060476
    10  C    0.020924  -0.997661  -0.000630  -0.328721
    11  C   -0.127653   0.315527  -0.001426   0.680184
    12  C   -0.093616  -0.111988  -0.029877  -0.794013
    13  H   -0.001515   0.000124  -0.000774  -0.008589
    14  H    0.000770  -0.000001  -0.011848  -0.000479
    15  H   -0.003849  -0.000002  -0.013300  -0.000756
    16  H   -0.000648  -0.013498  -0.000001  -0.007208
    17  H   -0.000649  -0.013498  -0.000001   0.000256
    18  Cl   0.009073  -0.028115   0.005498  -0.051569
    19  Cl  17.745620   0.005558  -0.027434   0.008736
    20  Cl   0.005558  17.411011   0.000015  -0.028128
    21  Cl  -0.027434   0.000015  17.417214   0.005503
    22  Cl   0.008736  -0.028128   0.005503  17.748236
 Mulliken charges:
               1
     1  C    0.193374
     2  C   -0.601756
     3  C   -0.742310
     4  C    0.915813
     5  C   -0.378499
     6  C   -1.207759
     7  C    0.176849
     8  C   -0.500478
     9  C   -0.419145
    10  C    0.729512
    11  C   -0.418931
    12  C   -0.500466
    13  H    0.135551
    14  H    0.154159
    15  H    0.170033
    16  H    0.169548
    17  H    0.169544
    18  Cl   0.376243
    19  Cl   0.367857
    20  Cl   0.428059
    21  Cl   0.406403
    22  Cl   0.376399
 Sum of Mulliken charges =  -0.00000
 Mulliken charges with hydrogens summed into heavy atoms:
               1
     1  C    0.193374
     2  C   -0.466206
     3  C   -0.588151
     4  C    0.915813
     5  C   -0.208466
     6  C   -1.207759
     7  C    0.176849
     8  C   -0.500478
     9  C   -0.249597
    10  C    0.729512
    11  C   -0.249386
    12  C   -0.500466
    18  Cl   0.376243
    19  Cl   0.367857
    20  Cl   0.428059
    21  Cl   0.406403
    22  Cl   0.376399
 Electronic spatial extent (au):  <R**2>=           7062.9780
 Charge=              0.0000 electrons
 Dipole moment (field-independent basis, Debye):
    X=             -0.5519    Y=              0.0014    Z=             -1.2483  Tot=              1.3648
 Quadrupole moment (field-independent basis, Debye-Ang):
   XX=           -135.3578   YY=           -133.6008   ZZ=           -129.4788
   XY=              0.0013   XZ=             -0.5159   YZ=             -0.0064
 Traceless Quadrupole moment (field-independent basis, Debye-Ang):
   XX=             -2.5454   YY=             -0.7883   ZZ=              3.3337
   XY=              0.0013   XZ=             -0.5159   YZ=             -0.0064
 Octapole moment (field-independent basis, Debye-Ang**2):
  XXX=            -15.6474  YYY=             -0.0127  ZZZ=             -2.3253  XYY=            -13.3247
  XXY=             -0.0128  XXZ=              7.8703  XZZ=             14.9880  YZZ=              0.0134
  YYZ=              4.1077  XYZ=             -0.0289
 Hexadecapole moment (field-independent basis, Debye-Ang**3):
 XXXX=          -7076.0816 YYYY=          -1471.4444 ZZZZ=           -871.6601 XXXY=              0.0077
 XXXZ=             23.6926 YYYX=             -0.0193 YYYZ=              0.0833 ZZZX=            -28.1055
 ZZZY=             -0.1015 XXYY=          -1382.6632 XXZZ=          -1286.8111 YYZZ=           -420.4961
 XXYZ=             -0.0288 YYXZ=              4.5760 ZZXY=              0.0511
 N-N= 1.730993095751D+03 E-N=-9.998751035408D+03  KE= 2.754124090063D+03
 1\1\GINC-CN119\FOpt\RB3LYP\6-311+G(d,p)\C12H5Cl5\20CY91R06\14-Apr-2022
 \0\\# opt b3lyp/6-311+g(d,p) scf=xqc\\Title Card Required\\0,1\C,0.902
 8818575,0.3197337543,0.040417255\C,2.1697557937,0.3415475297,0.6323122
 226\C,2.92288545,1.5074680429,0.7048211779\C,2.3959343858,2.6794286359
 ,0.1724049334\C,1.1412994893,2.7012232591,-0.4244007223\C,0.4091179189
 ,1.5189050903,-0.4830764734\C,0.1273418324,-0.9516664536,-0.0175380104
 \C,0.2462701438,-1.8421016382,-1.0942637204\C,-0.4569184722,-3.0404496
 462,-1.1591616199\C,-1.3102193268,-3.3633212813,-0.1119726569\C,-1.467
 8704544,-2.5216329336,0.9814595795\C,-0.747563232,-1.3320583359,1.0101
 421893\H,2.5706437636,-0.5773333061,1.0437783141\H,3.9014893129,1.5073
 541102,1.16616704\H,0.7381545474,3.6159036517,-0.8361176319\H,-0.34004
 97265,-3.7008428604,-2.0065378372\H,-2.1339978192,-2.7801531517,1.7921
 899476\Cl,-0.9644792888,-0.2836735773,2.3979031823\Cl,-1.1723860072,1.
 5654199541,-1.2399660113\Cl,-2.2070802757,-4.8673392727,-0.1709985904\
 Cl,3.3276779113,4.1640929764,0.2519308007\Cl,1.3145387662,-1.453183657
 8,-2.4283912081\\Version=EM64L-G16RevB.01\State=1-A\HF=-2761.5223635\R
 MSD=9.264e-10\RMSF=1.439e-05\Dipole=0.2627912,-0.4114252,0.2236203\Qua
 drupole=1.1347677,-1.2267438,0.091976,-1.4624088,1.1645829,-0.534424\P
 G=C01 [X(C12H5Cl5)]\\@


 Sacred cows make the best hamburger.
                               -- Mark Twain
 Job cpu time:       1 days  7 hours  3 minutes 28.4 seconds.
 Elapsed time:       1 days  7 hours  3 minutes 31.1 seconds.
 File lengths (MBytes):  RWF=    133 Int=      0 D2E=      0 Chk=     21 Scr=      1
 Normal termination of Gaussian 16 at Thu Apr 14 03:57:44 2022.
