 Entering Gaussian System, Link 0=g16
 Input=2,2prime,3,4,4prime-Ppentachlorobiphenyl.gjf
 Output=2,2prime,3,4,4prime-Ppentachlorobiphenyl.log
 Initial command:
 /opt/g16/l1.exe "/scratch/gour/Gau-26631.inp" -scrdir="/scratch/gour/"
 Entering Link 1 = /opt/g16/l1.exe PID=     26632.
  
 Copyright (c) 1988-2017, Gaussian, Inc.  All Rights Reserved.
  
 This is part of the Gaussian(R) 16 program.  It is based on
 the Gaussian(R) 09 system (copyright 2009, Gaussian, Inc.),
 the Gaussian(R) 03 system (copyright 2003, Gaussian, Inc.),
 the Gaussian(R) 98 system (copyright 1998, Gaussian, Inc.),
 the Gaussian(R) 94 system (copyright 1995, Gaussian, Inc.),
 the Gaussian 92(TM) system (copyright 1992, Gaussian, Inc.),
 the Gaussian 90(TM) system (copyright 1990, Gaussian, Inc.),
 the Gaussian 88(TM) system (copyright 1988, Gaussian, Inc.),
 the Gaussian 86(TM) system (copyright 1986, Carnegie Mellon
 University), and the Gaussian 82(TM) system (copyright 1983,
 Carnegie Mellon University). Gaussian is a federally registered
 trademark of Gaussian, Inc.
  
 This software contains proprietary and confidential information,
 including trade secrets, belonging to Gaussian, Inc.
  
 This software is provided under written license and may be
 used, copied, transmitted, or stored only in accord with that
 written license.
  
 The following legend is applicable only to US Government
 contracts under FAR:
  
                    RESTRICTED RIGHTS LEGEND
  
 Use, reproduction and disclosure by the US Government is
 subject to restrictions as set forth in subparagraphs (a)
 and (c) of the Commercial Computer Software - Restricted
 Rights clause in FAR 52.227-19.
  
 Gaussian, Inc.
 340 Quinnipiac St., Bldg. 40, Wallingford CT 06492
  
  
 ---------------------------------------------------------------
 Warning -- This program may not be used in any manner that
 competes with the business of Gaussian, Inc. or will provide
 assistance to any competitor of Gaussian, Inc.  The licensee
 of this program is prohibited from giving any competitor of
 Gaussian, Inc. access to this program.  By using this program,
 the user acknowledges that Gaussian, Inc. is engaged in the
 business of creating and licensing software in the field of
 computational chemistry and represents and warrants to the
 licensee that it is not a competitor of Gaussian, Inc. and that
 it will not use this program in any manner prohibited above.
 ---------------------------------------------------------------
  

 Cite this work as:
 Gaussian 16, Revision B.01,
 M. J. Frisch, G. W. Trucks, H. B. Schlegel, G. E. Scuseria, 
 M. A. Robb, J. R. Cheeseman, G. Scalmani, V. Barone, 
 G. A. Petersson, H. Nakatsuji, X. Li, M. Caricato, A. V. Marenich, 
 J. Bloino, B. G. Janesko, R. Gomperts, B. Mennucci, H. P. Hratchian, 
 J. V. Ortiz, A. F. Izmaylov, J. L. Sonnenberg, D. Williams-Young, 
 F. Ding, F. Lipparini, F. Egidi, J. Goings, B. Peng, A. Petrone, 
 T. Henderson, D. Ranasinghe, V. G. Zakrzewski, J. Gao, N. Rega, 
 G. Zheng, W. Liang, M. Hada, M. Ehara, K. Toyota, R. Fukuda, 
 J. Hasegawa, M. Ishida, T. Nakajima, Y. Honda, O. Kitao, H. Nakai, 
 T. Vreven, K. Throssell, J. A. Montgomery, Jr., J. E. Peralta, 
 F. Ogliaro, M. J. Bearpark, J. J. Heyd, E. N. Brothers, K. N. Kudin, 
 V. N. Staroverov, T. A. Keith, R. Kobayashi, J. Normand, 
 K. Raghavachari, A. P. Rendell, J. C. Burant, S. S. Iyengar, 
 J. Tomasi, M. Cossi, J. M. Millam, M. Klene, C. Adamo, R. Cammi, 
 J. W. Ochterski, R. L. Martin, K. Morokuma, O. Farkas, 
 J. B. Foresman, and D. J. Fox, Gaussian, Inc., Wallingford CT, 2016.
 
 ******************************************
 Gaussian 16:  EM64L-G16RevB.01 20-Dec-2017
                16-Mar-2022 
 ******************************************
 %mem=10GB
 %nprocshared=4
 Will use up to    4 processors via shared memory.
 --------------------------------
 # opt b3lyp/6-311+g(d,p) scf=xqc
 --------------------------------
 1/18=20,19=15,26=3,38=1/1,3;
 2/9=110,12=2,17=6,18=5,40=1/2;
 3/5=4,6=6,7=111,11=2,25=1,30=1,71=1,74=-5/1,2,3;
 4//1;
 5/5=2,8=3,13=1,38=5/2,8;
 6/7=2,8=2,9=2,10=2,28=1/1;
 7//1,2,3,16;
 1/18=20,19=15,26=3/3(2);
 2/9=110/2;
 99//99;
 2/9=110/2;
 3/5=4,6=6,7=111,11=2,25=1,30=1,71=1,74=-5/1,2,3;
 4/5=5,16=3,69=1/1;
 5/5=2,8=3,13=1,38=5/2,8;
 7//1,2,3,16;
 1/18=20,19=15,26=3/3(-5);
 2/9=110/2;
 6/7=2,8=2,9=2,10=2,19=2,28=1/1;
 99/9=1/99;
 -------------------
 Title Card Required
 -------------------
 Symbolic Z-matrix:
 Charge =  0 Multiplicity = 1
 C                     0.69012   0.44413  -0.00285 
 C                     2.0225    0.47402  -0.4362 
 C                     2.7304    1.68347  -0.44227 
 C                     2.10591   2.86303  -0.015 
 C                     0.77353   2.83315   0.41835 
 C                     0.06563   1.6237    0.42442 
 C                    -0.08778  -0.88494   0.00382 
 C                     0.5367   -2.0645   -0.42345 
 C                    -0.17119  -3.27395  -0.41738 
 C                    -1.50357  -3.30384   0.01597 
 C                    -2.12806  -2.12427   0.44325 
 C                    -1.42016  -0.91482   0.43717 
 H                     2.49931  -0.42661  -0.76243 
 H                     3.7477    1.70629  -0.77314 
 H                     0.29672   3.73377   0.74458 
 H                     1.55401  -2.04168  -0.75432 
 H                     0.30562  -4.17458  -0.74361 
 Cl                   -2.20445   0.56658   0.97378 
 Cl                   -1.60769   1.58616   0.96866 
 Cl                   -3.80137  -2.16181   0.98749 
 Cl                   -2.3926   -4.82277   0.0236 
 Cl                    2.99494   4.38197  -0.02262 
 

 GradGradGradGradGradGradGradGradGradGradGradGradGradGradGradGradGradGrad
 Berny optimization.
 Initialization pass.
                           ----------------------------
                           !    Initial Parameters    !
                           ! (Angstroms and Degrees)  !
 --------------------------                            --------------------------
 ! Name  Definition              Value          Derivative Info.                !
 --------------------------------------------------------------------------------
 ! R1    R(1,2)                  1.4014         estimate D2E/DX2                !
 ! R2    R(1,6)                  1.4014         estimate D2E/DX2                !
 ! R3    R(1,7)                  1.54           estimate D2E/DX2                !
 ! R4    R(2,3)                  1.4014         estimate D2E/DX2                !
 ! R5    R(2,13)                 1.07           estimate D2E/DX2                !
 ! R6    R(3,4)                  1.4014         estimate D2E/DX2                !
 ! R7    R(3,14)                 1.07           estimate D2E/DX2                !
 ! R8    R(4,5)                  1.4014         estimate D2E/DX2                !
 ! R9    R(4,22)                 1.76           estimate D2E/DX2                !
 ! R10   R(5,6)                  1.4014         estimate D2E/DX2                !
 ! R11   R(5,15)                 1.07           estimate D2E/DX2                !
 ! R12   R(6,19)                 1.76           estimate D2E/DX2                !
 ! R13   R(7,8)                  1.4014         estimate D2E/DX2                !
 ! R14   R(7,12)                 1.4014         estimate D2E/DX2                !
 ! R15   R(8,9)                  1.4014         estimate D2E/DX2                !
 ! R16   R(8,16)                 1.07           estimate D2E/DX2                !
 ! R17   R(9,10)                 1.4014         estimate D2E/DX2                !
 ! R18   R(9,17)                 1.07           estimate D2E/DX2                !
 ! R19   R(10,11)                1.4014         estimate D2E/DX2                !
 ! R20   R(10,21)                1.76           estimate D2E/DX2                !
 ! R21   R(11,12)                1.4014         estimate D2E/DX2                !
 ! R22   R(11,20)                1.76           estimate D2E/DX2                !
 ! R23   R(12,18)                1.76           estimate D2E/DX2                !
 ! R24   R(18,19)                1.1814         estimate D2E/DX2                !
 ! A1    A(2,1,6)              120.0            estimate D2E/DX2                !
 ! A2    A(2,1,7)              120.0            estimate D2E/DX2                !
 ! A3    A(6,1,7)              120.0            estimate D2E/DX2                !
 ! A4    A(1,2,3)              120.0            estimate D2E/DX2                !
 ! A5    A(1,2,13)             120.0            estimate D2E/DX2                !
 ! A6    A(3,2,13)             120.0            estimate D2E/DX2                !
 ! A7    A(2,3,4)              120.0            estimate D2E/DX2                !
 ! A8    A(2,3,14)             120.0            estimate D2E/DX2                !
 ! A9    A(4,3,14)             120.0            estimate D2E/DX2                !
 ! A10   A(3,4,5)              120.0            estimate D2E/DX2                !
 ! A11   A(3,4,22)             120.0            estimate D2E/DX2                !
 ! A12   A(5,4,22)             120.0            estimate D2E/DX2                !
 ! A13   A(4,5,6)              120.0            estimate D2E/DX2                !
 ! A14   A(4,5,15)             120.0            estimate D2E/DX2                !
 ! A15   A(6,5,15)             120.0            estimate D2E/DX2                !
 ! A16   A(1,6,5)              120.0            estimate D2E/DX2                !
 ! A17   A(1,6,19)             120.0            estimate D2E/DX2                !
 ! A18   A(5,6,19)             120.0            estimate D2E/DX2                !
 ! A19   A(1,7,8)              120.0            estimate D2E/DX2                !
 ! A20   A(1,7,12)             120.0            estimate D2E/DX2                !
 ! A21   A(8,7,12)             120.0            estimate D2E/DX2                !
 ! A22   A(7,8,9)              120.0            estimate D2E/DX2                !
 ! A23   A(7,8,16)             120.0            estimate D2E/DX2                !
 ! A24   A(9,8,16)             120.0            estimate D2E/DX2                !
 ! A25   A(8,9,10)             120.0            estimate D2E/DX2                !
 ! A26   A(8,9,17)             120.0            estimate D2E/DX2                !
 ! A27   A(10,9,17)            120.0            estimate D2E/DX2                !
 ! A28   A(9,10,11)            120.0            estimate D2E/DX2                !
 ! A29   A(9,10,21)            120.0            estimate D2E/DX2                !
 ! A30   A(11,10,21)           120.0            estimate D2E/DX2                !
 ! A31   A(10,11,12)           120.0            estimate D2E/DX2                !
 ! A32   A(10,11,20)           120.0            estimate D2E/DX2                !
 ! A33   A(12,11,20)           120.0            estimate D2E/DX2                !
 ! A34   A(7,12,11)            120.0            estimate D2E/DX2                !
 ! A35   A(7,12,18)            120.0            estimate D2E/DX2                !
 ! A36   A(11,12,18)           120.0            estimate D2E/DX2                !
 ! A37   A(12,18,19)           120.0            estimate D2E/DX2                !
 ! A38   A(6,19,18)            120.0            estimate D2E/DX2                !
 ! D1    D(6,1,2,3)              0.0001         estimate D2E/DX2                !
 ! D2    D(6,1,2,13)           180.0            estimate D2E/DX2                !
 ! D3    D(7,1,2,3)           -180.0            estimate D2E/DX2                !
 ! D4    D(7,1,2,13)            -0.0001         estimate D2E/DX2                !
 ! D5    D(2,1,6,5)             -0.0001         estimate D2E/DX2                !
 ! D6    D(2,1,6,19)           180.0            estimate D2E/DX2                !
 ! D7    D(7,1,6,5)            180.0            estimate D2E/DX2                !
 ! D8    D(7,1,6,19)             0.0            estimate D2E/DX2                !
 ! D9    D(2,1,7,8)             -0.0001         estimate D2E/DX2                !
 ! D10   D(2,1,7,12)           179.9998         estimate D2E/DX2                !
 ! D11   D(6,1,7,8)            179.9999         estimate D2E/DX2                !
 ! D12   D(6,1,7,12)            -0.0002         estimate D2E/DX2                !
 ! D13   D(1,2,3,4)              0.0            estimate D2E/DX2                !
 ! D14   D(1,2,3,14)           180.0            estimate D2E/DX2                !
 ! D15   D(13,2,3,4)          -179.9999         estimate D2E/DX2                !
 ! D16   D(13,2,3,14)            0.0001         estimate D2E/DX2                !
 ! D17   D(2,3,4,5)             -0.0001         estimate D2E/DX2                !
 ! D18   D(2,3,4,22)           180.0            estimate D2E/DX2                !
 ! D19   D(14,3,4,5)           179.9999         estimate D2E/DX2                !
 ! D20   D(14,3,4,22)            0.0            estimate D2E/DX2                !
 ! D21   D(3,4,5,6)              0.0001         estimate D2E/DX2                !
 ! D22   D(3,4,5,15)          -179.9999         estimate D2E/DX2                !
 ! D23   D(22,4,5,6)          -180.0            estimate D2E/DX2                !
 ! D24   D(22,4,5,15)            0.0            estimate D2E/DX2                !
 ! D25   D(4,5,6,1)              0.0            estimate D2E/DX2                !
 ! D26   D(4,5,6,19)           179.9999         estimate D2E/DX2                !
 ! D27   D(15,5,6,1)           180.0            estimate D2E/DX2                !
 ! D28   D(15,5,6,19)           -0.0001         estimate D2E/DX2                !
 ! D29   D(1,6,19,18)            0.0006         estimate D2E/DX2                !
 ! D30   D(5,6,19,18)         -179.9994         estimate D2E/DX2                !
 ! D31   D(1,7,8,9)            179.9999         estimate D2E/DX2                !
 ! D32   D(1,7,8,16)             0.0001         estimate D2E/DX2                !
 ! D33   D(12,7,8,9)             0.0001         estimate D2E/DX2                !
 ! D34   D(12,7,8,16)         -179.9998         estimate D2E/DX2                !
 ! D35   D(1,7,12,11)         -179.9999         estimate D2E/DX2                !
 ! D36   D(1,7,12,18)            0.0            estimate D2E/DX2                !
 ! D37   D(8,7,12,11)           -0.0001         estimate D2E/DX2                !
 ! D38   D(8,7,12,18)          179.9999         estimate D2E/DX2                !
 ! D39   D(7,8,9,10)             0.0            estimate D2E/DX2                !
 ! D40   D(7,8,9,17)           180.0            estimate D2E/DX2                !
 ! D41   D(16,8,9,10)          179.9998         estimate D2E/DX2                !
 ! D42   D(16,8,9,17)           -0.0002         estimate D2E/DX2                !
 ! D43   D(8,9,10,11)            0.0            estimate D2E/DX2                !
 ! D44   D(8,9,10,21)         -179.9999         estimate D2E/DX2                !
 ! D45   D(17,9,10,11)         180.0            estimate D2E/DX2                !
 ! D46   D(17,9,10,21)           0.0001         estimate D2E/DX2                !
 ! D47   D(9,10,11,12)           0.0            estimate D2E/DX2                !
 ! D48   D(9,10,11,20)        -179.9998         estimate D2E/DX2                !
 ! D49   D(21,10,11,12)        179.9999         estimate D2E/DX2                !
 ! D50   D(21,10,11,20)          0.0001         estimate D2E/DX2                !
 ! D51   D(10,11,12,7)           0.0            estimate D2E/DX2                !
 ! D52   D(10,11,12,18)       -179.9999         estimate D2E/DX2                !
 ! D53   D(20,11,12,7)         179.9999         estimate D2E/DX2                !
 ! D54   D(20,11,12,18)         -0.0001         estimate D2E/DX2                !
 ! D55   D(7,12,18,19)           0.0005         estimate D2E/DX2                !
 ! D56   D(11,12,18,19)       -179.9995         estimate D2E/DX2                !
 ! D57   D(12,18,19,6)          -0.0008         estimate D2E/DX2                !
 --------------------------------------------------------------------------------
 Trust Radius=3.00D-01 FncErr=1.00D-07 GrdErr=1.00D-06 EigMax=2.50D+02 EigMin=1.00D-04
 Number of steps in this run=    129 maximum allowed number of steps=    132.
 GradGradGradGradGradGradGradGradGradGradGradGradGradGradGradGradGradGrad

                          Input orientation:                          
 ---------------------------------------------------------------------
 Center     Atomic      Atomic             Coordinates (Angstroms)
 Number     Number       Type             X           Y           Z
 ---------------------------------------------------------------------
      1          6           0        0.690121    0.444131   -0.002851
      2          6           0        2.022502    0.474017   -0.436198
      3          6           0        2.730396    1.683468   -0.442270
      4          6           0        2.105908    2.863033   -0.014995
      5          6           0        0.773527    2.833147    0.418349
      6          6           0        0.065633    1.623696    0.424422
      7          6           0       -0.087784   -0.884936    0.003823
      8          6           0        0.536704   -2.064501   -0.423452
      9          6           0       -0.171189   -3.273953   -0.417378
     10          6           0       -1.503570   -3.303839    0.015972
     11          6           0       -2.128057   -2.124274    0.443247
     12          6           0       -1.420164   -0.914823    0.437173
     13          1           0        2.499313   -0.426608   -0.762429
     14          1           0        3.747698    1.706286   -0.773139
     15          1           0        0.296716    3.733772    0.744581
     16          1           0        1.554006   -2.041683   -0.754322
     17          1           0        0.305621   -4.174577   -0.743612
     18         17           0       -2.204448    0.566577    0.973785
     19         17           0       -1.607687    1.586163    0.968655
     20         17           0       -3.801374   -2.161809    0.987490
     21         17           0       -2.392602   -4.822774    0.023603
     22         17           0        2.994943    4.381967   -0.022621
 ---------------------------------------------------------------------
                    Distance matrix (angstroms):
                    1          2          3          4          5
     1  C    0.000000
     2  C    1.401400   0.000000
     3  C    2.427296   1.401400   0.000000
     4  C    2.802800   2.427296   1.401400   0.000000
     5  C    2.427296   2.802800   2.427296   1.401400   0.000000
     6  C    1.401400   2.427296   2.802800   2.427296   1.401400
     7  C    1.540000   2.548270   3.838989   4.342800   3.838989
     8  C    2.548270   2.941400   4.342800   5.187469   4.975106
     9  C    3.838989   4.342800   5.744200   6.558176   6.235992
    10  C    4.342800   5.187469   6.558176   7.145600   6.558176
    11  C    3.838989   4.975106   6.235992   6.558176   5.744200
    12  C    2.548270   3.813607   4.975106   5.187469   4.342800
    13  H    2.146700   1.070000   2.146700   3.396345   3.872800
    14  H    3.396345   2.146700   1.070000   2.146700   3.396345
    15  H    3.396345   3.872800   3.396345   2.146700   1.070000
    16  H    2.736837   2.578650   3.918930   4.990735   5.074276
    17  H    4.693509   4.965039   6.347206   7.300676   7.118798
    18  Cl   3.057342   4.456874   5.254079   4.983028   3.783409
    19  Cl   2.743718   4.048303   4.562800   4.048303   2.743718
    20  Cl   5.286324   6.549198   7.713260   7.819846   6.797295
    21  Cl   6.102800   6.910901   8.294174   8.905600   8.294174
    22  Cl   4.562800   4.048303   2.743718   1.760000   2.743718
                    6          7          8          9         10
     6  C    0.000000
     7  C    2.548270   0.000000
     8  C    3.813607   1.401400   0.000000
     9  C    4.975106   2.427296   1.401400   0.000000
    10  C    5.187469   2.802800   2.427296   1.401400   0.000000
    11  C    4.342800   2.427296   2.802800   2.427296   1.401400
    12  C    2.941400   1.401400   2.427296   2.802800   2.427296
    13  H    3.396345   2.736837   2.578650   3.918930   4.990735
    14  H    3.872800   4.693509   4.965039   6.347206   7.300676
    15  H    2.146700   4.693509   5.919617   7.118798   7.300676
    16  H    4.127917   2.146700   1.070000   2.146700   3.396345
    17  H    5.919617   3.396345   2.146700   1.070000   2.146700
    18  Cl   2.563702   2.743718   4.048303   4.562800   4.048303
    19  Cl   1.760000   3.057342   4.456874   5.254079   4.983028
    20  Cl   5.440665   4.048303   4.562800   4.048303   2.743718
    21  Cl   6.910901   4.562800   4.048303   2.743718   1.760000
    22  Cl   4.048303   6.102800   6.910901   8.294174   8.905600
                   11         12         13         14         15
    11  C    0.000000
    12  C    1.401400   0.000000
    13  H    5.074276   4.127917   0.000000
    14  H    7.118798   5.919617   2.471400   0.000000
    15  H    6.347206   4.965039   4.942800   4.280590   0.000000
    16  H    3.872800   3.396345   1.871400   4.342800   6.097816
    17  H    3.396345   3.872800   4.342800   6.814200   8.047159
    18  Cl   2.743718   1.760000   5.111382   6.307038   4.042212
    19  Cl   3.783409   2.563702   4.890332   5.632800   2.879094
    20  Cl   1.760000   2.743718   6.765486   8.663168   7.184095
    21  Cl   2.743718   4.048303   6.623817   8.998151   8.998151
    22  Cl   8.294174   6.910901   4.890332   2.879094   2.879094
                   16         17         18         19         20
    16  H    0.000000
    17  H    2.471400   0.000000
    18  Cl   4.890332   5.632800   0.000000
    19  Cl   5.111382   6.307038   1.181400   0.000000
    20  Cl   5.632800   4.890332   3.161400   4.342800   0.000000
    21  Cl   4.890332   2.879094   5.475705   6.525618   3.161400
    22  Cl   6.623817   8.998151   6.525618   5.475705   9.488480
                   21         22
    21  Cl   0.000000
    22  Cl  10.665600   0.000000
 Stoichiometry    C12H5Cl5
 Framework group  C1[X(C12H5Cl5)]
 Deg. of freedom    60
 Full point group                 C1      NOp   1
 Largest Abelian subgroup         C1      NOp   1
 Largest concise Abelian subgroup C1      NOp   1
                         Standard orientation:                         
 ---------------------------------------------------------------------
 Center     Atomic      Atomic             Coordinates (Angstroms)
 Number     Number       Type             X           Y           Z
 ---------------------------------------------------------------------
      1          6           0        1.212855    0.714779    0.000002
      2          6           0        2.021188    1.859559    0.000000
      3          6           0        3.416763    1.731911   -0.000002
      4          6           0        4.004004    0.459485   -0.000002
      5          6           0        3.195671   -0.685294    0.000002
      6          6           0        1.800097   -0.557647    0.000004
      7          6           0       -0.320743    0.855051    0.000003
      8          6           0       -0.907985    2.127477    0.000004
      9          6           0       -2.303559    2.255125    0.000003
     10          6           0       -3.111892    1.110345    0.000002
     11          6           0       -2.524651   -0.162081    0.000001
     12          6           0       -1.129076   -0.289728    0.000001
     13          1           0        1.572816    2.831085   -0.000002
     14          1           0        4.033943    2.605976   -0.000004
     15          1           0        3.644043   -1.656820    0.000004
     16          1           0       -0.290805    3.001542    0.000002
     17          1           0       -2.751931    3.226651    0.000004
     18         17           0       -0.391567   -1.887752   -0.000002
     19         17           0        0.784922   -1.995361    0.000007
     20         17           0       -3.539825   -1.599795   -0.000005
     21         17           0       -4.864576    1.270656   -0.000002
     22         17           0        5.756688    0.299174   -0.000005
 ---------------------------------------------------------------------
 Rotational constants (GHZ):           0.7373906           0.1515566           0.1257177
 Standard basis: 6-311+G(d,p) (5D, 7F)
 There are   461 symmetry adapted cartesian basis functions of A   symmetry.
 There are   444 symmetry adapted basis functions of A   symmetry.
   444 basis functions,   737 primitive gaussians,   461 cartesian basis functions
    81 alpha electrons       81 beta electrons
       nuclear repulsion energy      1822.4119078043 Hartrees.
 NAtoms=   22 NActive=   22 NUniq=   22 SFac= 1.00D+00 NAtFMM=   60 NAOKFM=F Big=F
 Integral buffers will be    131072 words long.
 Raffenetti 2 integral format.
 Two-electron integral symmetry is turned on.
 One-electron integrals computed using PRISM.
 NBasis=   444 RedAO= T EigKep=  1.64D-06  NBF=   444
 NBsUse=   437 1.00D-06 EigRej=  9.57D-07 NBFU=   437
 ExpMin= 4.38D-02 ExpMax= 1.06D+05 ExpMxC= 3.62D+03 IAcc=3 IRadAn=         5 AccDes= 0.00D+00
 Harris functional with IExCor=  402 and IRadAn=       5 diagonalized for initial guess.
 HarFok:  IExCor=  402 AccDes= 0.00D+00 IRadAn=         5 IDoV= 1 UseB2=F ITyADJ=14
 ICtDFT=  3500011 ScaDFX=  1.000000  1.000000  1.000000  1.000000
 FoFCou: FMM=F IPFlag=           0 FMFlag=      100000 FMFlg1=           0
         NFxFlg=           0 DoJE=T BraDBF=F KetDBF=T FulRan=T
         wScrn=  0.000000 ICntrl=       500 IOpCl=  0 I1Cent=   200000004 NGrid=           0
         NMat0=    1 NMatS0=      1 NMatT0=    0 NMatD0=    1 NMtDS0=    0 NMtDT0=    0
 Petite list used in FoFCou.
 Requested convergence on RMS density matrix=1.00D-08 within  32 cycles.
 Requested convergence on MAX density matrix=1.00D-06.
 Requested convergence on             energy=1.00D-06.
 No special actions if energy rises.
 SCF Done:  E(RB3LYP) =  -2759.89947287     A.U. after   20 cycles
            NFock= 20  Conv=0.51D-08     -V/T= 1.9998
 QCSCF skips out because SCF is already converged.

 **********************************************************************

            Population analysis using the SCF Density.

 **********************************************************************

 Orbital symmetries:
       Occupied  (A) (A) (A) (A) (A) (A) (A) (A) (A) (A) (A) (A)
                 (A) (A) (A) (A) (A) (A) (A) (A) (A) (A) (A) (A)
                 (A) (A) (A) (A) (A) (A) (A) (A) (A) (A) (A) (A)
                 (A) (A) (A) (A) (A) (A) (A) (A) (A) (A) (A) (A)
                 (A) (A) (A) (A) (A) (A) (A) (A) (A) (A) (A) (A)
                 (A) (A) (A) (A) (A) (A) (A) (A) (A) (A) (A) (A)
                 (A) (A) (A) (A) (A) (A) (A) (A) (A)
       Virtual   (A) (A) (A) (A) (A) (A) (A) (A) (A) (A) (A) (A)
                 (A) (A) (A) (A) (A) (A) (A) (A) (A) (A) (A) (A)
                 (A) (A) (A) (A) (A) (A) (A) (A) (A) (A) (A) (A)
                 (A) (A) (A) (A) (A) (A) (A) (A) (A) (A) (A) (A)
                 (A) (A) (A) (A) (A) (A) (A) (A) (A) (A) (A) (A)
                 (A) (A) (A) (A) (A) (A) (A) (A) (A) (A) (A) (A)
                 (A) (A) (A) (A) (A) (A) (A) (A) (A) (A) (A) (A)
                 (A) (A) (A) (A) (A) (A) (A) (A) (A) (A) (A) (A)
                 (A) (A) (A) (A) (A) (A) (A) (A) (A) (A) (A) (A)
                 (A) (A) (A) (A) (A) (A) (A) (A) (A) (A) (A) (A)
                 (A) (A) (A) (A) (A) (A) (A) (A) (A) (A) (A) (A)
                 (A) (A) (A) (A) (A) (A) (A) (A) (A) (A) (A) (A)
                 (A) (A) (A) (A) (A) (A) (A) (A) (A) (A) (A) (A)
                 (A) (A) (A) (A) (A) (A) (A) (A) (A) (A) (A) (A)
                 (A) (A) (A) (A) (A) (A) (A) (A) (A) (A) (A) (A)
                 (A) (A) (A) (A) (A) (A) (A) (A) (A) (A) (A) (A)
                 (A) (A) (A) (A) (A) (A) (A) (A) (A) (A) (A) (A)
                 (A) (A) (A) (A) (A) (A) (A) (A) (A) (A) (A) (A)
                 (A) (A) (A) (A) (A) (A) (A) (A) (A) (A) (A) (A)
                 (A) (A) (A) (A) (A) (A) (A) (A) (A) (A) (A) (A)
                 (A) (A) (A) (A) (A) (A) (A) (A) (A) (A) (A) (A)
                 (A) (A) (A) (A) (A) (A) (A) (A) (A) (A) (A) (A)
                 (A) (A) (A) (A) (A) (A) (A) (A) (A) (A) (A) (A)
                 (A) (A) (A) (A) (A) (A) (A) (A) (A) (A) (A) (A)
                 (A) (A) (A) (A) (A) (A) (A) (A) (A) (A) (A) (A)
                 (A) (A) (A) (A) (A) (A) (A) (A) (A) (A) (A) (A)
                 (A) (A) (A) (A) (A) (A) (A) (A) (A) (A) (A) (A)
                 (A) (A) (A) (A) (A) (A) (A) (A) (A) (A) (A) (A)
                 (A) (A) (A) (A) (A) (A) (A) (A) (A) (A) (A) (A)
                 (A) (A) (A) (A) (A) (A) (A) (A)
 The electronic state is 1-A.
 Alpha  occ. eigenvalues -- -101.66560-101.66163-101.56304-101.56078-101.55899
 Alpha  occ. eigenvalues --  -10.25485 -10.25424 -10.25197 -10.21156 -10.20859
 Alpha  occ. eigenvalues --  -10.20093 -10.20024 -10.19768 -10.19669 -10.19578
 Alpha  occ. eigenvalues --  -10.18091 -10.18087  -9.65211  -9.63060  -9.47773
 Alpha  occ. eigenvalues --   -9.47522  -9.47345  -7.43598  -7.38677  -7.38584
 Alpha  occ. eigenvalues --   -7.38200  -7.37966  -7.37507  -7.24222  -7.23979
 Alpha  occ. eigenvalues --   -7.23814  -7.23268  -7.23216  -7.23009  -7.22973
 Alpha  occ. eigenvalues --   -7.22835  -7.22777  -1.39649  -0.92322  -0.90516
 Alpha  occ. eigenvalues --   -0.87154  -0.86569  -0.84967  -0.81418  -0.80944
 Alpha  occ. eigenvalues --   -0.77066  -0.73953  -0.72924  -0.72816  -0.71152
 Alpha  occ. eigenvalues --   -0.65665  -0.63691  -0.60615  -0.58766  -0.57957
 Alpha  occ. eigenvalues --   -0.52838  -0.50542  -0.49663  -0.47896  -0.47451
 Alpha  occ. eigenvalues --   -0.45541  -0.44604  -0.42757  -0.42257  -0.41171
 Alpha  occ. eigenvalues --   -0.41119  -0.40088  -0.37293  -0.36569  -0.35816
 Alpha  occ. eigenvalues --   -0.35437  -0.34138  -0.33554  -0.32388  -0.31273
 Alpha  occ. eigenvalues --   -0.30458  -0.28365  -0.27594  -0.24656  -0.21419
 Alpha  occ. eigenvalues --   -0.16615
 Alpha virt. eigenvalues --   -0.06766  -0.05551  -0.02703  -0.02086  -0.01444
 Alpha virt. eigenvalues --   -0.00153  -0.00000   0.00615   0.00981   0.01946
 Alpha virt. eigenvalues --    0.02046   0.02269   0.03192   0.03586   0.04753
 Alpha virt. eigenvalues --    0.05315   0.05443   0.05998   0.06059   0.06516
 Alpha virt. eigenvalues --    0.06970   0.07339   0.07748   0.08583   0.09384
 Alpha virt. eigenvalues --    0.09400   0.09920   0.10124   0.10539   0.10738
 Alpha virt. eigenvalues --    0.11280   0.11735   0.11963   0.12792   0.13255
 Alpha virt. eigenvalues --    0.13602   0.13761   0.14201   0.14350   0.14898
 Alpha virt. eigenvalues --    0.15143   0.15631   0.15940   0.16508   0.16803
 Alpha virt. eigenvalues --    0.16864   0.17526   0.17605   0.18360   0.18740
 Alpha virt. eigenvalues --    0.19118   0.19329   0.19724   0.19894   0.20114
 Alpha virt. eigenvalues --    0.20356   0.20924   0.21544   0.21565   0.22209
 Alpha virt. eigenvalues --    0.22468   0.22703   0.23056   0.23223   0.24173
 Alpha virt. eigenvalues --    0.24950   0.25579   0.25909   0.25921   0.26559
 Alpha virt. eigenvalues --    0.26997   0.27178   0.28173   0.28225   0.28567
 Alpha virt. eigenvalues --    0.29285   0.30020   0.30751   0.31338   0.32181
 Alpha virt. eigenvalues --    0.32568   0.33391   0.33899   0.34360   0.34707
 Alpha virt. eigenvalues --    0.36459   0.38077   0.38269   0.41283   0.42808
 Alpha virt. eigenvalues --    0.43365   0.44053   0.44497   0.44790   0.45036
 Alpha virt. eigenvalues --    0.45863   0.46761   0.47334   0.47417   0.49087
 Alpha virt. eigenvalues --    0.49511   0.49902   0.49983   0.50873   0.52165
 Alpha virt. eigenvalues --    0.52459   0.53052   0.54581   0.54760   0.55214
 Alpha virt. eigenvalues --    0.55491   0.57070   0.57181   0.58469   0.58658
 Alpha virt. eigenvalues --    0.58865   0.61127   0.61259   0.61801   0.62141
 Alpha virt. eigenvalues --    0.62644   0.63840   0.65229   0.65427   0.66303
 Alpha virt. eigenvalues --    0.66616   0.67183   0.68055   0.68155   0.69896
 Alpha virt. eigenvalues --    0.70676   0.71995   0.72032   0.72844   0.75033
 Alpha virt. eigenvalues --    0.76984   0.79016   0.79639   0.80584   0.80895
 Alpha virt. eigenvalues --    0.83638   0.83738   0.84230   0.84864   0.85036
 Alpha virt. eigenvalues --    0.85603   0.85756   0.85865   0.86471   0.86484
 Alpha virt. eigenvalues --    0.87129   0.88095   0.88232   0.88607   0.90817
 Alpha virt. eigenvalues --    0.91230   0.91847   0.92743   0.93570   0.94476
 Alpha virt. eigenvalues --    0.94930   0.95366   0.95577   0.95859   0.96787
 Alpha virt. eigenvalues --    0.96998   0.97633   0.99320   0.99728   1.00274
 Alpha virt. eigenvalues --    1.02159   1.04462   1.04833   1.06002   1.08047
 Alpha virt. eigenvalues --    1.09078   1.09359   1.10061   1.11774   1.12888
 Alpha virt. eigenvalues --    1.14280   1.17651   1.19989   1.21263   1.24271
 Alpha virt. eigenvalues --    1.24286   1.27102   1.28006   1.28448   1.28565
 Alpha virt. eigenvalues --    1.29586   1.31577   1.32854   1.33728   1.36799
 Alpha virt. eigenvalues --    1.37979   1.40880   1.43395   1.43928   1.48379
 Alpha virt. eigenvalues --    1.50216   1.50325   1.50907   1.53096   1.54472
 Alpha virt. eigenvalues --    1.54856   1.57242   1.58030   1.61375   1.61745
 Alpha virt. eigenvalues --    1.63974   1.64259   1.68123   1.68393   1.70169
 Alpha virt. eigenvalues --    1.73174   1.73315   1.77524   1.80063   1.81431
 Alpha virt. eigenvalues --    1.81746   1.83514   1.86207   1.88044   1.88830
 Alpha virt. eigenvalues --    1.90208   1.91412   1.92749   1.93689   1.94190
 Alpha virt. eigenvalues --    1.97271   1.97623   1.98051   1.99862   2.00522
 Alpha virt. eigenvalues --    2.00565   2.05858   2.07297   2.08698   2.09257
 Alpha virt. eigenvalues --    2.13067   2.16743   2.18836   2.20800   2.24536
 Alpha virt. eigenvalues --    2.24768   2.26139   2.26276   2.26464   2.28180
 Alpha virt. eigenvalues --    2.29029   2.30777   2.33039   2.33280   2.36208
 Alpha virt. eigenvalues --    2.36236   2.36737   2.41463   2.42405   2.43774
 Alpha virt. eigenvalues --    2.44459   2.47606   2.49459   2.51845   2.55242
 Alpha virt. eigenvalues --    2.55699   2.58156   2.61930   2.62431   2.64312
 Alpha virt. eigenvalues --    2.64369   2.64856   2.66188   2.71545   2.71878
 Alpha virt. eigenvalues --    2.73522   2.74071   2.74656   2.75955   2.76048
 Alpha virt. eigenvalues --    2.79031   2.80196   2.81277   2.82925   2.85119
 Alpha virt. eigenvalues --    2.85898   2.86006   2.92799   2.93010   2.94978
 Alpha virt. eigenvalues --    3.01619   3.04392   3.07085   3.08776   3.14695
 Alpha virt. eigenvalues --    3.16296   3.18053   3.18574   3.21697   3.23532
 Alpha virt. eigenvalues --    3.35098   3.35897   3.40010   3.43195   3.45947
 Alpha virt. eigenvalues --    3.54887   3.57976   3.61797   3.70509   3.78421
 Alpha virt. eigenvalues --    3.83317   3.88361   4.05367   4.08128   4.10406
 Alpha virt. eigenvalues --    4.20014   4.47442   4.81009   4.84217   9.74199
 Alpha virt. eigenvalues --    9.77848   9.79997   9.82461  10.54820  23.38644
 Alpha virt. eigenvalues --   23.56198  23.84780  23.85839  23.89620  23.94259
 Alpha virt. eigenvalues --   23.98917  24.00427  24.03546  24.05467  24.11711
 Alpha virt. eigenvalues --   24.12617  25.40845  25.78987  25.82494  25.87392
 Alpha virt. eigenvalues --   25.97628  26.12280  26.15329  26.20823  26.21808
 Alpha virt. eigenvalues --   26.52763  26.61296  26.77499  27.10930  27.41569
 Alpha virt. eigenvalues --   28.45337 215.74412 215.77026 215.80592 215.90946
 Alpha virt. eigenvalues --  216.86710
          Condensed to atoms (all electrons):
               1          2          3          4          5          6
     1  C   14.459246  -3.121046   3.146859  -4.083023  -3.166567   4.410238
     2  C   -3.121046  14.179409  -3.984750   1.990793   0.985793  -2.670787
     3  C    3.146859  -3.984750  19.321363  -4.365573  -4.245677   0.381709
     4  C   -4.083023   1.990793  -4.365573  16.533143   2.355724  -5.370315
     5  C   -3.166567   0.985793  -4.245677   2.355724  13.447032  -4.883725
     6  C    4.410238  -2.670787   0.381709  -5.370315  -4.883725  27.050139
     7  C    4.582728  -1.924281   0.260388  -1.499469  -1.657473   0.026880
     8  C   -2.534594   1.195284  -1.700558  -0.469474   0.138218  -2.386573
     9  C   -0.432344  -1.065271   0.341013  -0.408623  -0.447630  -0.788368
    10  C   -1.972937   0.420690  -0.706142   0.148712   0.309012  -0.703036
    11  C   -0.746570  -0.834413   0.161833  -0.238567   0.016436  -0.740667
    12  C    2.141782  -1.585014   0.076819  -1.694172  -4.294569   8.403076
    13  H    0.043464   0.389458  -0.197808   0.021036  -0.032362   0.008234
    14  H    0.022722  -0.041885   0.257257   0.045545   0.040589   0.013591
    15  H    0.108854  -0.029157   0.056359   0.030481   0.258328  -0.030152
    16  H    0.077665   0.025389  -0.007673   0.010902   0.002268   0.034964
    17  H   -0.001869   0.005591  -0.000258   0.000068   0.000231   0.003511
    18  Cl  -2.632462   0.438959  -0.672314   1.665474   2.417750  -4.997104
    19  Cl  -3.899387   1.960897  -1.872992   1.700689   5.219303 -11.179610
    20  Cl   0.216662  -0.149004   0.062525  -0.048352  -0.192519   0.169324
    21  Cl  -0.114861  -0.018822  -0.015097   0.002089   0.008796  -0.037171
    22  Cl  -0.296506   0.058140   0.192595  -0.765718   0.324954  -0.220284
               7          8          9         10         11         12
     1  C    4.582728  -2.534594  -0.432344  -1.972937  -0.746570   2.141782
     2  C   -1.924281   1.195284  -1.065271   0.420690  -0.834413  -1.585014
     3  C    0.260388  -1.700558   0.341013  -0.706142   0.161833   0.076819
     4  C   -1.499469  -0.469474  -0.408623   0.148712  -0.238567  -1.694172
     5  C   -1.657473   0.138218  -0.447630   0.309012   0.016436  -4.294569
     6  C    0.026880  -2.386573  -0.788368  -0.703036  -0.740667   8.403076
     7  C   14.896943  -2.469397   0.776395  -3.415045   0.589525   1.799294
     8  C   -2.469397  14.624628   1.350876   0.310329  -0.816304  -1.218729
     9  C    0.776395   1.350876  16.604061  -4.830255  -0.414859  -1.272375
    10  C   -3.415045   0.310329  -4.830255  19.556063  -3.571415  -1.279132
    11  C    0.589525  -0.816304  -0.414859  -3.571415  17.340847  -4.519135
    12  C    1.799294  -1.218729  -1.272375  -1.279132  -4.519135  34.758888
    13  H    0.022064   0.010449  -0.012926   0.016915  -0.014066   0.024854
    14  H    0.002390   0.012604   0.000125   0.000451  -0.000021   0.003398
    15  H    0.013918   0.001057   0.000779  -0.000746  -0.000859   0.012664
    16  H    0.047763   0.284957  -0.210440   0.018671  -0.063960   0.049929
    17  H    0.024843  -0.069164   0.348703   0.026842   0.000805   0.014595
    18  Cl  -3.770528  -0.786398  -2.982965   0.730078   2.131119 -15.271057
    19  Cl  -1.959858   0.968797  -1.079884   1.958084   1.021631 -13.596334
    20  Cl   0.309085  -0.037811   1.804233  -1.381052  -3.254512   4.214741
    21  Cl  -0.471237   0.000529  -0.816681   0.113409   0.692637  -0.248434
    22  Cl  -0.062951  -0.029256  -0.004960  -0.001365   0.000046  -0.040078
              13         14         15         16         17         18
     1  C    0.043464   0.022722   0.108854   0.077665  -0.001869  -2.632462
     2  C    0.389458  -0.041885  -0.029157   0.025389   0.005591   0.438959
     3  C   -0.197808   0.257257   0.056359  -0.007673  -0.000258  -0.672314
     4  C    0.021036   0.045545   0.030481   0.010902   0.000068   1.665474
     5  C   -0.032362   0.040589   0.258328   0.002268   0.000231   2.417750
     6  C    0.008234   0.013591  -0.030152   0.034964   0.003511  -4.997104
     7  C    0.022064   0.002390   0.013918   0.047763   0.024843  -3.770528
     8  C    0.010449   0.012604   0.001057   0.284957  -0.069164  -0.786398
     9  C   -0.012926   0.000125   0.000779  -0.210440   0.348703  -2.982965
    10  C    0.016915   0.000451  -0.000746   0.018671   0.026842   0.730078
    11  C   -0.014066  -0.000021  -0.000859  -0.063960   0.000805   2.131119
    12  C    0.024854   0.003398   0.012664   0.049929   0.014595 -15.271057
    13  H    0.578074  -0.007755   0.000058   0.004307   0.000041   0.018131
    14  H   -0.007755   0.517884  -0.000361   0.000038  -0.000000  -0.001220
    15  H    0.000058  -0.000361   0.516270  -0.000001   0.000000   0.023425
    16  H    0.004307   0.000038  -0.000001   0.579852  -0.007378   0.027815
    17  H    0.000041  -0.000000   0.000000  -0.007378   0.512533   0.001494
    18  Cl   0.018131  -0.001220   0.023425   0.027815   0.001494  37.851928
    19  Cl   0.010052   0.002961  -0.088845   0.010194  -0.000237   5.103519
    20  Cl  -0.000468  -0.000005   0.000142  -0.002783  -0.001420  -3.164299
    21  Cl   0.000193   0.000001  -0.000003   0.000728  -0.006643   0.290253
    22  Cl  -0.000099  -0.013843  -0.013630   0.000046  -0.000000  -0.017731
              19         20         21         22
     1  C   -3.899387   0.216662  -0.114861  -0.296506
     2  C    1.960897  -0.149004  -0.018822   0.058140
     3  C   -1.872992   0.062525  -0.015097   0.192595
     4  C    1.700689  -0.048352   0.002089  -0.765718
     5  C    5.219303  -0.192519   0.008796   0.324954
     6  C  -11.179610   0.169324  -0.037171  -0.220284
     7  C   -1.959858   0.309085  -0.471237  -0.062951
     8  C    0.968797  -0.037811   0.000529  -0.029256
     9  C   -1.079884   1.804233  -0.816681  -0.004960
    10  C    1.958084  -1.381052   0.113409  -0.001365
    11  C    1.021631  -3.254512   0.692637   0.000046
    12  C  -13.596334   4.214741  -0.248434  -0.040078
    13  H    0.010052  -0.000468   0.000193  -0.000099
    14  H    0.002961  -0.000005   0.000001  -0.013843
    15  H   -0.088845   0.000142  -0.000003  -0.013630
    16  H    0.010194  -0.002783   0.000728   0.000046
    17  H   -0.000237  -0.001420  -0.006643  -0.000000
    18  Cl   5.103519  -3.164299   0.290253  -0.017731
    19  Cl  33.833221  -1.845554   0.087236   0.003595
    20  Cl  -1.845554  20.260609  -0.650997  -0.000122
    21  Cl   0.087236  -0.650997  17.695263  -0.000004
    22  Cl   0.003595  -0.000122  -0.000004  17.464020
 Mulliken charges:
               1
     1  C   -0.208053
     2  C   -0.225972
     3  C   -0.489877
     4  C    0.438632
     5  C   -0.603912
     6  C   -0.493874
     7  C   -0.121976
     8  C   -0.379470
     9  C   -0.458602
    10  C    0.251870
    11  C   -0.739531
    12  C   -0.481009
    13  H    0.118155
    14  H    0.145537
    15  H    0.141421
    16  H    0.116747
    17  H    0.147714
    18  Cl   0.596134
    19  Cl   0.642521
    20  Cl   0.691578
    21  Cl   0.488815
    22  Cl   0.423151
 Sum of Mulliken charges =  -0.00000
 Mulliken charges with hydrogens summed into heavy atoms:
               1
     1  C   -0.208053
     2  C   -0.107817
     3  C   -0.344340
     4  C    0.438632
     5  C   -0.462491
     6  C   -0.493874
     7  C   -0.121976
     8  C   -0.262723
     9  C   -0.310888
    10  C    0.251870
    11  C   -0.739531
    12  C   -0.481009
    18  Cl   0.596134
    19  Cl   0.642521
    20  Cl   0.691578
    21  Cl   0.488815
    22  Cl   0.423151
 Electronic spatial extent (au):  <R**2>=           7475.3669
 Charge=             -0.0000 electrons
 Dipole moment (field-independent basis, Debye):
    X=              1.0856    Y=             -0.8042    Z=              0.0000  Tot=              1.3510
 Quadrupole moment (field-independent basis, Debye-Ang):
   XX=           -155.5911   YY=           -116.0364   ZZ=           -134.6990
   XY=             -0.6463   XZ=              0.0000   YZ=             -0.0000
 Traceless Quadrupole moment (field-independent basis, Debye-Ang):
   XX=            -20.1489   YY=             19.4057   ZZ=              0.7432
   XY=             -0.6463   XZ=              0.0000   YZ=             -0.0000
 Octapole moment (field-independent basis, Debye-Ang**2):
  XXX=            -29.0933  YYY=            -21.0890  ZZZ=             -0.0000  XYY=              5.5591
  XXY=             -7.4597  XXZ=              0.0000  XZZ=             -6.9091  YZZ=            -17.0088
  YYZ=             -0.0000  XYZ=             -0.0000
 Hexadecapole moment (field-independent basis, Debye-Ang**3):
 XXXX=          -8462.0445 YYYY=          -1627.5601 ZZZZ=           -160.5737 XXXY=             17.1786
 XXXZ=              0.0004 YYYX=             17.4550 YYYZ=             -0.0001 ZZZX=              0.0001
 ZZZY=             -0.0001 XXYY=          -1587.1447 XXZZ=          -1405.0922 YYZZ=           -340.2405
 XXYZ=             -0.0001 YYXZ=             -0.0000 ZZXY=              0.5195
 N-N= 1.822411907804D+03 E-N=-1.018149770229D+04  KE= 2.760336436657D+03
 Calling FoFJK, ICntrl=      2127 FMM=F ISym2X=0 I1Cent= 0 IOpClX= 0 NMat=1 NMatS=1 NMatT=0.
 ***** Axes restored to original set *****
 -------------------------------------------------------------------
 Center     Atomic                   Forces (Hartrees/Bohr)
 Number     Number              X              Y              Z
 -------------------------------------------------------------------
      1        6           0.000740298   -0.030929391   -0.006052697
      2        6          -0.006493210    0.020960714    0.006076051
      3        6          -0.009043744    0.000556872    0.003084192
      4        6          -0.008378198   -0.012035930    0.000499559
      5        6           0.004550691   -0.015273280   -0.004367582
      6        6           0.109049136   -0.005488523   -0.036958180
      7        6           0.024895253    0.011383285   -0.006064030
      8        6          -0.019848006   -0.004845764    0.005628978
      9        6          -0.005286221    0.012555068    0.004099495
     10        6           0.001435238    0.002182156   -0.000062997
     11        6           0.018453579    0.007180137   -0.004731116
     12        6           0.052829816   -0.103742008   -0.036888406
     13        1           0.007386497   -0.004250567   -0.003231884
     14        1           0.008575750    0.000921428   -0.002652261
     15        1          -0.005914396    0.011111131    0.004035318
     16        1           0.007276109   -0.004473165   -0.003237358
     17        1           0.002379374   -0.008125033   -0.002309826
     18       17          -1.718268380   -2.709714437    0.057211962
     19       17           1.535243566    2.830313839    0.025736377
     20       17          -0.003785579    0.003124994    0.001834078
     21       17           0.004408512   -0.000443819   -0.001535834
     22       17          -0.000206086   -0.000967707   -0.000113839
 -------------------------------------------------------------------
 Cartesian Forces:  Max     2.830313839 RMS     0.560022815

 GradGradGradGradGradGradGradGradGradGradGradGradGradGradGradGradGradGrad
 Berny optimization.
 FormGI is forming the generalized inverse of G from B-inverse, IUseBI=4.
 Internal  Forces:  Max     3.119058190 RMS     0.292709112
 Search for a local minimum.
 Step number   1 out of a maximum of  129
 All quantities printed in internal units (Hartrees-Bohrs-Radians)
 Mixed Optimization -- RFO/linear search
 Second derivative matrix not updated -- first step.
 ITU=  0
     Eigenvalues ---    0.01035   0.01214   0.01489   0.01712   0.01738
     Eigenvalues ---    0.01829   0.02070   0.02070   0.02070   0.02070
     Eigenvalues ---    0.02070   0.02070   0.02070   0.02070   0.02070
     Eigenvalues ---    0.02070   0.02070   0.02070   0.03966   0.16000
     Eigenvalues ---    0.16000   0.16000   0.16000   0.16000   0.22441
     Eigenvalues ---    0.22535   0.23515   0.24504   0.24621   0.25000
     Eigenvalues ---    0.25000   0.25000   0.25000   0.25000   0.25000
     Eigenvalues ---    0.25000   0.28335   0.29044   0.29447   0.29539
     Eigenvalues ---    0.29539   0.29539   0.37230   0.37230   0.37230
     Eigenvalues ---    0.37230   0.37230   0.40002   0.40888   0.41412
     Eigenvalues ---    0.41584   0.44578   0.45130   0.45389   0.45389
     Eigenvalues ---    0.45389   0.45389   0.45389   0.45389  16.61567
 RFO step:  Lambda=-6.28560913D-01 EMin= 1.03510892D-02
 Linear search not attempted -- first point.
 Iteration  1 RMS(Cart)=  0.03293378 RMS(Int)=  0.00051088
 Iteration  2 RMS(Cart)=  0.00126632 RMS(Int)=  0.00023335
 Iteration  3 RMS(Cart)=  0.00000063 RMS(Int)=  0.00023335
 Variable       Old X    -DE/DX   Delta X   Delta X   Delta X     New X
                                 (Linear)    (Quad)   (Total)
    R1        2.64826   0.01845   0.00000   0.00250   0.00244   2.65070
    R2        2.64826   0.10205   0.00000   0.01683   0.01651   2.66478
    R3        2.91018   0.11925   0.00000  -0.01302  -0.01353   2.89665
    R4        2.64826  -0.01077   0.00000  -0.00765  -0.00764   2.64062
    R5        2.02201   0.00785   0.00000   0.00785   0.00785   2.02985
    R6        2.64826  -0.03048   0.00000  -0.01131  -0.01124   2.63702
    R7        2.02201   0.00899   0.00000   0.00899   0.00899   2.03099
    R8        2.64826  -0.02723   0.00000  -0.01061  -0.01055   2.63771
    R9        3.32592  -0.00094   0.00000  -0.00102  -0.00102   3.32490
   R10        2.64826  -0.00803   0.00000  -0.00972  -0.00973   2.63853
   R11        2.02201   0.01322   0.00000   0.01321   0.01321   2.03521
   R12        3.32592   0.04707   0.00000   0.12189   0.12214   3.44806
   R13        2.64826   0.01763   0.00000   0.00166   0.00159   2.64985
   R14        2.64826   0.10123   0.00000   0.01610   0.01574   2.66401
   R15        2.64826  -0.01244   0.00000  -0.00926  -0.00925   2.63901
   R16        2.02201   0.00782   0.00000   0.00782   0.00782   2.02982
   R17        2.64826  -0.03178   0.00000  -0.01250  -0.01242   2.63584
   R18        2.02201   0.00860   0.00000   0.00860   0.00860   2.03060
   R19        2.64826  -0.02006   0.00000  -0.00390  -0.00383   2.64443
   R20        3.32592  -0.00185   0.00000  -0.00200  -0.00200   3.32392
   R21        2.64826  -0.01068   0.00000  -0.01210  -0.01211   2.63615
   R22        3.32592   0.00410   0.00000   0.00444   0.00444   3.33035
   R23        3.32592   0.06230   0.00000   0.13843   0.13865   3.46457
   R24        2.23252   3.11906   0.00000   0.18088   0.18139   2.41391
    A1        2.09440  -0.08234   0.00000  -0.01283  -0.01255   2.08184
    A2        2.09440  -0.16605   0.00000  -0.00142  -0.00077   2.09362
    A3        2.09440   0.24839   0.00000   0.01425   0.01333   2.10772
    A4        2.09440   0.04845   0.00000   0.00835   0.00819   2.10258
    A5        2.09440  -0.01955   0.00000   0.00176   0.00183   2.09623
    A6        2.09440  -0.02890   0.00000  -0.01010  -0.01002   2.08437
    A7        2.09440   0.00414   0.00000  -0.00305  -0.00308   2.09132
    A8        2.09440  -0.00132   0.00000   0.00248   0.00249   2.09688
    A9        2.09440  -0.00282   0.00000   0.00058   0.00059   2.09498
   A10        2.09440  -0.00272   0.00000   0.00463   0.00465   2.09905
   A11        2.09440   0.00081   0.00000  -0.00294  -0.00295   2.09144
   A12        2.09440   0.00191   0.00000  -0.00168  -0.00170   2.09270
   A13        2.09440   0.01704   0.00000   0.00318   0.00312   2.09752
   A14        2.09440  -0.00849   0.00000  -0.00155  -0.00152   2.09287
   A15        2.09440  -0.00855   0.00000  -0.00163  -0.00160   2.09280
   A16        2.09440   0.01543   0.00000  -0.00027  -0.00033   2.09406
   A17        2.09440   0.06963   0.00000   0.03130   0.03115   2.12554
   A18        2.09440  -0.08506   0.00000  -0.03103  -0.03081   2.06358
   A19        2.09440  -0.16771   0.00000  -0.00329  -0.00262   2.09178
   A20        2.09440   0.24721   0.00000   0.01303   0.01208   2.10647
   A21        2.09440  -0.07949   0.00000  -0.00974  -0.00946   2.08494
   A22        2.09440   0.04801   0.00000   0.00766   0.00749   2.10188
   A23        2.09440  -0.01924   0.00000   0.00221   0.00230   2.09669
   A24        2.09440  -0.02877   0.00000  -0.00987  -0.00979   2.08461
   A25        2.09440   0.00682   0.00000   0.00006   0.00004   2.09443
   A26        2.09440  -0.00166   0.00000   0.00219   0.00220   2.09659
   A27        2.09440  -0.00516   0.00000  -0.00225  -0.00224   2.09216
   A28        2.09440  -0.00861   0.00000  -0.00193  -0.00190   2.09250
   A29        2.09440  -0.00286   0.00000  -0.00719  -0.00721   2.08719
   A30        2.09440   0.01147   0.00000   0.00912   0.00910   2.10350
   A31        2.09440   0.02217   0.00000   0.00912   0.00906   2.10345
   A32        2.09440  -0.00566   0.00000   0.00162   0.00165   2.09604
   A33        2.09440  -0.01651   0.00000  -0.01074  -0.01071   2.08369
   A34        2.09440   0.01110   0.00000  -0.00518  -0.00523   2.08916
   A35        2.09440   0.06532   0.00000   0.02649   0.02627   2.12067
   A36        2.09440  -0.07643   0.00000  -0.02131  -0.02104   2.07335
   A37        2.09440  -0.31473   0.00000  -0.04188  -0.04077   2.05362
   A38        2.09440  -0.31582   0.00000  -0.04319  -0.04205   2.05235
    D1        0.00000   0.00000   0.00000   0.00000   0.00000   0.00000
    D2        3.14159   0.00000   0.00000   0.00000   0.00000   3.14159
    D3       -3.14159   0.00000   0.00000   0.00000   0.00000  -3.14159
    D4       -0.00000   0.00000   0.00000   0.00000   0.00000  -0.00000
    D5       -0.00000  -0.00000   0.00000  -0.00000  -0.00000  -0.00000
    D6        3.14159  -0.00000   0.00000   0.00000   0.00000   3.14159
    D7        3.14159  -0.00000   0.00000  -0.00000  -0.00000   3.14159
    D8        0.00000  -0.00000   0.00000   0.00000   0.00000   0.00000
    D9       -0.00000  -0.00000   0.00000  -0.00000  -0.00000  -0.00000
   D10        3.14159  -0.00000   0.00000  -0.00000  -0.00000   3.14159
   D11        3.14159  -0.00000   0.00000  -0.00000  -0.00000   3.14159
   D12       -0.00000  -0.00000   0.00000  -0.00000  -0.00000  -0.00000
   D13        0.00000  -0.00000   0.00000  -0.00000  -0.00000   0.00000
   D14        3.14159  -0.00000   0.00000   0.00000   0.00000   3.14159
   D15       -3.14159   0.00000   0.00000  -0.00000  -0.00000  -3.14159
   D16        0.00000   0.00000   0.00000  -0.00000  -0.00000   0.00000
   D17       -0.00000  -0.00000   0.00000   0.00000   0.00000  -0.00000
   D18        3.14159   0.00000   0.00000  -0.00000  -0.00000   3.14159
   D19        3.14159  -0.00000   0.00000   0.00000   0.00000   3.14159
   D20        0.00000   0.00000   0.00000  -0.00000  -0.00000   0.00000
   D21        0.00000   0.00000   0.00000  -0.00000  -0.00000   0.00000
   D22       -3.14159   0.00000   0.00000  -0.00000  -0.00000  -3.14159
   D23       -3.14159  -0.00000   0.00000  -0.00000  -0.00000  -3.14159
   D24        0.00000   0.00000   0.00000   0.00000   0.00000   0.00000
   D25       -0.00000   0.00000   0.00000   0.00000   0.00000  -0.00000
   D26        3.14159   0.00000   0.00000   0.00000   0.00000   3.14159
   D27        3.14159  -0.00000   0.00000   0.00000   0.00000   3.14159
   D28       -0.00000   0.00000   0.00000  -0.00000  -0.00000  -0.00000
   D29        0.00001  -0.00000   0.00000  -0.00000  -0.00000   0.00001
   D30       -3.14158  -0.00000   0.00000  -0.00000  -0.00000  -3.14158
   D31        3.14159   0.00000   0.00000   0.00000   0.00000   3.14159
   D32        0.00000   0.00000   0.00000   0.00000   0.00000   0.00000
   D33        0.00000   0.00000   0.00000   0.00000   0.00000   0.00000
   D34       -3.14159   0.00000   0.00000  -0.00000  -0.00000  -3.14159
   D35       -3.14159  -0.00000   0.00000  -0.00000  -0.00000  -3.14159
   D36        0.00000  -0.00000   0.00000   0.00000   0.00000   0.00000
   D37       -0.00000  -0.00000   0.00000  -0.00000  -0.00000  -0.00000
   D38        3.14159  -0.00000   0.00000   0.00000   0.00000   3.14159
   D39       -0.00000  -0.00000   0.00000  -0.00000  -0.00000  -0.00000
   D40        3.14159  -0.00000   0.00000  -0.00000  -0.00000   3.14159
   D41        3.14159   0.00000   0.00000   0.00000   0.00000   3.14159
   D42       -0.00000   0.00000   0.00000   0.00000   0.00000  -0.00000
   D43       -0.00000  -0.00000   0.00000  -0.00000  -0.00000  -0.00000
   D44       -3.14159  -0.00000   0.00000  -0.00000  -0.00000  -3.14159
   D45        3.14159  -0.00000   0.00000   0.00000   0.00000   3.14159
   D46        0.00000   0.00000   0.00000  -0.00000  -0.00000   0.00000
   D47        0.00000   0.00000   0.00000  -0.00000  -0.00000   0.00000
   D48       -3.14159   0.00000   0.00000  -0.00000  -0.00000  -3.14159
   D49        3.14159  -0.00000   0.00000   0.00000   0.00000   3.14159
   D50        0.00000   0.00000   0.00000   0.00000   0.00000   0.00000
   D51        0.00000   0.00000   0.00000   0.00000   0.00000   0.00000
   D52       -3.14159   0.00000   0.00000  -0.00000  -0.00000  -3.14159
   D53        3.14159   0.00000   0.00000   0.00000   0.00000   3.14159
   D54       -0.00000   0.00000   0.00000  -0.00000  -0.00000  -0.00000
   D55        0.00001  -0.00000   0.00000  -0.00000  -0.00000   0.00001
   D56       -3.14158  -0.00000   0.00000  -0.00000  -0.00000  -3.14158
   D57       -0.00001   0.00000   0.00000   0.00000   0.00000  -0.00001
         Item               Value     Threshold  Converged?
 Maximum Force            3.119058     0.000450     NO 
 RMS     Force            0.292709     0.000300     NO 
 Maximum Displacement     0.196084     0.001800     NO 
 RMS     Displacement     0.032217     0.001200     NO 
 Predicted change in Energy=-3.368093D-01
 GradGradGradGradGradGradGradGradGradGradGradGradGradGradGradGradGradGrad

                          Input orientation:                          
 ---------------------------------------------------------------------
 Center     Atomic      Atomic             Coordinates (Angstroms)
 Number     Number       Type             X           Y           Z
 ---------------------------------------------------------------------
      1          6           0        0.682100    0.442566   -0.000503
      2          6           0        2.015633    0.470379   -0.434618
      3          6           0        2.732390    1.669857   -0.445483
      4          6           0        2.118350    2.849117   -0.021708
      5          6           0        0.791901    2.834857    0.412617
      6          6           0        0.070462    1.639502    0.425799
      7          6           0       -0.093111   -0.879781    0.006546
      8          6           0        0.533957   -2.058712   -0.421460
      9          6           0       -0.160893   -3.270078   -0.420042
     10          6           0       -1.487417   -3.312728    0.008981
     11          6           0       -2.119808   -2.140264    0.437527
     12          6           0       -1.433874   -0.925566    0.439672
     13          1           0        2.494576   -0.433569   -0.762176
     14          1           0        3.753920    1.685136   -0.779161
     15          1           0        0.323611    3.748334    0.738455
     16          1           0        1.555177   -2.036257   -0.753688
     17          1           0        0.324401   -4.170578   -0.749048
     18         17           0       -2.308212    0.581309    1.010737
     19         17           0       -1.659702    1.681812    1.003755
     20         17           0       -3.795683   -2.188004    0.980695
     21         17           0       -2.352242   -4.844374    0.006249
     22         17           0        3.020675    4.359525   -0.035313
 ---------------------------------------------------------------------
                    Distance matrix (angstroms):
                    1          2          3          4          5
     1  C    0.000000
     2  C    1.402690   0.000000
     3  C    2.430625   1.397356   0.000000
     4  C    2.802633   2.416493   1.395452   0.000000
     5  C    2.430181   2.793937   2.420550   1.395819   0.000000
     6  C    1.410139   2.427108   2.801056   2.420181   1.396252
     7  C    1.532842   2.542510   3.832550   4.335440   3.840140
     8  C    2.540776   2.931184   4.328500   5.172706   4.970839
     9  C    3.830193   4.327644   5.724919   6.542031   6.234691
    10  C    4.336949   5.174943   6.545186   7.139386   6.568943
    11  C    3.835827   4.967692   6.232219   6.562531   5.764590
    12  C    2.557907   3.822584   4.987733   5.203787   4.369850
    13  H    2.152400   1.074153   2.140386   3.386129   3.868056
    14  H    3.403875   2.148485   1.074755   2.145618   3.393487
    15  H    3.406270   3.870920   3.394700   2.146515   1.076989
    16  H    2.733883   2.568473   3.900783   4.971905   5.066618
    17  H    4.687149   4.949507   6.324654   7.281717   7.116470
    18  Cl   3.159719   4.560371   5.358468   5.079699   3.879036
    19  Cl   2.833426   4.128507   4.625030   4.085077   2.772961
    20  Cl   5.285187   6.545343   7.715751   7.832828   6.826256
    21  Cl   6.095819   6.893424   8.276035   8.898134   8.307909
    22  Cl   4.562095   4.036708   2.735994   1.759462   2.737278
                    6          7          8          9         10
     6  C    0.000000
     7  C    2.559164   0.000000
     8  C    3.822233   1.402241   0.000000
     9  C    4.987279   2.429010   1.396505   0.000000
    10  C    5.208196   2.804162   2.417393   1.394828   0.000000
    11  C    4.368531   2.425296   2.790516   2.418522   1.399371
    12  C    2.973684   1.409731   2.428565   2.802914   2.426294
    13  H    3.403710   2.736085   2.569281   3.900558   4.973983
    14  H    3.875806   4.689966   4.951011   6.325257   7.285014
    15  H    2.146860   4.704126   5.925490   7.129864   7.326018
    16  H    4.136034   2.152265   1.074136   2.139750   3.386505
    17  H    5.933110   3.402144   2.147372   1.074549   2.143175
    18  Cl   2.668336   2.837227   4.135072   4.635870   4.103747
    19  Cl   1.824635   3.163921   4.564526   5.366083   5.095555
    20  Cl   5.468528   4.045919   4.552861   4.042852   2.745419
    21  Cl   6.934420   4.563077   4.033980   2.731692   1.758940
    22  Cl   4.039171   6.094895   6.893957   8.275339   8.898782
                   11         12         13         14         15
    11  C    0.000000
    12  C    1.394992   0.000000
    13  H    5.064053   4.137538   0.000000
    14  H    7.114401   5.934183   2.464782   0.000000
    15  H    6.382511   5.002336   4.945027   4.281000   0.000000
    16  H    3.864624   3.404727   1.857728   4.322487   6.099569
    17  H    3.391797   3.877459   4.321466   6.786155   8.057409
    18  Cl   2.787656   1.833372   5.219192   6.416511   4.126824
    19  Cl   3.891090   2.677239   4.985115   5.699658   2.876531
    20  Cl   1.762348   2.732142   6.758921   8.665727   7.229618
    21  Cl   2.748133   4.048248   6.598282   8.974218   9.029449
    22  Cl   8.300326   6.928261   4.876358   2.871117   2.871659
                   16         17         18         19         20
    16  H    0.000000
    17  H    2.463769   0.000000
    18  Cl   4.989050   5.710335   0.000000
    19  Cl   5.219970   6.423352   1.277388   0.000000
    20  Cl   5.626972   4.888528   3.143656   4.420229   0.000000
    21  Cl   4.871442   2.861624   5.518059   6.638203   3.176377
    22  Cl   6.600741   8.974518   6.615600   5.491424   9.506059
                   21         22
    21  Cl   0.000000
    22  Cl  10.657473   0.000000
 Stoichiometry    C12H5Cl5
 Framework group  C1[X(C12H5Cl5)]
 Deg. of freedom    60
 Full point group                 C1      NOp   1
 Largest Abelian subgroup         C1      NOp   1
 Largest concise Abelian subgroup C1      NOp   1
                         Standard orientation:                         
 ---------------------------------------------------------------------
 Center     Atomic      Atomic             Coordinates (Angstroms)
 Number     Number       Type             X           Y           Z
 ---------------------------------------------------------------------
      1          6           0        1.207819    0.718422    0.000002
      2          6           0        2.013596    1.866578    0.000000
      3          6           0        3.406467    1.754708   -0.000002
      4          6           0        4.001323    0.492396   -0.000002
      5          6           0        3.210689   -0.657911    0.000002
      6          6           0        1.818409   -0.552669    0.000004
      7          6           0       -0.318941    0.854831    0.000003
      8          6           0       -0.905879    2.128324    0.000004
      9          6           0       -2.295516    2.266653    0.000003
     10          6           0       -3.109197    1.133750    0.000002
     11          6           0       -2.530626   -0.140415    0.000001
     12          6           0       -1.143525   -0.288586    0.000001
     13          1           0        1.562465    2.841404   -0.000002
     14          1           0        4.018835    2.637943   -0.000004
     15          1           0        3.675798   -1.629291    0.000004
     16          1           0       -0.287879    3.006872    0.000002
     17          1           0       -2.740122    3.244907    0.000004
     18         17           0       -0.436099   -1.979976   -0.000003
     19         17           0        0.836493   -2.090567    0.000007
     20         17           0       -3.553620   -1.575459   -0.000006
     21         17           0       -4.858178    1.320659   -0.000001
     22         17           0        5.755121    0.351324   -0.000005
 ---------------------------------------------------------------------
 Rotational constants (GHZ):           0.7047198           0.1513194           0.1245711
 Standard basis: 6-311+G(d,p) (5D, 7F)
 There are   461 symmetry adapted cartesian basis functions of A   symmetry.
 There are   444 symmetry adapted basis functions of A   symmetry.
   444 basis functions,   737 primitive gaussians,   461 cartesian basis functions
    81 alpha electrons       81 beta electrons
       nuclear repulsion energy      1801.1663486016 Hartrees.
 NAtoms=   22 NActive=   22 NUniq=   22 SFac= 1.00D+00 NAtFMM=   60 NAOKFM=F Big=F
 Integral buffers will be    131072 words long.
 Raffenetti 2 integral format.
 Two-electron integral symmetry is turned on.
 One-electron integrals computed using PRISM.
 NBasis=   444 RedAO= T EigKep=  1.17D-06  NBF=   444
 NBsUse=   438 1.00D-06 EigRej=  6.76D-07 NBFU=   438
 Initial guess from the checkpoint file:  "/scratch/gour/Gau-26632.chk"
 B after Tr=    -0.000000    0.000000    0.000000
         Rot=    1.000000   -0.000000   -0.000000   -0.000023 Ang=  -0.00 deg.
 ExpMin= 4.38D-02 ExpMax= 1.06D+05 ExpMxC= 3.62D+03 IAcc=3 IRadAn=         5 AccDes= 0.00D+00
 Harris functional with IExCor=  402 and IRadAn=       5 diagonalized for initial guess.
 HarFok:  IExCor=  402 AccDes= 0.00D+00 IRadAn=         5 IDoV= 1 UseB2=F ITyADJ=14
 ICtDFT=  3500011 ScaDFX=  1.000000  1.000000  1.000000  1.000000
 FoFCou: FMM=F IPFlag=           0 FMFlag=      100000 FMFlg1=           0
         NFxFlg=           0 DoJE=T BraDBF=F KetDBF=T FulRan=T
         wScrn=  0.000000 ICntrl=       500 IOpCl=  0 I1Cent=   200000004 NGrid=           0
         NMat0=    1 NMatS0=      1 NMatT0=    0 NMatD0=    1 NMtDS0=    0 NMtDT0=    0
 Petite list used in FoFCou.
 Requested convergence on RMS density matrix=1.00D-08 within  32 cycles.
 Requested convergence on MAX density matrix=1.00D-06.
 Requested convergence on             energy=1.00D-06.
 No special actions if energy rises.
 SCF Done:  E(RB3LYP) =  -2760.40912702     A.U. after   16 cycles
            NFock= 16  Conv=0.90D-08     -V/T= 2.0007
 QCSCF skips out because SCF is already converged.
 Calling FoFJK, ICntrl=      2127 FMM=F ISym2X=0 I1Cent= 0 IOpClX= 0 NMat=1 NMatS=1 NMatT=0.
 ***** Axes restored to original set *****
 -------------------------------------------------------------------
 Center     Atomic                   Forces (Hartrees/Bohr)
 Number     Number              X              Y              Z
 -------------------------------------------------------------------
      1        6          -0.002905476   -0.025117501   -0.003760081
      2        6          -0.004722519    0.015264362    0.004422829
      3        6          -0.004401951   -0.000598424    0.001337956
      4        6          -0.004924971   -0.007269324    0.000257092
      5        6          -0.002150781   -0.009874008   -0.001145735
      6        6           0.089519882   -0.017594602   -0.032797638
      7        6           0.018405758    0.012214007   -0.003769959
      8        6          -0.013598194   -0.003111126    0.003895740
      9        6          -0.001723951    0.008144498    0.002097532
     10        6          -0.001606700    0.000087265    0.000545755
     11        6           0.015673113    0.008662333   -0.003536690
     12        6           0.054837675   -0.081620034   -0.033395367
     13        1           0.005475464   -0.002244014   -0.002225429
     14        1           0.005282116    0.000600678   -0.001627398
     15        1          -0.003450051    0.007398514    0.002526176
     16        1           0.004638240   -0.003869979   -0.002255021
     17        1           0.001318904   -0.005180769   -0.001407485
     18       17          -1.107757803   -1.687369952    0.048070948
     19       17           0.954003811    1.790164823    0.021890094
     20       17          -0.005067323    0.001835971    0.002014259
     21       17           0.002855215   -0.000652777   -0.001063327
     22       17           0.000299539    0.000130059   -0.000074249
 -------------------------------------------------------------------
 Cartesian Forces:  Max     1.790164823 RMS     0.352794955

 GradGradGradGradGradGradGradGradGradGradGradGradGradGradGradGradGradGrad
 Berny optimization.
 Using GEDIIS/GDIIS optimizer.
 FormGI is forming the generalized inverse of G from B-inverse, IUseBI=4.
 Internal  Forces:  Max     1.970702501 RMS     0.184937783
 Search for a local minimum.
 Step number   2 out of a maximum of  129
 All quantities printed in internal units (Hartrees-Bohrs-Radians)
 Mixed Optimization -- RFO/linear search
 Update second derivatives using D2CorX and points    1    2
 DE= -5.10D-01 DEPred=-3.37D-01 R= 1.51D+00
 TightC=F SS=  1.41D+00  RLast= 2.77D-01 DXNew= 5.0454D-01 8.3168D-01
 Trust test= 1.51D+00 RLast= 2.77D-01 DXMaxT set to 5.05D-01
 ITU=  1  0
 Use linear search instead of GDIIS.
 Linear search step of   0.554 exceeds DXMaxT=   0.505 but not scaled.
 Quartic linear search produced a step of  2.00000.
 Iteration  1 RMS(Cart)=  0.04096703 RMS(Int)=  0.01661959
 Iteration  2 RMS(Cart)=  0.02413774 RMS(Int)=  0.00129363
 Iteration  3 RMS(Cart)=  0.00024906 RMS(Int)=  0.00128688
 Iteration  4 RMS(Cart)=  0.00000015 RMS(Int)=  0.00128688
 Variable       Old X    -DE/DX   Delta X   Delta X   Delta X     New X
                                 (Linear)    (Quad)   (Total)
    R1        2.65070   0.01244   0.00487   0.00000   0.00455   2.65525
    R2        2.66478   0.06044   0.03303   0.00000   0.03130   2.69608
    R3        2.89665   0.06171  -0.02705   0.00000  -0.02969   2.86696
    R4        2.64062  -0.00698  -0.01528   0.00000  -0.01520   2.62542
    R5        2.02985   0.00501   0.01570   0.00000   0.01570   2.04555
    R6        2.63702  -0.01879  -0.02248   0.00000  -0.02207   2.61495
    R7        2.03099   0.00553   0.01797   0.00000   0.01797   2.04896
    R8        2.63771  -0.01590  -0.02109   0.00000  -0.02076   2.61695
    R9        3.32490   0.00027  -0.00203   0.00000  -0.00203   3.32287
   R10        2.63853  -0.00618  -0.01946   0.00000  -0.01953   2.61900
   R11        2.03521   0.00854   0.02641   0.00000   0.02641   2.06163
   R12        3.44806   0.05675   0.24428   0.00000   0.24539   3.69345
   R13        2.64985   0.01184   0.00318   0.00000   0.00282   2.65267
   R14        2.66401   0.06012   0.03149   0.00000   0.02957   2.69357
   R15        2.63901  -0.00805  -0.01850   0.00000  -0.01842   2.62059
   R16        2.02982   0.00503   0.01563   0.00000   0.01563   2.04546
   R17        2.63584  -0.01915  -0.02484   0.00000  -0.02439   2.61145
   R18        2.03060   0.00537   0.01719   0.00000   0.01719   2.04780
   R19        2.64443  -0.01225  -0.00767   0.00000  -0.00730   2.63713
   R20        3.32392  -0.00083  -0.00401   0.00000  -0.00401   3.31991
   R21        2.63615  -0.00893  -0.02422   0.00000  -0.02429   2.61186
   R22        3.33035   0.00539   0.00887   0.00000   0.00887   3.33923
   R23        3.46457   0.07118   0.27731   0.00000   0.27828   3.74285
   R24        2.41391   1.97070   0.36278   0.00000   0.36542   2.77934
    A1        2.08184  -0.05051  -0.02511   0.00000  -0.02362   2.05823
    A2        2.09362  -0.09789  -0.00155   0.00000   0.00200   2.09562
    A3        2.10772   0.14840   0.02666   0.00000   0.02161   2.12934
    A4        2.10258   0.03062   0.01638   0.00000   0.01552   2.11811
    A5        2.09623  -0.01139   0.00367   0.00000   0.00409   2.10032
    A6        2.08437  -0.01923  -0.02005   0.00000  -0.01962   2.06476
    A7        2.09132   0.00155  -0.00615   0.00000  -0.00626   2.08506
    A8        2.09688  -0.00023   0.00498   0.00000   0.00503   2.10191
    A9        2.09498  -0.00131   0.00117   0.00000   0.00123   2.09621
   A10        2.09905  -0.00219   0.00930   0.00000   0.00943   2.10848
   A11        2.09144   0.00076  -0.00591   0.00000  -0.00598   2.08547
   A12        2.09270   0.00143  -0.00339   0.00000  -0.00346   2.08924
   A13        2.09752   0.01129   0.00624   0.00000   0.00589   2.10340
   A14        2.09287  -0.00596  -0.00305   0.00000  -0.00287   2.09000
   A15        2.09280  -0.00533  -0.00320   0.00000  -0.00302   2.08978
   A16        2.09406   0.00925  -0.00067   0.00000  -0.00097   2.09309
   A17        2.12554   0.05479   0.06229   0.00000   0.06123   2.18677
   A18        2.06358  -0.06404  -0.06162   0.00000  -0.06026   2.00332
   A19        2.09178  -0.09938  -0.00524   0.00000  -0.00154   2.09024
   A20        2.10647   0.14747   0.02416   0.00000   0.01898   2.12546
   A21        2.08494  -0.04809  -0.01892   0.00000  -0.01745   2.06749
   A22        2.10188   0.02969   0.01498   0.00000   0.01404   2.11592
   A23        2.09669  -0.01074   0.00460   0.00000   0.00507   2.10176
   A24        2.08461  -0.01894  -0.01958   0.00000  -0.01911   2.06550
   A25        2.09443   0.00361   0.00008   0.00000  -0.00005   2.09439
   A26        2.09659  -0.00046   0.00440   0.00000   0.00446   2.10105
   A27        2.09216  -0.00314  -0.00448   0.00000  -0.00441   2.08774
   A28        2.09250  -0.00674  -0.00379   0.00000  -0.00363   2.08887
   A29        2.08719  -0.00162  -0.01442   0.00000  -0.01450   2.07269
   A30        2.10350   0.00836   0.01821   0.00000   0.01813   2.12163
   A31        2.10345   0.01600   0.01812   0.00000   0.01775   2.12120
   A32        2.09604  -0.00465   0.00330   0.00000   0.00348   2.09953
   A33        2.08369  -0.01135  -0.02141   0.00000  -0.02123   2.06246
   A34        2.08916   0.00554  -0.01046   0.00000  -0.01066   2.07851
   A35        2.12067   0.05071   0.05254   0.00000   0.05116   2.17182
   A36        2.07335  -0.05625  -0.04208   0.00000  -0.04050   2.03286
   A37        2.05362  -0.20093  -0.08155   0.00000  -0.07533   1.97829
   A38        2.05235  -0.20045  -0.08410   0.00000  -0.07766   1.97469
    D1        0.00000   0.00000   0.00000   0.00000  -0.00000   0.00000
    D2        3.14159   0.00000   0.00000   0.00000   0.00000   3.14159
    D3       -3.14159   0.00000   0.00000   0.00000   0.00000  -3.14159
    D4       -0.00000   0.00000   0.00000   0.00000   0.00000  -0.00000
    D5       -0.00000  -0.00000  -0.00000   0.00000  -0.00000  -0.00000
    D6        3.14159  -0.00000   0.00000   0.00000   0.00000   3.14159
    D7        3.14159  -0.00000  -0.00000   0.00000  -0.00000   3.14159
    D8        0.00000  -0.00000   0.00000   0.00000   0.00000   0.00000
    D9       -0.00000  -0.00000  -0.00000   0.00000  -0.00000  -0.00000
   D10        3.14159  -0.00000  -0.00000   0.00000  -0.00000   3.14159
   D11        3.14159  -0.00000  -0.00000   0.00000  -0.00000   3.14159
   D12       -0.00000  -0.00000  -0.00000   0.00000  -0.00000  -0.00000
   D13        0.00000  -0.00000  -0.00000   0.00000  -0.00000   0.00000
   D14        3.14159  -0.00000   0.00000   0.00000   0.00000   3.14159
   D15       -3.14159   0.00000  -0.00000   0.00000  -0.00000  -3.14159
   D16        0.00000   0.00000  -0.00000   0.00000  -0.00000   0.00000
   D17       -0.00000  -0.00000   0.00000   0.00000   0.00000  -0.00000
   D18        3.14159   0.00000  -0.00000   0.00000  -0.00000   3.14159
   D19        3.14159  -0.00000   0.00000   0.00000   0.00000   3.14159
   D20        0.00000   0.00000  -0.00000   0.00000  -0.00000   0.00000
   D21        0.00000   0.00000  -0.00000   0.00000  -0.00000   0.00000
   D22       -3.14159   0.00000  -0.00000   0.00000  -0.00000  -3.14159
   D23       -3.14159  -0.00000  -0.00000   0.00000  -0.00000  -3.14159
   D24        0.00000   0.00000   0.00000   0.00000   0.00000   0.00000
   D25       -0.00000   0.00000   0.00000   0.00000   0.00000  -0.00000
   D26        3.14159   0.00000   0.00000   0.00000   0.00000   3.14159
   D27        3.14159  -0.00000   0.00000   0.00000   0.00000   3.14159
   D28       -0.00000   0.00000  -0.00000   0.00000  -0.00000  -0.00000
   D29        0.00001  -0.00000  -0.00000   0.00000  -0.00000   0.00001
   D30       -3.14158  -0.00000  -0.00000   0.00000  -0.00000  -3.14158
   D31        3.14159   0.00000   0.00000   0.00000   0.00000   3.14159
   D32        0.00000   0.00000   0.00000   0.00000   0.00000   0.00000
   D33        0.00000   0.00000   0.00000   0.00000   0.00000   0.00000
   D34       -3.14159   0.00000  -0.00000   0.00000  -0.00000  -3.14159
   D35       -3.14159  -0.00000  -0.00000   0.00000  -0.00000  -3.14159
   D36        0.00000  -0.00000   0.00000   0.00000   0.00000   0.00000
   D37       -0.00000  -0.00000  -0.00000   0.00000  -0.00000  -0.00000
   D38        3.14159  -0.00000   0.00000   0.00000   0.00000   3.14159
   D39       -0.00000  -0.00000  -0.00000   0.00000   0.00000  -0.00000
   D40        3.14159  -0.00000  -0.00000   0.00000  -0.00000   3.14159
   D41        3.14159   0.00000   0.00000   0.00000   0.00000   3.14159
   D42       -0.00000   0.00000   0.00000   0.00000   0.00000  -0.00000
   D43       -0.00000  -0.00000  -0.00000   0.00000  -0.00000  -0.00000
   D44       -3.14159  -0.00000  -0.00000   0.00000  -0.00000  -3.14159
   D45        3.14159  -0.00000   0.00000   0.00000   0.00000   3.14159
   D46        0.00000   0.00000  -0.00000   0.00000  -0.00000   0.00000
   D47        0.00000   0.00000  -0.00000   0.00000  -0.00000   0.00000
   D48       -3.14159   0.00000  -0.00000   0.00000  -0.00000  -3.14159
   D49        3.14159  -0.00000   0.00000   0.00000   0.00000   3.14159
   D50        0.00000   0.00000   0.00000   0.00000   0.00000   0.00000
   D51        0.00000   0.00000   0.00000   0.00000   0.00000   0.00000
   D52       -3.14159   0.00000  -0.00000   0.00000  -0.00000  -3.14159
   D53        3.14159   0.00000   0.00000   0.00000   0.00000   3.14159
   D54       -0.00000   0.00000  -0.00000   0.00000  -0.00000  -0.00000
   D55        0.00001  -0.00000  -0.00000   0.00000  -0.00000   0.00001
   D56       -3.14158  -0.00000  -0.00000   0.00000  -0.00000  -3.14158
   D57       -0.00001   0.00000   0.00000   0.00000   0.00000  -0.00001
         Item               Value     Threshold  Converged?
 Maximum Force            1.970703     0.000450     NO 
 RMS     Force            0.184938     0.000300     NO 
 Maximum Displacement     0.378080     0.001800     NO 
 RMS     Displacement     0.059665     0.001200     NO 
 Predicted change in Energy=-3.671082D-01
 GradGradGradGradGradGradGradGradGradGradGradGradGradGradGradGradGradGrad

[...]
                 (A) (A) (A) (A) (A) (A) (A) (A) (A)
       Virtual   (A) (A) (A) (A) (A) (A) (A) (A) (A) (A) (A) (A)
                 (A) (A) (A) (A) (A) (A) (A) (A) (A) (A) (A) (A)
                 (A) (A) (A) (A) (A) (A) (A) (A) (A) (A) (A) (A)
                 (A) (A) (A) (A) (A) (A) (A) (A) (A) (A) (A) (A)
                 (A) (A) (A) (A) (A) (A) (A) (A) (A) (A) (A) (A)
                 (A) (A) (A) (A) (A) (A) (A) (A) (A) (A) (A) (A)
                 (A) (A) (A) (A) (A) (A) (A) (A) (A) (A) (A) (A)
                 (A) (A) (A) (A) (A) (A) (A) (A) (A) (A) (A) (A)
                 (A) (A) (A) (A) (A) (A) (A) (A) (A) (A) (A) (A)
                 (A) (A) (A) (A) (A) (A) (A) (A) (A) (A) (A) (A)
                 (A) (A) (A) (A) (A) (A) (A) (A) (A) (A) (A) (A)
                 (A) (A) (A) (A) (A) (A) (A) (A) (A) (A) (A) (A)
                 (A) (A) (A) (A) (A) (A) (A) (A) (A) (A) (A) (A)
                 (A) (A) (A) (A) (A) (A) (A) (A) (A) (A) (A) (A)
                 (A) (A) (A) (A) (A) (A) (A) (A) (A) (A) (A) (A)
                 (A) (A) (A) (A) (A) (A) (A) (A) (A) (A) (A) (A)
                 (A) (A) (A) (A) (A) (A) (A) (A) (A) (A) (A) (A)
                 (A) (A) (A) (A) (A) (A) (A) (A) (A) (A) (A) (A)
                 (A) (A) (A) (A) (A) (A) (A) (A) (A) (A) (A) (A)
                 (A) (A) (A) (A) (A) (A) (A) (A) (A) (A) (A) (A)
                 (A) (A) (A) (A) (A) (A) (A) (A) (A) (A) (A) (A)
                 (A) (A) (A) (A) (A) (A) (A) (A) (A) (A) (A) (A)
                 (A) (A) (A) (A) (A) (A) (A) (A) (A) (A) (A) (A)
                 (A) (A) (A) (A) (A) (A) (A) (A) (A) (A) (A) (A)
                 (A) (A) (A) (A) (A) (A) (A) (A) (A) (A) (A) (A)
                 (A) (A) (A) (A) (A) (A) (A) (A) (A) (A) (A) (A)
                 (A) (A) (A) (A) (A) (A) (A) (A) (A) (A) (A) (A)
                 (A) (A) (A) (A) (A) (A) (A) (A) (A) (A) (A) (A)
                 (A) (A) (A) (A) (A) (A) (A) (A) (A) (A) (A) (A)
                 (A) (A) (A) (A) (A) (A) (A) (A) (A) (A) (A)
 The electronic state is 1-A.
 Alpha  occ. eigenvalues -- -101.57428-101.57367-101.57269-101.57030-101.57001
 Alpha  occ. eigenvalues --  -10.27384 -10.27239 -10.27016 -10.26562 -10.26325
 Alpha  occ. eigenvalues --  -10.22808 -10.22460 -10.21381 -10.21364 -10.21293
 Alpha  occ. eigenvalues --  -10.21288 -10.20941  -9.48893  -9.48826  -9.48745
 Alpha  occ. eigenvalues --   -9.48484  -9.48472  -7.25393  -7.25312  -7.25230
 Alpha  occ. eigenvalues --   -7.24951  -7.24939  -7.24376  -7.24307  -7.24292
 Alpha  occ. eigenvalues --   -7.24246  -7.24230  -7.24155  -7.23965  -7.23955
 Alpha  occ. eigenvalues --   -7.23927  -7.23907  -0.95030  -0.92951  -0.90011
 Alpha  occ. eigenvalues --   -0.89130  -0.87549  -0.85455  -0.84503  -0.79238
 Alpha  occ. eigenvalues --   -0.77039  -0.75994  -0.73663  -0.65220  -0.64152
 Alpha  occ. eigenvalues --   -0.63862  -0.60983  -0.55602  -0.53091  -0.52117
 Alpha  occ. eigenvalues --   -0.51584  -0.49225  -0.48173  -0.46430  -0.46112
 Alpha  occ. eigenvalues --   -0.45997  -0.44784  -0.43330  -0.42633  -0.40922
 Alpha  occ. eigenvalues --   -0.40104  -0.39460  -0.38441  -0.37815  -0.36160
 Alpha  occ. eigenvalues --   -0.34994  -0.34450  -0.33988  -0.33674  -0.33623
 Alpha  occ. eigenvalues --   -0.33003  -0.31671  -0.28140  -0.27209  -0.27135
 Alpha  occ. eigenvalues --   -0.26709
 Alpha virt. eigenvalues --   -0.05754  -0.05379  -0.04706  -0.04312  -0.03648
 Alpha virt. eigenvalues --   -0.01635  -0.00721   0.00657   0.01483   0.01602
 Alpha virt. eigenvalues --    0.01672   0.02196   0.02607   0.03355   0.04041
 Alpha virt. eigenvalues --    0.04634   0.04893   0.05559   0.05801   0.06083
 Alpha virt. eigenvalues --    0.06705   0.07228   0.07659   0.08322   0.08467
 Alpha virt. eigenvalues --    0.08767   0.09301   0.09627   0.09951   0.10013
 Alpha virt. eigenvalues --    0.10665   0.11232   0.11454   0.11593   0.11879
 Alpha virt. eigenvalues --    0.11988   0.12741   0.13234   0.13454   0.14068
 Alpha virt. eigenvalues --    0.14349   0.14772   0.15353   0.15614   0.15936
 Alpha virt. eigenvalues --    0.16059   0.16347   0.16993   0.17463   0.17874
 Alpha virt. eigenvalues --    0.17959   0.18622   0.18847   0.19039   0.19392
 Alpha virt. eigenvalues --    0.19650   0.19918   0.20608   0.20802   0.21291
 Alpha virt. eigenvalues --    0.21528   0.21820   0.22576   0.22801   0.23052
 Alpha virt. eigenvalues --    0.23703   0.24121   0.24426   0.24592   0.25290
 Alpha virt. eigenvalues --    0.25610   0.25809   0.26312   0.27217   0.27470
 Alpha virt. eigenvalues --    0.27676   0.28009   0.28292   0.28725   0.29016
 Alpha virt. eigenvalues --    0.29437   0.29901   0.30389   0.31333   0.32167
 Alpha virt. eigenvalues --    0.32633   0.33579   0.35417   0.35604   0.40517
 Alpha virt. eigenvalues --    0.41457   0.42271   0.43455   0.44000   0.44980
 Alpha virt. eigenvalues --    0.45226   0.45543   0.45986   0.46542   0.46984
 Alpha virt. eigenvalues --    0.47452   0.47953   0.48390   0.49620   0.50146
 Alpha virt. eigenvalues --    0.50440   0.50756   0.51986   0.52948   0.54169
 Alpha virt. eigenvalues --    0.54420   0.55905   0.56407   0.57130   0.57715
 Alpha virt. eigenvalues --    0.57869   0.58681   0.59507   0.61156   0.61673
 Alpha virt. eigenvalues --    0.62166   0.62654   0.63500   0.63675   0.63904
 Alpha virt. eigenvalues --    0.64718   0.65389   0.66746   0.67556   0.67967
 Alpha virt. eigenvalues --    0.68481   0.69020   0.69758   0.70119   0.70703
 Alpha virt. eigenvalues --    0.71595   0.73209   0.74685   0.78444   0.78936
 Alpha virt. eigenvalues --    0.79623   0.80806   0.82358   0.83122   0.83293
 Alpha virt. eigenvalues --    0.83603   0.84032   0.84165   0.84272   0.84760
 Alpha virt. eigenvalues --    0.84859   0.85135   0.85429   0.86268   0.86999
 Alpha virt. eigenvalues --    0.87497   0.87758   0.88229   0.89248   0.89964
 Alpha virt. eigenvalues --    0.90389   0.91438   0.91932   0.93123   0.93786
 Alpha virt. eigenvalues --    0.94076   0.94455   0.94733   0.95372   0.96019
 Alpha virt. eigenvalues --    0.96642   0.96673   0.97868   0.98374   0.99261
 Alpha virt. eigenvalues --    0.99954   1.01568   1.02175   1.03408   1.05026
 Alpha virt. eigenvalues --    1.07721   1.10379   1.11318   1.12143   1.15663
 Alpha virt. eigenvalues --    1.17383   1.18595   1.21386   1.22667   1.23345
 Alpha virt. eigenvalues --    1.24185   1.24399   1.26249   1.27378   1.27704
 Alpha virt. eigenvalues --    1.28335   1.31372   1.31499   1.31982   1.34844
 Alpha virt. eigenvalues --    1.36835   1.40025   1.41121   1.43876   1.47988
 Alpha virt. eigenvalues --    1.48738   1.50362   1.52207   1.54562   1.55256
 Alpha virt. eigenvalues --    1.57122   1.57982   1.58644   1.60384   1.62620
 Alpha virt. eigenvalues --    1.65308   1.66759   1.68145   1.69267   1.71324
 Alpha virt. eigenvalues --    1.73134   1.74018   1.76453   1.80430   1.81061
 Alpha virt. eigenvalues --    1.82435   1.83533   1.85031   1.85684   1.87176
 Alpha virt. eigenvalues --    1.90970   1.92606   1.92829   1.93141   1.93621
 Alpha virt. eigenvalues --    1.96441   1.97515   1.99672   1.99934   2.02866
 Alpha virt. eigenvalues --    2.03504   2.06405   2.10196   2.12749   2.12926
 Alpha virt. eigenvalues --    2.15311   2.20551   2.22905   2.23541   2.25611
 Alpha virt. eigenvalues --    2.26013   2.26463   2.27451   2.29517   2.31469
 Alpha virt. eigenvalues --    2.32428   2.33959   2.35516   2.36730   2.39403
 Alpha virt. eigenvalues --    2.41110   2.42698   2.44323   2.45030   2.48436
 Alpha virt. eigenvalues --    2.49304   2.50629   2.52330   2.53127   2.55357
 Alpha virt. eigenvalues --    2.56440   2.58511   2.61025   2.64893   2.66539
 Alpha virt. eigenvalues --    2.67078   2.68121   2.69949   2.70618   2.72274
 Alpha virt. eigenvalues --    2.73139   2.73622   2.75483   2.75795   2.77780
 Alpha virt. eigenvalues --    2.78401   2.82756   2.82986   2.83573   2.84552
 Alpha virt. eigenvalues --    2.87865   2.90287   2.97730   2.98280   3.09028
 Alpha virt. eigenvalues --    3.09499   3.10119   3.11849   3.13450   3.14211
 Alpha virt. eigenvalues --    3.17389   3.20520   3.22204   3.27081   3.32061
 Alpha virt. eigenvalues --    3.35727   3.41660   3.44076   3.54252   3.57110
 Alpha virt. eigenvalues --    3.65580   3.68807   3.76657   3.79993   3.87630
 Alpha virt. eigenvalues --    4.00534   4.05761   4.07094   4.12098   4.32998
 Alpha virt. eigenvalues --    4.80631   4.81370   9.75541   9.76735   9.79809
 Alpha virt. eigenvalues --    9.81613   9.83562  23.36726  23.54065  23.83836
 Alpha virt. eigenvalues --   23.85796  23.87630  23.91634  23.95166  23.96731
 Alpha virt. eigenvalues --   24.04902  24.06744  24.12343  24.15296  25.77922
 Alpha virt. eigenvalues --   25.81924  25.83534  25.89191  25.96386  26.09636
 Alpha virt. eigenvalues --   26.10314  26.16399  26.23480  26.33735  26.50105
 Alpha virt. eigenvalues --   26.57553  26.64099  26.74208  26.93589 215.74644
 Alpha virt. eigenvalues --  215.75790 215.79438 215.81894 215.83785
          Condensed to atoms (all electrons):
               1          2          3          4          5          6
     1  C   22.915376  -0.635037  -2.717679  -4.694188  -0.285045  -5.530997
     2  C   -0.635037  14.005193  -0.737644  -0.258579   2.027287  -6.467359
     3  C   -2.717679  -0.737644  18.995281  -2.931586 -10.164342   0.949202
     4  C   -4.694188  -0.258579  -2.931586  18.265324  -0.672346  -0.591642
     5  C   -0.285045   2.027287 -10.164342  -0.672346  23.046795  -4.949230
     6  C   -5.530997  -6.467359   0.949202  -0.591642  -4.949230  35.289997
     7  C    3.361944  -1.236085   1.268386  -1.623046  -1.518151  -5.859235
     8  C   -1.718633   0.000719   0.470858  -0.188343  -0.334516  -1.572774
     9  C    1.009576  -0.196927   0.020000   0.047455   0.061473   0.935839
    10  C   -0.759458   0.159045   0.005811  -0.014683   0.002792  -0.497884
    11  C   -3.163346  -0.139661   0.221873  -0.118401  -0.226055  -1.595229
    12  C   -1.113850  -0.064165   0.282385  -0.531429  -0.754166  -3.636088
    13  H    0.011270   0.339676  -0.041961  -0.019496  -0.035562  -0.082039
    14  H    0.022447  -0.060697   0.307317   0.033140   0.064640  -0.014520
    15  H    0.088933  -0.033409   0.081436   0.008712   0.208148  -0.014447
    16  H    0.064964   0.006125  -0.017104   0.009564   0.012712   0.084796
    17  H   -0.003179  -0.000573  -0.000431  -0.000004   0.000123   0.001147
    18  Cl   0.119252   0.122301   0.065744   0.002219   0.038256   0.289524
    19  Cl  -0.974820  -0.484111   0.499880  -0.411121  -0.605475   0.457111
    20  Cl  -0.143732  -0.003314   0.008401  -0.002137  -0.006338  -0.085960
    21  Cl  -0.050934   0.005742   0.005743  -0.001023  -0.003105  -0.050644
    22  Cl  -0.210257   0.198781   0.133330  -1.209347   0.502588  -0.105908
               7          8          9         10         11         12
     1  C    3.361944  -1.718633   1.009576  -0.759458  -3.163346  -1.113850
     2  C   -1.236085   0.000719  -0.196927   0.159045  -0.139661  -0.064165
     3  C    1.268386   0.470858   0.020000   0.005811   0.221873   0.282385
     4  C   -1.623046  -0.188343   0.047455  -0.014683  -0.118401  -0.531429
     5  C   -1.518151  -0.334516   0.061473   0.002792  -0.226055  -0.754166
     6  C   -5.859235  -1.572774   0.935839  -0.497884  -1.595229  -3.636088
     7  C   17.319380  -3.634302  -1.449177   0.790764  -2.708952   1.944148
     8  C   -3.634302  16.514329   0.360302  -0.738422   0.935241  -4.706332
     9  C   -1.449177   0.360302  13.999979  -3.170402  -5.355530   0.177186
    10  C    0.790764  -0.738422  -3.170402  14.710479  -0.273013  -3.303759
    11  C   -2.708952   0.935241  -5.355530  -0.273013  16.966134   0.853863
    12  C    1.944148  -4.706332   0.177186  -3.303759   0.853863  19.879009
    13  H    0.095933   0.004898  -0.015265   0.004817   0.014974   0.080787
    14  H    0.003903  -0.001450  -0.000372   0.000025  -0.000050   0.002894
    15  H    0.016063  -0.001472  -0.000483   0.000065  -0.000025   0.004849
    16  H    0.013421   0.346609  -0.063205  -0.021030  -0.041424  -0.038055
    17  H    0.017118  -0.033569   0.347223   0.016954  -0.003432   0.007036
    18  Cl  -0.370888   0.056613   0.456147  -0.325961  -0.072303  -1.821212
    19  Cl  -0.027824   0.323320   0.088521  -0.013529   0.079682  -0.172150
    20  Cl  -0.572876   0.294097   0.106137  -0.376632  -0.470537   0.666754
    21  Cl  -0.168862   0.073548  -0.342742  -0.435675   0.727746  -0.386219
    22  Cl  -0.047377   0.004960   0.003853  -0.000430  -0.000978  -0.042537
              13         14         15         16         17         18
     1  C    0.011270   0.022447   0.088933   0.064964  -0.003179   0.119252
     2  C    0.339676  -0.060697  -0.033409   0.006125  -0.000573   0.122301
     3  C   -0.041961   0.307317   0.081436  -0.017104  -0.000431   0.065744
     4  C   -0.019496   0.033140   0.008712   0.009564  -0.000004   0.002219
     5  C   -0.035562   0.064640   0.208148   0.012712   0.000123   0.038256
     6  C   -0.082039  -0.014520  -0.014447   0.084796   0.001147   0.289524
     7  C    0.095933   0.003903   0.016063   0.013421   0.017118  -0.370888
     8  C    0.004898  -0.001450  -0.001472   0.346609  -0.033569   0.056613
     9  C   -0.015265  -0.000372  -0.000483  -0.063205   0.347223   0.456147
    10  C    0.004817   0.000025   0.000065  -0.021030   0.016954  -0.325961
    11  C    0.014974  -0.000050  -0.000025  -0.041424  -0.003432  -0.072303
    12  C    0.080787   0.002894   0.004849  -0.038055   0.007036  -1.821212
    13  H    0.529103  -0.007173   0.000049  -0.000538   0.000007  -0.013080
    14  H   -0.007173   0.507637  -0.000276   0.000008   0.000000  -0.000700
    15  H    0.000049  -0.000276   0.492372   0.000001   0.000000  -0.001327
    16  H   -0.000538   0.000008   0.000001   0.525123  -0.006968  -0.001213
    17  H    0.000007   0.000000   0.000000  -0.006968   0.505170   0.001614
    18  Cl  -0.013080  -0.000700  -0.001327  -0.001213   0.001614  18.107825
    19  Cl  -0.001191   0.000772  -0.006527  -0.008180  -0.000736   0.089620
    20  Cl   0.000679  -0.000001  -0.000005   0.000084  -0.000673  -0.245355
    21  Cl   0.000098  -0.000001  -0.000001  -0.001344  -0.005211  -0.025972
    22  Cl  -0.000469  -0.012019  -0.013264   0.000075  -0.000001   0.008404
              19         20         21         22
     1  C   -0.974820  -0.143732  -0.050934  -0.210257
     2  C   -0.484111  -0.003314   0.005742   0.198781
     3  C    0.499880   0.008401   0.005743   0.133330
     4  C   -0.411121  -0.002137  -0.001023  -1.209347
     5  C   -0.605475  -0.006338  -0.003105   0.502588
     6  C    0.457111  -0.085960  -0.050644  -0.105908
     7  C   -0.027824  -0.572876  -0.168862  -0.047377
     8  C    0.323320   0.294097   0.073548   0.004960
     9  C    0.088521   0.106137  -0.342742   0.003853
    10  C   -0.013529  -0.376632  -0.435675  -0.000430
    11  C    0.079682  -0.470537   0.727746  -0.000978
    12  C   -0.172150   0.666754  -0.386219  -0.042537
    13  H   -0.001191   0.000679   0.000098  -0.000469
    14  H    0.000772  -0.000001  -0.000001  -0.012019
    15  H   -0.006527  -0.000005  -0.000001  -0.013264
    16  H   -0.008180   0.000084  -0.001344   0.000075
    17  H   -0.000736  -0.000673  -0.005211  -0.000001
    18  Cl   0.089620  -0.245355  -0.025972   0.008404
    19  Cl  17.830330  -0.001066   0.007052  -0.025064
    20  Cl  -0.001066  17.391550  -0.146172   0.000006
    21  Cl   0.007052  -0.146172  17.303661   0.000017
    22  Cl  -0.025064   0.000006   0.000017  17.409588
 Mulliken charges:
               1
     1  C    0.407392
     2  C   -0.547310
     3  C   -0.704900
     4  C    0.900958
     5  C   -0.410484
     6  C   -0.953661
     7  C    0.385713
     8  C   -0.455681
     9  C   -1.019587
    10  C    0.240125
    11  C    0.369422
    12  C   -1.328951
    13  H    0.134482
    14  H    0.154477
    15  H    0.170607
    16  H    0.135579
    17  H    0.158383
    18  Cl   0.520491
    19  Cl   0.355505
    20  Cl   0.587092
    21  Cl   0.494298
    22  Cl   0.406050
 Sum of Mulliken charges =  -0.00000
 Mulliken charges with hydrogens summed into heavy atoms:
               1
     1  C    0.407392
     2  C   -0.412828
     3  C   -0.550423
     4  C    0.900958
     5  C   -0.239877
     6  C   -0.953661
     7  C    0.385713
     8  C   -0.320102
     9  C   -0.861203
    10  C    0.240125
    11  C    0.369422
    12  C   -1.328951
    18  Cl   0.520491
    19  Cl   0.355505
    20  Cl   0.587092
    21  Cl   0.494298
    22  Cl   0.406050
 Electronic spatial extent (au):  <R**2>=           7606.6379
 Charge=             -0.0000 electrons
 Dipole moment (field-independent basis, Debye):
    X=              0.7855    Y=              2.0100    Z=             -1.3359  Tot=              2.5381
 Quadrupole moment (field-independent basis, Debye-Ang):
   XX=           -140.6837   YY=           -129.2159   ZZ=           -129.5452
   XY=             -2.1898   XZ=             -1.1312   YZ=             -1.5645
 Traceless Quadrupole moment (field-independent basis, Debye-Ang):
   XX=             -7.5354   YY=              3.9324   ZZ=              3.6030
   XY=             -2.1898   XZ=             -1.1312   YZ=             -1.5645
 Octapole moment (field-independent basis, Debye-Ang**2):
  XXX=            -22.4739  YYY=             -2.3424  ZZZ=             -1.7717  XYY=            -17.0292
  XXY=             -5.2594  XXZ=              8.7456  XZZ=             11.4042  YZZ=             -5.3856
  YYZ=              2.1859  XYZ=             -0.8259
 Hexadecapole moment (field-independent basis, Debye-Ang**3):
 XXXX=          -8099.4719 YYYY=          -1139.5328 ZZZZ=           -868.2699 XXXY=              6.2255
 XXXZ=             31.4018 YYYX=            -13.0051 YYYZ=             -1.3285 ZZZX=            -29.2363
 ZZZY=              0.2288 XXYY=          -1520.7965 XXZZ=          -1441.9024 YYZZ=           -372.4865
 XXYZ=             -3.4453 YYXZ=              6.5994 ZZXY=              8.5360
 N-N= 1.719074403648D+03 E-N=-9.974993685515D+03  KE= 2.754122570875D+03
 1\1\GINC-LOCALHOST\FOpt\RB3LYP\6-311+G(d,p)\C12H5Cl5\GOUR\16-Mar-2022\
 0\\# opt b3lyp/6-311+g(d,p) scf=xqc\\Title Card Required\\0,1\C,0.6279
 016459,0.4477274321,0.0563841691\C,1.93456884,0.4344912763,0.556819120
 3\C,2.7054064893,1.5897968855,0.6266149751\C,2.1571081347,2.7884150552
 ,0.183199924\C,0.8650712038,2.845923765,-0.3251297824\C,0.1158672804,1
 .6738645305,-0.3826923793\C,-0.1515075055,-0.8224141088,-0.0240467254\
 C,0.0169643627,-1.6664613712,-1.1235880067\C,-0.6759136242,-2.86410410
 54,-1.2259401731\C,-1.5570285037,-3.2419591956,-0.2187570832\C,-1.7490
 930315,-2.4223681916,0.9006132681\C,-1.0387018411,-1.2139218743,0.9868
 789883\H,2.3500625497,-0.5039212846,0.9051663403\H,3.7130127687,1.5609
 943356,1.0197277799\H,0.446288859,3.7805298742,-0.6714388548\H,0.69778
 89476,-1.3717300305,-1.9128615558\H,-0.5416036842,-3.5103322193,-2.083
 2123099\Cl,-1.2534316585,-0.17847583,2.3752122869\Cl,-1.5102962043,1.7
 69456173,-1.0342636571\Cl,-2.8447092815,-2.8973563933,2.1624662331\Cl,
 -2.4109316785,-4.7558697139,-0.3837780518\Cl,3.1093878913,4.2601959311
 ,0.2604599343\\Version=EM64L-G16RevB.01\State=1-A\HF=-2761.5161446\RMS
 D=5.098e-09\RMSF=2.692e-06\Dipole=0.8411035,-0.2088965,-0.4959884\Quad
 rupole=0.9777803,-2.705899,1.7281186,-4.1150731,0.5385599,2.3258969\PG
 =C01 [X(C12H5Cl5)]\\@


 IT IS THE BEHAVIOR AND DISTRIBUTION OF THE ELECTRONS 
 AROUND THE NUCLEUS THAT GIVES THE FUNDAMENTAL 
 CHARACTER OF AN ATOM:  IT MUST BE THE SAME FOR MOLECULES.

                               -- C. A. COULSON, 1951
 Job cpu time:       0 days 22 hours 59 minutes  6.3 seconds.
 Elapsed time:       0 days  5 hours 45 minutes 46.8 seconds.
 File lengths (MBytes):  RWF=    127 Int=      0 D2E=      0 Chk=     20 Scr=      1
 Normal termination of Gaussian 16 at Wed Mar 16 06:03:19 2022.
