 Entering Gaussian System, Link 0=g16
 Input=2,2prime,4,5prime,6-Pentachlorobiphenyl1.gjf
 Output=2,2prime,4,5prime,6-Pentachlorobiphenyl1.log
 Initial command:
 /home/apps/g16/l1.exe "./Gau-266107.inp" -scrdir="./"
 Entering Link 1 = /home/apps/g16/l1.exe PID=    266108.
  
 Copyright (c) 1988-2017, Gaussian, Inc.  All Rights Reserved.
  
 This is part of the Gaussian(R) 16 program.  It is based on
 the Gaussian(R) 09 system (copyright 2009, Gaussian, Inc.),
 the Gaussian(R) 03 system (copyright 2003, Gaussian, Inc.),
 the Gaussian(R) 98 system (copyright 1998, Gaussian, Inc.),
 the Gaussian(R) 94 system (copyright 1995, Gaussian, Inc.),
 the Gaussian 92(TM) system (copyright 1992, Gaussian, Inc.),
 the Gaussian 90(TM) system (copyright 1990, Gaussian, Inc.),
 the Gaussian 88(TM) system (copyright 1988, Gaussian, Inc.),
 the Gaussian 86(TM) system (copyright 1986, Carnegie Mellon
 University), and the Gaussian 82(TM) system (copyright 1983,
 Carnegie Mellon University). Gaussian is a federally registered
 trademark of Gaussian, Inc.
  
 This software contains proprietary and confidential information,
 including trade secrets, belonging to Gaussian, Inc.
  
 This software is provided under written license and may be
 used, copied, transmitted, or stored only in accord with that
 written license.
  
 The following legend is applicable only to US Government
 contracts under FAR:
  
                    RESTRICTED RIGHTS LEGEND
  
 Use, reproduction and disclosure by the US Government is
 subject to restrictions as set forth in subparagraphs (a)
 and (c) of the Commercial Computer Software - Restricted
 Rights clause in FAR 52.227-19.
  
 Gaussian, Inc.
 340 Quinnipiac St., Bldg. 40, Wallingford CT 06492
  
  
 ---------------------------------------------------------------
 Warning -- This program may not be used in any manner that
 competes with the business of Gaussian, Inc. or will provide
 assistance to any competitor of Gaussian, Inc.  The licensee
 of this program is prohibited from giving any competitor of
 Gaussian, Inc. access to this program.  By using this program,
 the user acknowledges that Gaussian, Inc. is engaged in the
 business of creating and licensing software in the field of
 computational chemistry and represents and warrants to the
 licensee that it is not a competitor of Gaussian, Inc. and that
 it will not use this program in any manner prohibited above.
 ---------------------------------------------------------------
  

 Cite this work as:
 Gaussian 16, Revision B.01,
 M. J. Frisch, G. W. Trucks, H. B. Schlegel, G. E. Scuseria, 
 M. A. Robb, J. R. Cheeseman, G. Scalmani, V. Barone, 
 G. A. Petersson, H. Nakatsuji, X. Li, M. Caricato, A. V. Marenich, 
 J. Bloino, B. G. Janesko, R. Gomperts, B. Mennucci, H. P. Hratchian, 
 J. V. Ortiz, A. F. Izmaylov, J. L. Sonnenberg, D. Williams-Young, 
 F. Ding, F. Lipparini, F. Egidi, J. Goings, B. Peng, A. Petrone, 
 T. Henderson, D. Ranasinghe, V. G. Zakrzewski, J. Gao, N. Rega, 
 G. Zheng, W. Liang, M. Hada, M. Ehara, K. Toyota, R. Fukuda, 
 J. Hasegawa, M. Ishida, T. Nakajima, Y. Honda, O. Kitao, H. Nakai, 
 T. Vreven, K. Throssell, J. A. Montgomery, Jr., J. E. Peralta, 
 F. Ogliaro, M. J. Bearpark, J. J. Heyd, E. N. Brothers, K. N. Kudin, 
 V. N. Staroverov, T. A. Keith, R. Kobayashi, J. Normand, 
 K. Raghavachari, A. P. Rendell, J. C. Burant, S. S. Iyengar, 
 J. Tomasi, M. Cossi, J. M. Millam, M. Klene, C. Adamo, R. Cammi, 
 J. W. Ochterski, R. L. Martin, K. Morokuma, O. Farkas, 
 J. B. Foresman, and D. J. Fox, Gaussian, Inc., Wallingford CT, 2016.
 
 ******************************************
 Gaussian 16:  EM64L-G16RevB.01 20-Dec-2017
                12-Apr-2022 
 ******************************************
 %mem=16GB
 %nprocshared=8
 Will use up to    8 processors via shared memory.
 --------------------------------
 # opt b3lyp/6-311+g(d,p) scf=xqc
 --------------------------------
 1/18=20,19=15,26=3,38=1/1,3;
 2/9=110,12=2,17=6,18=5,40=1/2;
 3/5=4,6=6,7=111,11=2,25=1,30=1,71=1,74=-5/1,2,3;
 4//1;
 5/5=2,8=3,13=1,38=5/2,8;
 6/7=2,8=2,9=2,10=2,28=1/1;
 7//1,2,3,16;
 1/18=20,19=15,26=3/3(2);
 2/9=110/2;
 99//99;
 2/9=110/2;
 3/5=4,6=6,7=111,11=2,25=1,30=1,71=1,74=-5/1,2,3;
 4/5=5,16=3,69=1/1;
 5/5=2,8=3,13=1,38=5/2,8;
 7//1,2,3,16;
 1/18=20,19=15,26=3/3(-5);
 2/9=110/2;
 6/7=2,8=2,9=2,10=2,19=2,28=1/1;
 99/9=1/99;
 -------------------
 Title Card Required
 -------------------
 Symbolic Z-matrix:
 Charge =  0 Multiplicity = 1
 C                    -0.00433   0.24824  -0.00393 
 C                     1.32805   0.27813  -0.43727 
 C                     2.03595   1.48758  -0.44334 
 C                     1.41146   2.66714  -0.01607 
 C                     0.07908   2.63726   0.41728 
 C                    -0.62882   1.42781   0.42335 
 C                    -1.03268  -1.50872   0.0049 
 C                    -0.40819  -2.68828  -0.42238 
 C                    -1.11608  -3.89773  -0.4163 
 C                    -2.44846  -3.92762   0.01705 
 C                    -3.07295  -2.74806   0.44432 
 C                    -2.36506  -1.5386    0.43825 
 H                     1.80486  -0.6225   -0.7635 
 H                     1.95195   3.59058  -0.02071 
 H                    -0.39773   3.53788   0.74351 
 H                    -0.63927  -4.79836  -0.74254 
 H                    -4.09025  -2.77087   0.7752 
 Cl                   -3.14934  -0.0572    0.97486 
 Cl                   -2.30214   1.39027   0.96758 
 Cl                   -3.3375   -5.44656   0.02468 
 Cl                    1.26513  -2.65075  -0.96661 
 Cl                    3.70927   1.52511  -0.98758 
 

 GradGradGradGradGradGradGradGradGradGradGradGradGradGradGradGradGradGrad
 Berny optimization.
 Initialization pass.
                           ----------------------------
                           !    Initial Parameters    !
                           ! (Angstroms and Degrees)  !
 --------------------------                            --------------------------
 ! Name  Definition              Value          Derivative Info.                !
 --------------------------------------------------------------------------------
 ! R1    R(1,2)                  1.4014         estimate D2E/DX2                !
 ! R2    R(1,6)                  1.4014         estimate D2E/DX2                !
 ! R3    R(2,3)                  1.4014         estimate D2E/DX2                !
 ! R4    R(2,13)                 1.07           estimate D2E/DX2                !
 ! R5    R(3,4)                  1.4014         estimate D2E/DX2                !
 ! R6    R(3,22)                 1.76           estimate D2E/DX2                !
 ! R7    R(4,5)                  1.4014         estimate D2E/DX2                !
 ! R8    R(4,14)                 1.07           estimate D2E/DX2                !
 ! R9    R(5,6)                  1.4014         estimate D2E/DX2                !
 ! R10   R(5,15)                 1.07           estimate D2E/DX2                !
 ! R11   R(6,19)                 1.76           estimate D2E/DX2                !
 ! R12   R(7,8)                  1.4014         estimate D2E/DX2                !
 ! R13   R(7,12)                 1.4014         estimate D2E/DX2                !
 ! R14   R(8,9)                  1.4014         estimate D2E/DX2                !
 ! R15   R(8,21)                 1.76           estimate D2E/DX2                !
 ! R16   R(9,10)                 1.4014         estimate D2E/DX2                !
 ! R17   R(9,16)                 1.07           estimate D2E/DX2                !
 ! R18   R(10,11)                1.4014         estimate D2E/DX2                !
 ! R19   R(10,20)                1.76           estimate D2E/DX2                !
 ! R20   R(11,12)                1.4014         estimate D2E/DX2                !
 ! R21   R(11,17)                1.07           estimate D2E/DX2                !
 ! R22   R(12,18)                1.76           estimate D2E/DX2                !
 ! R23   R(18,19)                1.6772         estimate D2E/DX2                !
 ! A1    A(2,1,6)              120.0            estimate D2E/DX2                !
 ! A2    A(1,2,3)              120.0            estimate D2E/DX2                !
 ! A3    A(1,2,13)             120.0            estimate D2E/DX2                !
 ! A4    A(3,2,13)             120.0            estimate D2E/DX2                !
 ! A5    A(2,3,4)              120.0            estimate D2E/DX2                !
 ! A6    A(2,3,22)             120.0            estimate D2E/DX2                !
 ! A7    A(4,3,22)             120.0            estimate D2E/DX2                !
 ! A8    A(3,4,5)              120.0            estimate D2E/DX2                !
 ! A9    A(3,4,14)             120.0            estimate D2E/DX2                !
 ! A10   A(5,4,14)             120.0            estimate D2E/DX2                !
 ! A11   A(4,5,6)              120.0            estimate D2E/DX2                !
 ! A12   A(4,5,15)             120.0            estimate D2E/DX2                !
 ! A13   A(6,5,15)             120.0            estimate D2E/DX2                !
 ! A14   A(1,6,5)              120.0            estimate D2E/DX2                !
 ! A15   A(1,6,19)             120.0            estimate D2E/DX2                !
 ! A16   A(5,6,19)             120.0            estimate D2E/DX2                !
 ! A17   A(8,7,12)             120.0            estimate D2E/DX2                !
 ! A18   A(7,8,9)              120.0            estimate D2E/DX2                !
 ! A19   A(7,8,21)             120.0            estimate D2E/DX2                !
 ! A20   A(9,8,21)             120.0            estimate D2E/DX2                !
 ! A21   A(8,9,10)             120.0            estimate D2E/DX2                !
 ! A22   A(8,9,16)             120.0            estimate D2E/DX2                !
 ! A23   A(10,9,16)            120.0            estimate D2E/DX2                !
 ! A24   A(9,10,11)            120.0            estimate D2E/DX2                !
 ! A25   A(9,10,20)            120.0            estimate D2E/DX2                !
 ! A26   A(11,10,20)           120.0            estimate D2E/DX2                !
 ! A27   A(10,11,12)           120.0            estimate D2E/DX2                !
 ! A28   A(10,11,17)           120.0            estimate D2E/DX2                !
 ! A29   A(12,11,17)           120.0            estimate D2E/DX2                !
 ! A30   A(7,12,11)            120.0            estimate D2E/DX2                !
 ! A31   A(7,12,18)            120.0            estimate D2E/DX2                !
 ! A32   A(11,12,18)           120.0            estimate D2E/DX2                !
 ! A33   A(12,18,19)           120.0            estimate D2E/DX2                !
 ! A34   A(6,19,18)            120.0            estimate D2E/DX2                !
 ! D1    D(6,1,2,3)              0.0001         estimate D2E/DX2                !
 ! D2    D(6,1,2,13)           180.0            estimate D2E/DX2                !
 ! D3    D(2,1,6,5)             -0.0001         estimate D2E/DX2                !
 ! D4    D(2,1,6,19)           180.0            estimate D2E/DX2                !
 ! D5    D(1,2,3,4)              0.0            estimate D2E/DX2                !
 ! D6    D(1,2,3,22)           180.0            estimate D2E/DX2                !
 ! D7    D(13,2,3,4)          -179.9999         estimate D2E/DX2                !
 ! D8    D(13,2,3,22)            0.0001         estimate D2E/DX2                !
 ! D9    D(2,3,4,5)             -0.0001         estimate D2E/DX2                !
 ! D10   D(2,3,4,14)           180.0            estimate D2E/DX2                !
 ! D11   D(22,3,4,5)           179.9999         estimate D2E/DX2                !
 ! D12   D(22,3,4,14)            0.0            estimate D2E/DX2                !
 ! D13   D(3,4,5,6)              0.0001         estimate D2E/DX2                !
 ! D14   D(3,4,5,15)          -179.9999         estimate D2E/DX2                !
 ! D15   D(14,4,5,6)          -180.0            estimate D2E/DX2                !
 ! D16   D(14,4,5,15)            0.0            estimate D2E/DX2                !
 ! D17   D(4,5,6,1)              0.0            estimate D2E/DX2                !
 ! D18   D(4,5,6,19)           179.9999         estimate D2E/DX2                !
 ! D19   D(15,5,6,1)           180.0            estimate D2E/DX2                !
 ! D20   D(15,5,6,19)           -0.0001         estimate D2E/DX2                !
 ! D21   D(1,6,19,18)            0.0004         estimate D2E/DX2                !
 ! D22   D(5,6,19,18)         -179.9996         estimate D2E/DX2                !
 ! D23   D(12,7,8,9)             0.0001         estimate D2E/DX2                !
 ! D24   D(12,7,8,21)         -179.9998         estimate D2E/DX2                !
 ! D25   D(8,7,12,11)           -0.0001         estimate D2E/DX2                !
 ! D26   D(8,7,12,18)          179.9999         estimate D2E/DX2                !
 ! D27   D(7,8,9,10)             0.0            estimate D2E/DX2                !
 ! D28   D(7,8,9,16)           180.0            estimate D2E/DX2                !
 ! D29   D(21,8,9,10)          179.9998         estimate D2E/DX2                !
 ! D30   D(21,8,9,16)           -0.0002         estimate D2E/DX2                !
 ! D31   D(8,9,10,11)            0.0            estimate D2E/DX2                !
 ! D32   D(8,9,10,20)         -179.9999         estimate D2E/DX2                !
 ! D33   D(16,9,10,11)         180.0            estimate D2E/DX2                !
 ! D34   D(16,9,10,20)           0.0001         estimate D2E/DX2                !
 ! D35   D(9,10,11,12)           0.0            estimate D2E/DX2                !
 ! D36   D(9,10,11,17)        -179.9998         estimate D2E/DX2                !
 ! D37   D(20,10,11,12)        179.9999         estimate D2E/DX2                !
 ! D38   D(20,10,11,17)          0.0001         estimate D2E/DX2                !
 ! D39   D(10,11,12,7)           0.0            estimate D2E/DX2                !
 ! D40   D(10,11,12,18)       -179.9999         estimate D2E/DX2                !
 ! D41   D(17,11,12,7)         179.9999         estimate D2E/DX2                !
 ! D42   D(17,11,12,18)         -0.0001         estimate D2E/DX2                !
 ! D43   D(7,12,18,19)           0.0004         estimate D2E/DX2                !
 ! D44   D(11,12,18,19)       -179.9997         estimate D2E/DX2                !
 ! D45   D(12,18,19,6)          -0.0006         estimate D2E/DX2                !
 --------------------------------------------------------------------------------
 Trust Radius=3.00D-01 FncErr=1.00D-07 GrdErr=1.00D-06 EigMax=2.50D+02 EigMin=1.00D-04
 Number of steps in this run=    112 maximum allowed number of steps=    132.
 GradGradGradGradGradGradGradGradGradGradGradGradGradGradGradGradGradGrad

                          Input orientation:                          
 ---------------------------------------------------------------------
 Center     Atomic      Atomic             Coordinates (Angstroms)
 Number     Number       Type             X           Y           Z
 ---------------------------------------------------------------------
      1          6           0       -0.004329    0.248240   -0.003925
      2          6           0        1.328052    0.278126   -0.437272
      3          6           0        2.035946    1.487577   -0.443344
      4          6           0        1.411459    2.667142   -0.016070
      5          6           0        0.079077    2.637257    0.417275
      6          6           0       -0.628817    1.427806    0.423347
      7          6           0       -1.032678   -1.508718    0.004897
      8          6           0       -0.408191   -2.688283   -0.422378
      9          6           0       -1.116084   -3.897734   -0.416303
     10          6           0       -2.448464   -3.927620    0.017046
     11          6           0       -3.072951   -2.748056    0.444322
     12          6           0       -2.365058   -1.538604    0.438247
     13          1           0        1.804863   -0.622498   -0.763504
     14          1           0        1.951951    3.590585   -0.020706
     15          1           0       -0.397734    3.537881    0.743507
     16          1           0       -0.639274   -4.798358   -0.742537
     17          1           0       -4.090252   -2.770875    0.775196
     18         17           0       -3.149343   -0.057204    0.974859
     19         17           0       -2.302137    1.390273    0.967581
     20         17           0       -3.337497   -5.446555    0.024678
     21         17           0        1.265129   -2.650749   -0.966612
     22         17           0        3.709266    1.525110   -0.987578
 ---------------------------------------------------------------------
                    Distance matrix (angstroms):
                    1          2          3          4          5
     1  C    0.000000
     2  C    1.401400   0.000000
     3  C    2.427296   1.401400   0.000000
     4  C    2.802800   2.427296   1.401400   0.000000
     5  C    2.427296   2.802800   2.427296   1.401400   0.000000
     6  C    1.401400   2.427296   2.802800   2.427296   1.401400
     7  C    2.035800   2.993555   4.312210   4.838600   4.312210
     8  C    2.993555   3.437200   4.838600   5.670695   5.413300
     9  C    4.312210   4.838600   6.240000   7.046010   6.695474
    10  C    4.838600   5.670695   7.046010   7.641400   7.046010
    11  C    4.312210   5.413300   6.695474   7.046010   6.240000
    12  C    2.993555   4.207863   5.413300   5.670695   4.838600
    13  H    2.146700   1.070000   2.146700   3.396345   3.872800
    14  H    3.872800   3.396345   2.146700   1.070000   2.146700
    15  H    3.396345   3.872800   3.396345   2.146700   1.070000
    16  H    5.139733   5.452912   6.838077   7.776050   7.559733
    17  H    5.139733   6.334391   7.559733   7.776050   6.838077
    18  Cl   3.307934   4.706764   5.593288   5.404157   4.241900
    19  Cl   2.743718   4.048303   4.562800   4.048303   2.743718
    20  Cl   6.598600   7.399508   8.784937   9.401400   8.784937
    21  Cl   3.307934   2.976990   4.241900   5.404157   5.593288
    22  Cl   4.048303   2.743718   1.760000   2.743718   4.048303
                    6          7          8          9         10
     6  C    0.000000
     7  C    2.993555   0.000000
     8  C    4.207863   1.401400   0.000000
     9  C    5.413300   2.427296   1.401400   0.000000
    10  C    5.670695   2.802800   2.427296   1.401400   0.000000
    11  C    4.838600   2.427296   2.802800   2.427296   1.401400
    12  C    3.437200   1.401400   2.427296   2.802800   2.427296
    13  H    3.396345   3.070418   3.046546   4.402232   5.442783
    14  H    3.396345   5.908600   6.719806   8.102114   8.711400
    15  H    2.146700   5.139733   6.334391   7.559733   7.776050
    16  H    6.334391   3.396345   2.146700   1.070000   2.146700
    17  H    5.452912   3.396345   3.872800   3.396345   2.146700
    18  Cl   2.976990   2.743718   4.048303   4.562800   4.048303
    19  Cl   1.760000   3.307934   4.706764   5.593288   5.404157
    20  Cl   7.399508   4.562800   4.048303   2.743718   1.760000
    21  Cl   4.706764   2.743718   1.760000   2.743718   4.048303
    22  Cl   4.562800   5.716219   5.918242   7.281319   8.286084
                   11         12         13         14         15
    11  C    0.000000
    12  C    1.401400   0.000000
    13  H    5.456181   4.435279   0.000000
    14  H    8.102114   6.719806   4.280590   0.000000
    15  H    6.838077   5.452912   4.942800   2.471400   0.000000
    16  H    3.396345   3.872800   4.838600   8.809645   8.471101
    17  H    1.070000   2.146700   6.460302   8.809645   7.310000
    18  Cl   2.743718   1.760000   5.280684   6.349860   4.533157
    19  Cl   4.241900   2.976990   4.890332   4.890332   2.879094
    20  Cl   2.743718   4.048303   7.094830  10.471400   9.480455
    21  Cl   4.562800   4.048303   2.108641   6.349860   6.632403
    22  Cl   8.143019   6.951025   2.879094   2.879094   4.890332
                   16         17         18         19         20
    16  H    0.000000
    17  H    4.280590   0.000000
    18  Cl   5.632800   2.879094   0.000000
    19  Cl   6.632403   4.533157   1.677200   0.000000
    20  Cl   2.879094   2.879094   5.475705   6.978771   0.000000
    21  Cl   2.879094   5.632800   5.475705   5.726810   5.475705
    22  Cl   7.678288   9.077189   7.307216   6.322800   9.964218
                   21         22
    21  Cl   0.000000
    22  Cl   4.838600   0.000000
 Stoichiometry    C12H5Cl5
 Framework group  C1[X(C12H5Cl5)]
 Deg. of freedom    60
 Full point group                 C1      NOp   1
 Largest Abelian subgroup         C1      NOp   1
 Largest concise Abelian subgroup C1      NOp   1
                         Standard orientation:                         
 ---------------------------------------------------------------------
 Center     Atomic      Atomic             Coordinates (Angstroms)
 Number     Number       Type             X           Y           Z
 ---------------------------------------------------------------------
      1          6           0       -1.238076    0.216384    0.000002
      2          6           0       -2.137261   -0.858506    0.000001
      3          6           0       -3.517736   -0.617234   -0.000001
      4          6           0       -3.999025    0.698928   -0.000002
      5          6           0       -3.099840    1.773818    0.000001
      6          6           0       -1.719366    1.532546    0.000002
      7          6           0        0.767326   -0.134109    0.000003
      8          6           0        1.248615   -1.450271    0.000004
      9          6           0        2.629090   -1.691543    0.000003
     10          6           0        3.528274   -0.616653    0.000001
     11          6           0        3.046985    0.699509   -0.000001
     12          6           0        1.666510    0.940781   -0.000000
     13          1           0       -1.769786   -1.863424   -0.000001
     14          1           0       -5.053048    0.883145   -0.000004
     15          1           0       -3.467315    2.778737    0.000002
     16          1           0        2.996565   -2.696462    0.000004
     17          1           0        3.733533    1.520211   -0.000005
     18         17           0        1.062065    2.593732   -0.000005
     19         17           0       -0.590091    2.882487    0.000005
     20         17           0        5.261994   -0.919664   -0.000003
     21         17           0        0.119340   -2.800211    0.000002
     22         17           0       -4.647010   -1.967174   -0.000003
 ---------------------------------------------------------------------
 Rotational constants (GHZ):           0.4382985           0.1800448           0.1276207
 Standard basis: 6-311+G(d,p) (5D, 7F)
 There are   461 symmetry adapted cartesian basis functions of A   symmetry.
 There are   444 symmetry adapted basis functions of A   symmetry.
   444 basis functions,   737 primitive gaussians,   461 cartesian basis functions
    81 alpha electrons       81 beta electrons
       nuclear repulsion energy      1739.3660512897 Hartrees.
 NAtoms=   22 NActive=   22 NUniq=   22 SFac= 1.00D+00 NAtFMM=   60 NAOKFM=F Big=F
 Integral buffers will be    131072 words long.
 Raffenetti 2 integral format.
 Two-electron integral symmetry is turned on.
 One-electron integrals computed using PRISM.
 NBasis=   444 RedAO= T EigKep=  1.11D-06  NBF=   444
 NBsUse=   439 1.00D-06 EigRej=  8.45D-07 NBFU=   439
 ExpMin= 4.38D-02 ExpMax= 1.06D+05 ExpMxC= 3.62D+03 IAcc=3 IRadAn=         5 AccDes= 0.00D+00
 Harris functional with IExCor=  402 and IRadAn=       5 diagonalized for initial guess.
 HarFok:  IExCor=  402 AccDes= 0.00D+00 IRadAn=         5 IDoV= 1 UseB2=F ITyADJ=14
 ICtDFT=  3500011 ScaDFX=  1.000000  1.000000  1.000000  1.000000
 FoFCou: FMM=F IPFlag=           0 FMFlag=      100000 FMFlg1=           0
         NFxFlg=           0 DoJE=T BraDBF=F KetDBF=T FulRan=T
         wScrn=  0.000000 ICntrl=       500 IOpCl=  0 I1Cent=   200000004 NGrid=           0
         NMat0=    1 NMatS0=      1 NMatT0=    0 NMatD0=    1 NMtDS0=    0 NMtDT0=    0
 Petite list used in FoFCou.
 Requested convergence on RMS density matrix=1.00D-08 within  32 cycles.
 Requested convergence on MAX density matrix=1.00D-06.
 Requested convergence on             energy=1.00D-06.
 No special actions if energy rises.
 EnCoef did     4 forward-backward iterations
 EnCoef did     2 forward-backward iterations
 EnCoef did     2 forward-backward iterations
 Restarting incremental Fock formation.
 SCF Done:  E(RB3LYP) =  -2760.95376362     A.U. after   27 cycles
            NFock= 27  Conv=0.64D-08     -V/T= 2.0020
 QCSCF skips out because SCF is already converged.

 **********************************************************************

            Population analysis using the SCF Density.

 **********************************************************************

 Orbital symmetries:
       Occupied  (A) (A) (A) (A) (A) (A) (A) (A) (A) (A) (A) (A)
                 (A) (A) (A) (A) (A) (A) (A) (A) (A) (A) (A) (A)
                 (A) (A) (A) (A) (A) (A) (A) (A) (A) (A) (A) (A)
                 (A) (A) (A) (A) (A) (A) (A) (A) (A) (A) (A) (A)
                 (A) (A) (A) (A) (A) (A) (A) (A) (A) (A) (A) (A)
                 (A) (A) (A) (A) (A) (A) (A) (A) (A) (A) (A) (A)
                 (A) (A) (A) (A) (A) (A) (A) (A) (A)
       Virtual   (A) (A) (A) (A) (A) (A) (A) (A) (A) (A) (A) (A)
                 (A) (A) (A) (A) (A) (A) (A) (A) (A) (A) (A) (A)
                 (A) (A) (A) (A) (A) (A) (A) (A) (A) (A) (A) (A)
                 (A) (A) (A) (A) (A) (A) (A) (A) (A) (A) (A) (A)
                 (A) (A) (A) (A) (A) (A) (A) (A) (A) (A) (A) (A)
                 (A) (A) (A) (A) (A) (A) (A) (A) (A) (A) (A) (A)
                 (A) (A) (A) (A) (A) (A) (A) (A) (A) (A) (A) (A)
                 (A) (A) (A) (A) (A) (A) (A) (A) (A) (A) (A) (A)
                 (A) (A) (A) (A) (A) (A) (A) (A) (A) (A) (A) (A)
                 (A) (A) (A) (A) (A) (A) (A) (A) (A) (A) (A) (A)
                 (A) (A) (A) (A) (A) (A) (A) (A) (A) (A) (A) (A)
                 (A) (A) (A) (A) (A) (A) (A) (A) (A) (A) (A) (A)
                 (A) (A) (A) (A) (A) (A) (A) (A) (A) (A) (A) (A)
                 (A) (A) (A) (A) (A) (A) (A) (A) (A) (A) (A) (A)
                 (A) (A) (A) (A) (A) (A) (A) (A) (A) (A) (A) (A)
                 (A) (A) (A) (A) (A) (A) (A) (A) (A) (A) (A) (A)
                 (A) (A) (A) (A) (A) (A) (A) (A) (A) (A) (A) (A)
                 (A) (A) (A) (A) (A) (A) (A) (A) (A) (A) (A) (A)
                 (A) (A) (A) (A) (A) (A) (A) (A) (A) (A) (A) (A)
                 (A) (A) (A) (A) (A) (A) (A) (A) (A) (A) (A) (A)
                 (A) (A) (A) (A) (A) (A) (A) (A) (A) (A) (A) (A)
                 (A) (A) (A) (A) (A) (A) (A) (A) (A) (A) (A) (A)
                 (A) (A) (A) (A) (A) (A) (A) (A) (A) (A) (A) (A)
                 (A) (A) (A) (A) (A) (A) (A) (A) (A) (A) (A) (A)
                 (A) (A) (A) (A) (A) (A) (A) (A) (A) (A) (A) (A)
                 (A) (A) (A) (A) (A) (A) (A) (A) (A) (A) (A) (A)
                 (A) (A) (A) (A) (A) (A) (A) (A) (A) (A) (A) (A)
                 (A) (A) (A) (A) (A) (A) (A) (A) (A) (A) (A) (A)
                 (A) (A) (A) (A) (A) (A) (A) (A) (A) (A) (A) (A)
                 (A) (A) (A) (A) (A) (A) (A) (A) (A) (A)
 The electronic state is 1-A.
 Alpha  occ. eigenvalues -- -101.61799-101.61091-101.56802-101.56695-101.56411
 Alpha  occ. eigenvalues --  -10.27389 -10.26659 -10.26064 -10.25764 -10.24664
 Alpha  occ. eigenvalues --  -10.23467 -10.23455 -10.22148 -10.21129 -10.21055
 Alpha  occ. eigenvalues --  -10.21034 -10.20426  -9.54414  -9.53817  -9.48249
 Alpha  occ. eigenvalues --   -9.48232  -9.47847  -7.30920  -7.30538  -7.29892
 Alpha  occ. eigenvalues --   -7.29461  -7.29142  -7.28704  -7.24702  -7.24693
 Alpha  occ. eigenvalues --   -7.24310  -7.23725  -7.23716  -7.23688  -7.23675
 Alpha  occ. eigenvalues --   -7.23332  -7.23296  -1.10586  -0.92115  -0.91570
 Alpha  occ. eigenvalues --   -0.88610  -0.88240  -0.85601  -0.82400  -0.78230
 Alpha  occ. eigenvalues --   -0.77587  -0.74916  -0.73552  -0.66717  -0.64738
 Alpha  occ. eigenvalues --   -0.62423  -0.59949  -0.58334  -0.54062  -0.51929
 Alpha  occ. eigenvalues --   -0.51273  -0.51117  -0.50054  -0.48888  -0.48169
 Alpha  occ. eigenvalues --   -0.46421  -0.44547  -0.43996  -0.42673  -0.42206
 Alpha  occ. eigenvalues --   -0.42067  -0.40814  -0.39528  -0.37629  -0.37235
 Alpha  occ. eigenvalues --   -0.34903  -0.34647  -0.33120  -0.32788  -0.31642
 Alpha  occ. eigenvalues --   -0.31620  -0.29097  -0.27668  -0.26407  -0.25148
 Alpha  occ. eigenvalues --   -0.11992
 Alpha virt. eigenvalues --   -0.08076  -0.06107  -0.05222  -0.04770  -0.04447
 Alpha virt. eigenvalues --   -0.02436  -0.01116  -0.00241   0.00630   0.00845
 Alpha virt. eigenvalues --    0.01161   0.02258   0.02490   0.03405   0.03691
 Alpha virt. eigenvalues --    0.04270   0.04903   0.05393   0.05489   0.05787
 Alpha virt. eigenvalues --    0.06207   0.07538   0.07598   0.07783   0.07959
 Alpha virt. eigenvalues --    0.08151   0.08649   0.09544   0.09797   0.10586
 Alpha virt. eigenvalues --    0.10645   0.10842   0.10998   0.11191   0.11647
 Alpha virt. eigenvalues --    0.12711   0.12740   0.12975   0.13307   0.13766
 Alpha virt. eigenvalues --    0.14358   0.14748   0.14925   0.15000   0.15601
 Alpha virt. eigenvalues --    0.16138   0.16504   0.16516   0.17343   0.17729
 Alpha virt. eigenvalues --    0.18017   0.18862   0.19204   0.19307   0.19450
 Alpha virt. eigenvalues --    0.20381   0.20394   0.20743   0.20959   0.21241
 Alpha virt. eigenvalues --    0.22365   0.22955   0.23260   0.23312   0.23587
 Alpha virt. eigenvalues --    0.23778   0.24148   0.24530   0.25707   0.25787
 Alpha virt. eigenvalues --    0.25818   0.26206   0.26668   0.27357   0.28200
 Alpha virt. eigenvalues --    0.28546   0.28915   0.29379   0.30437   0.30707
 Alpha virt. eigenvalues --    0.31348   0.32067   0.33379   0.34379   0.34695
 Alpha virt. eigenvalues --    0.35254   0.37380   0.38818   0.39928   0.41080
 Alpha virt. eigenvalues --    0.41228   0.42101   0.42850   0.43360   0.44069
 Alpha virt. eigenvalues --    0.44228   0.44722   0.45472   0.46472   0.46941
 Alpha virt. eigenvalues --    0.47201   0.47469   0.48306   0.49702   0.49955
 Alpha virt. eigenvalues --    0.50862   0.51211   0.51898   0.53112   0.53401
 Alpha virt. eigenvalues --    0.53695   0.54918   0.55861   0.56535   0.57571
 Alpha virt. eigenvalues --    0.57946   0.58204   0.58684   0.59802   0.60043
 Alpha virt. eigenvalues --    0.60455   0.61100   0.62066   0.63536   0.63910
 Alpha virt. eigenvalues --    0.63944   0.64271   0.65277   0.65742   0.66929
 Alpha virt. eigenvalues --    0.68243   0.68854   0.69422   0.70464   0.71126
 Alpha virt. eigenvalues --    0.75649   0.75985   0.76573   0.78203   0.80751
 Alpha virt. eigenvalues --    0.81321   0.82137   0.82144   0.82917   0.83894
 Alpha virt. eigenvalues --    0.84255   0.84556   0.84851   0.84867   0.85043
 Alpha virt. eigenvalues --    0.85407   0.85677   0.85765   0.86622   0.87321
 Alpha virt. eigenvalues --    0.87598   0.88723   0.89581   0.89778   0.89949
 Alpha virt. eigenvalues --    0.90932   0.92411   0.94014   0.94294   0.94880
 Alpha virt. eigenvalues --    0.95475   0.95999   0.96934   0.97352   0.97398
 Alpha virt. eigenvalues --    0.97825   0.99348   1.00371   1.01109   1.01994
 Alpha virt. eigenvalues --    1.04400   1.05106   1.05858   1.07718   1.08148
 Alpha virt. eigenvalues --    1.08891   1.10909   1.11757   1.14188   1.16158
 Alpha virt. eigenvalues --    1.18163   1.18544   1.20852   1.22259   1.23322
 Alpha virt. eigenvalues --    1.24602   1.25601   1.26882   1.27444   1.27710
 Alpha virt. eigenvalues --    1.28249   1.29791   1.30326   1.31279   1.31327
 Alpha virt. eigenvalues --    1.33971   1.44633   1.46384   1.49256   1.49691
 Alpha virt. eigenvalues --    1.50744   1.51679   1.55037   1.56256   1.56534
 Alpha virt. eigenvalues --    1.56997   1.60232   1.60837   1.61206   1.62440
 Alpha virt. eigenvalues --    1.65670   1.68652   1.68736   1.70083   1.70336
 Alpha virt. eigenvalues --    1.74693   1.76255   1.80794   1.81032   1.82678
 Alpha virt. eigenvalues --    1.86210   1.86251   1.87077   1.88133   1.88379
 Alpha virt. eigenvalues --    1.89615   1.89785   1.93762   1.95534   1.95612
 Alpha virt. eigenvalues --    1.95923   1.96916   2.00968   2.02852   2.04477
 Alpha virt. eigenvalues --    2.06802   2.06842   2.08776   2.09041   2.13961
 Alpha virt. eigenvalues --    2.18234   2.19364   2.21364   2.22847   2.26173
 Alpha virt. eigenvalues --    2.27031   2.27855   2.27926   2.28156   2.29644
 Alpha virt. eigenvalues --    2.30880   2.30963   2.32635   2.37898   2.39733
 Alpha virt. eigenvalues --    2.40952   2.42896   2.44366   2.48777   2.53006
 Alpha virt. eigenvalues --    2.54453   2.54494   2.54974   2.57757   2.59281
 Alpha virt. eigenvalues --    2.59921   2.60800   2.62575   2.62987   2.64482
 Alpha virt. eigenvalues --    2.66393   2.68973   2.70294   2.71383   2.73147
 Alpha virt. eigenvalues --    2.73695   2.74257   2.74750   2.75851   2.77791
 Alpha virt. eigenvalues --    2.78130   2.78185   2.78355   2.82509   2.84363
 Alpha virt. eigenvalues --    2.86261   2.86813   2.88725   2.96934   3.04804
 Alpha virt. eigenvalues --    3.06391   3.08817   3.11235   3.12671   3.17126
 Alpha virt. eigenvalues --    3.21486   3.22560   3.28492   3.31008   3.34377
 Alpha virt. eigenvalues --    3.35317   3.40965   3.43592   3.53439   3.62301
 Alpha virt. eigenvalues --    3.65628   3.72960   3.78942   3.80964   3.87317
 Alpha virt. eigenvalues --    4.00545   4.08021   4.09863   4.16280   4.80351
 Alpha virt. eigenvalues --    4.80587   9.70720   9.76958   9.77504   9.84318
 Alpha virt. eigenvalues --    9.97526  23.37399  23.44036  23.81936  23.82533
 Alpha virt. eigenvalues --   23.85787  23.91172  23.96534  23.97855  24.01869
 Alpha virt. eigenvalues --   24.03904  24.07596  24.10589  25.76596  25.81447
 Alpha virt. eigenvalues --   25.82070  25.84225  25.95521  26.09004  26.12910
 Alpha virt. eigenvalues --   26.25308  26.35280  26.59417  26.60883  26.69001
 Alpha virt. eigenvalues --   26.76384  26.95668  26.99794 215.72221 215.76273
 Alpha virt. eigenvalues --  215.77103 215.84852 216.03464
          Condensed to atoms (all electrons):
               1          2          3          4          5          6
     1  C   27.197384  -0.281801  -6.347409   3.132903  -5.414534  -2.483648
     2  C   -0.281801  17.840027   1.998492  -4.760189  -0.687335  -8.198030
     3  C   -6.347409   1.998492  19.877686  -8.271072  -0.955770   1.348717
     4  C    3.132903  -4.760189  -8.271072  25.270510  -2.443836  -5.723897
     5  C   -5.414534  -0.687335  -0.955770  -2.443836  15.472066  -2.039218
     6  C   -2.483648  -8.198030   1.348717  -5.723897  -2.039218  31.090432
     7  C    4.383614   5.108468  -2.349620   2.664141  -2.223433 -11.643787
     8  C   -0.474161   1.673938  -0.221265   0.135047   0.629796  -1.776021
     9  C   -3.541924   1.346919   0.537635   0.350605  -0.118450  -0.758765
    10  C    0.604530  -0.195710   0.037064  -0.086013  -0.126602  -0.141870
    11  C   -3.103041  -0.225844  -0.357524   0.032896  -0.121427   1.375051
    12  C   -2.998484  -7.207158  -0.185895  -1.251532   2.102893   5.277375
    13  H    0.039069   0.237887  -0.116276   0.073943  -0.011495   0.038516
    14  H   -0.001485   0.060786   0.121143   0.217888  -0.055868  -0.005629
    15  H   -0.066220  -0.028430   0.021815  -0.114622   0.477615  -0.061770
    16  H   -0.015056   0.008308  -0.000037   0.000229  -0.000034  -0.003283
    17  H    0.004339  -0.000045   0.000167   0.000317  -0.001115   0.011010
    18  Cl   2.595399   3.859374  -0.829118   2.751258  -4.710465   7.441549
    19  Cl  -6.902275  -3.178572   2.012276  -5.296712   6.080063  -7.440090
    20  Cl  -0.094668   0.015769   0.001432   0.001505  -0.004495  -0.017862
    21  Cl   0.870098  -0.800484  -0.685544  -0.068947   0.106839   0.303155
    22  Cl  -0.520226   0.471517  -0.802161  -0.110958   0.141639   0.251688
               7          8          9         10         11         12
     1  C    4.383614  -0.474161  -3.541924   0.604530  -3.103041  -2.998484
     2  C    5.108468   1.673938   1.346919  -0.195710  -0.225844  -7.207158
     3  C   -2.349620  -0.221265   0.537635   0.037064  -0.357524  -0.185895
     4  C    2.664141   0.135047   0.350605  -0.086013   0.032896  -1.251532
     5  C   -2.223433   0.629796  -0.118450  -0.126602  -0.121427   2.102893
     6  C  -11.643787  -1.776021  -0.758765  -0.141870   1.375051   5.277375
     7  C   32.585718   2.691055  -2.466257   0.241068  -5.364155 -12.240387
     8  C    2.691055  16.676943  -0.808064  -4.233972  -1.947021  -4.091680
     9  C   -2.466257  -0.808064  16.901390   0.498910  -5.433149  -1.772014
    10  C    0.241068  -4.233972   0.498910  20.130865  -2.763418  -3.016355
    11  C   -5.364155  -1.947021  -5.433149  -2.763418  20.150861  -0.303241
    12  C  -12.240387  -4.091680  -1.772014  -3.016355  -0.303241  42.230040
    13  H    0.049704  -0.016591   0.029364   0.011500  -0.005066   0.004715
    14  H   -0.002033  -0.000126  -0.000113   0.000021   0.000022   0.002096
    15  H   -0.010391  -0.000471  -0.000165   0.000303  -0.000334   0.026894
    16  H    0.012887  -0.091900   0.344002  -0.021260   0.035470   0.062200
    17  H   -0.065770  -0.009663   0.034521  -0.033509   0.381680  -0.136201
    18  Cl  -2.610391  -1.156302   2.418360  -5.359998   6.326388 -30.528632
    19  Cl  -1.120239   0.331954  -1.167341   1.608005  -2.951077  20.550385
    20  Cl  -0.183447  -0.151332   0.309410  -1.539156   0.495829   0.122334
    21  Cl  -0.443909  -0.684797  -0.242199  -0.293146   0.175731   0.705005
    22  Cl  -0.191537   0.010998  -0.006688   0.000323  -0.005828  -0.032579
              13         14         15         16         17         18
     1  C    0.039069  -0.001485  -0.066220  -0.015056   0.004339   2.595399
     2  C    0.237887   0.060786  -0.028430   0.008308  -0.000045   3.859374
     3  C   -0.116276   0.121143   0.021815  -0.000037   0.000167  -0.829118
     4  C    0.073943   0.217888  -0.114622   0.000229   0.000317   2.751258
     5  C   -0.011495  -0.055868   0.477615  -0.000034  -0.001115  -4.710465
     6  C    0.038516  -0.005629  -0.061770  -0.003283   0.011010   7.441549
     7  C    0.049704  -0.002033  -0.010391   0.012887  -0.065770  -2.610391
     8  C   -0.016591  -0.000126  -0.000471  -0.091900  -0.009663  -1.156302
     9  C    0.029364  -0.000113  -0.000165   0.344002   0.034521   2.418360
    10  C    0.011500   0.000021   0.000303  -0.021260  -0.033509  -5.359998
    11  C   -0.005066   0.000022  -0.000334   0.035470   0.381680   6.326388
    12  C    0.004715   0.002096   0.026894   0.062200  -0.136201 -30.528632
    13  H    0.558033  -0.000452   0.000080   0.000023   0.000000  -0.009041
    14  H   -0.000452   0.507439  -0.006070  -0.000000  -0.000000  -0.003636
    15  H    0.000080  -0.006070   0.518060  -0.000000  -0.000000  -0.064875
    16  H    0.000023  -0.000000  -0.000000   0.506206  -0.000113   0.018918
    17  H    0.000000  -0.000000  -0.000000  -0.000113   0.520667   0.182353
    18  Cl  -0.009041  -0.003636  -0.064875   0.018918   0.182353  85.850854
    19  Cl   0.013242   0.016500   0.149835  -0.003807  -0.041865 -50.748570
    20  Cl   0.000085  -0.000000  -0.000001  -0.002202   0.001332   0.213151
    21  Cl  -0.032466   0.000107  -0.000030  -0.011898   0.000818   0.025035
    22  Cl  -0.024775  -0.005028   0.000296  -0.000002  -0.000000   0.001467
              19         20         21         22
     1  C   -6.902275  -0.094668   0.870098  -0.520226
     2  C   -3.178572   0.015769  -0.800484   0.471517
     3  C    2.012276   0.001432  -0.685544  -0.802161
     4  C   -5.296712   0.001505  -0.068947  -0.110958
     5  C    6.080063  -0.004495   0.106839   0.141639
     6  C   -7.440090  -0.017862   0.303155   0.251688
     7  C   -1.120239  -0.183447  -0.443909  -0.191537
     8  C    0.331954  -0.151332  -0.684797   0.010998
     9  C   -1.167341   0.309410  -0.242199  -0.006688
    10  C    1.608005  -1.539156  -0.293146   0.000323
    11  C   -2.951077   0.495829   0.175731  -0.005828
    12  C   20.550385   0.122334   0.705005  -0.032579
    13  H    0.013242   0.000085  -0.032466  -0.024775
    14  H    0.016500  -0.000000   0.000107  -0.005028
    15  H    0.149835  -0.000001  -0.000030   0.000296
    16  H   -0.003807  -0.002202  -0.011898  -0.000002
    17  H   -0.041865   0.001332   0.000818  -0.000000
    18  Cl -50.748570   0.213151   0.025035   0.001467
    19  Cl  63.983444  -0.054575  -0.029507  -0.011137
    20  Cl  -0.054575  17.483504  -0.015566  -0.000042
    21  Cl  -0.029507  -0.015566  17.580938  -0.024519
    22  Cl  -0.011137  -0.000042  -0.024519  17.447404
 Mulliken charges:
               1
     1  C   -0.582404
     2  C   -1.057886
     3  C    1.165263
     4  C   -0.503466
     5  C   -0.096834
     6  C   -0.843622
     7  C   -0.821298
     8  C   -0.486365
     9  C   -0.455987
    10  C    0.678418
    11  C   -0.392803
    12  C   -1.319779
    13  H    0.160001
    14  H    0.154438
    15  H    0.158481
    16  H    0.161352
    17  H    0.151078
    18  Cl   1.336921
    19  Cl   1.200062
    20  Cl   0.418995
    21  Cl   0.565287
    22  Cl   0.410148
 Sum of Mulliken charges =  -0.00000
 Mulliken charges with hydrogens summed into heavy atoms:
               1
     1  C   -0.582404
     2  C   -0.897884
     3  C    1.165263
     4  C   -0.349028
     5  C    0.061647
     6  C   -0.843622
     7  C   -0.821298
     8  C   -0.486365
     9  C   -0.294635
    10  C    0.678418
    11  C   -0.241725
    12  C   -1.319779
    18  Cl   1.336921
    19  Cl   1.200062
    20  Cl   0.418995
    21  Cl   0.565287
    22  Cl   0.410148
 Electronic spatial extent (au):  <R**2>=           7384.2048
 Charge=             -0.0000 electrons
 Dipole moment (field-independent basis, Debye):
    X=             -1.0218    Y=              2.6801    Z=             -0.0000  Tot=              2.8682
 Quadrupole moment (field-independent basis, Debye-Ang):
   XX=           -136.9825   YY=           -127.9740   ZZ=           -135.9343
   XY=             -3.2966   XZ=              0.0000   YZ=             -0.0000
 Traceless Quadrupole moment (field-independent basis, Debye-Ang):
   XX=             -3.3522   YY=              5.6563   ZZ=             -2.3041
   XY=             -3.2966   XZ=              0.0000   YZ=             -0.0000
 Octapole moment (field-independent basis, Debye-Ang**2):
  XXX=            -48.6571  YYY=              8.9275  ZZZ=             -0.0000  XYY=              7.6392
  XXY=             31.3747  XXZ=             -0.0000  XZZ=              3.7819  YZZ=              2.5401
  YYZ=             -0.0001  XYZ=              0.0001
 Hexadecapole moment (field-independent basis, Debye-Ang**3):
 XXXX=          -6988.7331 YYYY=          -2752.7302 ZZZZ=           -160.3728 XXXY=            -61.6585
 XXXZ=              0.0001 YYYX=             41.3803 YYYZ=             -0.0002 ZZZX=              0.0000
 ZZZY=              0.0000 XXYY=          -1574.1466 XXZZ=          -1227.2377 YYZZ=           -500.4192
 XXYZ=             -0.0001 YYXZ=              0.0004 ZZXY=             15.7611
 N-N= 1.739366051290D+03 E-N=-1.001487824230D+04  KE= 2.755505003598D+03
 Calling FoFJK, ICntrl=      2127 FMM=F ISym2X=0 I1Cent= 0 IOpClX= 0 NMat=1 NMatS=1 NMatT=0.
 ***** Axes restored to original set *****
 -------------------------------------------------------------------
 Center     Atomic                   Forces (Hartrees/Bohr)
 Number     Number              X              Y              Z
 -------------------------------------------------------------------
      1        6          -0.021353894   -0.025436614    0.002258243
      2        6          -0.005092768    0.016583583    0.004792423
      3        6          -0.014150626    0.003051621    0.005235174
      4        6          -0.002990961   -0.013227134   -0.001498968
      5        6           0.002910988   -0.007669522   -0.002399234
      6        6           0.039735683   -0.007220984   -0.014447169
      7        6          -0.000259548    0.031496571    0.006000622
      8        6          -0.025010989    0.013165640    0.010712817
      9        6          -0.002025124    0.005317529    0.001665856
     10        6           0.010197971    0.013378000   -0.000847370
     11        6           0.010517007   -0.003327901   -0.004089981
     12        6           0.025413998   -0.107004884   -0.028469093
     13        1           0.002550127    0.005186749    0.000133913
     14        1           0.003769056    0.008406720    0.000337103
     15        1          -0.001243296    0.007390601    0.001797650
     16        1           0.004177524   -0.007674616   -0.002817692
     17        1          -0.008428527   -0.004046755    0.002016795
     18       17          -0.259533683   -0.430044538    0.004742470
     19       17           0.244385287    0.528597565    0.018757062
     20       17           0.000336711   -0.001240864   -0.000343962
     21       17           0.000110972   -0.025541495   -0.004833584
     22       17          -0.004015906   -0.000139273    0.001296925
 -------------------------------------------------------------------
 Cartesian Forces:  Max     0.528597565 RMS     0.096289670

 GradGradGradGradGradGradGradGradGradGradGradGradGradGradGradGradGradGrad
 Berny optimization.
 FormGI is forming the generalized inverse of G from B-inverse, IUseBI=4.
 Internal  Forces:  Max     0.568348816 RMS     0.059216648
 Search for a local minimum.
 Step number   1 out of a maximum of  112
 All quantities printed in internal units (Hartrees-Bohrs-Radians)
 Mixed Optimization -- RFO/linear search
 Second derivative matrix not updated -- first step.
 ITU=  0
     Eigenvalues ---    0.00238   0.00238   0.01655   0.01655   0.02070
     Eigenvalues ---    0.02070   0.02070   0.02070   0.02070   0.02070
     Eigenvalues ---    0.02070   0.02070   0.02070   0.02070   0.02070
     Eigenvalues ---    0.02070   0.02070   0.02070   0.04244   0.16000
     Eigenvalues ---    0.16000   0.16000   0.16000   0.16000   0.22319
     Eigenvalues ---    0.23430   0.23478   0.23493   0.24560   0.25000
     Eigenvalues ---    0.25000   0.25000   0.25000   0.25000   0.25000
     Eigenvalues ---    0.25000   0.25000   0.29539   0.29539   0.29539
     Eigenvalues ---    0.29539   0.29539   0.37230   0.37230   0.37230
     Eigenvalues ---    0.37230   0.37230   0.41511   0.41554   0.42020
     Eigenvalues ---    0.42118   0.45389   0.45389   0.45389   0.45389
     Eigenvalues ---    0.45389   0.45389   0.45389   0.45389   1.29765
 RFO step:  Lambda=-2.70360754D-01 EMin= 2.37798977D-03
 Linear search not attempted -- first point.
 Maximum step size (   0.300) exceeded in Quadratic search.
    -- Step size scaled by   0.598
 Iteration  1 RMS(Cart)=  0.20946096 RMS(Int)=  0.00440001
 Iteration  2 RMS(Cart)=  0.00911519 RMS(Int)=  0.00003089
 Iteration  3 RMS(Cart)=  0.00004272 RMS(Int)=  0.00002783
 Iteration  4 RMS(Cart)=  0.00000000 RMS(Int)=  0.00002783
 Variable       Old X    -DE/DX   Delta X   Delta X   Delta X     New X
                                 (Linear)    (Quad)   (Total)
    R1        2.64826  -0.00414   0.00000  -0.00334  -0.00331   2.64495
    R2        2.64826  -0.00514   0.00000  -0.00407  -0.00403   2.64423
    R3        2.64826  -0.00527   0.00000  -0.00445  -0.00446   2.64380
    R4        2.02201  -0.00327   0.00000  -0.00304  -0.00304   2.01896
    R5        2.64826  -0.01715   0.00000  -0.01434  -0.01438   2.63388
    R6        3.32592  -0.00422   0.00000  -0.00446  -0.00446   3.32145
    R7        2.64826  -0.01757   0.00000  -0.01459  -0.01462   2.63364
    R8        2.02201   0.00916   0.00000   0.00852   0.00852   2.03053
    R9        2.64826  -0.00458   0.00000  -0.00368  -0.00367   2.64459
   R10        2.02201   0.00732   0.00000   0.00682   0.00682   2.02882
   R11        3.32592   0.00061   0.00000   0.00064   0.00064   3.32656
   R12        2.64826   0.01459   0.00000   0.01258   0.01262   2.66088
   R13        2.64826  -0.00023   0.00000   0.00041   0.00046   2.64872
   R14        2.64826  -0.00990   0.00000  -0.00825  -0.00825   2.64001
   R15        3.32592   0.00106   0.00000   0.00112   0.00112   3.32703
   R16        2.64826  -0.02461   0.00000  -0.02092  -0.02097   2.62729
   R17        2.02201   0.00918   0.00000   0.00854   0.00854   2.03055
   R18        2.64826  -0.01893   0.00000  -0.01616  -0.01620   2.63206
   R19        3.32592   0.00090   0.00000   0.00095   0.00095   3.32687
   R20        2.64826   0.00034   0.00000   0.00035   0.00036   2.64862
   R21        2.02201   0.00872   0.00000   0.00812   0.00812   2.03013
   R22        3.32592   0.08505   0.00000   0.08992   0.08992   3.41584
   R23        3.16945   0.56835   0.00000   0.21682   0.21682   3.38626
    A1        2.09440  -0.03215   0.00000  -0.03640  -0.03631   2.05808
    A2        2.09440   0.01089   0.00000   0.01325   0.01327   2.10767
    A3        2.09440  -0.00063   0.00000   0.00007   0.00006   2.09446
    A4        2.09440  -0.01027   0.00000  -0.01333  -0.01334   2.08106
    A5        2.09440   0.01003   0.00000   0.01112   0.01107   2.10547
    A6        2.09440  -0.00510   0.00000  -0.00566  -0.00563   2.08876
    A7        2.09440  -0.00493   0.00000  -0.00546  -0.00544   2.08896
    A8        2.09440  -0.00969   0.00000  -0.01222  -0.01229   2.08210
    A9        2.09440   0.00592   0.00000   0.00760   0.00764   2.10203
   A10        2.09440   0.00377   0.00000   0.00462   0.00465   2.09905
   A11        2.09440  -0.00325   0.00000  -0.00394  -0.00397   2.09043
   A12        2.09440  -0.00080   0.00000  -0.00141  -0.00139   2.09300
   A13        2.09440   0.00406   0.00000   0.00535   0.00536   2.09976
   A14        2.09440   0.02418   0.00000   0.02819   0.02823   2.12262
   A15        2.09440  -0.01434   0.00000  -0.01668  -0.01670   2.07770
   A16        2.09440  -0.00984   0.00000  -0.01151  -0.01153   2.08286
   A17        2.09440  -0.03485   0.00000  -0.03790  -0.03777   2.05662
   A18        2.09440   0.01798   0.00000   0.02116   0.02118   2.11558
   A19        2.09440   0.03420   0.00000   0.03907   0.03906   2.13345
   A20        2.09440  -0.05218   0.00000  -0.06023  -0.06024   2.03415
   A21        2.09440   0.00183   0.00000   0.00106   0.00100   2.09539
   A22        2.09440  -0.00102   0.00000  -0.00067  -0.00064   2.09375
   A23        2.09440  -0.00081   0.00000  -0.00039  -0.00035   2.09404
   A24        2.09440  -0.00231   0.00000  -0.00441  -0.00451   2.08989
   A25        2.09440  -0.00048   0.00000   0.00033   0.00038   2.09477
   A26        2.09440   0.00278   0.00000   0.00408   0.00413   2.09852
   A27        2.09440   0.00314   0.00000   0.00298   0.00294   2.09733
   A28        2.09440  -0.00554   0.00000  -0.00700  -0.00698   2.08742
   A29        2.09440   0.00239   0.00000   0.00402   0.00404   2.09844
   A30        2.09440   0.01420   0.00000   0.01711   0.01716   2.11156
   A31        2.09440   0.00699   0.00000   0.00765   0.00762   2.10201
   A32        2.09440  -0.02119   0.00000  -0.02476  -0.02478   2.06961
   A33        2.09440   0.11869   0.00000   0.13643   0.13643   2.23083
   A34        2.09440  -0.04873   0.00000  -0.05601  -0.05601   2.03838
    D1        0.00000   0.00000   0.00000   0.00000   0.00000   0.00000
    D2        3.14159   0.00000   0.00000   0.00000   0.00000   3.14159
    D3       -0.00000  -0.00000   0.00000  -0.00000  -0.00000  -0.00000
    D4        3.14159   0.00000   0.00000   0.00000   0.00000   3.14159
    D5        0.00000   0.00000   0.00000   0.00000   0.00000   0.00000
    D6        3.14159  -0.00000   0.00000  -0.00000  -0.00000   3.14159
    D7       -3.14159  -0.00000   0.00000  -0.00000  -0.00000  -3.14159
    D8        0.00000  -0.00000   0.00000  -0.00000  -0.00000   0.00000
    D9       -0.00000   0.00000   0.00000   0.00000   0.00000  -0.00000
   D10        3.14159  -0.00000   0.00000  -0.00000  -0.00000   3.14159
   D11        3.14159   0.00000   0.00000   0.00000   0.00000   3.14159
   D12        0.00000  -0.00000   0.00000  -0.00000  -0.00000   0.00000
   D13        0.00000  -0.00000   0.00000  -0.00000  -0.00000   0.00000
   D14       -3.14159  -0.00000   0.00000  -0.00000  -0.00000  -3.14159
   D15       -3.14159  -0.00000   0.00000  -0.00000  -0.00000  -3.14159
   D16        0.00000  -0.00000   0.00000  -0.00000  -0.00000   0.00000
   D17       -0.00000   0.00000   0.00000   0.00000   0.00000  -0.00000
   D18        3.14159  -0.00000   0.00000  -0.00000  -0.00000   3.14159
   D19        3.14159   0.00000   0.00000   0.00000   0.00000   3.14159
   D20       -0.00000  -0.00000   0.00000  -0.00000  -0.00000  -0.00000
   D21        0.00001  -0.00000   0.00000  -0.00000  -0.00000   0.00001
   D22       -3.14159  -0.00000   0.00000  -0.00000  -0.00000  -3.14159
   D23        0.00000   0.00000   0.00000   0.00000   0.00000   0.00000
   D24       -3.14159  -0.00000   0.00000  -0.00000  -0.00000  -3.14159
   D25       -0.00000  -0.00000   0.00000  -0.00000  -0.00000  -0.00000
   D26        3.14159   0.00000   0.00000   0.00000   0.00000   3.14159
   D27       -0.00000  -0.00000   0.00000  -0.00000  -0.00000  -0.00000
   D28        3.14159  -0.00000   0.00000  -0.00000  -0.00000   3.14159
   D29        3.14159   0.00000   0.00000   0.00000   0.00000   3.14159
   D30       -0.00000   0.00000   0.00000   0.00000   0.00000  -0.00000
   D31       -0.00000   0.00000   0.00000   0.00000   0.00000  -0.00000
   D32       -3.14159  -0.00000   0.00000  -0.00000  -0.00000  -3.14159
   D33        3.14159   0.00000   0.00000   0.00000   0.00000   3.14159
   D34        0.00000   0.00000   0.00000   0.00000   0.00000   0.00000
   D35        0.00000  -0.00000   0.00000  -0.00000  -0.00000   0.00000
   D36       -3.14159  -0.00000   0.00000  -0.00000  -0.00000  -3.14159
   D37        3.14159   0.00000   0.00000   0.00000   0.00000   3.14159
   D38        0.00000  -0.00000   0.00000  -0.00000  -0.00000   0.00000
   D39        0.00000   0.00000   0.00000   0.00000   0.00000   0.00000
   D40       -3.14159  -0.00000   0.00000  -0.00000  -0.00000  -3.14159
   D41        3.14159   0.00000   0.00000   0.00000   0.00000   3.14159
   D42       -0.00000  -0.00000   0.00000  -0.00000  -0.00000  -0.00000
   D43        0.00001  -0.00000   0.00000  -0.00000  -0.00000   0.00001
   D44       -3.14159   0.00000   0.00000   0.00000   0.00000  -3.14159
   D45       -0.00001  -0.00000   0.00000  -0.00000  -0.00000  -0.00001
         Item               Value     Threshold  Converged?
 Maximum Force            0.568349     0.000450     NO 
 RMS     Force            0.059217     0.000300     NO 
 Maximum Displacement     1.039408     0.001800     NO 
 RMS     Displacement     0.216603     0.001200     NO 
 Predicted change in Energy=-1.255187D-01
 GradGradGradGradGradGradGradGradGradGradGradGradGradGradGradGradGradGrad

                          Input orientation:                          
 ---------------------------------------------------------------------
 Center     Atomic      Atomic             Coordinates (Angstroms)
 Number     Number       Type             X           Y           Z
 ---------------------------------------------------------------------
      1          6           0        0.079884    0.402536   -0.002689
      2          6           0        1.411430    0.492849   -0.424410
      3          6           0        2.083228    1.720006   -0.415267
      4          6           0        1.439308    2.879006    0.014545
      5          6           0        0.113429    2.805584    0.437569
      6          6           0       -0.552595    1.574831    0.425848
      7          6           0       -0.967675   -1.743265   -0.060573
      8          6           0       -0.463365   -2.995196   -0.461846
      9          6           0       -1.257134   -4.143907   -0.416069
     10          6           0       -2.571020   -4.065042    0.031615
     11          6           0       -3.091486   -2.837268    0.433675
     12          6           0       -2.294514   -1.685246    0.387465
     13          1           0        1.926555   -0.381561   -0.758339
     14          1           0        1.958298    3.819851    0.020260
     15          1           0       -0.392272    3.692117    0.770670
     16          1           0       -0.851710   -5.089131   -0.727162
     17          1           0       -4.107023   -2.778940    0.779212
     18         17           0       -3.013536   -0.114436    0.919368
     19         17           0       -2.227215    1.495178    0.962598
     20         17           0       -3.570477   -5.513204    0.088922
     21         17           0        1.185532   -3.200780   -1.043699
     22         17           0        3.755292    1.800760   -0.950967
 ---------------------------------------------------------------------
                    Distance matrix (angstroms):
                    1          2          3          4          5
     1  C    0.000000
     2  C    1.399650   0.000000
     3  C    2.432968   1.399040   0.000000
     4  C    2.825108   2.426356   1.393791   0.000000
     5  C    2.443274   2.788648   2.405394   1.393663   0.000000
     6  C    1.399267   2.398128   2.770580   2.416137   1.399456
     7  C    2.388555   3.285228   4.629046   5.211967   4.702016
     8  C    3.471388   3.960141   5.359146   6.193010   5.898363
     9  C    4.756957   5.349841   6.748592   7.535086   7.134603
    10  C    5.194971   6.069781   7.438314   8.018904   7.387595
    11  C    4.554595   5.665884   6.947454   7.306131   6.489474
    12  C    3.185721   4.374615   5.603994   5.908713   5.095905
    13  H    2.143831   1.068389   2.135142   3.386157   3.856879
    14  H    3.899616   3.400844   2.148171   1.074511   2.146259
    15  H    3.412090   3.862237   3.379907   2.141859   1.073607
    16  H    5.617040   6.030917   7.421287   8.324068   8.038322
    17  H    5.316329   6.527376   7.745096   7.959828   7.008270
    18  Cl   3.269052   4.664210   5.578838   5.441252   4.305410
    19  Cl   2.729167   4.020969   4.530892   4.032018   2.733392
    20  Cl   6.951943   7.820203   9.194451   9.774082   9.104667
    21  Cl   3.910249   3.751992   5.041322   6.176414   6.278533
    22  Cl   4.045106   2.735248   1.757638   2.731046   4.025030
                    6          7          8          9         10
     6  C    0.000000
     7  C    3.379151   0.000000
     8  C    4.656298   1.408077   0.000000
     9  C    5.823157   2.444022   1.397032   0.000000
    10  C    6.003135   2.823094   2.414598   1.390302   0.000000
    11  C    5.090447   2.439610   2.780993   2.407119   1.392827
    12  C    3.696466   1.401643   2.406326   2.786905   2.422089
    13  H    3.372826   3.273788   3.553971   4.940472   5.866877
    14  H    3.392521   6.286184   7.248569   8.599466   9.093206
    15  H    2.151164   5.528601   6.800317   7.972428   8.091147
    16  H    6.769586   3.413592   2.146105   1.074522   2.140217
    17  H    5.631532   3.410772   3.855287   3.378417   2.138285
    18  Cl   3.025462   2.792654   4.087775   4.594015   4.073231
    19  Cl   1.760340   3.622269   5.030276   5.885666   5.648095
    20  Cl   7.711120   4.583598   4.037060   2.735242   1.760503
    21  Cl   5.290285   2.779783   1.760590   2.692586   4.001866
    22  Cl   4.528195   5.971543   6.406051   7.794201   8.683048
                   11         12         13         14         15
    11  C    0.000000
    12  C    1.401590   0.000000
    13  H    5.712454   4.563977   0.000000
    14  H    8.365911   6.966157   4.273066   0.000000
    15  H    7.073344   5.716765   4.930486   2.470752   0.000000
    16  H    3.381572   3.861413   5.466346   9.371486   8.919916
    17  H    1.074297   2.152864   6.671998   8.994897   7.461503
    18  Cl   2.766909   1.807584   5.224037   6.403604   4.624173
    19  Cl   4.449361   3.232709   4.872123   4.879613   2.868866
    20  Cl   2.740241   4.046044   7.567626  10.847949   9.762362
    21  Cl   4.539566   4.056574   2.928915   7.142719   7.300236
    22  Cl   8.384921   7.109415   2.853753   2.872142   4.872736
                   16         17         18         19         20
    16  H    0.000000
    17  H    4.266522   0.000000
    18  Cl   5.668523   2.883564   0.000000
    19  Cl   6.935448   4.672836   1.791934   0.000000
    20  Cl   2.870109   2.870641   5.490585   7.189234   0.000000
    21  Cl   2.795786   5.613564   5.568782   6.141994   5.408304
    22  Cl   8.291269   9.261920   7.278953   6.288521  10.403957
                   21         22
    21  Cl   0.000000
    22  Cl   5.623848   0.000000
 Stoichiometry    C12H5Cl5
 Framework group  C1[X(C12H5Cl5)]
 Deg. of freedom    60
 Full point group                 C1      NOp   1
 Largest Abelian subgroup         C1      NOp   1
 Largest concise Abelian subgroup C1      NOp   1
                         Standard orientation:                         
 ---------------------------------------------------------------------
 Center     Atomic      Atomic             Coordinates (Angstroms)
 Number     Number       Type             X           Y           Z
 ---------------------------------------------------------------------
      1          6           0       -1.446416    0.190859   -0.000001
      2          6           0       -2.331172   -0.893680   -0.000004
      3          6           0       -3.715036   -0.688175   -0.000004
      4          6           0       -4.241386    0.602410   -0.000002
      5          6           0       -3.373492    1.692848    0.000003
      6          6           0       -1.990302    1.480098    0.000003
      7          6           0        0.895761   -0.277542    0.000006
      8          6           0        1.581096   -1.507582    0.000007
      9          6           0        2.977200   -1.558501    0.000004
     10          6           0        3.716947   -0.381337   -0.000001
     11          6           0        3.060644    0.847171   -0.000003
     12          6           0        1.659956    0.897452    0.000000
     13          1           0       -1.951968   -1.892510   -0.000007
     14          1           0       -5.304777    0.756597   -0.000002
     15          1           0       -3.768069    2.691317    0.000007
     16          1           0        3.479577   -2.508350    0.000005
     17          1           0        3.634499    1.755358   -0.000010
     18         17           0        0.852734    2.514780   -0.000004
     19         17           0       -0.904507    2.865684    0.000007
     20         17           0        5.476241   -0.446589   -0.000008
     21         17           0        0.737317   -3.052805    0.000010
     22         17           0       -4.800142   -2.070865   -0.000008
 ---------------------------------------------------------------------
 Rotational constants (GHZ):           0.4319374           0.1623589           0.1180032
 Standard basis: 6-311+G(d,p) (5D, 7F)
 There are   461 symmetry adapted cartesian basis functions of A   symmetry.
 There are   444 symmetry adapted basis functions of A   symmetry.
   444 basis functions,   737 primitive gaussians,   461 cartesian basis functions
    81 alpha electrons       81 beta electrons
       nuclear repulsion energy      1690.7561773684 Hartrees.
 NAtoms=   22 NActive=   22 NUniq=   22 SFac= 1.00D+00 NAtFMM=   60 NAOKFM=F Big=F
 Integral buffers will be    131072 words long.
 Raffenetti 2 integral format.
 Two-electron integral symmetry is turned on.
 One-electron integrals computed using PRISM.
 NBasis=   444 RedAO= T EigKep=  1.28D-06  NBF=   444
 NBsUse=   440 1.00D-06 EigRej=  8.41D-07 NBFU=   440
 Initial guess from the checkpoint file:  "./Gau-266108.chk"
 B after Tr=     0.000000   -0.000000    0.000000
         Rot=    0.999482   -0.000000   -0.000000   -0.032197 Ang=  -3.69 deg.
 ExpMin= 4.38D-02 ExpMax= 1.06D+05 ExpMxC= 3.62D+03 IAcc=3 IRadAn=         5 AccDes= 0.00D+00
 Harris functional with IExCor=  402 and IRadAn=       5 diagonalized for initial guess.
 HarFok:  IExCor=  402 AccDes= 0.00D+00 IRadAn=         5 IDoV= 1 UseB2=F ITyADJ=14
 ICtDFT=  3500011 ScaDFX=  1.000000  1.000000  1.000000  1.000000
 FoFCou: FMM=F IPFlag=           0 FMFlag=      100000 FMFlg1=           0
         NFxFlg=           0 DoJE=T BraDBF=F KetDBF=T FulRan=T
         wScrn=  0.000000 ICntrl=       500 IOpCl=  0 I1Cent=   200000004 NGrid=           0
         NMat0=    1 NMatS0=      1 NMatT0=    0 NMatD0=    1 NMtDS0=    0 NMtDT0=    0
 Petite list used in FoFCou.
 Requested convergence on RMS density matrix=1.00D-08 within  32 cycles.
 Requested convergence on MAX density matrix=1.00D-06.
 Requested convergence on             energy=1.00D-06.
 No special actions if energy rises.
 SCF Done:  E(RB3LYP) =  -2761.06727009     A.U. after   20 cycles
            NFock= 20  Conv=0.34D-08     -V/T= 2.0023
 QCSCF skips out because SCF is already converged.
 Calling FoFJK, ICntrl=      2127 FMM=F ISym2X=0 I1Cent= 0 IOpClX= 0 NMat=1 NMatS=1 NMatT=0.
 ***** Axes restored to original set *****
 -------------------------------------------------------------------
 Center     Atomic                   Forces (Hartrees/Bohr)
 Number     Number              X              Y              Z
 -------------------------------------------------------------------
      1        6          -0.004764776   -0.014788414   -0.001207772
      2        6          -0.009440535    0.003126038    0.003697372
      3        6          -0.006689216   -0.001045596    0.002007574
      4        6          -0.002103702   -0.008452023   -0.000894525
      5        6          -0.004334010   -0.002291321    0.000997663
      6        6           0.018197482   -0.025710435   -0.010823580
      7        6          -0.028861002    0.009505513    0.011293973
      8        6          -0.008766379    0.021383166    0.006904316
      9        6          -0.001412206   -0.000325308    0.000404070
     10        6           0.005955930    0.006625937   -0.000717805
     11        6           0.000880317    0.002221754    0.000127231
     12        6           0.028172405   -0.079916761   -0.024290730
     13        1           0.004159028   -0.008688257   -0.003002004
     14        1           0.001709272    0.004980869    0.000372306
     15        1          -0.001354428    0.005247202    0.001431741
     16        1           0.002958594   -0.004376393   -0.001796657
     17        1          -0.006167997   -0.001775030    0.001698689
     18       17          -0.110514084   -0.293020830   -0.018619819
     19       17           0.120032498    0.382018601    0.032198056
     20       17           0.001569990    0.002246656   -0.000095335
     21       17           0.002902103    0.003176223   -0.000359677
     22       17          -0.002129284   -0.000141592    0.000674915
 -------------------------------------------------------------------
 Cartesian Forces:  Max     0.382018601 RMS     0.064099673

 GradGradGradGradGradGradGradGradGradGradGradGradGradGradGradGradGradGrad
 Berny optimization.
 Using GEDIIS/GDIIS optimizer.
 FormGI is forming the generalized inverse of G from B-inverse, IUseBI=4.
 Internal  Forces:  Max     0.350569839 RMS     0.043750402
 Search for a local minimum.
 Step number   2 out of a maximum of  112
 All quantities printed in internal units (Hartrees-Bohrs-Radians)
 Mixed Optimization -- RFO/linear search
 Update second derivatives using D2CorX and points    1    2
 DE= -1.14D-01 DEPred=-1.26D-01 R= 9.04D-01
 TightC=F SS=  1.41D+00  RLast= 3.00D-01 DXNew= 5.0454D-01 9.0000D-01
 Trust test= 9.04D-01 RLast= 3.00D-01 DXMaxT set to 5.05D-01
 ITU=  1  0
 Use linear search instead of GDIIS.
 Linear search step of   0.600 exceeds DXMaxT=   0.505 but not scaled.
 Quartic linear search produced a step of  2.00000.
 Iteration  1 RMS(Cart)=  0.25711699 RMS(Int)=  0.02634195
 Iteration  2 RMS(Cart)=  0.15528664 RMS(Int)=  0.00271263
 Iteration  3 RMS(Cart)=  0.00360929 RMS(Int)=  0.00016424
 Iteration  4 RMS(Cart)=  0.00000672 RMS(Int)=  0.00016424
 Iteration  5 RMS(Cart)=  0.00000000 RMS(Int)=  0.00016424
 Variable       Old X    -DE/DX   Delta X   Delta X   Delta X     New X
                                 (Linear)    (Quad)   (Total)
    R1        2.64495  -0.01262  -0.00662   0.00000  -0.00646   2.63849
    R2        2.64423   0.00586  -0.00806   0.00000  -0.00786   2.63637
    R3        2.64380  -0.00018  -0.00892   0.00000  -0.00897   2.63483
    R4        2.01896   0.01005  -0.00609   0.00000  -0.00609   2.01288
    R5        2.63388   0.00294  -0.02876   0.00000  -0.02896   2.60492
    R6        3.32145  -0.00224  -0.00893   0.00000  -0.00893   3.31253
    R7        2.63364  -0.00259  -0.02924   0.00000  -0.02940   2.60424
    R8        2.03053   0.00519   0.01705   0.00000   0.01705   2.04758
    R9        2.64459  -0.00842  -0.00735   0.00000  -0.00730   2.63729
   R10        2.02882   0.00541   0.01363   0.00000   0.01363   2.04245
   R11        3.32656  -0.00652   0.00129   0.00000   0.00129   3.32785
   R12        2.66088  -0.02681   0.02524   0.00000   0.02546   2.68634
   R13        2.64872  -0.04195   0.00092   0.00000   0.00120   2.64992
   R14        2.64001   0.00092  -0.01651   0.00000  -0.01655   2.62345
   R15        3.32703   0.00247   0.00223   0.00000   0.00223   3.32926
   R16        2.62729   0.00414  -0.04194   0.00000  -0.04223   2.58506
   R17        2.03055   0.00549   0.01709   0.00000   0.01709   2.04764
   R18        2.63206   0.00139  -0.03240   0.00000  -0.03264   2.59942
   R19        3.32687  -0.00274   0.00190   0.00000   0.00190   3.32877
   R20        2.64862  -0.00688   0.00072   0.00000   0.00077   2.64939
   R21        2.03013   0.00628   0.01624   0.00000   0.01624   2.04637
   R22        3.41584   0.03674   0.17984   0.00000   0.17984   3.59568
   R23        3.38626   0.35057   0.43363   0.00000   0.43363   3.81990
    A1        2.05808  -0.00473  -0.07262   0.00000  -0.07208   1.98600
    A2        2.10767  -0.00604   0.02654   0.00000   0.02663   2.13430
    A3        2.09446   0.00217   0.00013   0.00000   0.00008   2.09454
    A4        2.08106   0.00387  -0.02667   0.00000  -0.02671   2.05435
    A5        2.10547   0.00758   0.02214   0.00000   0.02186   2.12732
    A6        2.08876  -0.00386  -0.01126   0.00000  -0.01112   2.07764
    A7        2.08896  -0.00372  -0.01088   0.00000  -0.01074   2.07822
    A8        2.08210   0.00088  -0.02459   0.00000  -0.02500   2.05711
    A9        2.10203   0.00055   0.01528   0.00000   0.01548   2.11752
   A10        2.09905  -0.00143   0.00931   0.00000   0.00951   2.10856
   A11        2.09043  -0.01369  -0.00794   0.00000  -0.00809   2.08233
   A12        2.09300   0.00537  -0.00279   0.00000  -0.00271   2.09029
   A13        2.09976   0.00831   0.01072   0.00000   0.01080   2.11056
   A14        2.12262   0.01600   0.05646   0.00000   0.05668   2.17930
   A15        2.07770  -0.04058  -0.03340   0.00000  -0.03351   2.04419
   A16        2.08286   0.02458  -0.02306   0.00000  -0.02317   2.05969
   A17        2.05662   0.00654  -0.07555   0.00000  -0.07478   1.98184
   A18        2.11558  -0.00337   0.04237   0.00000   0.04251   2.15809
   A19        2.13345  -0.00421   0.07812   0.00000   0.07805   2.21150
   A20        2.03415   0.00758  -0.12049   0.00000  -0.12056   1.91359
   A21        2.09539  -0.00493   0.00199   0.00000   0.00161   2.09700
   A22        2.09375   0.00143  -0.00128   0.00000  -0.00109   2.09266
   A23        2.09404   0.00350  -0.00071   0.00000  -0.00051   2.09353
   A24        2.08989   0.00265  -0.00901   0.00000  -0.00959   2.08030
   A25        2.09477  -0.00135   0.00076   0.00000   0.00105   2.09582
   A26        2.09852  -0.00130   0.00826   0.00000   0.00854   2.10707
   A27        2.09733  -0.01969   0.00587   0.00000   0.00563   2.10297
   A28        2.08742   0.00766  -0.01396   0.00000  -0.01384   2.07358
   A29        2.09844   0.01203   0.00809   0.00000   0.00821   2.10664
   A30        2.11156   0.01880   0.03433   0.00000   0.03462   2.14618
   A31        2.10201  -0.07529   0.01524   0.00000   0.01509   2.11711
   A32        2.06961   0.05649  -0.04957   0.00000  -0.04971   2.01990
   A33        2.23083  -0.06306   0.27287   0.00000   0.27287   2.50369
   A34        2.03838  -0.22573  -0.11203   0.00000  -0.11203   1.92636
    D1        0.00000  -0.00000   0.00000   0.00000   0.00000   0.00000
    D2        3.14159   0.00000   0.00000   0.00000   0.00000   3.14159
    D3       -0.00000   0.00000  -0.00000   0.00000  -0.00000  -0.00000
    D4        3.14159  -0.00000   0.00000   0.00000   0.00000   3.14159
    D5        0.00000  -0.00000   0.00000   0.00000   0.00000   0.00000
    D6        3.14159   0.00000  -0.00000   0.00000  -0.00000   3.14159
    D7       -3.14159  -0.00000  -0.00000   0.00000  -0.00000  -3.14159
    D8        0.00000  -0.00000  -0.00000   0.00000  -0.00000   0.00000
    D9       -0.00000   0.00000   0.00000   0.00000   0.00000  -0.00000
   D10        3.14159   0.00000  -0.00000   0.00000  -0.00000   3.14159
   D11        3.14159   0.00000   0.00000   0.00000   0.00000   3.14159
   D12        0.00000  -0.00000  -0.00000   0.00000  -0.00000   0.00000
   D13        0.00000  -0.00000  -0.00000   0.00000  -0.00000   0.00000
   D14       -3.14159  -0.00000  -0.00000   0.00000  -0.00000  -3.14159
   D15       -3.14159  -0.00000  -0.00000   0.00000  -0.00000  -3.14159
   D16        0.00000  -0.00000  -0.00000   0.00000  -0.00000   0.00000
   D17       -0.00000   0.00000   0.00000   0.00000   0.00000   0.00000
   D18        3.14159   0.00000  -0.00000   0.00000  -0.00000   3.14159
   D19        3.14159  -0.00000   0.00000   0.00000   0.00000   3.14159
   D20       -0.00000   0.00000  -0.00000   0.00000  -0.00000  -0.00000
   D21        0.00001   0.00000  -0.00000   0.00000  -0.00000   0.00000
   D22       -3.14159   0.00000  -0.00000   0.00000  -0.00000  -3.14159
   D23        0.00000   0.00000   0.00000   0.00000   0.00000   0.00000
   D24       -3.14159  -0.00000  -0.00000   0.00000  -0.00000  -3.14159
   D25       -0.00000   0.00000  -0.00000   0.00000  -0.00000  -0.00000
   D26        3.14159  -0.00000   0.00000   0.00000   0.00000   3.14159
   D27       -0.00000  -0.00000  -0.00000   0.00000  -0.00000  -0.00000
   D28        3.14159  -0.00000  -0.00000   0.00000  -0.00000   3.14159
   D29        3.14159   0.00000   0.00000   0.00000   0.00000   3.14159
   D30       -0.00000   0.00000   0.00000   0.00000   0.00000  -0.00000
   D31       -0.00000   0.00000   0.00000   0.00000   0.00000  -0.00000
   D32       -3.14159  -0.00000  -0.00000   0.00000  -0.00000  -3.14159
   D33        3.14159   0.00000   0.00000   0.00000   0.00000  -3.14159
   D34        0.00000  -0.00000   0.00000   0.00000   0.00000   0.00000
   D35        0.00000   0.00000  -0.00000   0.00000  -0.00000  -0.00000
   D36       -3.14159  -0.00000  -0.00000   0.00000  -0.00000  -3.14159
   D37        3.14159   0.00000   0.00000   0.00000   0.00000   3.14159
   D38        0.00000  -0.00000  -0.00000   0.00000  -0.00000   0.00000
   D39        0.00000  -0.00000   0.00000   0.00000   0.00000   0.00000
   D40       -3.14159  -0.00000  -0.00000   0.00000  -0.00000   3.14159
   D41        3.14159   0.00000   0.00000   0.00000   0.00000   3.14159
   D42       -0.00000   0.00000  -0.00000   0.00000  -0.00000  -0.00000
   D43        0.00001   0.00000  -0.00000   0.00000  -0.00000   0.00001
   D44       -3.14159   0.00000   0.00000   0.00000   0.00000  -3.14159
   D45       -0.00001   0.00000  -0.00001   0.00000  -0.00001  -0.00002
         Item               Value     Threshold  Converged?
 Maximum Force            0.350570     0.000450     NO 
 RMS     Force            0.043750     0.000300     NO 
 Maximum Displacement     1.983409     0.001800     NO 
 RMS     Displacement     0.408446     0.001200     NO 
 Predicted change in Energy=-2.513013D-03
 GradGradGradGradGradGradGradGradGradGradGradGradGradGradGradGradGradGrad

                          Input orientation:                          
 ---------------------------------------------------------------------
 Center     Atomic      Atomic             Coordinates (Angstroms)
 Number     Number       Type             X           Y           Z
 ---------------------------------------------------------------------
      1          6           0        0.233065    0.685259   -0.000055
      2          6           0        1.555410    0.894458   -0.396413
      3          6           0        2.154387    2.152933   -0.357397
      4          6           0        1.473657    3.270218    0.076703
      5          6           0        0.164885    3.111519    0.478073
      6          6           0       -0.415120    1.843033    0.430926
      7          6           0       -0.824226   -2.217717   -0.196949
      8          6           0       -0.576929   -3.576506   -0.533617
      9          6           0       -1.524025   -4.584091   -0.410815
     10          6           0       -2.777112   -4.295961    0.056148
     11          6           0       -3.083211   -2.999839    0.400420
     12          6           0       -2.124037   -1.985026    0.274996
     13          1           0        2.143180    0.076801   -0.743614
     14          1           0        1.948132    4.243978    0.103266
     15          1           0       -0.397726    3.967035    0.824095
     16          1           0       -1.269664   -5.600907   -0.685585
     17          1           0       -4.077017   -2.778757    0.769369
     18         17           0       -2.692017   -0.243353    0.789227
     19         17           0       -2.089370    1.679267    0.951752
     20         17           0       -3.977461   -5.575813    0.211257
     21         17           0        0.927299   -4.250355   -1.155759
     22         17           0        3.820834    2.318568   -0.875301
 ---------------------------------------------------------------------
                    Distance matrix (angstroms):
                    1          2          3          4          5
     1  C    0.000000
     2  C    1.396231   0.000000
     3  C    2.444021   1.394294   0.000000
     4  C    2.868271   2.423790   1.378464   0.000000
     5  C    2.473862   2.759283   2.361147   1.378103   0.000000
     6  C    1.395109   2.338220   2.705523   2.393702   1.395595
     7  C    3.095787   3.922765   5.291546   5.955887   5.462119
     8  C    4.370745   4.955321   6.349615   7.173216   6.804666
     9  C    5.569752   6.284714   7.676005   8.421042   7.928742
    10  C    5.820385   6.776135   8.128895   8.678510   7.981487
    11  C    4.973732   6.108789   7.386324   7.757800   6.921333
    12  C    3.572394   4.720227   5.985611   6.371838   5.590633
    13  H    2.138139   1.065168   2.111779   3.364386   3.823045
    14  H    3.951786   3.409281   2.151098   1.083532   2.145440
    15  H    3.441973   3.839937   3.346666   2.132188   1.080820
    16  H    6.499540   7.089036   8.482562   9.316854   8.906087
    17  H    5.582851   6.824646   8.026305   8.238924   7.264567
    18  Cl   3.168815   4.554228   5.526714   5.495973   4.417451
    19  Cl   2.699572   3.964580   4.466285   3.999000   2.712449
    20  Cl   7.548125   8.535006   9.882127  10.391586   9.628081
    21  Cl   5.116434   5.238342   6.568502   7.640451   7.579437
    22  Cl   4.038050   2.718376   1.752914   2.705770   3.978236
[...]
                 (A) (A) (A) (A) (A) (A) (A) (A) (A) (A) (A) (A)
                 (A) (A) (A) (A) (A) (A) (A) (A) (A) (A) (A) (A)
                 (A) (A) (A) (A) (A) (A) (A) (A) (A)
       Virtual   (A) (A) (A) (A) (A) (A) (A) (A) (A) (A) (A) (A)
                 (A) (A) (A) (A) (A) (A) (A) (A) (A) (A) (A) (A)
                 (A) (A) (A) (A) (A) (A) (A) (A) (A) (A) (A) (A)
                 (A) (A) (A) (A) (A) (A) (A) (A) (A) (A) (A) (A)
                 (A) (A) (A) (A) (A) (A) (A) (A) (A) (A) (A) (A)
                 (A) (A) (A) (A) (A) (A) (A) (A) (A) (A) (A) (A)
                 (A) (A) (A) (A) (A) (A) (A) (A) (A) (A) (A) (A)
                 (A) (A) (A) (A) (A) (A) (A) (A) (A) (A) (A) (A)
                 (A) (A) (A) (A) (A) (A) (A) (A) (A) (A) (A) (A)
                 (A) (A) (A) (A) (A) (A) (A) (A) (A) (A) (A) (A)
                 (A) (A) (A) (A) (A) (A) (A) (A) (A) (A) (A) (A)
                 (A) (A) (A) (A) (A) (A) (A) (A) (A) (A) (A) (A)
                 (A) (A) (A) (A) (A) (A) (A) (A) (A) (A) (A) (A)
                 (A) (A) (A) (A) (A) (A) (A) (A) (A) (A) (A) (A)
                 (A) (A) (A) (A) (A) (A) (A) (A) (A) (A) (A) (A)
                 (A) (A) (A) (A) (A) (A) (A) (A) (A) (A) (A) (A)
                 (A) (A) (A) (A) (A) (A) (A) (A) (A) (A) (A) (A)
                 (A) (A) (A) (A) (A) (A) (A) (A) (A) (A) (A) (A)
                 (A) (A) (A) (A) (A) (A) (A) (A) (A) (A) (A) (A)
                 (A) (A) (A) (A) (A) (A) (A) (A) (A) (A) (A) (A)
                 (A) (A) (A) (A) (A) (A) (A) (A) (A) (A) (A) (A)
                 (A) (A) (A) (A) (A) (A) (A) (A) (A) (A) (A) (A)
                 (A) (A) (A) (A) (A) (A) (A) (A) (A) (A) (A) (A)
                 (A) (A) (A) (A) (A) (A) (A) (A) (A) (A) (A) (A)
                 (A) (A) (A) (A) (A) (A) (A) (A) (A) (A) (A) (A)
                 (A) (A) (A) (A) (A) (A) (A) (A) (A) (A) (A) (A)
                 (A) (A) (A) (A) (A) (A) (A) (A) (A) (A) (A) (A)
                 (A) (A) (A) (A) (A) (A) (A) (A) (A) (A) (A) (A)
                 (A) (A) (A) (A) (A) (A) (A) (A) (A) (A) (A) (A)
                 (A) (A) (A) (A) (A) (A) (A) (A) (A) (A) (A)
 The electronic state is 1-A.
 Alpha  occ. eigenvalues -- -101.57563-101.57433-101.57433-101.56797-101.56743
 Alpha  occ. eigenvalues --  -10.27328 -10.27328 -10.27099 -10.26050 -10.25835
 Alpha  occ. eigenvalues --  -10.23409 -10.22837 -10.21772 -10.21771 -10.21244
 Alpha  occ. eigenvalues --  -10.21168 -10.21112  -9.49016  -9.48903  -9.48902
 Alpha  occ. eigenvalues --   -9.48266  -9.48198  -7.25491  -7.25378  -7.25378
 Alpha  occ. eigenvalues --   -7.24731  -7.24664  -7.24494  -7.24454  -7.24384
 Alpha  occ. eigenvalues --   -7.24384  -7.24330  -7.24330  -7.23746  -7.23706
 Alpha  occ. eigenvalues --   -7.23677  -7.23644  -0.94769  -0.92450  -0.89894
 Alpha  occ. eigenvalues --   -0.89762  -0.89057  -0.84187  -0.83425  -0.80894
 Alpha  occ. eigenvalues --   -0.76629  -0.76021  -0.73718  -0.66180  -0.63751
 Alpha  occ. eigenvalues --   -0.63531  -0.61033  -0.55271  -0.53441  -0.52710
 Alpha  occ. eigenvalues --   -0.51677  -0.49356  -0.48189  -0.46597  -0.46334
 Alpha  occ. eigenvalues --   -0.45560  -0.44373  -0.43136  -0.42695  -0.41037
 Alpha  occ. eigenvalues --   -0.40010  -0.39637  -0.38903  -0.38298  -0.37813
 Alpha  occ. eigenvalues --   -0.34320  -0.34179  -0.33361  -0.33321  -0.32916
 Alpha  occ. eigenvalues --   -0.32849  -0.32685  -0.28920  -0.27530  -0.27484
 Alpha  occ. eigenvalues --   -0.26030
 Alpha virt. eigenvalues --   -0.05767  -0.05496  -0.04980  -0.04291  -0.03261
 Alpha virt. eigenvalues --   -0.00872  -0.00354   0.00596   0.01025   0.01263
 Alpha virt. eigenvalues --    0.01304   0.02137   0.02170   0.03379   0.03979
 Alpha virt. eigenvalues --    0.04331   0.05318   0.05485   0.05833   0.05855
 Alpha virt. eigenvalues --    0.06565   0.06831   0.08268   0.08383   0.08851
 Alpha virt. eigenvalues --    0.08910   0.09204   0.09314   0.10404   0.10522
 Alpha virt. eigenvalues --    0.10835   0.10847   0.11599   0.11836   0.12028
 Alpha virt. eigenvalues --    0.12254   0.12596   0.13020   0.13059   0.13550
 Alpha virt. eigenvalues --    0.14001   0.14084   0.14874   0.15092   0.16024
 Alpha virt. eigenvalues --    0.16177   0.16636   0.17085   0.17393   0.17453
 Alpha virt. eigenvalues --    0.18331   0.18481   0.18762   0.19138   0.19294
 Alpha virt. eigenvalues --    0.20182   0.20281   0.20814   0.21020   0.21544
 Alpha virt. eigenvalues --    0.21664   0.22307   0.22693   0.22859   0.23001
 Alpha virt. eigenvalues --    0.23525   0.23550   0.24550   0.24876   0.25434
 Alpha virt. eigenvalues --    0.25613   0.26169   0.26785   0.26886   0.27162
 Alpha virt. eigenvalues --    0.27286   0.28169   0.28238   0.28683   0.29374
 Alpha virt. eigenvalues --    0.29925   0.30129   0.30421   0.31503   0.32335
 Alpha virt. eigenvalues --    0.32713   0.33052   0.34305   0.36403   0.39236
 Alpha virt. eigenvalues --    0.40533   0.42367   0.43630   0.44126   0.44662
 Alpha virt. eigenvalues --    0.45133   0.45265   0.45559   0.46888   0.47075
 Alpha virt. eigenvalues --    0.47628   0.48859   0.49453   0.50007   0.50487
 Alpha virt. eigenvalues --    0.50943   0.51726   0.52412   0.54070   0.54111
 Alpha virt. eigenvalues --    0.54649   0.56142   0.56571   0.57655   0.57710
 Alpha virt. eigenvalues --    0.58673   0.58841   0.59485   0.60249   0.60677
 Alpha virt. eigenvalues --    0.61342   0.62793   0.63294   0.63721   0.64523
 Alpha virt. eigenvalues --    0.64829   0.65033   0.65800   0.66825   0.67522
 Alpha virt. eigenvalues --    0.67732   0.68536   0.69216   0.69580   0.70204
 Alpha virt. eigenvalues --    0.71065   0.72421   0.75470   0.77630   0.80727
 Alpha virt. eigenvalues --    0.82160   0.82487   0.82676   0.82947   0.83333
 Alpha virt. eigenvalues --    0.83715   0.84100   0.84187   0.84486   0.85045
 Alpha virt. eigenvalues --    0.85387   0.85778   0.85864   0.86125   0.86561
 Alpha virt. eigenvalues --    0.87087   0.88595   0.88740   0.89564   0.90090
 Alpha virt. eigenvalues --    0.90835   0.91541   0.91958   0.93942   0.94115
 Alpha virt. eigenvalues --    0.94953   0.95349   0.95580   0.95583   0.96078
 Alpha virt. eigenvalues --    0.97474   0.98137   0.98459   0.98823   0.99504
 Alpha virt. eigenvalues --    1.02841   1.02946   1.03566   1.03662   1.04345
 Alpha virt. eigenvalues --    1.05565   1.07165   1.11331   1.12606   1.15514
 Alpha virt. eigenvalues --    1.18315   1.18932   1.20856   1.22960   1.23358
 Alpha virt. eigenvalues --    1.23892   1.24849   1.25038   1.26289   1.28274
 Alpha virt. eigenvalues --    1.30389   1.31317   1.31565   1.32616   1.33255
 Alpha virt. eigenvalues --    1.34545   1.41111   1.42349   1.47636   1.48096
 Alpha virt. eigenvalues --    1.48751   1.49516   1.54126   1.54755   1.56756
 Alpha virt. eigenvalues --    1.56805   1.56988   1.58272   1.59719   1.60822
 Alpha virt. eigenvalues --    1.62160   1.66861   1.67338   1.67917   1.69314
 Alpha virt. eigenvalues --    1.71439   1.77617   1.78267   1.80396   1.81759
 Alpha virt. eigenvalues --    1.81942   1.83285   1.85095   1.86660   1.91908
 Alpha virt. eigenvalues --    1.92718   1.93067   1.93080   1.94433   1.94827
 Alpha virt. eigenvalues --    1.95433   1.96501   1.99967   2.02963   2.03326
 Alpha virt. eigenvalues --    2.04618   2.05143   2.06730   2.09212   2.13662
 Alpha virt. eigenvalues --    2.14828   2.17199   2.23174   2.25602   2.25832
 Alpha virt. eigenvalues --    2.26105   2.26814   2.27381   2.30321   2.31041
 Alpha virt. eigenvalues --    2.31492   2.34629   2.35675   2.37677   2.38621
 Alpha virt. eigenvalues --    2.41229   2.44583   2.45308   2.46632   2.48121
 Alpha virt. eigenvalues --    2.50851   2.52979   2.53342   2.55252   2.56497
 Alpha virt. eigenvalues --    2.58040   2.58838   2.61367   2.63422   2.67834
 Alpha virt. eigenvalues --    2.68510   2.69575   2.69590   2.70241   2.70813
 Alpha virt. eigenvalues --    2.73261   2.73530   2.75316   2.75815   2.76515
 Alpha virt. eigenvalues --    2.77902   2.80390   2.82398   2.83453   2.83848
 Alpha virt. eigenvalues --    2.86053   2.89351   2.96345   2.98633   3.07774
 Alpha virt. eigenvalues --    3.09337   3.09599   3.10315   3.12656   3.13599
 Alpha virt. eigenvalues --    3.18854   3.21593   3.25107   3.28431   3.32513
 Alpha virt. eigenvalues --    3.34732   3.41497   3.46546   3.54560   3.59102
 Alpha virt. eigenvalues --    3.65912   3.69919   3.74358   3.80212   3.87062
 Alpha virt. eigenvalues --    3.97090   4.04745   4.07343   4.12356   4.35064
 Alpha virt. eigenvalues --    4.80133   4.81857   9.76416   9.77970   9.79725
 Alpha virt. eigenvalues --    9.83370   9.84770  23.39616  23.55348  23.84510
 Alpha virt. eigenvalues --   23.84913  23.85853  23.91832  23.97977  24.02816
 Alpha virt. eigenvalues --   24.03403  24.08146  24.10769  24.14445  25.81450
 Alpha virt. eigenvalues --   25.81544  25.82533  25.92205  25.96730  26.09671
 Alpha virt. eigenvalues --   26.11033  26.24893  26.29668  26.33729  26.58219
 Alpha virt. eigenvalues --   26.62050  26.63512  26.67421  26.92062 215.75506
 Alpha virt. eigenvalues --  215.77230 215.79352 215.83641 215.85829
          Condensed to atoms (all electrons):
               1          2          3          4          5          6
     1  C   27.316056  -1.550034  -5.420955  -1.837335  -2.720882  -3.714506
     2  C   -1.550034  26.821447  -6.050237  -9.751512   1.558163   3.630376
     3  C   -5.420955  -6.050237  21.922135  -0.371581  -1.835769  -4.539146
     4  C   -1.837335  -9.751512  -0.371581  17.629880   2.039921  -1.774343
     5  C   -2.720882   1.558163  -1.835769   2.039921  14.760768  -4.811394
     6  C   -3.714506   3.630376  -4.539146  -1.774343  -4.811394  37.029348
     7  C    9.228402  -6.051664   3.579261   0.149962  -3.429893  -7.726308
     8  C   -2.484545  -1.057813  -0.500181   0.175415   0.418952  -4.365415
     9  C   -4.563044  -0.418804  -0.031195   0.032661   0.299666  -1.945604
    10  C   -0.538126  -0.128808  -0.010571   0.018482   0.023122  -0.251187
    11  C   -4.570531  -0.424963  -0.030060   0.033589   0.299167  -1.950867
    12  C   -2.487204  -1.060202  -0.497507   0.176447   0.418974  -4.387602
    13  H   -0.006550   0.135549   0.039102   0.092044  -0.032930  -0.150405
    14  H    0.042078   0.039210   0.028575   0.313561  -0.050075  -0.026766
    15  H    0.099864  -0.038443  -0.023640  -0.042884   0.323220   0.031243
    16  H    0.026099   0.000276  -0.000275   0.000082  -0.000345   0.000730
    17  H    0.026111   0.000290  -0.000276   0.000082  -0.000344   0.000732
    18  Cl   0.023522   0.066386   0.239820  -0.075722  -0.129856   0.213683
    19  Cl  -0.286989  -0.233689   0.064548   0.057041  -0.820629   1.064744
    20  Cl  -0.027775   0.000080   0.008596  -0.000814  -0.003136  -0.057433
    21  Cl   0.020971   0.064229   0.241545  -0.075068  -0.129721   0.212127
    22  Cl  -0.338402   1.142359  -1.551825  -0.201190   0.163206   0.233395
               7          8          9         10         11         12
     1  C    9.228402  -2.484545  -4.563044  -0.538126  -4.570531  -2.487204
     2  C   -6.051664  -1.057813  -0.418804  -0.128808  -0.424963  -1.060202
     3  C    3.579261  -0.500181  -0.031195  -0.010571  -0.030060  -0.497507
     4  C    0.149962   0.175415   0.032661   0.018482   0.033589   0.176447
     5  C   -3.429893   0.418952   0.299666   0.023122   0.299167   0.418974
     6  C   -7.726308  -4.365415  -1.945604  -0.251187  -1.950867  -4.387602
     7  C   21.573400   0.236268  -5.566437  -0.990120  -5.572262   0.248841
     8  C    0.236268  18.786507  -5.367878  -2.563872   6.915988  -2.653632
     9  C   -5.566437  -5.367878  29.125030  -1.144448 -10.868561   6.910987
    10  C   -0.990120  -2.563872  -1.144448  16.089508  -1.142441  -2.566709
    11  C   -5.572262   6.915988 -10.868561  -1.142441  29.143403  -5.367835
    12  C    0.248841  -2.653632   6.910987  -2.566709  -5.367835  18.807878
    13  H    0.128928   0.063170   0.016608   0.006778   0.016780   0.063228
    14  H    0.005415   0.001040   0.000030   0.000043   0.000030   0.001041
    15  H    0.011629  -0.000939  -0.000592   0.000142  -0.000589  -0.000929
    16  H    0.097610   0.072888   0.084768   0.051834   0.052943  -0.027613
    17  H    0.097688  -0.027581   0.052870   0.051744   0.084788   0.072887
    18  Cl  -0.349178  -0.647309   0.633975  -0.279739  -0.774162   0.087418
    19  Cl   0.604212  -0.402925  -0.319204  -0.023042  -0.320924  -0.404348
    20  Cl  -0.038942  -0.111620   0.310493  -1.051776   0.310097  -0.111671
    21  Cl  -0.349770   0.089578  -0.772705  -0.279779   0.634382  -0.646481
    22  Cl  -0.183686  -0.037333  -0.004174   0.004690  -0.004268  -0.037531
              13         14         15         16         17         18
     1  C   -0.006550   0.042078   0.099864   0.026099   0.026111   0.023522
     2  C    0.135549   0.039210  -0.038443   0.000276   0.000290   0.066386
     3  C    0.039102   0.028575  -0.023640  -0.000275  -0.000276   0.239820
     4  C    0.092044   0.313561  -0.042884   0.000082   0.000082  -0.075722
     5  C   -0.032930  -0.050075   0.323220  -0.000345  -0.000344  -0.129856
     6  C   -0.150405  -0.026766   0.031243   0.000730   0.000732   0.213683
     7  C    0.128928   0.005415   0.011629   0.097610   0.097688  -0.349178
     8  C    0.063170   0.001040  -0.000939   0.072888  -0.027581  -0.647309
     9  C    0.016608   0.000030  -0.000592   0.084768   0.052870   0.633975
    10  C    0.006778   0.000043   0.000142   0.051834   0.051744  -0.279739
    11  C    0.016780   0.000030  -0.000589   0.052943   0.084788  -0.774162
    12  C    0.063228   0.001041  -0.000929  -0.027613   0.072887   0.087418
    13  H    0.517261  -0.000284   0.000046   0.000003   0.000002  -0.007454
    14  H   -0.000284   0.505907  -0.007663  -0.000000  -0.000000  -0.000253
    15  H    0.000046  -0.007663   0.507161   0.000000   0.000000  -0.000772
    16  H    0.000003  -0.000000   0.000000   0.492966  -0.000221   0.000148
    17  H    0.000002  -0.000000   0.000000  -0.000221   0.492965  -0.008044
    18  Cl  -0.007454  -0.000253  -0.000772   0.000148  -0.008044  17.642710
    19  Cl  -0.002405   0.000283  -0.010814  -0.000349  -0.000350   0.049898
    20  Cl   0.000082   0.000000  -0.000001  -0.013459  -0.013456  -0.025992
    21  Cl  -0.007418  -0.000253  -0.000769  -0.008047   0.000148  -0.045058
    22  Cl  -0.018261  -0.007509   0.000693  -0.000010  -0.000010  -0.002093
              19         20         21         22
     1  C   -0.286989  -0.027775   0.020971  -0.338402
     2  C   -0.233689   0.000080   0.064229   1.142359
     3  C    0.064548   0.008596   0.241545  -1.551825
     4  C    0.057041  -0.000814  -0.075068  -0.201190
     5  C   -0.820629  -0.003136  -0.129721   0.163206
     6  C    1.064744  -0.057433   0.212127   0.233395
     7  C    0.604212  -0.038942  -0.349770  -0.183686
     8  C   -0.402925  -0.111620   0.089578  -0.037333
     9  C   -0.319204   0.310493  -0.772705  -0.004174
    10  C   -0.023042  -1.051776  -0.279779   0.004690
    11  C   -0.320924   0.310097   0.634382  -0.004268
    12  C   -0.404348  -0.111671  -0.646481  -0.037531
    13  H   -0.002405   0.000082  -0.007418  -0.018261
    14  H    0.000283   0.000000  -0.000253  -0.007509
    15  H   -0.010814  -0.000001  -0.000769   0.000693
    16  H   -0.000349  -0.013459  -0.008047  -0.000010
    17  H   -0.000350  -0.013456   0.000148  -0.000010
    18  Cl   0.049898  -0.025992  -0.045058  -0.002093
    19  Cl  17.548311   0.004451   0.049323  -0.013564
    20  Cl   0.004451  17.418359  -0.025980   0.000077
    21  Cl   0.049323  -0.025980  17.642310  -0.002121
    22  Cl  -0.013564   0.000077  -0.002121  17.438605
 Mulliken charges:
               1
     1  C   -0.236225
     2  C   -0.692195
     3  C    0.739637
     4  C   -0.588719
     5  C   -0.340186
     6  C   -0.715403
     7  C    0.296643
     8  C   -0.538764
     9  C   -0.464444
    10  C    0.724276
    11  C   -0.463707
    12  C   -0.538435
    13  H    0.146126
    14  H    0.155590
    15  H    0.154036
    16  H    0.169972
    17  H    0.169975
    18  Cl   0.388072
    19  Cl   0.396422
    20  Cl   0.429819
    21  Cl   0.388556
    22  Cl   0.418954
 Sum of Mulliken charges =  -0.00000
 Mulliken charges with hydrogens summed into heavy atoms:
               1
     1  C   -0.236225
     2  C   -0.546069
     3  C    0.739637
     4  C   -0.433128
     5  C   -0.186150
     6  C   -0.715403
     7  C    0.296643
     8  C   -0.538764
     9  C   -0.294472
    10  C    0.724276
    11  C   -0.293732
    12  C   -0.538435
    18  Cl   0.388072
    19  Cl   0.396422
    20  Cl   0.429819
    21  Cl   0.388556
    22  Cl   0.418954
 Electronic spatial extent (au):  <R**2>=           6666.3215
 Charge=              0.0000 electrons
 Dipole moment (field-independent basis, Debye):
    X=             -0.2617    Y=              0.0045    Z=              0.2122  Tot=              0.3369
 Quadrupole moment (field-independent basis, Debye-Ang):
   XX=           -128.1087   YY=           -133.4665   ZZ=           -133.6601
   XY=             -0.1294   XZ=             -6.2449   YZ=             -0.0015
 Traceless Quadrupole moment (field-independent basis, Debye-Ang):
   XX=              3.6364   YY=             -1.7214   ZZ=             -1.9150
   XY=             -0.1294   XZ=             -6.2449   YZ=             -0.0015
 Octapole moment (field-independent basis, Debye-Ang**2):
  XXX=            -24.6284  YYY=             -0.1052  ZZZ=              1.4337  XYY=             15.3142
  XXY=              0.6455  XXZ=             30.6780  XZZ=             -4.8897  YZZ=              0.0967
  YYZ=             -1.6277  XYZ=             -0.4115
 Hexadecapole moment (field-independent basis, Debye-Ang**3):
 XXXX=          -5790.4156 YYYY=          -1469.6643 ZZZZ=          -1431.6727 XXXY=             -2.0602
 XXXZ=           -101.4135 YYYX=             -0.0116 YYYZ=             -1.8307 ZZZX=             21.5911
 ZZZY=              1.2571 XXYY=          -1214.1896 XXZZ=          -1211.6128 YYZZ=           -508.8412
 XXYZ=             -0.1280 YYXZ=             -0.3814 ZZXY=              0.4503
 N-N= 1.741353889051D+03 E-N=-1.001950928961D+04  KE= 2.754122825367D+03
 1\1\GINC-CN173\FOpt\RB3LYP\6-311+G(d,p)\C12H5Cl5\20CY91R06\13-Apr-2022
 \0\\# opt b3lyp/6-311+g(d,p) scf=xqc\\Title Card Required\\0,1\C,-0.12
 89557975,0.0178898321,0.0022611817\C,1.1679296306,-0.0084331308,0.5247
 831658\C,1.9342694767,1.1492528947,0.5555210237\C,1.4339978453,2.35329
 23782,0.070982476\C,0.1457066915,2.3900060117,-0.4506423689\C,-0.62543
 46484,1.231808928,-0.4831617838\C,-0.9351757265,-1.2362992905,-0.02165
 71725\C,-0.8962407274,-2.1186382289,-1.1105589044\C,-1.6294258193,-3.3
 000783858,-1.1450288927\C,-2.4300200503,-3.6131010983,-0.0540999269\C,
 -2.5071384026,-2.7780417356,1.0530306445\C,-1.759346457,-1.6052594521,
 1.0508533166\H,1.5723208063,-0.9372099033,0.9058867189\H,2.0398243382,
 3.2496157492,0.0997667945\H,-0.262032763,3.3169057387,-0.8326445373\H,
 -1.5751691869,-3.955299208,-2.0026828651\H,-3.1325884731,-3.0289790011
 ,1.8978204709\Cl,-1.8742203305,-0.5643588177,2.4560061757\Cl,-2.245882
 2665,1.3195395249,-1.1490786622\Cl,-3.3631468612,-5.0957448615,-0.0746
 040312\Cl,0.1042968168,-1.7410425772,-2.4989111877\Cl,3.5593660541,1.0
 889159637,1.2168858319\\Version=EM64L-G16RevB.01\State=1-A\HF=-2761.52
 2237\RMSD=5.186e-09\RMSF=7.912e-06\Dipole=0.0103344,0.1294679,-0.02654
 02\Quadrupole=-3.7164578,5.2948843,-1.5784265,1.4824051,-1.3232543,-0.
 967092\PG=C01 [X(C12H5Cl5)]\\@


 You never know when you're making a memory.
                        -- Rickie Lee Jones
 Job cpu time:       1 days  0 hours 14 minutes 14.6 seconds.
 Elapsed time:       0 days  3 hours  2 minutes  4.7 seconds.
 File lengths (MBytes):  RWF=    133 Int=      0 D2E=      0 Chk=     20 Scr=      1
 Normal termination of Gaussian 16 at Wed Apr 13 01:17:21 2022.
