 Entering Gaussian System, Link 0=g16
 Input=2,2prime,3,3prime,4,4prime,5,6-Octachlorobiphenyl.gjf
 Output=2,2prime,3,3prime,4,4prime,5,6-Octachlorobiphenyl.log
 Initial command:
 /home/apps/g16/l1.exe "./Gau-61732.inp" -scrdir="./"
 Entering Link 1 = /home/apps/g16/l1.exe PID=     61733.
  
 Copyright (c) 1988-2017, Gaussian, Inc.  All Rights Reserved.
  
 This is part of the Gaussian(R) 16 program.  It is based on
 the Gaussian(R) 09 system (copyright 2009, Gaussian, Inc.),
 the Gaussian(R) 03 system (copyright 2003, Gaussian, Inc.),
 the Gaussian(R) 98 system (copyright 1998, Gaussian, Inc.),
 the Gaussian(R) 94 system (copyright 1995, Gaussian, Inc.),
 the Gaussian 92(TM) system (copyright 1992, Gaussian, Inc.),
 the Gaussian 90(TM) system (copyright 1990, Gaussian, Inc.),
 the Gaussian 88(TM) system (copyright 1988, Gaussian, Inc.),
 the Gaussian 86(TM) system (copyright 1986, Carnegie Mellon
 University), and the Gaussian 82(TM) system (copyright 1983,
 Carnegie Mellon University). Gaussian is a federally registered
 trademark of Gaussian, Inc.
  
 This software contains proprietary and confidential information,
 including trade secrets, belonging to Gaussian, Inc.
  
 This software is provided under written license and may be
 used, copied, transmitted, or stored only in accord with that
 written license.
  
 The following legend is applicable only to US Government
 contracts under FAR:
  
                    RESTRICTED RIGHTS LEGEND
  
 Use, reproduction and disclosure by the US Government is
 subject to restrictions as set forth in subparagraphs (a)
 and (c) of the Commercial Computer Software - Restricted
 Rights clause in FAR 52.227-19.
  
 Gaussian, Inc.
 340 Quinnipiac St., Bldg. 40, Wallingford CT 06492
  
  
 ---------------------------------------------------------------
 Warning -- This program may not be used in any manner that
 competes with the business of Gaussian, Inc. or will provide
 assistance to any competitor of Gaussian, Inc.  The licensee
 of this program is prohibited from giving any competitor of
 Gaussian, Inc. access to this program.  By using this program,
 the user acknowledges that Gaussian, Inc. is engaged in the
 business of creating and licensing software in the field of
 computational chemistry and represents and warrants to the
 licensee that it is not a competitor of Gaussian, Inc. and that
 it will not use this program in any manner prohibited above.
 ---------------------------------------------------------------
  

 Cite this work as:
 Gaussian 16, Revision B.01,
 M. J. Frisch, G. W. Trucks, H. B. Schlegel, G. E. Scuseria, 
 M. A. Robb, J. R. Cheeseman, G. Scalmani, V. Barone, 
 G. A. Petersson, H. Nakatsuji, X. Li, M. Caricato, A. V. Marenich, 
 J. Bloino, B. G. Janesko, R. Gomperts, B. Mennucci, H. P. Hratchian, 
 J. V. Ortiz, A. F. Izmaylov, J. L. Sonnenberg, D. Williams-Young, 
 F. Ding, F. Lipparini, F. Egidi, J. Goings, B. Peng, A. Petrone, 
 T. Henderson, D. Ranasinghe, V. G. Zakrzewski, J. Gao, N. Rega, 
 G. Zheng, W. Liang, M. Hada, M. Ehara, K. Toyota, R. Fukuda, 
 J. Hasegawa, M. Ishida, T. Nakajima, Y. Honda, O. Kitao, H. Nakai, 
 T. Vreven, K. Throssell, J. A. Montgomery, Jr., J. E. Peralta, 
 F. Ogliaro, M. J. Bearpark, J. J. Heyd, E. N. Brothers, K. N. Kudin, 
 V. N. Staroverov, T. A. Keith, R. Kobayashi, J. Normand, 
 K. Raghavachari, A. P. Rendell, J. C. Burant, S. S. Iyengar, 
 J. Tomasi, M. Cossi, J. M. Millam, M. Klene, C. Adamo, R. Cammi, 
 J. W. Ochterski, R. L. Martin, K. Morokuma, O. Farkas, 
 J. B. Foresman, and D. J. Fox, Gaussian, Inc., Wallingford CT, 2016.
 
 ******************************************
 Gaussian 16:  EM64L-G16RevB.01 20-Dec-2017
                 2-Apr-2022 
 ******************************************
 %mem=32GB
 %nprocshared=16
 Will use up to   16 processors via shared memory.
 --------------------------------
 # opt b3lyp/6-311+g(d,p) scf=xqc
 --------------------------------
 1/18=20,19=15,26=3,38=1/1,3;
 2/9=110,12=2,17=6,18=5,40=1/2;
 3/5=4,6=6,7=111,11=2,25=1,30=1,71=1,74=-5/1,2,3;
 4//1;
 5/5=2,8=3,13=1,38=5/2,8;
 6/7=2,8=2,9=2,10=2,28=1/1;
 7//1,2,3,16;
 1/18=20,19=15,26=3/3(2);
 2/9=110/2;
 99//99;
 2/9=110/2;
 3/5=4,6=6,7=111,11=2,25=1,30=1,71=1,74=-5/1,2,3;
 4/5=5,16=3,69=1/1;
 5/5=2,8=3,13=1,38=5/2,8;
 7//1,2,3,16;
 1/18=20,19=15,26=3/3(-5);
 2/9=110/2;
 6/7=2,8=2,9=2,10=2,19=2,28=1/1;
 99/9=1/99;
 -------------------
 Title Card Required
 -------------------
 Symbolic Z-matrix:
 Charge =  0 Multiplicity = 1
 C                     1.47108   0.93676  -0.00393 
 C                     2.80346   0.96665  -0.43727 
 C                     3.51136   2.1761   -0.44334 
 C                     2.88687   3.35567  -0.01607 
 C                     1.55449   3.32578   0.41728 
 C                     0.84659   2.11633   0.42335 
 C                     0.44273  -0.82019   0.0049 
 C                     1.06722  -1.99976  -0.42238 
 C                     0.35933  -3.20921  -0.4163 
 C                    -0.97305  -3.2391    0.01705 
 C                    -1.59754  -2.05953   0.44432 
 C                    -0.88965  -0.85008   0.43825 
 H                     3.28027   0.06603  -0.7635 
 H                     4.52866   2.19892  -0.77421 
 Cl                   -1.67393   0.63132   0.97486 
 Cl                   -0.82673   2.0788    0.96758 
 Cl                   -3.27086  -2.09707   0.98856 
 Cl                    0.7702    4.80718   0.95388 
 Cl                   -1.86209  -4.75803   0.02468 
 Cl                    3.7759    4.8746   -0.0237 
 Cl                    1.14361  -4.69061  -0.95291 
 Cl                    2.74054  -1.96222  -0.96661 
 

 GradGradGradGradGradGradGradGradGradGradGradGradGradGradGradGradGradGrad
 Berny optimization.
 Initialization pass.
                           ----------------------------
                           !    Initial Parameters    !
                           ! (Angstroms and Degrees)  !
 --------------------------                            --------------------------
 ! Name  Definition              Value          Derivative Info.                !
 --------------------------------------------------------------------------------
 ! R1    R(1,2)                  1.4014         estimate D2E/DX2                !
 ! R2    R(1,6)                  1.4014         estimate D2E/DX2                !
 ! R3    R(2,3)                  1.4014         estimate D2E/DX2                !
 ! R4    R(2,13)                 1.07           estimate D2E/DX2                !
 ! R5    R(3,4)                  1.4014         estimate D2E/DX2                !
 ! R6    R(3,14)                 1.07           estimate D2E/DX2                !
 ! R7    R(4,5)                  1.4014         estimate D2E/DX2                !
 ! R8    R(4,20)                 1.76           estimate D2E/DX2                !
 ! R9    R(5,6)                  1.4014         estimate D2E/DX2                !
 ! R10   R(5,18)                 1.76           estimate D2E/DX2                !
 ! R11   R(6,16)                 1.76           estimate D2E/DX2                !
 ! R12   R(7,8)                  1.4014         estimate D2E/DX2                !
 ! R13   R(7,12)                 1.4014         estimate D2E/DX2                !
 ! R14   R(8,9)                  1.4014         estimate D2E/DX2                !
 ! R15   R(8,22)                 1.76           estimate D2E/DX2                !
 ! R16   R(9,10)                 1.4014         estimate D2E/DX2                !
 ! R17   R(9,21)                 1.76           estimate D2E/DX2                !
 ! R18   R(10,11)                1.4014         estimate D2E/DX2                !
 ! R19   R(10,19)                1.76           estimate D2E/DX2                !
 ! R20   R(11,12)                1.4014         estimate D2E/DX2                !
 ! R21   R(11,17)                1.76           estimate D2E/DX2                !
 ! R22   R(12,15)                1.76           estimate D2E/DX2                !
 ! R23   R(15,16)                1.6772         estimate D2E/DX2                !
 ! A1    A(2,1,6)              120.0            estimate D2E/DX2                !
 ! A2    A(1,2,3)              120.0            estimate D2E/DX2                !
 ! A3    A(1,2,13)             120.0            estimate D2E/DX2                !
 ! A4    A(3,2,13)             120.0            estimate D2E/DX2                !
 ! A5    A(2,3,4)              120.0            estimate D2E/DX2                !
 ! A6    A(2,3,14)             120.0            estimate D2E/DX2                !
 ! A7    A(4,3,14)             120.0            estimate D2E/DX2                !
 ! A8    A(3,4,5)              120.0            estimate D2E/DX2                !
 ! A9    A(3,4,20)             120.0            estimate D2E/DX2                !
 ! A10   A(5,4,20)             120.0            estimate D2E/DX2                !
 ! A11   A(4,5,6)              120.0            estimate D2E/DX2                !
 ! A12   A(4,5,18)             120.0            estimate D2E/DX2                !
 ! A13   A(6,5,18)             120.0            estimate D2E/DX2                !
 ! A14   A(1,6,5)              120.0            estimate D2E/DX2                !
 ! A15   A(1,6,16)             120.0            estimate D2E/DX2                !
 ! A16   A(5,6,16)             120.0            estimate D2E/DX2                !
 ! A17   A(8,7,12)             120.0            estimate D2E/DX2                !
 ! A18   A(7,8,9)              120.0            estimate D2E/DX2                !
 ! A19   A(7,8,22)             120.0            estimate D2E/DX2                !
 ! A20   A(9,8,22)             120.0            estimate D2E/DX2                !
 ! A21   A(8,9,10)             120.0            estimate D2E/DX2                !
 ! A22   A(8,9,21)             120.0            estimate D2E/DX2                !
 ! A23   A(10,9,21)            120.0            estimate D2E/DX2                !
 ! A24   A(9,10,11)            120.0            estimate D2E/DX2                !
 ! A25   A(9,10,19)            120.0            estimate D2E/DX2                !
 ! A26   A(11,10,19)           120.0            estimate D2E/DX2                !
 ! A27   A(10,11,12)           120.0            estimate D2E/DX2                !
 ! A28   A(10,11,17)           120.0            estimate D2E/DX2                !
 ! A29   A(12,11,17)           120.0            estimate D2E/DX2                !
 ! A30   A(7,12,11)            120.0            estimate D2E/DX2                !
 ! A31   A(7,12,15)            120.0            estimate D2E/DX2                !
 ! A32   A(11,12,15)           120.0            estimate D2E/DX2                !
 ! A33   A(12,15,16)           120.0            estimate D2E/DX2                !
 ! A34   A(6,16,15)            120.0            estimate D2E/DX2                !
 ! D1    D(6,1,2,3)              0.0001         estimate D2E/DX2                !
 ! D2    D(6,1,2,13)           180.0            estimate D2E/DX2                !
 ! D3    D(2,1,6,5)             -0.0001         estimate D2E/DX2                !
 ! D4    D(2,1,6,16)           180.0            estimate D2E/DX2                !
 ! D5    D(1,2,3,4)              0.0            estimate D2E/DX2                !
 ! D6    D(1,2,3,14)           180.0            estimate D2E/DX2                !
 ! D7    D(13,2,3,4)          -179.9999         estimate D2E/DX2                !
 ! D8    D(13,2,3,14)            0.0001         estimate D2E/DX2                !
 ! D9    D(2,3,4,5)             -0.0001         estimate D2E/DX2                !
 ! D10   D(2,3,4,20)           180.0            estimate D2E/DX2                !
 ! D11   D(14,3,4,5)           179.9999         estimate D2E/DX2                !
 ! D12   D(14,3,4,20)            0.0            estimate D2E/DX2                !
 ! D13   D(3,4,5,6)              0.0001         estimate D2E/DX2                !
 ! D14   D(3,4,5,18)          -179.9999         estimate D2E/DX2                !
 ! D15   D(20,4,5,6)          -180.0            estimate D2E/DX2                !
 ! D16   D(20,4,5,18)            0.0            estimate D2E/DX2                !
 ! D17   D(4,5,6,1)              0.0            estimate D2E/DX2                !
 ! D18   D(4,5,6,16)           179.9999         estimate D2E/DX2                !
 ! D19   D(18,5,6,1)           180.0            estimate D2E/DX2                !
 ! D20   D(18,5,6,16)           -0.0001         estimate D2E/DX2                !
 ! D21   D(1,6,16,15)            0.0004         estimate D2E/DX2                !
 ! D22   D(5,6,16,15)         -179.9996         estimate D2E/DX2                !
 ! D23   D(12,7,8,9)             0.0001         estimate D2E/DX2                !
 ! D24   D(12,7,8,22)         -179.9998         estimate D2E/DX2                !
 ! D25   D(8,7,12,11)           -0.0001         estimate D2E/DX2                !
 ! D26   D(8,7,12,15)          179.9999         estimate D2E/DX2                !
 ! D27   D(7,8,9,10)             0.0            estimate D2E/DX2                !
 ! D28   D(7,8,9,21)           180.0            estimate D2E/DX2                !
 ! D29   D(22,8,9,10)          179.9998         estimate D2E/DX2                !
 ! D30   D(22,8,9,21)           -0.0002         estimate D2E/DX2                !
 ! D31   D(8,9,10,11)            0.0            estimate D2E/DX2                !
 ! D32   D(8,9,10,19)         -179.9999         estimate D2E/DX2                !
 ! D33   D(21,9,10,11)         180.0            estimate D2E/DX2                !
 ! D34   D(21,9,10,19)           0.0001         estimate D2E/DX2                !
 ! D35   D(9,10,11,12)           0.0            estimate D2E/DX2                !
 ! D36   D(9,10,11,17)        -179.9998         estimate D2E/DX2                !
 ! D37   D(19,10,11,12)        179.9999         estimate D2E/DX2                !
 ! D38   D(19,10,11,17)          0.0001         estimate D2E/DX2                !
 ! D39   D(10,11,12,7)           0.0            estimate D2E/DX2                !
 ! D40   D(10,11,12,15)       -179.9999         estimate D2E/DX2                !
 ! D41   D(17,11,12,7)         179.9999         estimate D2E/DX2                !
 ! D42   D(17,11,12,15)         -0.0001         estimate D2E/DX2                !
 ! D43   D(7,12,15,16)           0.0004         estimate D2E/DX2                !
 ! D44   D(11,12,15,16)       -179.9997         estimate D2E/DX2                !
 ! D45   D(12,15,16,6)          -0.0006         estimate D2E/DX2                !
 --------------------------------------------------------------------------------
 Trust Radius=3.00D-01 FncErr=1.00D-07 GrdErr=1.00D-06 EigMax=2.50D+02 EigMin=1.00D-04
 Number of steps in this run=    112 maximum allowed number of steps=    132.
 GradGradGradGradGradGradGradGradGradGradGradGradGradGradGradGradGradGrad

                          Input orientation:                          
 ---------------------------------------------------------------------
 Center     Atomic      Atomic             Coordinates (Angstroms)
 Number     Number       Type             X           Y           Z
 ---------------------------------------------------------------------
      1          6           0        1.471081    0.936765   -0.003925
      2          6           0        2.803462    0.966651   -0.437272
      3          6           0        3.511356    2.176102   -0.443344
      4          6           0        2.886869    3.355667   -0.016069
      5          6           0        1.554487    3.325781    0.417275
      6          6           0        0.846593    2.116330    0.423348
      7          6           0        0.442731   -0.820193    0.004897
      8          6           0        1.067219   -1.999758   -0.422378
      9          6           0        0.359326   -3.209209   -0.416303
     10          6           0       -0.973054   -3.239096    0.017046
     11          6           0       -1.597541   -2.059531    0.444322
     12          6           0       -0.889648   -0.850080    0.438247
     13          1           0        3.280273    0.066026   -0.763504
     14          1           0        4.528659    2.198920   -0.774214
     15         17           0       -1.673933    0.631320    0.974859
     16         17           0       -0.826727    2.078797    0.967581
     17         17           0       -3.270859   -2.097066    0.988564
     18         17           0        0.770200    4.807182    0.953881
     19         17           0       -1.862087   -4.758031    0.024678
     20         17           0        3.775903    4.874600   -0.023695
     21         17           0        1.143611   -4.690610   -0.952913
     22         17           0        2.740539   -1.962225   -0.966612
 ---------------------------------------------------------------------
                    Distance matrix (angstroms):
                    1          2          3          4          5
     1  C    0.000000
     2  C    1.401400   0.000000
     3  C    2.427296   1.401400   0.000000
     4  C    2.802800   2.427296   1.401400   0.000000
     5  C    2.427296   2.802800   2.427296   1.401400   0.000000
     6  C    1.401400   2.427296   2.802800   2.427296   1.401400
     7  C    2.035800   2.993555   4.312210   4.838600   4.312210
     8  C    2.993555   3.437200   4.838600   5.670695   5.413300
     9  C    4.312210   4.838600   6.240000   7.046010   6.695474
    10  C    4.838600   5.670695   7.046010   7.641400   7.046010
    11  C    4.312210   5.413300   6.695474   7.046010   6.240000
    12  C    2.993555   4.207863   5.413300   5.670695   4.838600
    13  H    2.146700   1.070000   2.146700   3.396345   3.872800
    14  H    3.396345   2.146700   1.070000   2.146700   3.396345
    15  Cl   3.307934   4.706764   5.593288   5.404157   4.241900
    16  Cl   2.743718   4.048303   4.562800   4.048303   2.743718
    17  Cl   5.716219   6.951025   8.143019   8.286084   7.281319
    18  Cl   4.048303   4.562800   4.048303   2.743718   1.760000
    19  Cl   6.598600   7.399508   8.784937   9.401400   8.784937
    20  Cl   4.562800   4.048303   2.743718   1.760000   2.743718
    21  Cl   5.716219   5.918242   7.281319   8.286084   8.143019
    22  Cl   3.307934   2.976990   4.241900   5.404157   5.593288
                    6          7          8          9         10
     6  C    0.000000
     7  C    2.993555   0.000000
     8  C    4.207863   1.401400   0.000000
     9  C    5.413300   2.427296   1.401400   0.000000
    10  C    5.670695   2.802800   2.427296   1.401400   0.000000
    11  C    4.838600   2.427296   2.802800   2.427296   1.401400
    12  C    3.437200   1.401400   2.427296   2.802800   2.427296
    13  H    3.396345   3.070418   3.046546   4.402232   5.442783
    14  H    3.872800   5.139733   5.452912   6.838077   7.776050
    15  Cl   2.976990   2.743718   4.048303   4.562800   4.048303
    16  Cl   1.760000   3.307934   4.706764   5.593288   5.404157
    17  Cl   5.918242   4.048303   4.562800   4.048303   2.743718
    18  Cl   2.743718   5.716219   6.951025   8.143019   8.286084
    19  Cl   7.399508   4.562800   4.048303   2.743718   1.760000
    20  Cl   4.048303   6.598600   7.399508   8.784937   9.401400
    21  Cl   6.951025   4.048303   2.743718   1.760000   2.743718
    22  Cl   4.706764   2.743718   1.760000   2.743718   4.048303
                   11         12         13         14         15
    11  C    0.000000
    12  C    1.401400   0.000000
    13  H    5.456181   4.435279   0.000000
    14  H    7.559733   6.334391   2.471400   0.000000
    15  Cl   2.743718   1.760000   5.280684   6.632403   0.000000
    16  Cl   4.241900   2.976990   4.890333   5.632800   1.677200
    17  Cl   1.760000   2.743718   7.118008   9.077189   3.161400
    18  Cl   7.281319   5.918242   5.632800   4.890332   4.838600
    19  Cl   2.743718   4.048303   7.094830   9.480455   5.475705
    20  Cl   8.784937   7.399508   4.890332   2.879094   6.978771
    21  Cl   4.048303   4.562800   5.217929   7.678288   6.322800
    22  Cl   4.562800   4.048303   2.108641   4.533157   5.475705
                   16         17         18         19         20
    16  Cl   0.000000
    17  Cl   4.838600   0.000000
    18  Cl   3.161400   8.000000   0.000000
    19  Cl   6.978771   3.161400   9.964218   0.000000
    20  Cl   5.475705   9.964218   3.161400  11.161400   0.000000
    21  Cl   7.307216   5.475705   9.694501   3.161400   9.964218
    22  Cl   5.726810   6.322800   7.307216   5.475705   6.978771
                   21         22
    21  Cl   0.000000
    22  Cl   3.161400   0.000000
 Stoichiometry    C12H2Cl8
 Framework group  C1[X(C12H2Cl8)]
 Deg. of freedom    60
 Full point group                 C1      NOp   1
 Largest Abelian subgroup         C1      NOp   1
 Largest concise Abelian subgroup C1      NOp   1
                         Standard orientation:                         
 ---------------------------------------------------------------------
 Center     Atomic      Atomic             Coordinates (Angstroms)
 Number     Number       Type             X           Y           Z
 ---------------------------------------------------------------------
      1          6           0       -1.306755    0.627504   -0.000001
      2          6           0       -1.816064    1.933079    0.000001
      3          6           0       -3.201379    2.144792    0.000003
      4          6           0       -4.077386    1.050930    0.000003
      5          6           0       -3.568077   -0.254645   -0.000001
      6          6           0       -2.182761   -0.466358   -0.000003
      7          6           0        0.705680    0.319951   -0.000002
      8          6           0        1.581686    1.413813   -0.000003
      9          6           0        2.967002    1.202100   -0.000002
     10          6           0        3.476311   -0.103475   -0.000001
     11          6           0        2.600305   -1.197337   -0.000000
     12          6           0        1.214989   -0.985624   -0.000001
     13          1           0       -1.147213    2.768267    0.000003
     14          1           0       -3.590248    3.141628    0.000005
     15         17           0        0.114824   -2.359391    0.000003
     16         17           0       -1.543127   -2.106013   -0.000006
     17         17           0        3.239939   -2.836992    0.000006
     18         17           0       -4.668242   -1.628412   -0.000004
     19         17           0        5.216111   -0.369362    0.000002
     20         17           0       -5.817186    1.316818    0.000006
     21         17           0        4.067167    2.575867   -0.000003
     22         17           0        0.942052    3.053468   -0.000000
 ---------------------------------------------------------------------
 Rotational constants (GHZ):           0.3244271           0.1021081           0.0776645
 Standard basis: 6-311+G(d,p) (5D, 7F)
 There are   536 symmetry adapted cartesian basis functions of A   symmetry.
 There are   516 symmetry adapted basis functions of A   symmetry.
   516 basis functions,   872 primitive gaussians,   536 cartesian basis functions
   105 alpha electrons      105 beta electrons
       nuclear repulsion energy      2687.3503708235 Hartrees.
 NAtoms=   22 NActive=   22 NUniq=   22 SFac= 1.00D+00 NAtFMM=   60 NAOKFM=F Big=F
 Integral buffers will be    131072 words long.
 Raffenetti 2 integral format.
 Two-electron integral symmetry is turned on.
 One-electron integrals computed using PRISM.
 NBasis=   516 RedAO= T EigKep=  1.28D-06  NBF=   516
 NBsUse=   509 1.00D-06 EigRej=  7.83D-07 NBFU=   509
 ExpMin= 4.38D-02 ExpMax= 1.06D+05 ExpMxC= 3.62D+03 IAcc=3 IRadAn=         5 AccDes= 0.00D+00
 Harris functional with IExCor=  402 and IRadAn=       5 diagonalized for initial guess.
 HarFok:  IExCor=  402 AccDes= 0.00D+00 IRadAn=         5 IDoV= 1 UseB2=F ITyADJ=14
 ICtDFT=  3500011 ScaDFX=  1.000000  1.000000  1.000000  1.000000
 FoFCou: FMM=F IPFlag=           0 FMFlag=      100000 FMFlg1=           0
         NFxFlg=           0 DoJE=T BraDBF=F KetDBF=T FulRan=T
         wScrn=  0.000000 ICntrl=       500 IOpCl=  0 I1Cent=   200000004 NGrid=           0
         NMat0=    1 NMatS0=      1 NMatT0=    0 NMatD0=    1 NMtDS0=    0 NMtDT0=    0
 Petite list used in FoFCou.
 Requested convergence on RMS density matrix=1.00D-08 within  32 cycles.
 Requested convergence on MAX density matrix=1.00D-06.
 Requested convergence on             energy=1.00D-06.
 No special actions if energy rises.
 EnCoef did     4 forward-backward iterations
 EnCoef did     4 forward-backward iterations
 EnCoef did     7 forward-backward iterations
 EnCoef did     7 forward-backward iterations
 Restarting incremental Fock formation.
 SCF Done:  E(RB3LYP) =  -4139.79843403     A.U. after   27 cycles
            NFock= 27  Conv=0.23D-08     -V/T= 2.0021
 QCSCF skips out because SCF is already converged.

 **********************************************************************

            Population analysis using the SCF Density.

 **********************************************************************

 Orbital symmetries:
       Occupied  (A) (A) (A) (A) (A) (A) (A) (A) (A) (A) (A) (A)
                 (A) (A) (A) (A) (A) (A) (A) (A) (A) (A) (A) (A)
                 (A) (A) (A) (A) (A) (A) (A) (A) (A) (A) (A) (A)
                 (A) (A) (A) (A) (A) (A) (A) (A) (A) (A) (A) (A)
                 (A) (A) (A) (A) (A) (A) (A) (A) (A) (A) (A) (A)
                 (A) (A) (A) (A) (A) (A) (A) (A) (A) (A) (A) (A)
                 (A) (A) (A) (A) (A) (A) (A) (A) (A) (A) (A) (A)
                 (A) (A) (A) (A) (A) (A) (A) (A) (A) (A) (A) (A)
                 (A) (A) (A) (A) (A) (A) (A) (A) (A)
       Virtual   (A) (A) (A) (A) (A) (A) (A) (A) (A) (A) (A) (A)
                 (A) (A) (A) (A) (A) (A) (A) (A) (A) (A) (A) (A)
                 (A) (A) (A) (A) (A) (A) (A) (A) (A) (A) (A) (A)
                 (A) (A) (A) (A) (A) (A) (A) (A) (A) (A) (A) (A)
                 (A) (A) (A) (A) (A) (A) (A) (A) (A) (A) (A) (A)
                 (A) (A) (A) (A) (A) (A) (A) (A) (A) (A) (A) (A)
                 (A) (A) (A) (A) (A) (A) (A) (A) (A) (A) (A) (A)
                 (A) (A) (A) (A) (A) (A) (A) (A) (A) (A) (A) (A)
                 (A) (A) (A) (A) (A) (A) (A) (A) (A) (A) (A) (A)
                 (A) (A) (A) (A) (A) (A) (A) (A) (A) (A) (A) (A)
                 (A) (A) (A) (A) (A) (A) (A) (A) (A) (A) (A) (A)
                 (A) (A) (A) (A) (A) (A) (A) (A) (A) (A) (A) (A)
                 (A) (A) (A) (A) (A) (A) (A) (A) (A) (A) (A) (A)
                 (A) (A) (A) (A) (A) (A) (A) (A) (A) (A) (A) (A)
                 (A) (A) (A) (A) (A) (A) (A) (A) (A) (A) (A) (A)
                 (A) (A) (A) (A) (A) (A) (A) (A) (A) (A) (A) (A)
                 (A) (A) (A) (A) (A) (A) (A) (A) (A) (A) (A) (A)
                 (A) (A) (A) (A) (A) (A) (A) (A) (A) (A) (A) (A)
                 (A) (A) (A) (A) (A) (A) (A) (A) (A) (A) (A) (A)
                 (A) (A) (A) (A) (A) (A) (A) (A) (A) (A) (A) (A)
                 (A) (A) (A) (A) (A) (A) (A) (A) (A) (A) (A) (A)
                 (A) (A) (A) (A) (A) (A) (A) (A) (A) (A) (A) (A)
                 (A) (A) (A) (A) (A) (A) (A) (A) (A) (A) (A) (A)
                 (A) (A) (A) (A) (A) (A) (A) (A) (A) (A) (A) (A)
                 (A) (A) (A) (A) (A) (A) (A) (A) (A) (A) (A) (A)
                 (A) (A) (A) (A) (A) (A) (A) (A) (A) (A) (A) (A)
                 (A) (A) (A) (A) (A) (A) (A) (A) (A) (A) (A) (A)
                 (A) (A) (A) (A) (A) (A) (A) (A) (A) (A) (A) (A)
                 (A) (A) (A) (A) (A) (A) (A) (A) (A) (A) (A) (A)
                 (A) (A) (A) (A) (A) (A) (A) (A) (A) (A) (A) (A)
                 (A) (A) (A) (A) (A) (A) (A) (A) (A) (A) (A) (A)
                 (A) (A) (A) (A) (A) (A) (A) (A) (A) (A) (A) (A)
                 (A) (A) (A) (A) (A) (A) (A) (A) (A) (A) (A) (A)
                 (A) (A) (A) (A) (A) (A) (A) (A)
 The electronic state is 1-A.
 Alpha  occ. eigenvalues -- -101.64537-101.63828-101.57798-101.57654-101.57493
 Alpha  occ. eigenvalues -- -101.57272-101.57196-101.56865 -10.29038 -10.28987
 Alpha  occ. eigenvalues --  -10.28299 -10.28096 -10.28019 -10.27832 -10.27736
 Alpha  occ. eigenvalues --  -10.26872 -10.25079 -10.24469 -10.22179 -10.21361
 Alpha  occ. eigenvalues --   -9.57149  -9.56521  -9.49278  -9.49085  -9.49049
 Alpha  occ. eigenvalues --   -9.48706  -9.48698  -9.48318  -7.33761  -7.33260
 Alpha  occ. eigenvalues --   -7.32554  -7.32161  -7.31831  -7.31436  -7.25766
 Alpha  occ. eigenvalues --   -7.25578  -7.25510  -7.25208  -7.25161  -7.24809
 Alpha  occ. eigenvalues --   -7.24759  -7.24686  -7.24564  -7.24528  -7.24504
 Alpha  occ. eigenvalues --   -7.24467  -7.24194  -7.24183  -7.24123  -7.24106
 Alpha  occ. eigenvalues --   -7.23808  -7.23721  -1.13156  -0.95610  -0.94771
 Alpha  occ. eigenvalues --   -0.91328  -0.89837  -0.88523  -0.87369  -0.86057
 Alpha  occ. eigenvalues --   -0.85570  -0.83913  -0.78968  -0.76323  -0.74791
 Alpha  occ. eigenvalues --   -0.74542  -0.68730  -0.64226  -0.63177  -0.61969
 Alpha  occ. eigenvalues --   -0.59271  -0.56636  -0.53613  -0.53604  -0.52240
 Alpha  occ. eigenvalues --   -0.51699  -0.50845  -0.48580  -0.47181  -0.46225
 Alpha  occ. eigenvalues --   -0.45906  -0.45410  -0.44837  -0.44052  -0.42703
 Alpha  occ. eigenvalues --   -0.41592  -0.40170  -0.38659  -0.37393  -0.36940
 Alpha  occ. eigenvalues --   -0.36506  -0.35388  -0.35165  -0.35054  -0.34629
 Alpha  occ. eigenvalues --   -0.34086  -0.33005  -0.32998  -0.32618  -0.30905
 Alpha  occ. eigenvalues --   -0.29047  -0.27998  -0.26751  -0.26364  -0.14050
 Alpha virt. eigenvalues --   -0.10668  -0.07579  -0.07190  -0.06350  -0.05568
 Alpha virt. eigenvalues --   -0.03804  -0.02818  -0.01945  -0.01714  -0.00693
 Alpha virt. eigenvalues --    0.00515   0.00920   0.01690   0.02123   0.02492
 Alpha virt. eigenvalues --    0.02962   0.03240   0.04004   0.04234   0.05208
 Alpha virt. eigenvalues --    0.05236   0.05591   0.06251   0.06346   0.06506
 Alpha virt. eigenvalues --    0.07199   0.07313   0.07370   0.08180   0.08258
 Alpha virt. eigenvalues --    0.08909   0.09018   0.09050   0.09134   0.09638
 Alpha virt. eigenvalues --    0.09937   0.10284   0.10734   0.11463   0.11709
 Alpha virt. eigenvalues --    0.12009   0.12572   0.12861   0.13021   0.13110
 Alpha virt. eigenvalues --    0.13800   0.14024   0.14258   0.14795   0.14962
 Alpha virt. eigenvalues --    0.14972   0.15318   0.15697   0.16519   0.16820
 Alpha virt. eigenvalues --    0.16923   0.17615   0.18102   0.18206   0.18578
 Alpha virt. eigenvalues --    0.18858   0.19905   0.20109   0.20374   0.20589
 Alpha virt. eigenvalues --    0.20704   0.20839   0.21487   0.21892   0.22634
 Alpha virt. eigenvalues --    0.22968   0.23065   0.23486   0.24264   0.24497
 Alpha virt. eigenvalues --    0.25206   0.25398   0.25739   0.26051   0.26339
 Alpha virt. eigenvalues --    0.26517   0.27603   0.27661   0.27685   0.28685
 Alpha virt. eigenvalues --    0.28965   0.29131   0.29725   0.30052   0.30850
 Alpha virt. eigenvalues --    0.31661   0.32620   0.32720   0.33718   0.34186
 Alpha virt. eigenvalues --    0.34507   0.35063   0.37285   0.39184   0.39280
 Alpha virt. eigenvalues --    0.40272   0.40625   0.41629   0.41914   0.42166
 Alpha virt. eigenvalues --    0.43002   0.43604   0.43809   0.43966   0.44559
 Alpha virt. eigenvalues --    0.45035   0.45854   0.45942   0.46512   0.46805
 Alpha virt. eigenvalues --    0.46818   0.47486   0.48165   0.48650   0.48830
 Alpha virt. eigenvalues --    0.48922   0.49738   0.50577   0.50872   0.52011
 Alpha virt. eigenvalues --    0.52118   0.52314   0.53904   0.54582   0.56083
 Alpha virt. eigenvalues --    0.56319   0.56808   0.57678   0.57917   0.58420
 Alpha virt. eigenvalues --    0.58703   0.59583   0.59704   0.60555   0.60604
 Alpha virt. eigenvalues --    0.61060   0.61435   0.61500   0.63875   0.63987
 Alpha virt. eigenvalues --    0.64340   0.65035   0.67072   0.68343   0.68706
 Alpha virt. eigenvalues --    0.69167   0.70987   0.74536   0.75422   0.75761
 Alpha virt. eigenvalues --    0.78019   0.79242   0.79686   0.80769   0.81206
 Alpha virt. eigenvalues --    0.81691   0.82462   0.82503   0.83633   0.83884
 Alpha virt. eigenvalues --    0.84323   0.84325   0.84687   0.85073   0.85084
 Alpha virt. eigenvalues --    0.85157   0.85509   0.86019   0.86526   0.86844
 Alpha virt. eigenvalues --    0.87176   0.87806   0.88152   0.88261   0.88561
 Alpha virt. eigenvalues --    0.89486   0.90427   0.91101   0.92281   0.92785
 Alpha virt. eigenvalues --    0.93011   0.93081   0.93352   0.94141   0.94635
 Alpha virt. eigenvalues --    0.94956   0.95169   0.95229   0.95438   0.95577
 Alpha virt. eigenvalues --    0.96525   0.97726   0.99028   0.99337   1.00146
 Alpha virt. eigenvalues --    1.00452   1.01444   1.03267   1.03808   1.04299
 Alpha virt. eigenvalues --    1.04335   1.06354   1.09539   1.10816   1.12717
 Alpha virt. eigenvalues --    1.15022   1.16532   1.17752   1.20100   1.20248
 Alpha virt. eigenvalues --    1.20576   1.20994   1.22741   1.23718   1.24409
 Alpha virt. eigenvalues --    1.25095   1.25555   1.26608   1.27083   1.27168
 Alpha virt. eigenvalues --    1.28105   1.28208   1.29078   1.29456   1.30200
 Alpha virt. eigenvalues --    1.30534   1.31946   1.35053   1.40047   1.44846
 Alpha virt. eigenvalues --    1.47275   1.48118   1.49315   1.50084   1.51728
 Alpha virt. eigenvalues --    1.53047   1.55674   1.59885   1.63059   1.64255
 Alpha virt. eigenvalues --    1.64974   1.65875   1.67924   1.71248   1.73873
 Alpha virt. eigenvalues --    1.74893   1.75140   1.78172   1.80571   1.82205
 Alpha virt. eigenvalues --    1.82905   1.83298   1.84991   1.85072   1.85231
 Alpha virt. eigenvalues --    1.85759   1.85961   1.86444   1.87564   1.93705
 Alpha virt. eigenvalues --    1.94722   1.95498   1.98753   2.03066   2.12325
 Alpha virt. eigenvalues --    2.13513   2.13551   2.16045   2.18134   2.19650
 Alpha virt. eigenvalues --    2.21751   2.22102   2.22664   2.23855   2.23896
 Alpha virt. eigenvalues --    2.25552   2.25706   2.26801   2.27498   2.28404
 Alpha virt. eigenvalues --    2.29755   2.30014   2.32311   2.32398   2.32936
 Alpha virt. eigenvalues --    2.35617   2.35867   2.37654   2.40562   2.42480
 Alpha virt. eigenvalues --    2.42628   2.43455   2.44457   2.45173   2.49096
 Alpha virt. eigenvalues --    2.50725   2.52571   2.53811   2.56135   2.57357
 Alpha virt. eigenvalues --    2.58342   2.59569   2.60007   2.61157   2.61993
 Alpha virt. eigenvalues --    2.65784   2.69160   2.71444   2.72265   2.72928
 Alpha virt. eigenvalues --    2.73430   2.75578   2.76723   2.77959   2.79248
 Alpha virt. eigenvalues --    2.83799   2.85167   2.85903   2.86916   2.87292
 Alpha virt. eigenvalues --    3.04532   3.06436   3.06811   3.08762   3.10399
 Alpha virt. eigenvalues --    3.13432   3.14371   3.14512   3.17913   3.21518
 Alpha virt. eigenvalues --    3.22908   3.26566   3.31936   3.37033   3.40622
 Alpha virt. eigenvalues --    3.49974   3.51501   3.61567   3.67904   3.69949
 Alpha virt. eigenvalues --    3.80594   3.89816   3.92511   4.03741   4.09555
 Alpha virt. eigenvalues --    4.79751   4.80497   9.66430   9.74510   9.75831
 Alpha virt. eigenvalues --    9.79298   9.79814   9.80921   9.84071   9.96909
 Alpha virt. eigenvalues --   23.21979  23.34842  23.77657  23.78718  23.80999
 Alpha virt. eigenvalues --   23.85752  23.92857  23.93652  23.95134  23.97392
 Alpha virt. eigenvalues --   24.00137  24.09345  25.72726  25.75905  25.77490
 Alpha virt. eigenvalues --   25.79864  25.83539  25.86031  25.90535  25.98643
 Alpha virt. eigenvalues --   26.07815  26.10508  26.12325  26.14417  26.21207
 Alpha virt. eigenvalues --   26.21675  26.35992  26.48876  26.50454  26.57403
 Alpha virt. eigenvalues --   26.68384  26.73833  26.85238  26.96680  26.99137
 Alpha virt. eigenvalues --   27.07105 215.66899 215.73888 215.75992 215.79190
 Alpha virt. eigenvalues --  215.79902 215.80938 215.84645 216.03185
          Condensed to atoms (all electrons):
               1          2          3          4          5          6
     1  C   27.817423  -5.119226  -0.504891   1.368653  -4.333404   1.491387
     2  C   -5.119226  19.240878   0.155358  -1.554961   0.463400  -5.546105
     3  C   -0.504891   0.155358  16.787881  -0.065661 -10.275783   0.245787
     4  C    1.368653  -1.554961  -0.065661  22.133123  -8.161401  -5.398207
     5  C   -4.333404   0.463400 -10.275783  -8.161401  31.443068  -1.298264
     6  C    1.491387  -5.546105   0.245787  -5.398207  -1.298264  25.985726
     7  C    6.077652  -1.210555   0.050439   0.104265  -3.638652  -3.008715
     8  C   -2.469473   1.433523  -0.161776   0.399142  -0.054958  -1.049233
     9  C   -5.330983  -0.439870   0.383196  -0.052271  -0.564009  -0.146414
    10  C    0.356134   0.323322   0.119712   0.022371  -0.082288  -0.241498
    11  C   -3.696016   0.520973  -0.232281   0.023640   0.173704   0.801428
    12  C   -3.753345  -2.452931  -0.144207  -0.896883   0.466751  -2.833522
    13  H    0.045421   0.297601  -0.023678  -0.031242  -0.025735   0.039005
    14  H   -0.018973  -0.039212   0.295633   0.038226  -0.000614   0.062654
    15  Cl   2.016866   0.276044   0.120892   1.938552  -3.658290  11.965535
    16  Cl  -5.856200   0.032333  -0.189058  -2.191056   5.841505 -14.308981
    17  Cl  -0.103861   0.024974  -0.002539   0.010252   0.019418  -0.204656
    18  Cl  -0.825375   0.363184   0.329243  -1.304733  -0.597184   1.105156
    19  Cl  -0.114759   0.009710   0.001908   0.000433  -0.004969   0.007048
    20  Cl  -0.259338  -0.142975  -0.045023  -0.751778   0.787403  -0.252231
    21  Cl  -0.141990  -0.056602   0.002789  -0.008460  -0.000712  -0.015532
    22  Cl  -0.069372  -0.134036  -0.525565  -0.052596   0.136000  -0.017720
               7          8          9         10         11         12
     1  C    6.077652  -2.469473  -5.330983   0.356134  -3.696016  -3.753345
     2  C   -1.210555   1.433523  -0.439870   0.323322   0.520973  -2.452931
     3  C    0.050439  -0.161776   0.383196   0.119712  -0.232281  -0.144207
     4  C    0.104265   0.399142  -0.052271   0.022371   0.023640  -0.896883
     5  C   -3.638652  -0.054958  -0.564009  -0.082288   0.173704   0.466751
     6  C   -3.008715  -1.049233  -0.146414  -0.241498   0.801428  -2.833522
     7  C   32.835355  -3.069602  -7.317593   8.734467  -9.187800  -4.572906
     8  C   -3.069602  15.879605  -0.611202  -5.687989   4.846817  -1.332703
     9  C   -7.317593  -0.611202  19.242285  -6.461384   0.402621   6.855874
    10  C    8.734467  -5.687989  -6.461384  24.256162  -5.237131  -6.430413
    11  C   -9.187800   4.846817   0.402621  -5.237131  18.452751  -3.789517
    12  C   -4.572906  -1.332703   6.855874  -6.430413  -3.789517  30.095472
    13  H    0.036563   0.027371  -0.002555   0.005252  -0.009376  -0.003543
    14  H   -0.005938   0.003398   0.000003   0.000034   0.000407  -0.000083
    15  Cl -10.697697  -1.811983   0.476732  -3.542515   6.324005 -18.624567
    16  Cl   4.341378   0.698817  -0.149730   1.363085  -2.877779  13.490156
    17  Cl  -0.729195   0.750160   0.062782  -0.197138  -0.842668   0.529996
    18  Cl  -0.105799  -0.079767  -0.000418  -0.008613  -0.029167  -0.002761
    19  Cl  -0.084824  -0.734098  -0.143110   0.021691   0.269742  -0.296979
    20  Cl  -0.085820  -0.000561  -0.002606  -0.000230  -0.000725  -0.007708
    21  Cl  -1.178696   0.494930  -0.123033  -0.696667  -0.086588   0.880689
    22  Cl  -0.338578  -0.728796   0.426916  -0.465289   0.505079   0.020666
              13         14         15         16         17         18
     1  C    0.045421  -0.018973   2.016866  -5.856200  -0.103861  -0.825375
     2  C    0.297601  -0.039212   0.276044   0.032333   0.024974   0.363184
     3  C   -0.023678   0.295633   0.120892  -0.189058  -0.002539   0.329243
     4  C   -0.031242   0.038226   1.938552  -2.191056   0.010252  -1.304733
     5  C   -0.025735  -0.000614  -3.658290   5.841505   0.019418  -0.597184
     6  C    0.039005   0.062654  11.965535 -14.308981  -0.204656   1.105156
     7  C    0.036563  -0.005938 -10.697697   4.341378  -0.729195  -0.105799
     8  C    0.027371   0.003398  -1.811983   0.698817   0.750160  -0.079767
     9  C   -0.002555   0.000003   0.476732  -0.149730   0.062782  -0.000418
    10  C    0.005252   0.000034  -3.542515   1.363085  -0.197138  -0.008613
    11  C   -0.009376   0.000407   6.324005  -2.877779  -0.842668  -0.029167
    12  C   -0.003543  -0.000083 -18.624567  13.490156   0.529996  -0.002761
    13  H    0.574668  -0.008465  -0.014998   0.020729  -0.000091   0.001315
    14  H   -0.008465   0.516836  -0.004770   0.015734   0.000001  -0.001317
    15  Cl  -0.014998  -0.004770  82.834646 -50.930826  -0.703411  -0.719025
    16  Cl   0.020729   0.015734 -50.930826  66.726999  -0.269287   0.055816
    17  Cl  -0.000091   0.000001  -0.703411  -0.269287  18.317311  -0.003882
    18  Cl   0.001315  -0.001317  -0.719025   0.055816  -0.003882  18.293907
    19  Cl   0.000132  -0.000001   0.304762  -0.082718  -0.319370  -0.000118
    20  Cl  -0.000259  -0.005236  -0.022685   0.075773  -0.000037  -0.229249
    21  Cl   0.001734  -0.000020   0.074242  -0.011597  -0.017765   0.000212
    22  Cl  -0.075134  -0.000630   0.061325  -0.079546   0.025687   0.001173
              19         20         21         22
     1  C   -0.114759  -0.259338  -0.141990  -0.069372
     2  C    0.009710  -0.142975  -0.056602  -0.134036
     3  C    0.001908  -0.045023   0.002789  -0.525565
     4  C    0.000433  -0.751778  -0.008460  -0.052596
     5  C   -0.004969   0.787403  -0.000712   0.136000
     6  C    0.007048  -0.252231  -0.015532  -0.017720
     7  C   -0.084824  -0.085820  -1.178696  -0.338578
     8  C   -0.734098  -0.000561   0.494930  -0.728796
     9  C   -0.143110  -0.002606  -0.123033   0.426916
    10  C    0.021691  -0.000230  -0.696667  -0.465289
    11  C    0.269742  -0.000725  -0.086588   0.505079
    12  C   -0.296979  -0.007708   0.880689   0.020666
    13  H    0.000132  -0.000259   0.001734  -0.075134
    14  H   -0.000001  -0.005236  -0.000020  -0.000630
    15  Cl   0.304762  -0.022685   0.074242   0.061325
    16  Cl  -0.082718   0.075773  -0.011597  -0.079546
    17  Cl  -0.319370  -0.000037  -0.017765   0.025687
    18  Cl  -0.000118  -0.229249   0.000212   0.001173
    19  Cl  17.785173  -0.000002  -0.249805  -0.009418
    20  Cl  -0.000002  17.438224  -0.000026  -0.001377
    21  Cl  -0.249805  -0.000026  17.723755  -0.260113
    22  Cl  -0.009418  -0.001377  -0.260113  17.920660
 Mulliken charges:
               1
     1  C   -0.576329
     2  C   -0.444830
     3  C   -0.322378
     4  C    0.430595
     5  C   -0.634985
     6  C   -1.382650
     7  C   -0.947749
     8  C   -0.741623
     9  C   -0.505230
    10  C   -0.151076
    11  C   -0.332120
    12  C   -1.197536
    13  H    0.145285
    14  H    0.152333
    15  Cl   1.337165
    16  Cl   1.284453
    17  Cl   0.653318
    18  Cl   0.757401
    19  Cl   0.639572
    20  Cl   0.506466
    21  Cl   0.669255
    22  Cl   0.660662
 Sum of Mulliken charges =  -0.00000
 Mulliken charges with hydrogens summed into heavy atoms:
               1
     1  C   -0.576329
     2  C   -0.299544
     3  C   -0.170045
     4  C    0.430595
     5  C   -0.634985
     6  C   -1.382650
     7  C   -0.947749
     8  C   -0.741623
     9  C   -0.505230
    10  C   -0.151076
    11  C   -0.332120
    12  C   -1.197536
    15  Cl   1.337165
    16  Cl   1.284453
    17  Cl   0.653318
    18  Cl   0.757401
    19  Cl   0.639572
    20  Cl   0.506466
    21  Cl   0.669255
    22  Cl   0.660662
 Electronic spatial extent (au):  <R**2>=          11801.9869
 Charge=             -0.0000 electrons
 Dipole moment (field-independent basis, Debye):
    X=             -2.0566    Y=             -0.7324    Z=             -0.0000  Tot=              2.1831
 Quadrupole moment (field-independent basis, Debye-Ang):
   XX=           -189.6307   YY=           -162.7496   ZZ=           -170.7038
   XY=             -2.0576   XZ=             -0.0000   YZ=              0.0000
 Traceless Quadrupole moment (field-independent basis, Debye-Ang):
   XX=            -15.2694   YY=             11.6118   ZZ=              3.6576
   XY=             -2.0576   XZ=             -0.0000   YZ=              0.0000
 Octapole moment (field-independent basis, Debye-Ang**2):
  XXX=             14.4420  YYY=            -13.9850  ZZZ=              0.0000  XYY=            -28.3681
  XXY=              9.4403  XXZ=              0.0000  XZZ=              3.6695  YZZ=            -10.1638
  YYZ=              0.0000  XYZ=              0.0000
 Hexadecapole moment (field-independent basis, Debye-Ang**3):
 XXXX=         -11908.4452 YYYY=          -3546.3999 ZZZZ=           -198.9122 XXXY=             29.7865
 XXXZ=              0.0001 YYYX=              5.6547 YYYZ=              0.0002 ZZZX=              0.0001
 ZZZY=              0.0000 XXYY=          -2521.3567 XXZZ=          -1998.4280 YYZZ=           -662.6912
 XXYZ=             -0.0000 YYXZ=             -0.0001 ZZXY=             18.1861
 N-N= 2.687350370823D+03 E-N=-1.518738153124D+04  KE= 4.131112342620D+03
 Calling FoFJK, ICntrl=      2127 FMM=F ISym2X=0 I1Cent= 0 IOpClX= 0 NMat=1 NMatS=1 NMatT=0.
 ***** Axes restored to original set *****
 -------------------------------------------------------------------
 Center     Atomic                   Forces (Hartrees/Bohr)
 Number     Number              X              Y              Z
 -------------------------------------------------------------------
      1        6          -0.021490504   -0.016644285    0.003954417
      2        6          -0.008687950    0.022615895    0.007109811
      3        6          -0.016953630    0.001403372    0.005849102
      4        6           0.002196882   -0.004261458   -0.001524299
      5        6          -0.011625294   -0.000676474    0.003703111
      6        6           0.055858298   -0.003634614   -0.019085282
      7        6          -0.007348290    0.021337429    0.006428178
      8        6          -0.014621403    0.015999306    0.007822079
      9        6           0.003721025   -0.002299137   -0.001657728
     10        6          -0.004938344    0.001383395    0.001886783
     11        6           0.015320254    0.008715710   -0.003410520
     12        6           0.033276137   -0.104753581   -0.030636741
     13        1           0.002685760    0.005356297    0.000121065
     14        1           0.008863853    0.001525944   -0.002633604
     15       17          -0.260768184   -0.402105255    0.010396326
     16       17           0.228490108    0.480298243    0.014923042
     17       17          -0.006074917   -0.003722089    0.001302348
     18       17           0.003518095    0.003345358   -0.000530742
     19       17           0.001394713   -0.000706708   -0.000592223
     20       17           0.000758399   -0.005712252   -0.001322690
     21       17          -0.002585993    0.003990082    0.001601302
     22       17          -0.000989015   -0.021455180   -0.003703734
 -------------------------------------------------------------------
 Cartesian Forces:  Max     0.480298243 RMS     0.089908563

 GradGradGradGradGradGradGradGradGradGradGradGradGradGradGradGradGradGrad
 Berny optimization.
 FormGI is forming the generalized inverse of G from B-inverse, IUseBI=4.
 Internal  Forces:  Max     0.540387168 RMS     0.056404950
 Search for a local minimum.
 Step number   1 out of a maximum of  112
 All quantities printed in internal units (Hartrees-Bohrs-Radians)
 Mixed Optimization -- RFO/linear search
 Second derivative matrix not updated -- first step.
 ITU=  0
     Eigenvalues ---    0.00238   0.00238   0.01655   0.01655   0.02070
     Eigenvalues ---    0.02070   0.02070   0.02070   0.02070   0.02070
     Eigenvalues ---    0.02070   0.02070   0.02070   0.02070   0.02070
     Eigenvalues ---    0.02070   0.02070   0.02070   0.04244   0.16000
     Eigenvalues ---    0.16000   0.22422   0.24427   0.25000   0.25000
     Eigenvalues ---    0.25000   0.25000   0.25000   0.25000   0.25000
     Eigenvalues ---    0.25000   0.25000   0.25000   0.25000   0.25000
     Eigenvalues ---    0.25000   0.25000   0.29539   0.29539   0.29539
     Eigenvalues ---    0.29539   0.29539   0.29539   0.29539   0.29539
     Eigenvalues ---    0.37230   0.37230   0.41541   0.41797   0.42141
     Eigenvalues ---    0.42201   0.45389   0.45389   0.45389   0.45389
     Eigenvalues ---    0.45389   0.45389   0.45389   0.45389   1.29765
 RFO step:  Lambda=-2.51320077D-01 EMin= 2.37799039D-03
 Linear search not attempted -- first point.
 Maximum step size (   0.300) exceeded in Quadratic search.
    -- Step size scaled by   0.608
 Iteration  1 RMS(Cart)=  0.32448602 RMS(Int)=  0.00805107
 Iteration  2 RMS(Cart)=  0.03067886 RMS(Int)=  0.00009183
 Iteration  3 RMS(Cart)=  0.00026512 RMS(Int)=  0.00002206
 Iteration  4 RMS(Cart)=  0.00000001 RMS(Int)=  0.00002206
 Variable       Old X    -DE/DX   Delta X   Delta X   Delta X     New X
                                 (Linear)    (Quad)   (Total)
    R1        2.64826  -0.00399   0.00000  -0.00349  -0.00347   2.64480
    R2        2.64826  -0.01334   0.00000  -0.01131  -0.01128   2.63698
    R3        2.64826  -0.00850   0.00000  -0.00756  -0.00757   2.64069
    R4        2.02201  -0.00335   0.00000  -0.00326  -0.00326   2.01874
    R5        2.64826  -0.01890   0.00000  -0.01648  -0.01651   2.63175
    R6        2.02201   0.00927   0.00000   0.00904   0.00904   2.03105
    R7        2.64826  -0.00850   0.00000  -0.00728  -0.00730   2.64096
    R8        3.32592  -0.00454   0.00000  -0.00505  -0.00505   3.32087
    R9        2.64826  -0.00198   0.00000  -0.00147  -0.00146   2.64680
   R10        3.32592   0.00109   0.00000   0.00121   0.00121   3.32713
   R11        3.32592   0.01580   0.00000   0.01756   0.01756   3.34348
   R12        2.64826   0.01032   0.00000   0.00937   0.00939   2.65765
   R13        2.64826  -0.00726   0.00000  -0.00597  -0.00593   2.64233
   R14        2.64826  -0.00355   0.00000  -0.00287  -0.00289   2.64537
   R15        3.32592  -0.00025   0.00000  -0.00028  -0.00028   3.32564
   R16        2.64826  -0.01636   0.00000  -0.01438  -0.01442   2.63384
   R17        3.32592  -0.00500   0.00000  -0.00556  -0.00556   3.32036
   R18        2.64826  -0.01739   0.00000  -0.01545  -0.01547   2.63279
   R19        3.32592  -0.00010   0.00000  -0.00011  -0.00011   3.32581
   R20        2.64826  -0.00626   0.00000  -0.00558  -0.00556   2.64270
   R21        3.32592   0.00626   0.00000   0.00696   0.00696   3.33288
   R22        3.32592   0.08264   0.00000   0.09187   0.09187   3.41779
   R23        3.16945   0.54039   0.00000   0.21204   0.21204   3.38149
    A1        2.09440  -0.02771   0.00000  -0.03361  -0.03354   2.06086
    A2        2.09440   0.01459   0.00000   0.01815   0.01816   2.11255
    A3        2.09440  -0.00227   0.00000  -0.00165  -0.00165   2.09274
    A4        2.09440  -0.01232   0.00000  -0.01650  -0.01650   2.07789
    A5        2.09440   0.00335   0.00000   0.00343   0.00339   2.09778
    A6        2.09440  -0.00031   0.00000   0.00030   0.00032   2.09472
    A7        2.09440  -0.00304   0.00000  -0.00373  -0.00371   2.09069
    A8        2.09440  -0.00509   0.00000  -0.00660  -0.00665   2.08774
    A9        2.09440  -0.00375   0.00000  -0.00433  -0.00431   2.09009
   A10        2.09440   0.00884   0.00000   0.01093   0.01096   2.10536
   A11        2.09440  -0.00627   0.00000  -0.00741  -0.00742   2.08697
   A12        2.09440  -0.00478   0.00000  -0.00590  -0.00589   2.08851
   A13        2.09440   0.01105   0.00000   0.01330   0.01331   2.10771
   A14        2.09440   0.02114   0.00000   0.02603   0.02607   2.12046
   A15        2.09440  -0.01025   0.00000  -0.01262  -0.01264   2.08175
   A16        2.09440  -0.01089   0.00000  -0.01341  -0.01343   2.08097
   A17        2.09440  -0.02968   0.00000  -0.03450  -0.03441   2.05999
   A18        2.09440   0.01233   0.00000   0.01580   0.01579   2.11019
   A19        2.09440   0.03008   0.00000   0.03604   0.03604   2.13044
   A20        2.09440  -0.04240   0.00000  -0.05184  -0.05184   2.04256
   A21        2.09440   0.00492   0.00000   0.00574   0.00567   2.10007
   A22        2.09440  -0.00175   0.00000  -0.00201  -0.00198   2.09242
   A23        2.09440  -0.00317   0.00000  -0.00373  -0.00370   2.09070
   A24        2.09440  -0.01005   0.00000  -0.01334  -0.01341   2.08099
   A25        2.09440   0.00225   0.00000   0.00330   0.00334   2.09773
   A26        2.09440   0.00780   0.00000   0.01003   0.01007   2.10446
   A27        2.09440   0.00735   0.00000   0.00789   0.00788   2.10227
   A28        2.09440  -0.00974   0.00000  -0.01129  -0.01129   2.08310
   A29        2.09440   0.00239   0.00000   0.00341   0.00341   2.09781
   A30        2.09440   0.01514   0.00000   0.01841   0.01847   2.11286
   A31        2.09440   0.01656   0.00000   0.02005   0.02002   2.11442
   A32        2.09440  -0.03170   0.00000  -0.03846  -0.03849   2.05590
   A33        2.09440   0.12611   0.00000   0.15289   0.15289   2.24729
   A34        2.09440   0.01072   0.00000   0.01300   0.01300   2.10739
    D1        0.00000   0.00000   0.00000   0.00000   0.00000   0.00000
    D2        3.14159   0.00000   0.00000   0.00000   0.00000   3.14159
    D3       -0.00000  -0.00000   0.00000  -0.00000  -0.00000  -0.00000
    D4        3.14159   0.00000   0.00000   0.00000   0.00000   3.14159
    D5        0.00000  -0.00000   0.00000  -0.00000  -0.00000   0.00000
    D6        3.14159  -0.00000   0.00000  -0.00000  -0.00000   3.14159
    D7       -3.14159  -0.00000   0.00000  -0.00000  -0.00000  -3.14159
    D8        0.00000  -0.00000   0.00000  -0.00000  -0.00000   0.00000
    D9       -0.00000   0.00000   0.00000   0.00000   0.00000  -0.00000
   D10        3.14159  -0.00000   0.00000  -0.00000  -0.00000   3.14159
   D11        3.14159   0.00000   0.00000   0.00000   0.00000   3.14159
   D12        0.00000  -0.00000   0.00000  -0.00000  -0.00000   0.00000
   D13        0.00000  -0.00000   0.00000  -0.00000  -0.00000   0.00000
   D14       -3.14159  -0.00000   0.00000  -0.00000  -0.00000  -3.14159
   D15       -3.14159  -0.00000   0.00000  -0.00000  -0.00000  -3.14159
   D16        0.00000  -0.00000   0.00000  -0.00000  -0.00000   0.00000
   D17       -0.00000   0.00000   0.00000   0.00000   0.00000  -0.00000
   D18        3.14159  -0.00000   0.00000  -0.00000  -0.00000   3.14159
   D19        3.14159   0.00000   0.00000   0.00000   0.00000   3.14159
   D20       -0.00000  -0.00000   0.00000  -0.00000  -0.00000  -0.00000
   D21        0.00001  -0.00000   0.00000  -0.00000  -0.00000   0.00001
   D22       -3.14159  -0.00000   0.00000  -0.00000  -0.00000  -3.14159
   D23        0.00000   0.00000   0.00000   0.00000   0.00000   0.00000
   D24       -3.14159  -0.00000   0.00000  -0.00000  -0.00000  -3.14159
   D25       -0.00000  -0.00000   0.00000  -0.00000  -0.00000  -0.00000
   D26        3.14159   0.00000   0.00000   0.00000   0.00000   3.14159
   D27       -0.00000  -0.00000   0.00000  -0.00000  -0.00000  -0.00000
   D28        3.14159  -0.00000   0.00000  -0.00000  -0.00000   3.14159
   D29        3.14159   0.00000   0.00000   0.00000   0.00000   3.14159
   D30       -0.00000   0.00000   0.00000   0.00000   0.00000  -0.00000
   D31       -0.00000   0.00000   0.00000   0.00000   0.00000  -0.00000
   D32       -3.14159  -0.00000   0.00000  -0.00000  -0.00000  -3.14159
   D33        3.14159   0.00000   0.00000   0.00000   0.00000   3.14159
   D34        0.00000   0.00000   0.00000   0.00000   0.00000   0.00000
   D35        0.00000  -0.00000   0.00000  -0.00000  -0.00000   0.00000
   D36       -3.14159  -0.00000   0.00000  -0.00000  -0.00000  -3.14159
   D37        3.14159   0.00000   0.00000   0.00000   0.00000   3.14159
   D38        0.00000  -0.00000   0.00000  -0.00000  -0.00000   0.00000
   D39        0.00000   0.00000   0.00000   0.00000   0.00000   0.00000
   D40       -3.14159  -0.00000   0.00000  -0.00000  -0.00000  -3.14159
   D41        3.14159   0.00000   0.00000   0.00000   0.00000   3.14159
   D42       -0.00000  -0.00000   0.00000  -0.00000  -0.00000  -0.00000
   D43        0.00001  -0.00000   0.00000  -0.00000  -0.00000   0.00001
   D44       -3.14159   0.00000   0.00000   0.00000   0.00000  -3.14159
   D45       -0.00001  -0.00000   0.00000  -0.00000  -0.00000  -0.00001
         Item               Value     Threshold  Converged?
 Maximum Force            0.540387     0.000450     NO 
 RMS     Force            0.056405     0.000300     NO 
 Maximum Displacement     1.463164     0.001800     NO 
 RMS     Displacement     0.352240     0.001200     NO 
 Predicted change in Energy=-1.176391D-01
 GradGradGradGradGradGradGradGradGradGradGradGradGradGradGradGradGradGrad

                          Input orientation:                          
 ---------------------------------------------------------------------
 Center     Atomic      Atomic             Coordinates (Angstroms)
 Number     Number       Type             X           Y           Z
 ---------------------------------------------------------------------
      1          6           0        1.699896    1.163046   -0.036809
      2          6           0        3.028448    1.334029   -0.442394
      3          6           0        3.636605    2.591635   -0.406564
      4          6           0        2.923098    3.702302    0.037096
      5          6           0        1.595300    3.551916    0.446298
      6          6           0        0.998436    2.285500    0.405094
      7          6           0        0.507181   -1.201206   -0.087897
      8          6           0        0.964724   -2.472731   -0.477443
      9          6           0        0.124826   -3.590652   -0.410687
     10          6           0       -1.185647   -3.460045    0.045591
     11          6           0       -1.648934   -2.204830    0.433966
     12          6           0       -0.810033   -1.087920    0.367348
     13          1           0        3.592687    0.494500   -0.785953
     14          1           0        4.657905    2.704193   -0.721895
     15         17           0       -1.485540    0.506538    0.889356
     16         17           0       -0.683060    2.105510    0.925264
     17         17           0       -3.306668   -2.035901    1.011854
     18         17           0        0.692185    4.955272    1.007391
     19         17           0       -2.238547   -4.867879    0.128077
     20         17           0        3.699317    5.278394    0.077371
     21         17           0        0.724287   -5.166832   -0.904206
     22         17           0        2.601992   -2.736498   -1.066391
 ---------------------------------------------------------------------
                    Distance matrix (angstroms):
                    1          2          3          4          5
     1  C    0.000000
     2  C    1.399566   0.000000
     3  C    2.434836   1.397394   0.000000
     4  C    2.819487   2.418620   1.392662   0.000000
     5  C    2.439474   2.786164   2.411729   1.397537   0.000000
     6  C    1.395431   2.396765   2.777128   2.418072   1.400626
     7  C    2.648559   3.593031   4.927523   5.467784   4.905256
     8  C    3.735439   4.330313   5.726410   6.498539   6.127585
     9  C    5.021780   5.717037   7.110083   7.824194   7.342547
    10  C    5.450332   6.401553   7.751218   8.257183   7.553929
    11  C    4.772722   5.930383   7.186758   7.480320   6.607975
    12  C    3.395575   4.610364   5.823285   6.082068   5.226848
    13  H    2.142622   1.068273   2.131629   3.378721   3.854321
    14  H    3.405040   2.147231   1.074783   2.140525   3.385685
    15  Cl   3.381684   4.778535   5.680089   5.511383   4.354562
    16  Cl   2.737207   4.030008   4.546381   4.042642   2.740880
    17  Cl   6.033128   7.321541   8.463748   8.525673   7.454720
    18  Cl   4.060396   4.546801   4.031830   2.736490   1.760639
    19  Cl   7.204899   8.156613   9.510394  10.004941   9.257030
    20  Cl   4.576768   4.034629   2.730714   1.757329   2.746583
    21  Cl   6.463091   6.912570   8.301991   9.185987   8.865613
    22  Cl   4.132826   4.140100   5.467613   6.540561   6.545671
                    6          7          8          9         10
     6  C    0.000000
     7  C    3.555488   0.000000
     8  C    4.839501   1.406367   0.000000
     9  C    5.996488   2.441279   1.399869   0.000000
    10  C    6.157171   2.825923   2.423314   1.393767   0.000000
    11  C    5.212722   2.434838   2.780944   2.404199   1.393211
    12  C    3.827786   1.398261   2.404400   2.782619   2.423137
    13  H    3.369928   3.589296   3.975654   5.371718   6.257984
    14  H    3.851899   5.734336   6.363952   7.763423   8.528422
    15  Cl   3.093438   2.800420   4.092430   4.590247   4.066406
    16  Cl   1.769294   3.657532   5.063899   5.906243   5.657016
    17  Cl   6.129975   4.056059   4.544625   4.026913   2.731407
    18  Cl   2.753949   6.255886   7.579858   8.681340   8.675764
    19  Cl   7.856566   4.585865   4.045286   2.739910   1.759943
    20  Cl   4.044696   7.225113   8.238067   9.574715  10.011203
    21  Cl   7.571439   4.054588   2.738269   1.757059   2.731864
    22  Cl   5.473310   2.775393   1.759851   2.701088   4.013257
                   11         12         13         14         15
    11  C    0.000000
    12  C    1.398457   0.000000
    13  H    6.020729   4.818516   0.000000
    14  H    8.075317   6.742768   2.453883   0.000000
    15  Cl   2.754195   1.808618   5.347448   6.720695   0.000000
    16  Cl   4.444470   3.244285   4.879101   5.621162   1.789407
    17  Cl   1.763681   2.747225   7.565457   9.429147   3.129778
    18  Cl   7.554913   6.259911   5.614934   4.876958   4.954559
    19  Cl   2.744639   4.047962   7.974575  10.277149   5.480048
    20  Cl   9.204867   7.806937   4.862339   2.860809   7.093142
    21  Cl   4.024468   4.539660   6.347628   8.801116   6.347230
    22  Cl   4.539176   4.051584   3.391087   5.826369   5.572266
                   16         17         18         19         20
    16  Cl   0.000000
    17  Cl   4.903275   0.000000
    18  Cl   3.165310   8.054027   0.000000
    19  Cl   7.189103   3.153100  10.288668   0.000000
    20  Cl   5.476435  10.171332   3.164204  11.756175   0.000000
    21  Cl   7.629846   5.451845  10.301079   3.151725  10.904909
    22  Cl   6.180881   6.302555   8.192146   5.422210   8.170116
                   21         22
    21  Cl   0.000000
    22  Cl   3.075484   0.000000
 Stoichiometry    C12H2Cl8
 Framework group  C1[X(C12H2Cl8)]
 Deg. of freedom    60
 Full point group                 C1      NOp   1
 Largest Abelian subgroup         C1      NOp   1
 Largest concise Abelian subgroup C1      NOp   1
                         Standard orientation:                         
 ---------------------------------------------------------------------
 Center     Atomic      Atomic             Coordinates (Angstroms)
 Number     Number       Type             X           Y           Z
 ---------------------------------------------------------------------
      1          6           0       -1.665543    0.820621    0.000003
      2          6           0       -2.280130    2.078027    0.000008
      3          6           0       -3.672223    2.199629    0.000009
      4          6           0       -4.474727    1.061431    0.000005
      5          6           0       -3.879798   -0.203151   -0.000001
      6          6           0       -2.483262   -0.310115   -0.000002
      7          6           0        0.968406    0.542809   -0.000005
      8          6           0        2.009797    1.487993   -0.000005
      9          6           0        3.349440    1.081805   -0.000003
     10          6           0        3.673801   -0.273694   -0.000000
     11          6           0        2.649732   -1.218320    0.000001
     12          6           0        1.311381   -0.812736   -0.000001
     13          1           0       -1.682039    2.963179    0.000012
     14          1           0       -4.126891    3.173505    0.000013
     15         17           0        0.040244   -2.099324    0.000002
     16         17           0       -1.739704   -1.915581   -0.000008
     17         17           0        3.056548   -2.934442    0.000008
     18         17           0       -4.893244   -1.642865   -0.000009
     19         17           0        5.359214   -0.780429    0.000005
     20         17           0       -6.224161    1.227822    0.000007
     21         17           0        4.629323    2.285615   -0.000004
     22         17           0        1.699291    3.220235   -0.000004
 ---------------------------------------------------------------------
 Rotational constants (GHZ):           0.3325212           0.0884622           0.0698734
 Standard basis: 6-311+G(d,p) (5D, 7F)
 There are   536 symmetry adapted cartesian basis functions of A   symmetry.
 There are   516 symmetry adapted basis functions of A   symmetry.
   516 basis functions,   872 primitive gaussians,   536 cartesian basis functions
   105 alpha electrons      105 beta electrons
       nuclear repulsion energy      2608.0255795769 Hartrees.
 NAtoms=   22 NActive=   22 NUniq=   22 SFac= 1.00D+00 NAtFMM=   60 NAOKFM=F Big=F
 Integral buffers will be    131072 words long.
 Raffenetti 2 integral format.
 Two-electron integral symmetry is turned on.
 One-electron integrals computed using PRISM.
 NBasis=   516 RedAO= T EigKep=  1.28D-06  NBF=   516
 NBsUse=   510 1.00D-06 EigRej=  6.56D-07 NBFU=   510
 Initial guess from the checkpoint file:  "./Gau-61733.chk"
 B after Tr=    -0.000000   -0.000000   -0.000000
         Rot=    0.999806   -0.000000    0.000000    0.019719 Ang=  -2.26 deg.
 ExpMin= 4.38D-02 ExpMax= 1.06D+05 ExpMxC= 3.62D+03 IAcc=3 IRadAn=         5 AccDes= 0.00D+00
 Harris functional with IExCor=  402 and IRadAn=       5 diagonalized for initial guess.
 HarFok:  IExCor=  402 AccDes= 0.00D+00 IRadAn=         5 IDoV= 1 UseB2=F ITyADJ=14
 ICtDFT=  3500011 ScaDFX=  1.000000  1.000000  1.000000  1.000000
 FoFCou: FMM=F IPFlag=           0 FMFlag=      100000 FMFlg1=           0
         NFxFlg=           0 DoJE=T BraDBF=F KetDBF=T FulRan=T
         wScrn=  0.000000 ICntrl=       500 IOpCl=  0 I1Cent=   200000004 NGrid=           0
         NMat0=    1 NMatS0=      1 NMatT0=    0 NMatD0=    1 NMtDS0=    0 NMtDT0=    0
 Petite list used in FoFCou.
 Requested convergence on RMS density matrix=1.00D-08 within  32 cycles.
 Requested convergence on MAX density matrix=1.00D-06.
 Requested convergence on             energy=1.00D-06.
 No special actions if energy rises.
 Restarting incremental Fock formation.
 SCF Done:  E(RB3LYP) =  -4139.89166916     A.U. after   21 cycles
            NFock= 21  Conv=0.60D-08     -V/T= 2.0023
 QCSCF skips out because SCF is already converged.
 Calling FoFJK, ICntrl=      2127 FMM=F ISym2X=0 I1Cent= 0 IOpClX= 0 NMat=1 NMatS=1 NMatT=0.
 ***** Axes restored to original set *****
 -------------------------------------------------------------------
 Center     Atomic                   Forces (Hartrees/Bohr)
 Number     Number              X              Y              Z
 -------------------------------------------------------------------
      1        6          -0.007930153    0.008269996    0.004165698
      2        6          -0.013776512    0.005372456    0.005547772
      3        6          -0.006559481   -0.003041199    0.001590010
      4        6           0.002387300   -0.000952702   -0.000965652
      5        6          -0.015352722    0.006283428    0.006238198
      6        6           0.041390095   -0.025155808   -0.018360300
      7        6          -0.040407123   -0.007927396    0.011823786
      8        6          -0.000525983    0.021593813    0.004228991
      9        6           0.005607073   -0.008461658   -0.003436573
     10        6          -0.006726276   -0.007863098    0.000739343
     11        6          -0.003412303    0.012231014    0.003421352
     12        6           0.047062126   -0.074215051   -0.029443496
     13        1           0.005288663   -0.009351538   -0.003498733
     14        1           0.005532417    0.001534543   -0.001534452
     15       17          -0.120185480   -0.252834500   -0.007886303
     16       17           0.105931311    0.321477523    0.025473964
     17       17          -0.001421281   -0.001318358    0.000220593
     18       17           0.001636073    0.000356226   -0.000472073
     19       17           0.004540558    0.006523038   -0.000270889
     20       17          -0.001173114   -0.006116131   -0.000762176
     21       17          -0.004078137    0.004024214    0.002099354
     22       17           0.002172946    0.009571187    0.001081588
 -------------------------------------------------------------------
 Cartesian Forces:  Max     0.321477523 RMS     0.056248878

 GradGradGradGradGradGradGradGradGradGradGradGradGradGradGradGradGradGrad
 Berny optimization.
 Using GEDIIS/GDIIS optimizer.
 FormGI is forming the generalized inverse of G from B-inverse, IUseBI=4.
 Internal  Forces:  Max     0.319877932 RMS     0.035929235
 Search for a local minimum.
 Step number   2 out of a maximum of  112
 All quantities printed in internal units (Hartrees-Bohrs-Radians)
 Mixed Optimization -- RFO/linear search
 Update second derivatives using D2CorX and points    1    2
 DE= -9.32D-02 DEPred=-1.18D-01 R= 7.93D-01
 TightC=F SS=  1.41D+00  RLast= 3.00D-01 DXNew= 5.0454D-01 9.0000D-01
 Trust test= 7.93D-01 RLast= 3.00D-01 DXMaxT set to 5.05D-01
 ITU=  1  0
 Use linear search instead of GDIIS.
     Eigenvalues ---    0.00238   0.00238   0.01660   0.01668   0.02070
     Eigenvalues ---    0.02070   0.02070   0.02070   0.02070   0.02070
     Eigenvalues ---    0.02070   0.02070   0.02070   0.02070   0.02070
     Eigenvalues ---    0.02070   0.02070   0.02070   0.04244   0.15998
     Eigenvalues ---    0.16008   0.18836   0.22432   0.24450   0.25000
     Eigenvalues ---    0.25000   0.25000   0.25000   0.25000   0.25000
     Eigenvalues ---    0.25000   0.25000   0.25000   0.25000   0.25000
     Eigenvalues ---    0.25000   0.27949   0.29527   0.29539   0.29539
     Eigenvalues ---    0.29539   0.29539   0.29539   0.29539   0.37110
     Eigenvalues ---    0.37174   0.39543   0.41318   0.41464   0.42201
     Eigenvalues ---    0.42825   0.45240   0.45389   0.45389   0.45389
     Eigenvalues ---    0.45389   0.45389   0.45389   0.47606   1.39465
 RFO step:  Lambda=-3.43547186D-01 EMin= 2.37799039D-03
 Quartic linear search produced a step of  1.62641.
 Maximum step size (   0.505) exceeded in Quadratic search.
    -- Step size scaled by   0.677
 Iteration  1 RMS(Cart)=  0.14952835 RMS(Int)=  0.04031045
 Iteration  2 RMS(Cart)=  0.12273509 RMS(Int)=  0.01675309
 Iteration  3 RMS(Cart)=  0.03645158 RMS(Int)=  0.00019159
 Iteration  4 RMS(Cart)=  0.00001374 RMS(Int)=  0.00019145
 Iteration  5 RMS(Cart)=  0.00000000 RMS(Int)=  0.00019145
 Variable       Old X    -DE/DX   Delta X   Delta X   Delta X     New X
                                 (Linear)    (Quad)   (Total)
    R1        2.64480  -0.01304  -0.00564  -0.02652  -0.03220   2.61259
    R2        2.63698  -0.01526  -0.01834  -0.03122  -0.04932   2.58766
    R3        2.64069  -0.00225  -0.01231  -0.00469  -0.01727   2.62342
    R4        2.01874   0.01127  -0.00531   0.02455   0.01924   2.03799
    R5        2.63175   0.00229  -0.02686   0.00461  -0.02249   2.60926
    R6        2.03105   0.00587   0.01470   0.01376   0.02846   2.05951
    R7        2.64096   0.00364  -0.01187   0.00756  -0.00427   2.63669
    R8        3.32087  -0.00602  -0.00821  -0.01567  -0.02388   3.29699
    R9        2.64680  -0.00518  -0.00238  -0.01034  -0.01243   2.63437
   R10        3.32713  -0.00071   0.00196  -0.00155   0.00041   3.32754
   R11        3.34348   0.01092   0.02857   0.02976   0.05833   3.40181
   R12        2.65765  -0.02970   0.01527  -0.05975  -0.04463   2.61302
   R13        2.64233  -0.05211  -0.00965  -0.10564  -0.11504   2.52729
   R14        2.64537   0.00733  -0.00471   0.01541   0.01034   2.65571
   R15        3.32564   0.00023  -0.00046   0.00051   0.00005   3.32569
   R16        2.63384   0.01038  -0.02346   0.02235  -0.00135   2.63249
   R17        3.32036  -0.00559  -0.00904  -0.01469  -0.02373   3.29663
   R18        2.63279   0.00589  -0.02517   0.01243  -0.01259   2.62020
   R19        3.32581  -0.00795  -0.00018  -0.01965  -0.01983   3.30598
   R20        2.64270  -0.00801  -0.00905  -0.01703  -0.02571   2.61699
   R21        3.33288   0.00128   0.01132   0.00427   0.01558   3.34846
   R22        3.41779   0.04422   0.14943   0.12375   0.27318   3.69097
   R23        3.38149   0.31988   0.34486   0.26030   0.60517   3.98666
    A1        2.06086   0.00240  -0.05455  -0.00299  -0.05726   2.00360
    A2        2.11255  -0.00462   0.02953  -0.00932   0.01989   2.13245
    A3        2.09274   0.00147  -0.00269   0.00443   0.00190   2.09464
    A4        2.07789   0.00316  -0.02684   0.00489  -0.02179   2.05610
    A5        2.09778   0.00108   0.00551   0.00490   0.00989   2.10767
    A6        2.09472   0.00041   0.00052   0.00120   0.00198   2.09670
    A7        2.09069  -0.00150  -0.00603  -0.00610  -0.01187   2.07881
    A8        2.08774   0.00301  -0.01082   0.00846  -0.00258   2.08516
    A9        2.09009  -0.00444  -0.00700  -0.01359  -0.02048   2.06960
   A10        2.10536   0.00142   0.01783   0.00513   0.02307   2.12842
   A11        2.08697  -0.01549  -0.01207  -0.04183  -0.05360   2.03337
   A12        2.08851   0.00510  -0.00958   0.01190   0.00218   2.09068
   A13        2.10771   0.01039   0.02165   0.02992   0.05142   2.15913
   A14        2.12046   0.01362   0.04240   0.04078   0.08365   2.20412
   A15        2.08175  -0.02936  -0.02056  -0.08028  -0.10108   1.98067
   A16        2.08097   0.01574  -0.02184   0.03950   0.01743   2.09839
   A17        2.05999   0.01548  -0.05596   0.02714  -0.02869   2.03129
   A18        2.11019  -0.00689   0.02569  -0.01509   0.01009   2.12028
   A19        2.13044  -0.01297   0.05862  -0.02708   0.03180   2.16223
   A20        2.04256   0.01986  -0.08431   0.04216  -0.04189   2.00067
   A21        2.10007  -0.00617   0.00923  -0.01031  -0.00169   2.09838
   A22        2.09242   0.00714  -0.00321   0.01612   0.01321   2.10563
   A23        2.09070  -0.00097  -0.00601  -0.00581  -0.01152   2.07918
   A24        2.08099  -0.00218  -0.02181  -0.00320  -0.02510   2.05589
   A25        2.09773   0.00157   0.00543   0.00219   0.00766   2.10540
   A26        2.10446   0.00061   0.01638   0.00101   0.01744   2.12190
   A27        2.10227  -0.01439   0.01282  -0.03584  -0.02252   2.07976
   A28        2.08310   0.00474  -0.01836   0.00989  -0.00873   2.07438
   A29        2.09781   0.00965   0.00555   0.02595   0.03124   2.12905
   A30        2.11286   0.01415   0.03004   0.03730   0.06791   2.18077
   A31        2.11442  -0.04466   0.03257  -0.11259  -0.08031   2.03411
   A32        2.05590   0.03051  -0.06260   0.07529   0.01240   2.06830
   A33        2.24729  -0.02164   0.24867  -0.02612   0.22255   2.46984
   A34        2.10739  -0.12675   0.02114  -0.33442  -0.31329   1.79410
    D1        0.00000  -0.00000   0.00000  -0.00000  -0.00000   0.00000
    D2        3.14159   0.00000   0.00000   0.00000   0.00000   3.14159
    D3       -0.00000   0.00000  -0.00000   0.00000  -0.00000  -0.00000
    D4        3.14159  -0.00000   0.00000   0.00000   0.00000  -3.14159
    D5        0.00000  -0.00000  -0.00000  -0.00000  -0.00000   0.00000
    D6        3.14159   0.00000  -0.00000   0.00000   0.00000   3.14159
    D7       -3.14159  -0.00000  -0.00000  -0.00000  -0.00000  -3.14159
    D8        0.00000  -0.00000  -0.00000  -0.00000  -0.00000   0.00000
    D9       -0.00000   0.00000   0.00000   0.00000   0.00000  -0.00000
   D10        3.14159   0.00000  -0.00000   0.00000   0.00000   3.14159
   D11        3.14159   0.00000   0.00000   0.00000   0.00000   3.14159
   D12        0.00000  -0.00000  -0.00000  -0.00000  -0.00000   0.00000
   D13        0.00000  -0.00000  -0.00000  -0.00000  -0.00000   0.00000
   D14       -3.14159  -0.00000  -0.00000  -0.00000  -0.00000  -3.14159
   D15       -3.14159  -0.00000  -0.00000  -0.00000  -0.00000  -3.14159
   D16        0.00000  -0.00000  -0.00000  -0.00000  -0.00000   0.00000
   D17       -0.00000   0.00000   0.00000   0.00000   0.00000   0.00000
   D18        3.14159   0.00000  -0.00000   0.00000  -0.00000   3.14159
   D19        3.14159   0.00000   0.00000   0.00000   0.00000   3.14159
   D20       -0.00000   0.00000  -0.00000   0.00000  -0.00000  -0.00000
   D21        0.00001   0.00000  -0.00000   0.00000  -0.00000   0.00001
   D22       -3.14159   0.00000  -0.00000   0.00000  -0.00000  -3.14159
   D23        0.00000   0.00000   0.00000   0.00000   0.00000   0.00000
   D24       -3.14159  -0.00000  -0.00000  -0.00000  -0.00000  -3.14159
   D25       -0.00000  -0.00000  -0.00000  -0.00000  -0.00000  -0.00000
   D26        3.14159  -0.00000   0.00000   0.00000   0.00000   3.14159
   D27       -0.00000  -0.00000  -0.00000  -0.00000  -0.00000  -0.00000
   D28        3.14159  -0.00000  -0.00000  -0.00000  -0.00000   3.14159
   D29        3.14159   0.00000   0.00000   0.00000   0.00000   3.14159
   D30       -0.00000   0.00000   0.00000   0.00000   0.00000  -0.00000
   D31       -0.00000   0.00000   0.00000   0.00000   0.00000   0.00000
   D32       -3.14159  -0.00000  -0.00000  -0.00000  -0.00000  -3.14159
   D33        3.14159   0.00000   0.00000   0.00000   0.00000  -3.14159
   D34        0.00000  -0.00000   0.00000  -0.00000   0.00000   0.00000
   D35        0.00000   0.00000  -0.00000   0.00000  -0.00000  -0.00000
   D36       -3.14159  -0.00000  -0.00000  -0.00000  -0.00000  -3.14159
   D37        3.14159   0.00000   0.00000   0.00000   0.00000   3.14159
   D38        0.00000  -0.00000  -0.00000  -0.00000  -0.00000   0.00000
   D39        0.00000  -0.00000   0.00000  -0.00000   0.00000   0.00000
   D40       -3.14159  -0.00000  -0.00000  -0.00000  -0.00000   3.14159
   D41        3.14159   0.00000   0.00000   0.00000   0.00000   3.14159
   D42       -0.00000   0.00000  -0.00000  -0.00000  -0.00000  -0.00000
   D43        0.00001   0.00000  -0.00000   0.00000   0.00000   0.00001
   D44       -3.14159   0.00000   0.00000   0.00000   0.00000  -3.14158
   D45       -0.00001   0.00000  -0.00001  -0.00000  -0.00001  -0.00002
         Item               Value     Threshold  Converged?
 Maximum Force            0.319878     0.000450     NO 
 RMS     Force            0.035929     0.000300     NO 
 Maximum Displacement     0.986349     0.001800     NO 
 RMS     Displacement     0.259531     0.001200     NO 
 Predicted change in Energy=-1.364273D-01
 GradGradGradGradGradGradGradGradGradGradGradGradGradGradGradGradGradGrad

                          Input orientation:                          
 ---------------------------------------------------------------------
 Center     Atomic      Atomic             Coordinates (Angstroms)
 Number     Number       Type             X           Y           Z
 ---------------------------------------------------------------------
      1          6           0        1.330338    1.319062    0.114246
      2          6           0        2.640210    1.274098   -0.325737
      3          6           0        3.442116    2.406147   -0.377319
      4          6           0        2.953117    3.636430    0.014836
      5          6           0        1.637401    3.739542    0.467662
      6          6           0        0.893468    2.560828    0.491381
      7          6           0        0.566703   -1.215721   -0.110240
      8          6           0        1.051867   -2.449913   -0.501875
[...]
                 (A) (A) (A) (A) (A) (A) (A) (A) (A) (A) (A) (A)
                 (A) (A) (A) (A) (A) (A) (A) (A) (A) (A) (A) (A)
                 (A) (A) (A) (A) (A) (A) (A) (A) (A) (A) (A) (A)
                 (A) (A) (A) (A) (A) (A) (A) (A) (A) (A) (A) (A)
                 (A) (A) (A) (A) (A) (A) (A) (A) (A) (A) (A) (A)
                 (A) (A) (A) (A) (A) (A) (A) (A) (A) (A) (A) (A)
                 (A) (A) (A) (A) (A) (A) (A) (A) (A) (A) (A) (A)
                 (A) (A) (A) (A) (A) (A) (A) (A) (A) (A) (A) (A)
                 (A) (A) (A) (A) (A) (A) (A) (A) (A) (A) (A) (A)
                 (A) (A) (A) (A) (A) (A) (A) (A) (A) (A) (A) (A)
                 (A) (A) (A) (A) (A) (A) (A) (A) (A) (A) (A) (A)
                 (A) (A) (A) (A) (A) (A) (A) (A) (A) (A) (A) (A)
                 (A) (A) (A) (A) (A) (A) (A) (A) (A) (A) (A) (A)
                 (A) (A) (A) (A) (A) (A) (A) (A) (A)
 The electronic state is 1-A.
 Alpha  occ. eigenvalues -- -101.58613-101.58504-101.58504-101.58399-101.58399
 Alpha  occ. eigenvalues -- -101.57843-101.57791-101.57711 -10.29027 -10.28713
 Alpha  occ. eigenvalues --  -10.28707 -10.28592 -10.28592 -10.27821 -10.27768
 Alpha  occ. eigenvalues --  -10.27469 -10.24815 -10.23604 -10.21864 -10.21770
 Alpha  occ. eigenvalues --   -9.50079  -9.49970  -9.49970  -9.49876  -9.49875
 Alpha  occ. eigenvalues --   -9.49320  -9.49256  -9.49170  -7.26589  -7.26479
 Alpha  occ. eigenvalues --   -7.26478  -7.26370  -7.26370  -7.25805  -7.25757
 Alpha  occ. eigenvalues --   -7.25657  -7.25560  -7.25468  -7.25449  -7.25448
 Alpha  occ. eigenvalues --   -7.25362  -7.25361  -7.25355  -7.25355  -7.25277
 Alpha  occ. eigenvalues --   -7.25277  -7.24800  -7.24737  -7.24733  -7.24654
 Alpha  occ. eigenvalues --   -7.24651  -7.24587  -0.97637  -0.95385  -0.93015
 Alpha  occ. eigenvalues --   -0.92135  -0.90189  -0.88474  -0.88126  -0.87221
 Alpha  occ. eigenvalues --   -0.85690  -0.84410  -0.79554  -0.76500  -0.75059
 Alpha  occ. eigenvalues --   -0.74568  -0.66568  -0.64438  -0.63748  -0.62133
 Alpha  occ. eigenvalues --   -0.56681  -0.55512  -0.53731  -0.52760  -0.50052
 Alpha  occ. eigenvalues --   -0.48938  -0.47794  -0.47412  -0.47325  -0.46891
 Alpha  occ. eigenvalues --   -0.45597  -0.44932  -0.43749  -0.41820  -0.41680
 Alpha  occ. eigenvalues --   -0.41640  -0.39751  -0.38886  -0.36899  -0.36669
 Alpha  occ. eigenvalues --   -0.36362  -0.36352  -0.35980  -0.35383  -0.34991
 Alpha  occ. eigenvalues --   -0.34367  -0.34341  -0.33785  -0.33240  -0.32080
 Alpha  occ. eigenvalues --   -0.31848  -0.27975  -0.27659  -0.27400  -0.27184
 Alpha virt. eigenvalues --   -0.06885  -0.06740  -0.06321  -0.05905  -0.05397
 Alpha virt. eigenvalues --   -0.03912  -0.01232  -0.00951  -0.00111   0.00883
 Alpha virt. eigenvalues --    0.01464   0.01893   0.02093   0.02261   0.02392
 Alpha virt. eigenvalues --    0.02759   0.03809   0.04161   0.04866   0.05531
 Alpha virt. eigenvalues --    0.05834   0.05844   0.06301   0.06665   0.07362
 Alpha virt. eigenvalues --    0.07453   0.07851   0.08056   0.08061   0.08549
 Alpha virt. eigenvalues --    0.08606   0.09130   0.09251   0.09514   0.10136
 Alpha virt. eigenvalues --    0.10799   0.11106   0.11239   0.11414   0.11682
 Alpha virt. eigenvalues --    0.11999   0.12362   0.13289   0.13552   0.13659
 Alpha virt. eigenvalues --    0.13793   0.14144   0.14358   0.15157   0.15358
 Alpha virt. eigenvalues --    0.15373   0.15853   0.16942   0.17041   0.17108
 Alpha virt. eigenvalues --    0.17292   0.17357   0.17870   0.18141   0.18398
 Alpha virt. eigenvalues --    0.19153   0.19619   0.19736   0.19990   0.20180
 Alpha virt. eigenvalues --    0.20515   0.21271   0.21539   0.21735   0.22473
 Alpha virt. eigenvalues --    0.22506   0.22822   0.23070   0.23509   0.23841
 Alpha virt. eigenvalues --    0.24324   0.24334   0.25250   0.25654   0.25976
 Alpha virt. eigenvalues --    0.26142   0.26602   0.26811   0.27399   0.27555
 Alpha virt. eigenvalues --    0.27555   0.28200   0.28530   0.28950   0.29246
 Alpha virt. eigenvalues --    0.29586   0.30090   0.30205   0.30602   0.31009
 Alpha virt. eigenvalues --    0.31826   0.32095   0.34047   0.35450   0.38096
 Alpha virt. eigenvalues --    0.40607   0.41905   0.42421   0.42533   0.42913
 Alpha virt. eigenvalues --    0.43259   0.44410   0.44448   0.45157   0.45258
 Alpha virt. eigenvalues --    0.45533   0.46012   0.46068   0.46711   0.47262
 Alpha virt. eigenvalues --    0.47432   0.47951   0.48383   0.48459   0.48459
 Alpha virt. eigenvalues --    0.49628   0.50401   0.50946   0.51032   0.51665
 Alpha virt. eigenvalues --    0.52913   0.53408   0.56219   0.56439   0.56723
 Alpha virt. eigenvalues --    0.56932   0.57717   0.58242   0.59267   0.59782
 Alpha virt. eigenvalues --    0.60178   0.60567   0.61073   0.61439   0.61641
 Alpha virt. eigenvalues --    0.62477   0.62545   0.63557   0.64533   0.65016
 Alpha virt. eigenvalues --    0.65661   0.65848   0.67217   0.67732   0.68470
 Alpha virt. eigenvalues --    0.69179   0.69498   0.71663   0.75190   0.76812
 Alpha virt. eigenvalues --    0.77873   0.78676   0.78790   0.79562   0.81333
 Alpha virt. eigenvalues --    0.82289   0.82387   0.82961   0.83334   0.83418
 Alpha virt. eigenvalues --    0.83552   0.83589   0.83696   0.84108   0.84222
 Alpha virt. eigenvalues --    0.84619   0.85021   0.85110   0.85517   0.85724
 Alpha virt. eigenvalues --    0.86788   0.87125   0.87447   0.88646   0.89015
 Alpha virt. eigenvalues --    0.89283   0.89505   0.89774   0.89877   0.91111
 Alpha virt. eigenvalues --    0.91150   0.91946   0.92830   0.93326   0.93402
 Alpha virt. eigenvalues --    0.93858   0.94121   0.94640   0.94991   0.95667
 Alpha virt. eigenvalues --    0.95776   0.96394   0.97528   0.97586   0.99957
 Alpha virt. eigenvalues --    1.00068   1.01270   1.02185   1.03133   1.05069
 Alpha virt. eigenvalues --    1.05266   1.06903   1.07059   1.08936   1.10238
 Alpha virt. eigenvalues --    1.13149   1.14357   1.17131   1.18261   1.19316
 Alpha virt. eigenvalues --    1.19962   1.22020   1.23312   1.24783   1.25549
 Alpha virt. eigenvalues --    1.26503   1.27014   1.27034   1.27519   1.27592
 Alpha virt. eigenvalues --    1.28165   1.29010   1.29384   1.30684   1.32144
 Alpha virt. eigenvalues --    1.32295   1.35181   1.37292   1.38361   1.39032
 Alpha virt. eigenvalues --    1.42253   1.46237   1.46523   1.48219   1.53027
 Alpha virt. eigenvalues --    1.53230   1.56234   1.56360   1.60511   1.63360
 Alpha virt. eigenvalues --    1.64595   1.64938   1.67915   1.68565   1.71456
 Alpha virt. eigenvalues --    1.73734   1.75262   1.76022   1.77773   1.79670
 Alpha virt. eigenvalues --    1.79831   1.81659   1.82483   1.83693   1.84762
 Alpha virt. eigenvalues --    1.86567   1.87613   1.88558   1.90925   1.93769
 Alpha virt. eigenvalues --    1.95423   1.96094   1.98953   2.02096   2.09822
 Alpha virt. eigenvalues --    2.11069   2.11426   2.11584   2.18257   2.21820
 Alpha virt. eigenvalues --    2.22060   2.22537   2.23028   2.23408   2.24450
 Alpha virt. eigenvalues --    2.24749   2.26031   2.26804   2.28875   2.29926
 Alpha virt. eigenvalues --    2.31410   2.32095   2.33213   2.33541   2.34437
 Alpha virt. eigenvalues --    2.34848   2.39118   2.39962   2.41130   2.41833
 Alpha virt. eigenvalues --    2.42786   2.44427   2.45118   2.45196   2.47438
 Alpha virt. eigenvalues --    2.48378   2.51168   2.52165   2.52894   2.54774
 Alpha virt. eigenvalues --    2.56361   2.59400   2.63604   2.63832   2.64551
 Alpha virt. eigenvalues --    2.65242   2.66858   2.68368   2.68606   2.72791
 Alpha virt. eigenvalues --    2.73330   2.76474   2.76882   2.80837   2.81798
 Alpha virt. eigenvalues --    2.82887   2.85111   2.88968   2.95286   2.96734
 Alpha virt. eigenvalues --    3.04356   3.06315   3.08869   3.11025   3.11855
 Alpha virt. eigenvalues --    3.12102   3.12336   3.14460   3.17316   3.20515
 Alpha virt. eigenvalues --    3.23058   3.23063   3.27060   3.35592   3.42051
 Alpha virt. eigenvalues --    3.49597   3.50418   3.60198   3.67915   3.69897
 Alpha virt. eigenvalues --    3.80524   3.87940   3.90558   4.00477   4.06786
 Alpha virt. eigenvalues --    4.28807   4.79883   4.80668   9.73472   9.75860
 Alpha virt. eigenvalues --    9.78159   9.79650   9.80450   9.81169   9.83534
 Alpha virt. eigenvalues --    9.85594  23.26016  23.45505  23.76561  23.81156
 Alpha virt. eigenvalues --   23.84192  23.87300  23.91812  23.92382  23.95389
 Alpha virt. eigenvalues --   23.97106  24.07026  24.13796  25.76219  25.77623
 Alpha virt. eigenvalues --   25.78739  25.82977  25.85342  25.88185  25.97055
 Alpha virt. eigenvalues --   25.98347  26.07478  26.08710  26.11412  26.16820
 Alpha virt. eigenvalues --   26.18940  26.23522  26.35961  26.36846  26.46231
 Alpha virt. eigenvalues --   26.53529  26.54231  26.66749  26.76310  26.76737
 Alpha virt. eigenvalues --   26.92837  27.15489 215.72573 215.75005 215.77680
 Alpha virt. eigenvalues --  215.79296 215.80345 215.81249 215.84587 215.86346
          Condensed to atoms (all electrons):
               1          2          3          4          5          6
     1  C   28.666449  -5.753343  -2.556724   0.753852  -1.964696   4.613972
     2  C   -5.753343  22.912457  -2.303436   0.483480   0.286393  -7.308179
     3  C   -2.556724  -2.303436  18.996678  -4.284564  -7.533612   0.848831
     4  C    0.753852   0.483480  -4.284564  18.013636  -0.733828  -6.284804
     5  C   -1.964696   0.286393  -7.533612  -0.733828  22.738079   0.715789
     6  C    4.613972  -7.308179   0.848831  -6.284804   0.715789  29.457005
     7  C    8.545822  -1.324705   1.059533  -0.807794  -3.649547   0.450176
     8  C   -3.485936  -1.237760   0.571957  -0.238497  -1.804562  -3.527949
     9  C   -7.130855   0.094552   0.467169  -0.119278  -0.509169  -2.580638
    10  C   -4.056063   0.016191  -0.027637  -0.017742  -0.188159  -0.309679
    11  C   -7.135004   0.093330   0.467980  -0.119861  -0.509403  -2.581465
    12  C   -3.468547  -1.239204   0.571140  -0.238642  -1.803191  -3.521206
    13  H   -0.042899   0.316893  -0.061329  -0.026869  -0.058893  -0.066372
    14  H    0.031239  -0.026285   0.317547   0.038031  -0.009004   0.005015
    15  Cl   0.074674   0.375689   0.082657   0.036550   0.151773   0.241407
    16  Cl   0.300864   0.348603   0.350366   0.187186   0.061283  -3.283874
    17  Cl  -0.232493   0.007907   0.010485  -0.003109  -0.006035  -0.080833
    18  Cl  -0.666124   0.237267   0.178390  -0.511129  -0.547867   1.077292
    19  Cl  -0.163324   0.003613   0.003679  -0.001325  -0.002925  -0.066198
    20  Cl  -0.274136   0.061460  -0.232816  -0.628045   0.825748  -0.346390
    21  Cl  -0.232452   0.008001   0.010467  -0.003095  -0.006034  -0.080819
    22  Cl   0.073364   0.374588   0.083022   0.036007   0.151373   0.240801
               7          8          9         10         11         12
     1  C    8.545822  -3.485936  -7.130855  -4.056063  -7.135004  -3.468547
     2  C   -1.324705  -1.237760   0.094552   0.016191   0.093330  -1.239204
     3  C    1.059533   0.571957   0.467169  -0.027637   0.467980   0.571140
     4  C   -0.807794  -0.238497  -0.119278  -0.017742  -0.119861  -0.238642
     5  C   -3.649547  -1.804562  -0.509169  -0.188159  -0.509403  -1.803191
     6  C    0.450176  -3.527949  -2.580638  -0.309679  -2.581465  -3.521206
     7  C   28.795525  -2.820330 -10.602041   2.651694 -10.597073  -2.809267
     8  C   -2.820330  20.957972  -5.901794  -7.602290  11.131971   3.364207
     9  C  -10.602041  -5.901794  33.379566  -2.043830 -10.364612  11.124558
    10  C    2.651694  -7.602290  -2.043830  28.230702  -2.036754  -7.620931
    11  C  -10.597073  11.131971 -10.364612  -2.036754  33.379181  -5.913600
    12  C   -2.809267   3.364207  11.124558  -7.620931  -5.913600  20.961292
    13  H    0.058065   0.094291   0.025135   0.019619   0.025164   0.094196
    14  H   -0.007794   0.001907  -0.000418   0.000244  -0.000419   0.001907
    15  Cl  -0.083657  -1.174955   1.565270  -0.556857  -1.913694  -0.960792
    16  Cl   0.235847   0.191449  -0.142238  -0.224800  -0.141896   0.191974
    17  Cl  -1.104801   0.710600  -0.642236  -0.479441   1.221463   0.001164
    18  Cl  -0.157839  -0.086801  -0.010639  -0.006257  -0.010630  -0.086754
    19  Cl   0.123596  -0.770271  -0.018266   0.955911  -0.018549  -0.771104
    20  Cl  -0.015929  -0.043223  -0.001977  -0.003740  -0.001982  -0.043202
    21  Cl  -1.105218   0.001630   1.222022  -0.480072  -0.642108   0.710448
    22  Cl  -0.082452  -0.961783  -1.913576  -0.555489   1.565771  -1.174169
              13         14         15         16         17         18
     1  C   -0.042899   0.031239   0.074674   0.300864  -0.232493  -0.666124
     2  C    0.316893  -0.026285   0.375689   0.348603   0.007907   0.237267
     3  C   -0.061329   0.317547   0.082657   0.350366   0.010485   0.178390
     4  C   -0.026869   0.038031   0.036550   0.187186  -0.003109  -0.511129
     5  C   -0.058893  -0.009004   0.151773   0.061283  -0.006035  -0.547867
     6  C   -0.066372   0.005015   0.241407  -3.283874  -0.080833   1.077292
     7  C    0.058065  -0.007794  -0.083657   0.235847  -1.104801  -0.157839
     8  C    0.094291   0.001907  -1.174955   0.191449   0.710600  -0.086801
     9  C    0.025135  -0.000418   1.565270  -0.142238  -0.642236  -0.010639
    10  C    0.019619   0.000244  -0.556857  -0.224800  -0.479441  -0.006257
    11  C    0.025164  -0.000419  -1.913694  -0.141896   1.221463  -0.010630
    12  C    0.094196   0.001907  -0.960792   0.191974   0.001164  -0.086754
    13  H    0.530271  -0.006630  -0.016949  -0.001234   0.000407  -0.000252
    14  H   -0.006630   0.503696  -0.001185   0.001617  -0.000001  -0.000910
    15  Cl  -0.016949  -0.001185  19.084577   0.068925  -0.400139   0.004803
    16  Cl  -0.001234   0.001617   0.068925  18.622309  -0.006278  -0.342566
    17  Cl   0.000407  -0.000001  -0.400139  -0.006278  17.578153   0.000140
    18  Cl  -0.000252  -0.000910   0.004803  -0.342566   0.000140  17.474892
    19  Cl   0.000280   0.000000  -0.029406   0.016181  -0.231621  -0.000054
    20  Cl  -0.002265  -0.006584   0.010314  -0.024594   0.000057  -0.133280
    21  Cl   0.000406  -0.000001   0.034675  -0.006306  -0.010465   0.000140
    22  Cl  -0.016917  -0.001185  -0.182256   0.069292   0.034685   0.004791
              19         20         21         22
     1  C   -0.163324  -0.274136  -0.232452   0.073364
     2  C    0.003613   0.061460   0.008001   0.374588
     3  C    0.003679  -0.232816   0.010467   0.083022
     4  C   -0.001325  -0.628045  -0.003095   0.036007
     5  C   -0.002925   0.825748  -0.006034   0.151373
     6  C   -0.066198  -0.346390  -0.080819   0.240801
     7  C    0.123596  -0.015929  -1.105218  -0.082452
     8  C   -0.770271  -0.043223   0.001630  -0.961783
     9  C   -0.018266  -0.001977   1.222022  -1.913576
    10  C    0.955911  -0.003740  -0.480072  -0.555489
    11  C   -0.018549  -0.001982  -0.642108   1.565771
    12  C   -0.771104  -0.043202   0.710448  -1.174169
    13  H    0.000280  -0.002265   0.000406  -0.016917
    14  H    0.000000  -0.006584  -0.000001  -0.001185
    15  Cl  -0.029406   0.010314   0.034675  -0.182256
    16  Cl   0.016181  -0.024594  -0.006306   0.069292
    17  Cl  -0.231621   0.000057  -0.010465   0.034685
    18  Cl  -0.000054  -0.133280   0.000140   0.004791
    19  Cl  17.549888   0.000003  -0.231695  -0.029359
    20  Cl   0.000003  17.337933   0.000057   0.010306
    21  Cl  -0.231695   0.000057  17.578215  -0.400183
    22  Cl  -0.029359   0.010306  -0.400183  19.084788
 Mulliken charges:
               1
     1  C    0.102361
     2  C   -0.427512
     3  C   -1.019782
     4  C    0.469838
     5  C    0.396486
     6  C   -1.611880
     7  C   -0.751811
     8  C   -1.369833
     9  C    0.103295
    10  C    0.335383
    11  C    0.102189
    12  C   -1.370277
    13  H    0.135883
    14  H    0.159214
    15  Cl   0.588577
    16  Cl   0.527892
    17  Cl   0.632391
    18  Cl   0.583387
    19  Cl   0.680946
    20  Cl   0.512285
    21  Cl   0.632387
    22  Cl   0.588582
 Sum of Mulliken charges =  -0.00000
 Mulliken charges with hydrogens summed into heavy atoms:
               1
     1  C    0.102361
     2  C   -0.291629
     3  C   -0.860567
     4  C    0.469838
     5  C    0.396486
     6  C   -1.611880
     7  C   -0.751811
     8  C   -1.369833
     9  C    0.103295
    10  C    0.335383
    11  C    0.102189
    12  C   -1.370277
    15  Cl   0.588577
    16  Cl   0.527892
    17  Cl   0.632391
    18  Cl   0.583387
    19  Cl   0.680946
    20  Cl   0.512285
    21  Cl   0.632387
    22  Cl   0.588582
 Electronic spatial extent (au):  <R**2>=          10650.7206
 Charge=              0.0000 electrons
 Dipole moment (field-independent basis, Debye):
    X=              0.2782    Y=             -0.0001    Z=             -1.9329  Tot=              1.9528
 Quadrupole moment (field-independent basis, Debye-Ang):
   XX=           -173.9501   YY=           -170.7563   ZZ=           -163.5932
   XY=             -0.0000   XZ=              3.8544   YZ=              0.0009
 Traceless Quadrupole moment (field-independent basis, Debye-Ang):
   XX=             -4.5169   YY=             -1.3231   ZZ=              5.8400
   XY=             -0.0000   XZ=              3.8544   YZ=              0.0009
 Octapole moment (field-independent basis, Debye-Ang**2):
  XXX=             33.7296  YYY=              0.0017  ZZZ=              0.0661  XYY=              6.0278
  XXY=             -0.0036  XXZ=              0.7206  XZZ=            -10.2482  YZZ=             -0.0003
  YYZ=              7.1550  XYZ=             -0.0018
 Hexadecapole moment (field-independent basis, Debye-Ang**3):
 XXXX=          -9946.0028 YYYY=          -2507.1090 ZZZZ=          -1186.9386 XXXY=              0.0046
 XXXZ=             -3.7637 YYYX=             -0.0043 YYYZ=             -0.0103 ZZZX=              8.2641
 ZZZY=              0.0226 XXYY=          -2081.9407 XXZZ=          -1842.5958 YYZZ=           -664.6616
 XXYZ=              0.0039 YYXZ=             -5.2361 ZZXY=              0.0050
 N-N= 2.714534098090D+03 E-N=-1.524262913903D+04  KE= 4.129826119762D+03
 1\1\GINC-CN277\FOpt\RB3LYP\6-311+G(d,p)\C12H2Cl8\20CY91R06\02-Apr-2022
 \0\\# opt b3lyp/6-311+g(d,p) scf=xqc\\Title Card Required\\0,1\C,1.275
 542845,0.7362224843,-0.0458691582\C,1.9107271543,1.0935618575,-1.23528
 59053\C,2.5801178778,2.30212172,-1.3527818156\C,2.6239789054,3.1779018
 82,-0.2728330772\C,1.996372231,2.8490273244,0.9354663044\C,1.323232486
 1,1.6213059143,1.0366887746\C,0.5633267718,-0.572854068,0.0466101307\C
 ,1.2372714523,-1.7274818643,0.4619654463\C,0.5854552078,-2.9647229667,
 0.5306927744\C,-0.7679954602,-3.0513680563,0.1763251181\C,-1.459620700
 9,-1.9067455445,-0.243851661\C,-0.7875711618,-0.6799741834,-0.30483366
 28\H,1.8783082164,0.413782995,-2.0779031706\H,3.0713102738,2.574987402
 ,-2.2772527045\Cl,-1.6386851559,0.7504328208,-0.8195055725\Cl,0.531484
 2461,1.1807540601,2.5268130187\Cl,-3.1345095224,-2.0124179301,-0.68456
 26503\Cl,2.050198345,3.9409353044,2.2843210181\Cl,-1.5878952746,-4.578
 4207177,0.2553562595\Cl,3.4763377595,4.688658877,-0.4608941945\Cl,1.44
 36076732,-4.3807773152,1.0494375524\Cl,2.9174649004,-1.6065865755,0.90
 63655654\\Version=EM64L-G16RevB.01\State=1-A\HF=-4140.3555589\RMSD=7.5
 43e-09\RMSF=9.146e-06\Dipole=0.1846619,-0.1740702,-0.7251683\Quadrupol
 e=-0.170151,-3.3444741,3.5146251,-0.4477219,-2.7590333,-2.0407221\PG=C
 01 [X(C12H2Cl8)]\\@


 A successful marriage requires falling in love
 many times, always with the same person.
                           -- Mignon McLaughlin
 Job cpu time:       1 days 15 hours  7 minutes 14.2 seconds.
 Elapsed time:       0 days  2 hours 39 minutes 19.5 seconds.
 File lengths (MBytes):  RWF=    177 Int=      0 D2E=      0 Chk=     25 Scr=      1
 Normal termination of Gaussian 16 at Sat Apr  2 03:11:04 2022.
