 Entering Gaussian System, Link 0=g16
 Input=2,2prime,3,4,6prime-Pentachlorobiphenyl1.gjf
 Output=2,2prime,3,4,6prime-Pentachlorobiphenyl1.log
 Initial command:
 /home/apps/g16/l1.exe "./Gau-46516.inp" -scrdir="./"
 Entering Link 1 = /home/apps/g16/l1.exe PID=     46517.
  
 Copyright (c) 1988-2017, Gaussian, Inc.  All Rights Reserved.
  
 This is part of the Gaussian(R) 16 program.  It is based on
 the Gaussian(R) 09 system (copyright 2009, Gaussian, Inc.),
 the Gaussian(R) 03 system (copyright 2003, Gaussian, Inc.),
 the Gaussian(R) 98 system (copyright 1998, Gaussian, Inc.),
 the Gaussian(R) 94 system (copyright 1995, Gaussian, Inc.),
 the Gaussian 92(TM) system (copyright 1992, Gaussian, Inc.),
 the Gaussian 90(TM) system (copyright 1990, Gaussian, Inc.),
 the Gaussian 88(TM) system (copyright 1988, Gaussian, Inc.),
 the Gaussian 86(TM) system (copyright 1986, Carnegie Mellon
 University), and the Gaussian 82(TM) system (copyright 1983,
 Carnegie Mellon University). Gaussian is a federally registered
 trademark of Gaussian, Inc.
  
 This software contains proprietary and confidential information,
 including trade secrets, belonging to Gaussian, Inc.
  
 This software is provided under written license and may be
 used, copied, transmitted, or stored only in accord with that
 written license.
  
 The following legend is applicable only to US Government
 contracts under FAR:
  
                    RESTRICTED RIGHTS LEGEND
  
 Use, reproduction and disclosure by the US Government is
 subject to restrictions as set forth in subparagraphs (a)
 and (c) of the Commercial Computer Software - Restricted
 Rights clause in FAR 52.227-19.
  
 Gaussian, Inc.
 340 Quinnipiac St., Bldg. 40, Wallingford CT 06492
  
  
 ---------------------------------------------------------------
 Warning -- This program may not be used in any manner that
 competes with the business of Gaussian, Inc. or will provide
 assistance to any competitor of Gaussian, Inc.  The licensee
 of this program is prohibited from giving any competitor of
 Gaussian, Inc. access to this program.  By using this program,
 the user acknowledges that Gaussian, Inc. is engaged in the
 business of creating and licensing software in the field of
 computational chemistry and represents and warrants to the
 licensee that it is not a competitor of Gaussian, Inc. and that
 it will not use this program in any manner prohibited above.
 ---------------------------------------------------------------
  

 Cite this work as:
 Gaussian 16, Revision B.01,
 M. J. Frisch, G. W. Trucks, H. B. Schlegel, G. E. Scuseria, 
 M. A. Robb, J. R. Cheeseman, G. Scalmani, V. Barone, 
 G. A. Petersson, H. Nakatsuji, X. Li, M. Caricato, A. V. Marenich, 
 J. Bloino, B. G. Janesko, R. Gomperts, B. Mennucci, H. P. Hratchian, 
 J. V. Ortiz, A. F. Izmaylov, J. L. Sonnenberg, D. Williams-Young, 
 F. Ding, F. Lipparini, F. Egidi, J. Goings, B. Peng, A. Petrone, 
 T. Henderson, D. Ranasinghe, V. G. Zakrzewski, J. Gao, N. Rega, 
 G. Zheng, W. Liang, M. Hada, M. Ehara, K. Toyota, R. Fukuda, 
 J. Hasegawa, M. Ishida, T. Nakajima, Y. Honda, O. Kitao, H. Nakai, 
 T. Vreven, K. Throssell, J. A. Montgomery, Jr., J. E. Peralta, 
 F. Ogliaro, M. J. Bearpark, J. J. Heyd, E. N. Brothers, K. N. Kudin, 
 V. N. Staroverov, T. A. Keith, R. Kobayashi, J. Normand, 
 K. Raghavachari, A. P. Rendell, J. C. Burant, S. S. Iyengar, 
 J. Tomasi, M. Cossi, J. M. Millam, M. Klene, C. Adamo, R. Cammi, 
 J. W. Ochterski, R. L. Martin, K. Morokuma, O. Farkas, 
 J. B. Foresman, and D. J. Fox, Gaussian, Inc., Wallingford CT, 2016.
 
 ******************************************
 Gaussian 16:  EM64L-G16RevB.01 20-Dec-2017
                 6-Apr-2022 
 ******************************************
 %mem=16GB
 %nprocshared=8
 Will use up to    8 processors via shared memory.
 --------------------------------
 # opt b3lyp/6-311+g(d,p) scf=xqc
 --------------------------------
 1/18=20,19=15,26=3,38=1/1,3;
 2/9=110,12=2,17=6,18=5,40=1/2;
 3/5=4,6=6,7=111,11=2,25=1,30=1,71=1,74=-5/1,2,3;
 4//1;
 5/5=2,8=3,13=1,38=5/2,8;
 6/7=2,8=2,9=2,10=2,28=1/1;
 7//1,2,3,16;
 1/18=20,19=15,26=3/3(2);
 2/9=110/2;
 99//99;
 2/9=110/2;
 3/5=4,6=6,7=111,11=2,25=1,30=1,71=1,74=-5/1,2,3;
 4/5=5,16=3,69=1/1;
 5/5=2,8=3,13=1,38=5/2,8;
 7//1,2,3,16;
 1/18=20,19=15,26=3/3(-5);
 2/9=110/2;
 6/7=2,8=2,9=2,10=2,19=2,28=1/1;
 99/9=1/99;
 -------------------
 Title Card Required
 -------------------
 Symbolic Z-matrix:
 Charge =  0 Multiplicity = 1
 C                    -0.31744   1.47105  -0.09425 
 C                     1.01494   1.50093  -0.5276 
 C                     1.72284   2.71039  -0.53367 
 C                     1.09835   3.88995  -0.10639 
 C                    -0.23403   3.86006   0.32695 
 C                    -0.94193   2.65061   0.33302 
 C                    -1.29411  -0.19762  -0.08587 
 C                    -0.66963  -1.37719  -0.51314 
 C                    -1.37752  -2.58664  -0.50707 
 C                    -2.7099   -2.61652  -0.07372 
 C                    -3.33439  -1.43696   0.35355 
 C                    -2.62649  -0.22751   0.34748 
 H                     2.74014   2.7332   -0.86454 
 H                     1.63884   4.81339  -0.11103 
 H                    -0.71084   4.76069   0.65318 
 H                     0.34768  -1.35437  -0.84401 
 H                    -0.90071  -3.48726  -0.8333 
 Cl                   -3.41078   1.25389   0.88409 
 Cl                   -2.61525   2.61308   0.87726 
 Cl                   -5.0077   -1.47449   0.8978 
 Cl                   -3.59893  -4.13546  -0.06609 
 Cl                    1.79923   0.01953  -1.0642 
 

 GradGradGradGradGradGradGradGradGradGradGradGradGradGradGradGradGradGrad
 Berny optimization.
 Initialization pass.
                           ----------------------------
                           !    Initial Parameters    !
                           ! (Angstroms and Degrees)  !
 --------------------------                            --------------------------
 ! Name  Definition              Value          Derivative Info.                !
 --------------------------------------------------------------------------------
 ! R1    R(1,2)                  1.4014         estimate D2E/DX2                !
 ! R2    R(1,6)                  1.4014         estimate D2E/DX2                !
 ! R3    R(2,3)                  1.4014         estimate D2E/DX2                !
 ! R4    R(2,22)                 1.76           estimate D2E/DX2                !
 ! R5    R(3,4)                  1.4014         estimate D2E/DX2                !
 ! R6    R(3,13)                 1.07           estimate D2E/DX2                !
 ! R7    R(4,5)                  1.4014         estimate D2E/DX2                !
 ! R8    R(4,14)                 1.07           estimate D2E/DX2                !
 ! R9    R(5,6)                  1.4014         estimate D2E/DX2                !
 ! R10   R(5,15)                 1.07           estimate D2E/DX2                !
 ! R11   R(6,19)                 1.76           estimate D2E/DX2                !
 ! R12   R(7,8)                  1.4014         estimate D2E/DX2                !
 ! R13   R(7,12)                 1.4014         estimate D2E/DX2                !
 ! R14   R(8,9)                  1.4014         estimate D2E/DX2                !
 ! R15   R(8,16)                 1.07           estimate D2E/DX2                !
 ! R16   R(9,10)                 1.4014         estimate D2E/DX2                !
 ! R17   R(9,17)                 1.07           estimate D2E/DX2                !
 ! R18   R(10,11)                1.4014         estimate D2E/DX2                !
 ! R19   R(10,21)                1.76           estimate D2E/DX2                !
 ! R20   R(11,12)                1.4014         estimate D2E/DX2                !
 ! R21   R(11,20)                1.76           estimate D2E/DX2                !
 ! R22   R(12,18)                1.76           estimate D2E/DX2                !
 ! R23   R(18,19)                1.5749         estimate D2E/DX2                !
 ! A1    A(2,1,6)              120.0            estimate D2E/DX2                !
 ! A2    A(1,2,3)              120.0            estimate D2E/DX2                !
 ! A3    A(1,2,22)             120.0            estimate D2E/DX2                !
 ! A4    A(3,2,22)             120.0            estimate D2E/DX2                !
 ! A5    A(2,3,4)              120.0            estimate D2E/DX2                !
 ! A6    A(2,3,13)             120.0            estimate D2E/DX2                !
 ! A7    A(4,3,13)             120.0            estimate D2E/DX2                !
 ! A8    A(3,4,5)              120.0            estimate D2E/DX2                !
 ! A9    A(3,4,14)             120.0            estimate D2E/DX2                !
 ! A10   A(5,4,14)             120.0            estimate D2E/DX2                !
 ! A11   A(4,5,6)              120.0            estimate D2E/DX2                !
 ! A12   A(4,5,15)             120.0            estimate D2E/DX2                !
 ! A13   A(6,5,15)             120.0            estimate D2E/DX2                !
 ! A14   A(1,6,5)              120.0            estimate D2E/DX2                !
 ! A15   A(1,6,19)             120.0            estimate D2E/DX2                !
 ! A16   A(5,6,19)             120.0            estimate D2E/DX2                !
 ! A17   A(8,7,12)             120.0            estimate D2E/DX2                !
 ! A18   A(7,8,9)              120.0            estimate D2E/DX2                !
 ! A19   A(7,8,16)             120.0            estimate D2E/DX2                !
 ! A20   A(9,8,16)             120.0            estimate D2E/DX2                !
 ! A21   A(8,9,10)             120.0            estimate D2E/DX2                !
 ! A22   A(8,9,17)             120.0            estimate D2E/DX2                !
 ! A23   A(10,9,17)            120.0            estimate D2E/DX2                !
 ! A24   A(9,10,11)            120.0            estimate D2E/DX2                !
 ! A25   A(9,10,21)            120.0            estimate D2E/DX2                !
 ! A26   A(11,10,21)           120.0            estimate D2E/DX2                !
 ! A27   A(10,11,12)           120.0            estimate D2E/DX2                !
 ! A28   A(10,11,20)           120.0            estimate D2E/DX2                !
 ! A29   A(12,11,20)           120.0            estimate D2E/DX2                !
 ! A30   A(7,12,11)            120.0            estimate D2E/DX2                !
 ! A31   A(7,12,18)            120.0            estimate D2E/DX2                !
 ! A32   A(11,12,18)           120.0            estimate D2E/DX2                !
 ! A33   A(12,18,19)           120.0            estimate D2E/DX2                !
 ! A34   A(6,19,18)            120.0            estimate D2E/DX2                !
 ! D1    D(6,1,2,3)              0.0001         estimate D2E/DX2                !
 ! D2    D(6,1,2,22)           180.0            estimate D2E/DX2                !
 ! D3    D(2,1,6,5)             -0.0001         estimate D2E/DX2                !
 ! D4    D(2,1,6,19)           180.0            estimate D2E/DX2                !
 ! D5    D(1,2,3,4)              0.0            estimate D2E/DX2                !
 ! D6    D(1,2,3,13)           180.0            estimate D2E/DX2                !
 ! D7    D(22,2,3,4)          -179.9999         estimate D2E/DX2                !
 ! D8    D(22,2,3,13)            0.0001         estimate D2E/DX2                !
 ! D9    D(2,3,4,5)             -0.0001         estimate D2E/DX2                !
 ! D10   D(2,3,4,14)           180.0            estimate D2E/DX2                !
 ! D11   D(13,3,4,5)           179.9999         estimate D2E/DX2                !
 ! D12   D(13,3,4,14)            0.0            estimate D2E/DX2                !
 ! D13   D(3,4,5,6)              0.0001         estimate D2E/DX2                !
 ! D14   D(3,4,5,15)          -179.9999         estimate D2E/DX2                !
 ! D15   D(14,4,5,6)          -180.0            estimate D2E/DX2                !
 ! D16   D(14,4,5,15)            0.0            estimate D2E/DX2                !
 ! D17   D(4,5,6,1)              0.0            estimate D2E/DX2                !
 ! D18   D(4,5,6,19)           179.9999         estimate D2E/DX2                !
 ! D19   D(15,5,6,1)           180.0            estimate D2E/DX2                !
 ! D20   D(15,5,6,19)           -0.0001         estimate D2E/DX2                !
 ! D21   D(1,6,19,18)            0.0004         estimate D2E/DX2                !
 ! D22   D(5,6,19,18)         -179.9995         estimate D2E/DX2                !
 ! D23   D(12,7,8,9)             0.0001         estimate D2E/DX2                !
 ! D24   D(12,7,8,16)         -179.9998         estimate D2E/DX2                !
 ! D25   D(8,7,12,11)           -0.0001         estimate D2E/DX2                !
 ! D26   D(8,7,12,18)          179.9999         estimate D2E/DX2                !
 ! D27   D(7,8,9,10)             0.0            estimate D2E/DX2                !
 ! D28   D(7,8,9,17)           180.0            estimate D2E/DX2                !
 ! D29   D(16,8,9,10)          179.9998         estimate D2E/DX2                !
 ! D30   D(16,8,9,17)           -0.0002         estimate D2E/DX2                !
 ! D31   D(8,9,10,11)            0.0            estimate D2E/DX2                !
 ! D32   D(8,9,10,21)         -179.9999         estimate D2E/DX2                !
 ! D33   D(17,9,10,11)         180.0            estimate D2E/DX2                !
 ! D34   D(17,9,10,21)           0.0001         estimate D2E/DX2                !
 ! D35   D(9,10,11,12)           0.0            estimate D2E/DX2                !
 ! D36   D(9,10,11,20)        -179.9998         estimate D2E/DX2                !
 ! D37   D(21,10,11,12)        179.9999         estimate D2E/DX2                !
 ! D38   D(21,10,11,20)          0.0001         estimate D2E/DX2                !
 ! D39   D(10,11,12,7)           0.0            estimate D2E/DX2                !
 ! D40   D(10,11,12,18)       -179.9999         estimate D2E/DX2                !
 ! D41   D(20,11,12,7)         179.9999         estimate D2E/DX2                !
 ! D42   D(20,11,12,18)         -0.0001         estimate D2E/DX2                !
 ! D43   D(7,12,18,19)           0.0004         estimate D2E/DX2                !
 ! D44   D(11,12,18,19)       -179.9996         estimate D2E/DX2                !
 ! D45   D(12,18,19,6)          -0.0006         estimate D2E/DX2                !
 --------------------------------------------------------------------------------
 Trust Radius=3.00D-01 FncErr=1.00D-07 GrdErr=1.00D-06 EigMax=2.50D+02 EigMin=1.00D-04
 Number of steps in this run=    112 maximum allowed number of steps=    132.
 GradGradGradGradGradGradGradGradGradGradGradGradGradGradGradGradGradGrad

                          Input orientation:                          
 ---------------------------------------------------------------------
 Center     Atomic      Atomic             Coordinates (Angstroms)
 Number     Number       Type             X           Y           Z
 ---------------------------------------------------------------------
      1          6           0       -0.317439    1.471048   -0.094249
      2          6           0        1.014942    1.500934   -0.527596
      3          6           0        1.722835    2.710385   -0.533668
      4          6           0        1.098348    3.889950   -0.106393
      5          6           0       -0.234034    3.860065    0.326952
      6          6           0       -0.941927    2.650614    0.333024
      7          6           0       -1.294114   -0.197622   -0.085870
      8          6           0       -0.669627   -1.377187   -0.513145
      9          6           0       -1.377520   -2.586638   -0.507070
     10          6           0       -2.709900   -2.616524   -0.073721
     11          6           0       -3.334387   -1.436959    0.353555
     12          6           0       -2.626494   -0.227508    0.347481
     13          1           0        2.740138    2.733203   -0.864537
     14          1           0        1.638841    4.813393   -0.111029
     15          1           0       -0.710844    4.760689    0.653183
     16          1           0        0.347676   -1.354368   -0.844014
     17          1           0       -0.900710   -3.487262   -0.833304
     18         17           0       -3.410779    1.253892    0.884092
     19         17           0       -2.615248    2.613081    0.877258
     20         17           0       -5.007704   -1.474494    0.897797
     21         17           0       -3.598932   -4.135459   -0.066089
     22         17           0        1.799228    0.019533   -1.064201
 ---------------------------------------------------------------------
                    Distance matrix (angstroms):
                    1          2          3          4          5
     1  C    0.000000
     2  C    1.401400   0.000000
     3  C    2.427296   1.401400   0.000000
     4  C    2.802800   2.427296   1.401400   0.000000
     5  C    2.427296   2.802800   2.427296   1.401400   0.000000
     6  C    1.401400   2.427296   2.802800   2.427296   1.401400
     7  C    1.933500   2.900336   4.214144   4.736300   4.214144
     8  C    2.900336   3.334900   4.736300   5.570809   5.322058
     9  C    4.214144   4.736300   6.137700   6.945261   6.600237
    10  C    4.736300   5.570809   6.945261   7.539100   6.945261
    11  C    4.214144   5.322058   6.600237   6.945261   6.137700
    12  C    2.900336   4.124721   5.322058   5.570809   4.736300
    13  H    3.396345   2.146700   1.070000   2.146700   3.396345
    14  H    3.872800   3.396345   2.146700   1.070000   2.146700
    15  H    3.396345   3.872800   3.396345   2.146700   1.070000
    16  H    2.997917   2.949257   4.302278   5.348875   5.375859
    17  H    5.046905   5.352128   6.736735   7.677753   7.468190
    18  Cl   3.251623   4.651977   5.521359   5.316210   4.146595
    19  Cl   2.743718   4.048303   4.562800   4.048303   2.743718
    20  Cl   5.626630   6.867109   8.053724   8.189599   7.181317
    21  Cl   6.496300   7.298613   8.683630   9.299100   8.683630
    22  Cl   2.743718   1.760000   2.743718   4.048303   4.562800
                    6          7          8          9         10
     6  C    0.000000
     7  C    2.900336   0.000000
     8  C    4.124721   1.401400   0.000000
     9  C    5.322058   2.427296   1.401400   0.000000
    10  C    5.570809   2.802800   2.427296   1.401400   0.000000
    11  C    4.736300   2.427296   2.802800   2.427296   1.401400
    12  C    3.334900   1.401400   2.427296   2.802800   2.427296
    13  H    3.872800   5.046905   5.352128   6.736735   7.677753
    14  H    3.396345   5.806300   6.619214   8.000983   8.609100
    15  H    2.146700   5.046905   6.247843   7.468190   7.677753
    16  H    4.369024   2.146700   1.070000   2.146700   3.396345
    17  H    6.247843   3.396345   2.146700   1.070000   2.146700
    18  Cl   2.889591   2.743718   4.048303   4.562800   4.048303
    19  Cl   1.760000   3.251623   4.651977   5.521359   5.316210
    20  Cl   5.819452   4.048303   4.562800   4.048303   2.743718
    21  Cl   7.298613   4.562800   4.048303   2.743718   1.760000
    22  Cl   4.048303   3.251623   2.889591   4.146595   5.316210
                   11         12         13         14         15
    11  C    0.000000
    12  C    1.401400   0.000000
    13  H    7.468190   6.247843   0.000000
    14  H    8.000983   6.619214   2.471400   0.000000
    15  H    6.736735   5.352128   4.280590   2.471400   0.000000
    16  H    3.872800   3.396345   4.736300   6.343946   6.384042
    17  H    3.396345   3.872800   7.207700   8.710446   8.382982
    18  Cl   2.743718   1.760000   6.563524   6.257713   4.431771
    19  Cl   4.146595   2.889591   5.632800   4.890332   2.879094
    20  Cl   1.760000   2.743718   8.991085   9.204988   7.576302
    21  Cl   2.743718   4.048303   9.380824  10.369100   9.380824
    22  Cl   5.521359   4.651977   2.879094   4.890332   5.632800
                   16         17         18         19         20
    16  H    0.000000
    17  H    2.471400   0.000000
    18  Cl   4.890332   5.632800   0.000000
    19  Cl   5.242360   6.563524   1.574900   0.000000
    20  Cl   5.632800   4.890332   3.161400   4.736300   0.000000
    21  Cl   4.890332   2.879094   5.475705   6.884790   3.161400
    22  Cl   2.010744   4.431771   5.697689   5.475705   7.239882
                   21         22
    21  Cl   0.000000
    22  Cl   6.884789   0.000000
 Stoichiometry    C12H5Cl5
 Framework group  C1[X(C12H5Cl5)]
 Deg. of freedom    60
 Full point group                 C1      NOp   1
 Largest Abelian subgroup         C1      NOp   1
 Largest concise Abelian subgroup C1      NOp   1
                         Standard orientation:                         
 ---------------------------------------------------------------------
 Center     Atomic      Atomic             Coordinates (Angstroms)
 Number     Number       Type             X           Y           Z
 ---------------------------------------------------------------------
      1          6           0        1.903411    0.199377    0.000001
      2          6           0        2.816610    1.262386   -0.000000
      3          6           0        4.193803    1.003037   -0.000003
      4          6           0        4.657796   -0.319322   -0.000004
      5          6           0        3.744596   -1.382331    0.000000
      6          6           0        2.367403   -1.122981    0.000002
      7          6           0        0.003309    0.557200    0.000003
      8          6           0       -0.460684    1.879559    0.000004
      9          6           0       -1.837876    2.138909    0.000004
     10          6           0       -2.751076    1.075900    0.000003
     11          6           0       -2.287083   -0.246459    0.000001
     12          6           0       -0.909891   -0.505809    0.000001
     13          1           0        4.891051    1.814668   -0.000005
     14          1           0        5.709313   -0.517341   -0.000006
     15          1           0        4.098865   -2.391981    0.000002
     16          1           0        0.236565    2.691190    0.000003
     17          1           0       -2.192145    3.148559    0.000005
     18         17           0       -0.327168   -2.166542   -0.000003
     19         17           0        1.220528   -2.458000    0.000005
     20         17           0       -3.433959   -1.581478   -0.000005
     21         17           0       -4.480674    1.401614    0.000000
     22         17           0        2.233888    2.923119   -0.000003
 ---------------------------------------------------------------------
 Rotational constants (GHZ):           0.4829558           0.2041993           0.1435182
 Standard basis: 6-311+G(d,p) (5D, 7F)
 There are   461 symmetry adapted cartesian basis functions of A   symmetry.
 There are   444 symmetry adapted basis functions of A   symmetry.
   444 basis functions,   737 primitive gaussians,   461 cartesian basis functions
    81 alpha electrons       81 beta electrons
       nuclear repulsion energy      1802.0939410676 Hartrees.
 NAtoms=   22 NActive=   22 NUniq=   22 SFac= 1.00D+00 NAtFMM=   60 NAOKFM=F Big=F
 Integral buffers will be    131072 words long.
 Raffenetti 2 integral format.
 Two-electron integral symmetry is turned on.
 One-electron integrals computed using PRISM.
 NBasis=   444 RedAO= T EigKep=  1.72D-06  NBF=   444
 NBsUse=   438 1.00D-06 EigRej=  9.75D-07 NBFU=   438
 ExpMin= 4.38D-02 ExpMax= 1.06D+05 ExpMxC= 3.62D+03 IAcc=3 IRadAn=         5 AccDes= 0.00D+00
 Harris functional with IExCor=  402 and IRadAn=       5 diagonalized for initial guess.
 HarFok:  IExCor=  402 AccDes= 0.00D+00 IRadAn=         5 IDoV= 1 UseB2=F ITyADJ=14
 ICtDFT=  3500011 ScaDFX=  1.000000  1.000000  1.000000  1.000000
 FoFCou: FMM=F IPFlag=           0 FMFlag=      100000 FMFlg1=           0
         NFxFlg=           0 DoJE=T BraDBF=F KetDBF=T FulRan=T
         wScrn=  0.000000 ICntrl=       500 IOpCl=  0 I1Cent=   200000004 NGrid=           0
         NMat0=    1 NMatS0=      1 NMatT0=    0 NMatD0=    1 NMtDS0=    0 NMtDT0=    0
 Petite list used in FoFCou.
 Requested convergence on RMS density matrix=1.00D-08 within  32 cycles.
 Requested convergence on MAX density matrix=1.00D-06.
 Requested convergence on             energy=1.00D-06.
 No special actions if energy rises.
 EnCoef did     2 forward-backward iterations
 EnCoef did     2 forward-backward iterations
 EnCoef did     3 forward-backward iterations
 EnCoef did     5 forward-backward iterations
 Restarting incremental Fock formation.
 SCF Done:  E(RB3LYP) =  -2760.89496328     A.U. after   23 cycles
            NFock= 23  Conv=0.67D-08     -V/T= 2.0020
 QCSCF skips out because SCF is already converged.

 **********************************************************************

            Population analysis using the SCF Density.

 **********************************************************************

 Orbital symmetries:
       Occupied  (A) (A) (A) (A) (A) (A) (A) (A) (A) (A) (A) (A)
                 (A) (A) (A) (A) (A) (A) (A) (A) (A) (A) (A) (A)
                 (A) (A) (A) (A) (A) (A) (A) (A) (A) (A) (A) (A)
                 (A) (A) (A) (A) (A) (A) (A) (A) (A) (A) (A) (A)
                 (A) (A) (A) (A) (A) (A) (A) (A) (A) (A) (A) (A)
                 (A) (A) (A) (A) (A) (A) (A) (A) (A) (A) (A) (A)
                 (A) (A) (A) (A) (A) (A) (A) (A) (A)
       Virtual   (A) (A) (A) (A) (A) (A) (A) (A) (A) (A) (A) (A)
                 (A) (A) (A) (A) (A) (A) (A) (A) (A) (A) (A) (A)
                 (A) (A) (A) (A) (A) (A) (A) (A) (A) (A) (A) (A)
                 (A) (A) (A) (A) (A) (A) (A) (A) (A) (A) (A) (A)
                 (A) (A) (A) (A) (A) (A) (A) (A) (A) (A) (A) (A)
                 (A) (A) (A) (A) (A) (A) (A) (A) (A) (A) (A) (A)
                 (A) (A) (A) (A) (A) (A) (A) (A) (A) (A) (A) (A)
                 (A) (A) (A) (A) (A) (A) (A) (A) (A) (A) (A) (A)
                 (A) (A) (A) (A) (A) (A) (A) (A) (A) (A) (A) (A)
                 (A) (A) (A) (A) (A) (A) (A) (A) (A) (A) (A) (A)
                 (A) (A) (A) (A) (A) (A) (A) (A) (A) (A) (A) (A)
                 (A) (A) (A) (A) (A) (A) (A) (A) (A) (A) (A) (A)
                 (A) (A) (A) (A) (A) (A) (A) (A) (A) (A) (A) (A)
                 (A) (A) (A) (A) (A) (A) (A) (A) (A) (A) (A) (A)
                 (A) (A) (A) (A) (A) (A) (A) (A) (A) (A) (A) (A)
                 (A) (A) (A) (A) (A) (A) (A) (A) (A) (A) (A) (A)
                 (A) (A) (A) (A) (A) (A) (A) (A) (A) (A) (A) (A)
                 (A) (A) (A) (A) (A) (A) (A) (A) (A) (A) (A) (A)
                 (A) (A) (A) (A) (A) (A) (A) (A) (A) (A) (A) (A)
                 (A) (A) (A) (A) (A) (A) (A) (A) (A) (A) (A) (A)
                 (A) (A) (A) (A) (A) (A) (A) (A) (A) (A) (A) (A)
                 (A) (A) (A) (A) (A) (A) (A) (A) (A) (A) (A) (A)
                 (A) (A) (A) (A) (A) (A) (A) (A) (A) (A) (A) (A)
                 (A) (A) (A) (A) (A) (A) (A) (A) (A) (A) (A) (A)
                 (A) (A) (A) (A) (A) (A) (A) (A) (A) (A) (A) (A)
                 (A) (A) (A) (A) (A) (A) (A) (A) (A) (A) (A) (A)
                 (A) (A) (A) (A) (A) (A) (A) (A) (A) (A) (A) (A)
                 (A) (A) (A) (A) (A) (A) (A) (A) (A) (A) (A) (A)
                 (A) (A) (A) (A) (A) (A) (A) (A) (A) (A) (A) (A)
                 (A) (A) (A) (A) (A) (A) (A) (A) (A)
 The electronic state is 1-A.
 Alpha  occ. eigenvalues -- -101.68241-101.67669-101.56768-101.55958-101.55291
 Alpha  occ. eigenvalues --  -10.26145 -10.25055 -10.24966 -10.23921 -10.23343
 Alpha  occ. eigenvalues --  -10.20774 -10.20674 -10.20586 -10.20209 -10.19561
 Alpha  occ. eigenvalues --  -10.18738 -10.18440  -9.59925  -9.59403  -9.48347
 Alpha  occ. eigenvalues --   -9.47435  -9.46749  -7.36448  -7.35954  -7.35559
 Alpha  occ. eigenvalues --   -7.35003  -7.34988  -7.34407  -7.24784  -7.23869
 Alpha  occ. eigenvalues --   -7.23826  -7.23784  -7.23206  -7.22923  -7.22896
 Alpha  occ. eigenvalues --   -7.22245  -7.22186  -1.18300  -0.91913  -0.91388
 Alpha  occ. eigenvalues --   -0.87890  -0.85986  -0.84772  -0.83307  -0.78320
 Alpha  occ. eigenvalues --   -0.75919  -0.73958  -0.72938  -0.67861  -0.63261
 Alpha  occ. eigenvalues --   -0.61263  -0.60149  -0.58086  -0.56101  -0.56079
 Alpha  occ. eigenvalues --   -0.52218  -0.50973  -0.49235  -0.48738  -0.47350
 Alpha  occ. eigenvalues --   -0.45617  -0.43754  -0.43634  -0.42157  -0.41899
 Alpha  occ. eigenvalues --   -0.41306  -0.40292  -0.38773  -0.36911  -0.35185
 Alpha  occ. eigenvalues --   -0.35053  -0.34449  -0.33294  -0.32995  -0.31589
 Alpha  occ. eigenvalues --   -0.30501  -0.28588  -0.26860  -0.25323  -0.24540
 Alpha  occ. eigenvalues --   -0.12737
 Alpha virt. eigenvalues --   -0.05623  -0.05563  -0.04670  -0.02902  -0.02248
 Alpha virt. eigenvalues --   -0.01525  -0.01509  -0.00084   0.00508   0.01552
 Alpha virt. eigenvalues --    0.02324   0.02395   0.02971   0.03465   0.03868
 Alpha virt. eigenvalues --    0.04603   0.05133   0.05851   0.06121   0.06175
 Alpha virt. eigenvalues --    0.06704   0.07229   0.07778   0.08259   0.08287
 Alpha virt. eigenvalues --    0.08445   0.09121   0.10009   0.10302   0.10546
 Alpha virt. eigenvalues --    0.10929   0.11064   0.11365   0.12026   0.12072
 Alpha virt. eigenvalues --    0.13436   0.13438   0.13915   0.14594   0.14668
 Alpha virt. eigenvalues --    0.14858   0.14912   0.15410   0.15677   0.15969
 Alpha virt. eigenvalues --    0.16252   0.16604   0.16802   0.17800   0.18472
 Alpha virt. eigenvalues --    0.18584   0.19169   0.19598   0.19803   0.19832
 Alpha virt. eigenvalues --    0.20101   0.20326   0.20801   0.21203   0.21547
 Alpha virt. eigenvalues --    0.22333   0.23186   0.23609   0.23741   0.24337
 Alpha virt. eigenvalues --    0.24542   0.25129   0.25301   0.25655   0.26456
 Alpha virt. eigenvalues --    0.26731   0.27522   0.27581   0.28151   0.28414
 Alpha virt. eigenvalues --    0.28847   0.29529   0.30153   0.31000   0.31592
 Alpha virt. eigenvalues --    0.32398   0.33287   0.34231   0.34709   0.35575
 Alpha virt. eigenvalues --    0.36532   0.38169   0.38620   0.39284   0.39708
 Alpha virt. eigenvalues --    0.42853   0.43449   0.43742   0.43769   0.44729
 Alpha virt. eigenvalues --    0.44830   0.46080   0.46627   0.46950   0.47865
 Alpha virt. eigenvalues --    0.48552   0.49018   0.49765   0.50028   0.50470
 Alpha virt. eigenvalues --    0.51980   0.52506   0.52506   0.53129   0.53907
 Alpha virt. eigenvalues --    0.55271   0.56484   0.56586   0.57976   0.58210
 Alpha virt. eigenvalues --    0.58351   0.58983   0.59882   0.60515   0.60819
 Alpha virt. eigenvalues --    0.61168   0.62131   0.63018   0.64139   0.64630
 Alpha virt. eigenvalues --    0.64963   0.65814   0.66170   0.67378   0.69015
 Alpha virt. eigenvalues --    0.69702   0.70083   0.70478   0.71741   0.73474
 Alpha virt. eigenvalues --    0.75365   0.77539   0.79554   0.79928   0.80011
 Alpha virt. eigenvalues --    0.81347   0.81541   0.83361   0.83734   0.83762
 Alpha virt. eigenvalues --    0.84066   0.84748   0.85733   0.86188   0.86581
 Alpha virt. eigenvalues --    0.86925   0.87146   0.87282   0.88364   0.89058
 Alpha virt. eigenvalues --    0.89639   0.90223   0.91251   0.91689   0.93243
 Alpha virt. eigenvalues --    0.94063   0.94345   0.95686   0.95912   0.96114
 Alpha virt. eigenvalues --    0.96788   0.97667   0.98519   0.98664   0.99273
 Alpha virt. eigenvalues --    1.00986   1.01096   1.02244   1.03387   1.03989
 Alpha virt. eigenvalues --    1.04541   1.06971   1.08379   1.09336   1.09824
 Alpha virt. eigenvalues --    1.11103   1.12703   1.13477   1.18522   1.21053
 Alpha virt. eigenvalues --    1.21987   1.22363   1.24173   1.24357   1.26046
 Alpha virt. eigenvalues --    1.27176   1.27941   1.28198   1.28928   1.29487
 Alpha virt. eigenvalues --    1.30800   1.31381   1.34558   1.34641   1.39357
 Alpha virt. eigenvalues --    1.43088   1.44908   1.49536   1.50259   1.51026
 Alpha virt. eigenvalues --    1.52922   1.54404   1.54770   1.55876   1.57736
 Alpha virt. eigenvalues --    1.60520   1.63319   1.65552   1.66788   1.67102
 Alpha virt. eigenvalues --    1.69313   1.71567   1.72155   1.74675   1.75013
 Alpha virt. eigenvalues --    1.78870   1.82595   1.82877   1.84836   1.86626
 Alpha virt. eigenvalues --    1.86744   1.87484   1.88493   1.88933   1.89528
 Alpha virt. eigenvalues --    1.89899   1.90454   1.91913   1.95042   1.96049
 Alpha virt. eigenvalues --    1.96944   1.97830   2.01048   2.03391   2.05486
 Alpha virt. eigenvalues --    2.06321   2.14709   2.16577   2.17583   2.19494
 Alpha virt. eigenvalues --    2.20986   2.21687   2.24159   2.26724   2.26729
 Alpha virt. eigenvalues --    2.28122   2.28353   2.29488   2.31574   2.32413
 Alpha virt. eigenvalues --    2.32741   2.35892   2.37049   2.38327   2.40755
 Alpha virt. eigenvalues --    2.41251   2.44527   2.46074   2.46878   2.52524
 Alpha virt. eigenvalues --    2.53910   2.54824   2.57176   2.58470   2.60448
 Alpha virt. eigenvalues --    2.61667   2.62993   2.63577   2.64530   2.68692
 Alpha virt. eigenvalues --    2.69494   2.70574   2.73619   2.73747   2.74080
 Alpha virt. eigenvalues --    2.74968   2.76921   2.77248   2.78970   2.79405
 Alpha virt. eigenvalues --    2.79678   2.82403   2.85516   2.85522   2.87152
 Alpha virt. eigenvalues --    2.88642   2.90525   2.97450   3.06118   3.08561
 Alpha virt. eigenvalues --    3.12026   3.14533   3.17638   3.19316   3.21167
 Alpha virt. eigenvalues --    3.22164   3.29712   3.35685   3.36060   3.39122
 Alpha virt. eigenvalues --    3.40803   3.47075   3.52376   3.63013   3.70419
 Alpha virt. eigenvalues --    3.71593   3.76005   3.86822   4.00367   4.04540
 Alpha virt. eigenvalues --    4.07870   4.10815   4.15793   4.81045   4.83185
 Alpha virt. eigenvalues --    9.63526   9.77281   9.81610   9.84546  10.04439
 Alpha virt. eigenvalues --   23.38541  23.43332  23.84341  23.87785  23.89349
 Alpha virt. eigenvalues --   23.89966  23.99237  23.99556  24.01553  24.02900
 Alpha virt. eigenvalues --   24.11907  24.12142  25.71286  25.79201  25.83781
 Alpha virt. eigenvalues --   25.86536  25.96806  26.05538  26.13844  26.18042
 Alpha virt. eigenvalues --   26.37090  26.50765  26.60444  26.67606  26.74540
 Alpha virt. eigenvalues --   26.97489  27.24491 215.63698 215.76737 215.81487
 Alpha virt. eigenvalues --  215.85320 216.10613
          Condensed to atoms (all electrons):
               1          2          3          4          5          6
     1  C   18.662668   1.490088  -2.004982  -2.664350  -7.147097   3.002721
     2  C    1.490088  13.981276  -3.710325  -1.613156   0.333515  -2.307074
     3  C   -2.004982  -3.710325  13.416752   0.371433  -0.331175   1.848052
     4  C   -2.664350  -1.613156   0.371433  12.810761   1.572084  -6.664962
     5  C   -7.147097   0.333515  -0.331175   1.572084  17.415713  -9.595749
     6  C    3.002721  -2.307074   1.848052  -6.664962  -9.595749  33.966984
     7  C    4.116038  -1.758208  -3.433885  -0.338785  -1.710300  -0.595082
     8  C    1.224497   1.094979   0.200936   0.190660  -0.470282  -3.005423
     9  C   -1.159055   0.513516   0.479664   0.088386  -0.162644  -0.502258
    10  C   -0.192969   0.516285  -0.059028   0.078832   0.055483  -0.444559
    11  C   -0.480438  -0.738323  -0.157977  -0.184449  -0.228778   0.457292
    12  C    0.082833  -0.509036   0.287364  -0.894039  -2.837117   9.385004
    13  H    0.075463   0.011348   0.369997  -0.047459  -0.056503  -0.004441
    14  H   -0.023478   0.048897  -0.052620   0.519961  -0.113404  -0.043651
    15  H    0.098414  -0.010544  -0.055573  -0.005604   0.331679   0.024405
    16  H   -0.036086   0.038002   0.029770   0.018137   0.003434   0.033665
    17  H    0.012447   0.001565  -0.000692  -0.000129   0.000302   0.000928
    18  Cl  -3.700975   0.192352  -0.481193   0.664597   1.875269  -4.950186
    19  Cl  -6.021416  -0.302756  -0.561869   2.936916   7.322671 -14.454397
    20  Cl   0.200824  -0.065092   0.006486  -0.027818  -0.172152   0.200638
    21  Cl  -0.113373   0.001504  -0.004380   0.002019   0.009185  -0.011133
    22  Cl   0.484893  -1.039373   0.052356  -0.314091   0.178795   0.049713
               7          8          9         10         11         12
     1  C    4.116038   1.224497  -1.159055  -0.192969  -0.480438   0.082833
     2  C   -1.758208   1.094979   0.513516   0.516285  -0.738323  -0.509036
     3  C   -3.433885   0.200936   0.479664  -0.059028  -0.157977   0.287364
     4  C   -0.338785   0.190660   0.088386   0.078832  -0.184449  -0.894039
     5  C   -1.710300  -0.470282  -0.162644   0.055483  -0.228778  -2.837117
     6  C   -0.595082  -3.005423  -0.502258  -0.444559   0.457292   9.385004
     7  C   17.932721  -1.311269  -3.624178  -0.390774   1.618217  -1.026943
     8  C   -1.311269  16.657285   3.647451  -4.855216  -0.471669  -4.516426
     9  C   -3.624178   3.647451  12.843563  -0.849831  -3.076874  -0.802008
    10  C   -0.390774  -4.855216  -0.849831  18.966276  -7.185335  -0.166989
    11  C    1.618217  -0.471669  -3.076874  -7.185335  19.567077  -2.167879
    12  C   -1.026943  -4.516426  -0.802008  -0.166989  -2.167879  35.709036
    13  H    0.011703   0.002538  -0.000417   0.000130  -0.000075  -0.000263
    14  H    0.000612  -0.000076   0.000046   0.000056  -0.000227  -0.000515
    15  H    0.022449  -0.001224   0.000092  -0.000273   0.000862   0.008456
    16  H   -0.208434   0.243676  -0.036269   0.151456  -0.109413   0.162213
    17  H    0.042120  -0.029083   0.357068   0.019642  -0.042611  -0.003433
    18  Cl  -2.687764  -1.263394  -1.199505   0.655951   2.440613 -20.433094
    19  Cl  -0.855784  -0.652427  -0.375838   0.448628  -0.410287  -8.639019
    20  Cl  -0.220945   0.966396   1.289847  -0.462235  -3.189117   3.567093
    21  Cl  -0.299674  -0.683936  -0.796198  -0.230078   0.844094   0.121892
    22  Cl   0.951293  -0.366632  -0.552169  -0.346306   0.286111  -0.159739
              13         14         15         16         17         18
     1  C    0.075463  -0.023478   0.098414  -0.036086   0.012447  -3.700975
     2  C    0.011348   0.048897  -0.010544   0.038002   0.001565   0.192352
     3  C    0.369997  -0.052620  -0.055573   0.029770  -0.000692  -0.481193
     4  C   -0.047459   0.519961  -0.005604   0.018137  -0.000129   0.664597
     5  C   -0.056503  -0.113404   0.331679   0.003434   0.000302   1.875269
     6  C   -0.004441  -0.043651   0.024405   0.033665   0.000928  -4.950186
     7  C    0.011703   0.000612   0.022449  -0.208434   0.042120  -2.687764
     8  C    0.002538  -0.000076  -0.001224   0.243676  -0.029083  -1.263394
     9  C   -0.000417   0.000046   0.000092  -0.036269   0.357068  -1.199505
    10  C    0.000130   0.000056  -0.000273   0.151456   0.019642   0.655951
    11  C   -0.000075  -0.000227   0.000862  -0.109413  -0.042611   2.440613
    12  C   -0.000263  -0.000515   0.008456   0.162213  -0.003433 -20.433094
    13  H    0.511770  -0.007162  -0.000234   0.000045   0.000000  -0.000156
    14  H   -0.007162   0.530831  -0.008426   0.000001  -0.000000   0.000740
    15  H   -0.000234  -0.008426   0.523649  -0.000001   0.000000   0.000004
    16  H    0.000045   0.000001  -0.000001   0.637934  -0.010869   0.058323
    17  H    0.000000  -0.000000   0.000000  -0.010869   0.516502   0.001191
    18  Cl  -0.000156   0.000740   0.000004   0.058323   0.001191  41.512938
    19  Cl   0.002072   0.010344  -0.066594   0.019222  -0.000069   7.175926
    20  Cl  -0.000002  -0.000004   0.000069  -0.006234  -0.001468  -4.107875
    21  Cl   0.000000   0.000000  -0.000002   0.006929  -0.007455   0.518785
    22  Cl  -0.016263   0.000796   0.001001  -0.124467  -0.000636  -0.233514
              19         20         21         22
     1  C   -6.021416   0.200824  -0.113373   0.484893
     2  C   -0.302756  -0.065092   0.001504  -1.039373
     3  C   -0.561869   0.006486  -0.004380   0.052356
     4  C    2.936916  -0.027818   0.002019  -0.314091
     5  C    7.322671  -0.172152   0.009185   0.178795
     6  C  -14.454397   0.200638  -0.011133   0.049713
     7  C   -0.855784  -0.220945  -0.299674   0.951293
     8  C   -0.652427   0.966396  -0.683936  -0.366632
     9  C   -0.375838   1.289847  -0.796198  -0.552169
    10  C    0.448628  -0.462235  -0.230078  -0.346306
    11  C   -0.410287  -3.189117   0.844094   0.286111
    12  C   -8.639019   3.567093   0.121892  -0.159739
    13  H    0.002072  -0.000002   0.000000  -0.016263
    14  H    0.010344  -0.000004   0.000000   0.000796
    15  H   -0.066594   0.000069  -0.000002   0.001001
    16  H    0.019222  -0.006234   0.006929  -0.124467
    17  H   -0.000069  -0.001468  -0.007455  -0.000636
    18  Cl   7.175926  -4.107875   0.518785  -0.233514
    19  Cl  31.956742  -1.073452   0.071575  -0.193927
    20  Cl  -1.073452  20.248671  -0.804306   0.018113
    21  Cl   0.071575  -0.804306  17.899170  -0.011170
    22  Cl  -0.193927   0.018113  -0.011170  17.763440
 Mulliken charges:
               1
     1  C    0.093331
     2  C   -0.169441
     3  C   -0.209111
     4  C   -0.498945
     5  C   -0.272930
     6  C   -0.390488
     7  C   -0.233128
     8  C   -0.601362
     9  C   -0.082390
    10  C    0.290853
    11  C   -0.770814
    12  C   -1.167391
    13  H    0.147908
    14  H    0.137277
    15  H    0.137392
    16  H    0.128965
    17  H    0.144678
    18  Cl   0.960967
    19  Cl   0.663738
    20  Cl   0.632563
    21  Cl   0.486553
    22  Cl   0.571773
 Sum of Mulliken charges =  -0.00000
 Mulliken charges with hydrogens summed into heavy atoms:
               1
     1  C    0.093331
     2  C   -0.169441
     3  C   -0.061203
     4  C   -0.361668
     5  C   -0.135538
     6  C   -0.390488
     7  C   -0.233128
     8  C   -0.472397
     9  C    0.062288
    10  C    0.290853
    11  C   -0.770814
    12  C   -1.167391
    18  Cl   0.960967
    19  Cl   0.663738
    20  Cl   0.632563
    21  Cl   0.486553
    22  Cl   0.571773
 Electronic spatial extent (au):  <R**2>=           6659.0055
 Charge=             -0.0000 electrons
 Dipole moment (field-independent basis, Debye):
    X=              4.3745    Y=             -1.6265    Z=             -0.0000  Tot=              4.6671
 Quadrupole moment (field-independent basis, Debye-Ang):
   XX=           -132.2380   YY=           -124.5411   ZZ=           -135.8203
   XY=             -3.6371   XZ=             -0.0000   YZ=             -0.0000
 Traceless Quadrupole moment (field-independent basis, Debye-Ang):
   XX=             -1.3715   YY=              6.3253   ZZ=             -4.9538
   XY=             -3.6371   XZ=             -0.0000   YZ=             -0.0000
 Octapole moment (field-independent basis, Debye-Ang**2):
  XXX=             98.9685  YYY=            -14.8680  ZZZ=             -0.0000  XYY=             -5.4199
  XXY=            -14.3316  XXZ=             -0.0001  XZZ=            -13.9646  YZZ=             -9.9303
  YYZ=              0.0000  XYZ=             -0.0000
 Hexadecapole moment (field-independent basis, Debye-Ang**3):
 XXXX=          -5898.8800 YYYY=          -2460.6893 ZZZZ=           -161.7199 XXXY=             36.0876
 XXXZ=             -0.0004 YYYX=            -20.7364 YYYZ=             -0.0001 ZZZX=              0.0002
 ZZZY=             -0.0001 XXYY=          -1444.5509 XXZZ=          -1124.7651 YYZZ=           -464.1773
 XXYZ=             -0.0001 YYXZ=              0.0001 ZZXY=              9.8487
 N-N= 1.802093941068D+03 E-N=-1.013962128332D+04  KE= 2.755404162360D+03
 Calling FoFJK, ICntrl=      2127 FMM=F ISym2X=0 I1Cent= 0 IOpClX= 0 NMat=1 NMatS=1 NMatT=0.
 ***** Axes restored to original set *****
 -------------------------------------------------------------------
 Center     Atomic                   Forces (Hartrees/Bohr)
 Number     Number              X              Y              Z
 -------------------------------------------------------------------
      1        6          -0.028481422   -0.070264069   -0.003812884
      2        6          -0.009225708    0.005575676    0.004086819
      3        6          -0.010178769    0.000632471    0.003472327
      4        6          -0.011575533   -0.018275840    0.000381003
      5        6           0.002469559   -0.017087252   -0.004022611
      6        6           0.116773291   -0.023218018   -0.042832448
      7        6           0.033349824    0.046881235   -0.002182522
      8        6          -0.014750002   -0.002608363    0.004369607
      9        6          -0.011500009    0.014875644    0.006582488
     10        6           0.001017496    0.007201500    0.001017296
     11        6           0.030416449    0.007300647   -0.008649808
     12        6           0.062540828   -0.126112800   -0.044289342
     13        1           0.008534301   -0.001137383   -0.003025265
     14        1           0.005771614    0.008412904   -0.000321452
     15        1          -0.007016865    0.011054745    0.004387955
     16        1          -0.008485447   -0.009525461    0.001006468
     17        1           0.003195953   -0.007609371   -0.002482013
     18       17          -0.274169270   -0.251500058    0.043095075
     19       17           0.088631127    0.402331869    0.046359118
     20       17          -0.009532903    0.005229244    0.004122796
     21       17           0.002399218   -0.004353722   -0.001608158
     22       17           0.029816268    0.022196401   -0.005654449
 -------------------------------------------------------------------
 Cartesian Forces:  Max     0.402331869 RMS     0.074263019

 GradGradGradGradGradGradGradGradGradGradGradGradGradGradGradGradGradGrad
 Berny optimization.
 FormGI is forming the generalized inverse of G from B-inverse, IUseBI=4.
 Internal  Forces:  Max     0.370076301 RMS     0.050462444
 Search for a local minimum.
 Step number   1 out of a maximum of  112
 All quantities printed in internal units (Hartrees-Bohrs-Radians)
 Mixed Optimization -- RFO/linear search
 Second derivative matrix not updated -- first step.
 ITU=  0
     Eigenvalues ---    0.00238   0.00238   0.01655   0.01655   0.02070
     Eigenvalues ---    0.02070   0.02070   0.02070   0.02070   0.02070
     Eigenvalues ---    0.02070   0.02070   0.02070   0.02070   0.02070
     Eigenvalues ---    0.02070   0.02070   0.02070   0.05597   0.16000
     Eigenvalues ---    0.16000   0.16000   0.16000   0.16000   0.22068
     Eigenvalues ---    0.22422   0.23478   0.24427   0.24896   0.25000
     Eigenvalues ---    0.25000   0.25000   0.25000   0.25000   0.25000
     Eigenvalues ---    0.25000   0.25000   0.29539   0.29539   0.29539
     Eigenvalues ---    0.29539   0.29539   0.37230   0.37230   0.37230
     Eigenvalues ---    0.37230   0.37230   0.41541   0.41554   0.41956
     Eigenvalues ---    0.42141   0.45389   0.45389   0.45389   0.45389
     Eigenvalues ---    0.45389   0.45389   0.45389   0.45389   2.31529
 RFO step:  Lambda=-2.77639420D-01 EMin= 2.37799042D-03
 Linear search not attempted -- first point.
 Maximum step size (   0.300) exceeded in Quadratic search.
    -- Step size scaled by   0.455
 Iteration  1 RMS(Cart)=  0.33454828 RMS(Int)=  0.00899922
 Iteration  2 RMS(Cart)=  0.08839350 RMS(Int)=  0.00041587
 Iteration  3 RMS(Cart)=  0.00066329 RMS(Int)=  0.00005388
 Iteration  4 RMS(Cart)=  0.00000019 RMS(Int)=  0.00005388
 Variable       Old X    -DE/DX   Delta X   Delta X   Delta X     New X
                                 (Linear)    (Quad)   (Total)
    R1        2.64826   0.03969   0.00000   0.02576   0.02587   2.67413
    R2        2.64826   0.05830   0.00000   0.03736   0.03745   2.68571
    R3        2.64826  -0.00537   0.00000  -0.00337  -0.00335   2.64491
    R4        3.32592  -0.00367   0.00000  -0.00292  -0.00292   3.32300
    R5        2.64826  -0.02485   0.00000  -0.01655  -0.01664   2.63162
    R6        2.02201   0.00903   0.00000   0.00632   0.00632   2.02833
    R7        2.64826  -0.02649   0.00000  -0.01755  -0.01765   2.63061
    R8        2.02201   0.01018   0.00000   0.00713   0.00713   2.02914
    R9        2.64826  -0.01484   0.00000  -0.00922  -0.00923   2.63903
   R10        2.02201   0.01377   0.00000   0.00964   0.00964   2.03165
   R11        3.32592   0.10501   0.00000   0.08343   0.08343   3.40934
   R12        2.64826   0.00241   0.00000   0.00187   0.00191   2.65018
   R13        2.64826   0.01735   0.00000   0.01116   0.01119   2.65945
   R14        2.64826  -0.00379   0.00000  -0.00234  -0.00234   2.64592
   R15        2.02201  -0.00858   0.00000  -0.00601  -0.00601   2.01600
   R16        2.64826  -0.01699   0.00000  -0.01093  -0.01097   2.63729
   R17        2.02201   0.00859   0.00000   0.00601   0.00601   2.02802
   R18        2.64826  -0.01596   0.00000  -0.01030  -0.01034   2.63792
   R19        3.32592   0.00254   0.00000   0.00202   0.00202   3.32793
   R20        2.64826  -0.02384   0.00000  -0.01485  -0.01485   2.63341
   R21        3.32592   0.01023   0.00000   0.00813   0.00813   3.33404
   R22        3.32592   0.11018   0.00000   0.08754   0.08754   3.41346
   R23        2.97613   0.37008   0.00000   0.06498   0.06498   3.04111
    A1        2.09440  -0.06269   0.00000  -0.05003  -0.04975   2.04465
    A2        2.09440   0.01836   0.00000   0.01698   0.01710   2.11149
    A3        2.09440   0.05305   0.00000   0.04520   0.04514   2.13954
    A4        2.09440  -0.07140   0.00000  -0.06218  -0.06224   2.03216
    A5        2.09440   0.01465   0.00000   0.01140   0.01132   2.10571
    A6        2.09440  -0.00869   0.00000  -0.00712  -0.00708   2.08732
    A7        2.09440  -0.00596   0.00000  -0.00428  -0.00424   2.09016
    A8        2.09440  -0.00375   0.00000  -0.00699  -0.00720   2.08719
    A9        2.09440   0.00108   0.00000   0.00267   0.00278   2.09717
   A10        2.09440   0.00267   0.00000   0.00432   0.00443   2.09882
   A11        2.09440   0.00847   0.00000   0.00585   0.00570   2.10010
   A12        2.09440  -0.00318   0.00000  -0.00182  -0.00175   2.09265
   A13        2.09440  -0.00529   0.00000  -0.00403  -0.00395   2.09044
   A14        2.09440   0.02497   0.00000   0.02278   0.02283   2.11723
   A15        2.09440   0.03610   0.00000   0.03053   0.03050   2.12490
   A16        2.09440  -0.06106   0.00000  -0.05331  -0.05333   2.04106
   A17        2.09440  -0.04111   0.00000  -0.03430  -0.03419   2.06020
   A18        2.09440   0.01414   0.00000   0.01324   0.01328   2.10767
   A19        2.09440   0.00253   0.00000   0.00336   0.00335   2.09774
   A20        2.09440  -0.01667   0.00000  -0.01660  -0.01662   2.07777
   A21        2.09440   0.00864   0.00000   0.00710   0.00707   2.10146
   A22        2.09440  -0.00356   0.00000  -0.00276  -0.00274   2.09165
   A23        2.09440  -0.00508   0.00000  -0.00434  -0.00432   2.09007
   A24        2.09440  -0.00971   0.00000  -0.00967  -0.00976   2.08464
   A25        2.09440  -0.00274   0.00000  -0.00171  -0.00167   2.09272
   A26        2.09440   0.01245   0.00000   0.01139   0.01143   2.10582
   A27        2.09440   0.00262   0.00000   0.00146   0.00141   2.09580
   A28        2.09440   0.00790   0.00000   0.00721   0.00724   2.10163
   A29        2.09440  -0.01051   0.00000  -0.00867  -0.00865   2.08575
   A30        2.09440   0.02543   0.00000   0.02217   0.02220   2.11659
   A31        2.09440  -0.02580   0.00000  -0.02238  -0.02239   2.07200
   A32        2.09440   0.00038   0.00000   0.00021   0.00019   2.09459
   A33        2.09440  -0.18266   0.00000  -0.15760  -0.15760   1.93679
   A34        2.09440  -0.18788   0.00000  -0.16211  -0.16211   1.93229
    D1        0.00000  -0.00000   0.00000  -0.00000  -0.00000   0.00000
    D2        3.14159  -0.00000   0.00000  -0.00000  -0.00000   3.14159
    D3       -0.00000   0.00000   0.00000   0.00000   0.00000  -0.00000
    D4        3.14159   0.00000   0.00000   0.00000   0.00000   3.14159
    D5        0.00000   0.00000   0.00000   0.00000   0.00000   0.00000
    D6        3.14159   0.00000   0.00000   0.00000   0.00000   3.14159
    D7       -3.14159  -0.00000   0.00000  -0.00000  -0.00000  -3.14159
    D8        0.00000  -0.00000   0.00000  -0.00000  -0.00000   0.00000
    D9       -0.00000   0.00000   0.00000   0.00000   0.00000  -0.00000
   D10        3.14159  -0.00000   0.00000  -0.00000  -0.00000   3.14159
   D11        3.14159  -0.00000   0.00000   0.00000   0.00000   3.14159
   D12        0.00000  -0.00000   0.00000  -0.00000  -0.00000   0.00000
   D13        0.00000  -0.00000   0.00000  -0.00000  -0.00000   0.00000
   D14       -3.14159  -0.00000   0.00000  -0.00000  -0.00000  -3.14159
   D15       -3.14159  -0.00000   0.00000  -0.00000  -0.00000  -3.14159
   D16        0.00000  -0.00000   0.00000  -0.00000  -0.00000   0.00000
   D17       -0.00000   0.00000   0.00000   0.00000   0.00000  -0.00000
   D18        3.14159  -0.00000   0.00000  -0.00000  -0.00000   3.14159
   D19        3.14159   0.00000   0.00000   0.00000   0.00000   3.14159
   D20       -0.00000  -0.00000   0.00000  -0.00000  -0.00000  -0.00000
   D21        0.00001  -0.00000   0.00000  -0.00000  -0.00000   0.00001
   D22       -3.14158  -0.00000   0.00000  -0.00000  -0.00000  -3.14158
   D23        0.00000  -0.00000   0.00000  -0.00000  -0.00000   0.00000
   D24       -3.14159  -0.00000   0.00000  -0.00000  -0.00000  -3.14159
   D25       -0.00000   0.00000   0.00000   0.00000   0.00000  -0.00000
   D26        3.14159   0.00000   0.00000   0.00000   0.00000   3.14159
   D27       -0.00000  -0.00000   0.00000  -0.00000  -0.00000  -0.00000
   D28        3.14159  -0.00000   0.00000  -0.00000  -0.00000   3.14159
   D29        3.14159   0.00000   0.00000   0.00000   0.00000   3.14159
   D30       -0.00000   0.00000   0.00000   0.00000   0.00000  -0.00000
   D31       -0.00000   0.00000   0.00000   0.00000   0.00000  -0.00000
   D32       -3.14159  -0.00000   0.00000  -0.00000  -0.00000  -3.14159
   D33        3.14159   0.00000   0.00000   0.00000   0.00000   3.14159
   D34        0.00000  -0.00000   0.00000  -0.00000  -0.00000   0.00000
   D35        0.00000  -0.00000   0.00000  -0.00000  -0.00000   0.00000
   D36       -3.14159  -0.00000   0.00000  -0.00000  -0.00000  -3.14159
   D37        3.14159   0.00000   0.00000   0.00000   0.00000   3.14159
   D38        0.00000  -0.00000   0.00000  -0.00000  -0.00000   0.00000
   D39        0.00000   0.00000   0.00000   0.00000   0.00000   0.00000
   D40       -3.14159  -0.00000   0.00000  -0.00000  -0.00000  -3.14159
   D41        3.14159   0.00000   0.00000   0.00000   0.00000   3.14159
   D42       -0.00000  -0.00000   0.00000  -0.00000  -0.00000  -0.00000
   D43        0.00001  -0.00000   0.00000  -0.00000  -0.00000   0.00001
   D44       -3.14159   0.00000   0.00000   0.00000   0.00000  -3.14159
   D45       -0.00001   0.00000   0.00000   0.00000   0.00000  -0.00001
         Item               Value     Threshold  Converged?
 Maximum Force            0.370076     0.000450     NO 
 RMS     Force            0.050462     0.000300     NO 
 Maximum Displacement     1.308469     0.001800     NO 
 RMS     Displacement     0.420664     0.001200     NO 
 Predicted change in Energy=-1.101168D-01
 GradGradGradGradGradGradGradGradGradGradGradGradGradGradGradGradGradGrad

                          Input orientation:                          
 ---------------------------------------------------------------------
 Center     Atomic      Atomic             Coordinates (Angstroms)
 Number     Number       Type             X           Y           Z
 ---------------------------------------------------------------------
      1          6           0       -0.673637    1.192966   -0.029123
      2          6           0        0.660145    1.083661   -0.489072
      3          6           0        1.494343    2.205697   -0.553174
      4          6           0        1.029045    3.459370   -0.164428
      5          6           0       -0.278918    3.595847    0.292116
      6          6           0       -1.121384    2.484195    0.360892
      7          6           0       -1.298016    0.265301    0.002357
      8          6           0       -0.528302   -0.814518   -0.454031
      9          6           0       -1.070236   -2.103980   -0.517660
     10          6           0       -2.389693   -2.335701   -0.126473
     11          6           0       -3.167289   -1.270000    0.329860
     12          6           0       -2.626365    0.012741    0.392560
     13          1           0        2.502367    2.097348   -0.905621
     14          1           0        1.675803    4.314908   -0.216828
     15          1           0       -0.643352    4.561351    0.593508
     16          1           0        0.482711   -0.661956   -0.758463
     17          1           0       -0.467936   -2.919649   -0.869282
     18         17           0       -3.634258    1.390390    0.983355
     19         17           0       -2.797699    2.765039    0.965906
     20         17           0       -4.838271   -1.533805    0.830839
     21         17           0       -3.057914   -3.962827   -0.211909
     22         17           0        1.361207   -0.443612   -1.006873
 ---------------------------------------------------------------------
                    Distance matrix (angstroms):
                    1          2          3          4          5
     1  C    0.000000
     2  C    1.415088   0.000000
     3  C    2.449569   1.399628   0.000000
     4  C    2.837961   2.426000   1.392596   0.000000
     5  C    2.456183   2.793415   2.406551   1.392058   0.000000
     6  C    1.421219   2.420285   2.784799   2.418940   1.396513
     7  C    1.118661   2.178442   3.445434   3.955389   3.495004
     8  C    2.057100   2.239804   3.636292   4.557996   4.479983
     9  C    3.356458   3.627133   5.015141   5.956729   5.811191
    10  C    3.925024   4.596197   5.991002   6.728452   6.309822
    11  C    3.523261   4.567233   5.881413   6.341962   5.658673
    12  C    2.320322   3.567253   4.762741   5.054850   4.284769
    13  H    3.416600   2.143561   1.073346   2.138960   3.378700
    14  H    3.911729   3.398034   2.143556   1.073772   2.144063
    15  H    3.425581   3.868515   3.381379   2.141434   1.075104
    16  H    2.304303   1.775171   3.047782   4.199606   4.451144
    17  H    4.202592   4.176556   5.497238   6.590118   6.620896
    18  Cl   3.135182   4.550167   5.415551   5.229195   4.074330
    19  Cl   2.823674   4.111043   4.587166   4.050151   2.736511
    20  Cl   5.051633   6.231041   7.483405   7.768381   6.884130
    21  Cl   5.683343   6.274379   7.673994   8.473164   8.069102
    22  Cl   2.788363   1.758456   2.691171   4.006659   4.549133
                    6          7          8          9         10
     6  C    0.000000
     7  C    2.254603   0.000000
     8  C    3.449254   1.402412   0.000000
     9  C    4.671811   2.436348   1.400161   0.000000
    10  C    5.007747   2.823751   2.426122   1.395596   0.000000
    11  C    4.275590   2.441022   2.790376   2.410693   1.395927
    12  C    2.893796   1.407322   2.408930   2.780385   2.416731
    13  H    3.858144   4.315521   4.227038   5.528577   6.647649
    14  H    3.392570   5.029012   5.587966   6.988087   7.795321
    15  H    2.144109   4.385669   5.478188   6.770787   7.151043
    16  H    3.704638   2.147008   1.066819   2.132854   3.384013
    17  H    5.580488   3.404805   2.146544   1.073182   2.141474
    18  Cl   2.810410   2.772401   4.071199   4.586706   4.082207
    19  Cl   1.804147   3.070206   4.469856   5.375168   5.232333
    20  Cl   5.493671   4.056670   4.554568   4.042478   2.748639
    21  Cl   6.755912   4.584781   4.045912   2.738550   1.761067
    22  Cl   4.075057   2.931308   2.003360   2.984638   4.292360
                   11         12         13         14         15
    11  C    0.000000
    12  C    1.393540   0.000000
    13  H    6.708982   5.686365   0.000000
    14  H    7.412530   6.114626   2.464796   0.000000
    15  H    6.359593   4.966143   4.267815   2.468979   0.000000
    16  H    3.857028   3.383257   3.422633   5.146456   5.511695
    17  H    3.383162   3.853566   5.830461   7.573647   7.624689
    18  Cl   2.778991   1.806323   6.459581   6.179806   4.376357
    19  Cl   4.101547   2.816598   5.660311   4.879875   2.829599
    20  Cl   1.764300   2.734304   8.371709   8.816928   7.403013
    21  Cl   2.748962   4.044349   8.253707   9.535670   8.896090
    22  Cl   4.793437   4.250576   2.787288   4.833907   5.623978
                   16         17         18         19         20
    16  H    0.000000
    17  H    2.452181   0.000000
    18  Cl   4.918891   5.659884   0.000000
    19  Cl   5.047656   6.411816   1.609284   0.000000
    20  Cl   5.621285   4.889866   3.166042   4.760487   0.000000
    21  Cl   4.871396   2.868509   5.515230   6.835140   3.187027
    22  Cl   0.938688   3.081470   5.681482   5.611042   6.557379
                   21         22
    21  Cl   0.000000
    22  Cl   5.704864   0.000000
 Stoichiometry    C12H5Cl5
 Framework group  C1[X(C12H5Cl5)]
 Deg. of freedom    60
 Full point group                 C1      NOp   1
 Largest Abelian subgroup         C1      NOp   1
 Largest concise Abelian subgroup C1      NOp   1
                         Standard orientation:                         
 ---------------------------------------------------------------------
 Center     Atomic      Atomic             Coordinates (Angstroms)
 Number     Number       Type             X           Y           Z
 ---------------------------------------------------------------------
      1          6           0        1.464380    0.204828    0.000001
      2          6           0        2.205104    1.410564   -0.000001
      3          6           0        3.604660    1.396294   -0.000003
      4          6           0        4.302307    0.191051   -0.000003
      5          6           0        3.598958   -1.010250    0.000001
      6          6           0        2.202444   -1.009719    0.000003
      7          6           0        0.347751    0.272212    0.000003
      8          6           0       -0.024476    1.624324    0.000005
      9          6           0       -1.374567    1.995411    0.000006
     10          6           0       -2.374638    1.021992    0.000004
     11          6           0       -2.018402   -0.327715    0.000001
     12          6           0       -0.674222   -0.695325    0.000001
     13          1           0        4.144227    2.324161   -0.000005
     14          1           0        5.376078    0.189270   -0.000005
     15          1           0        4.132470   -1.943638    0.000003
     16          1           0        0.722158    2.386322    0.000004
     17          1           0       -1.642797    3.034532    0.000008
     18         17           0       -0.215373   -2.442397   -0.000004
     19         17           0        1.384333   -2.617712    0.000006
     20         17           0       -3.261588   -1.579610   -0.000006
     21         17           0       -4.068585    1.503553    0.000002
     22         17           0        1.438393    2.993070   -0.000004
 ---------------------------------------------------------------------
 Rotational constants (GHZ):           0.4494048           0.2552782           0.1628012
 Standard basis: 6-311+G(d,p) (5D, 7F)
 There are   461 symmetry adapted cartesian basis functions of A   symmetry.
 There are   444 symmetry adapted basis functions of A   symmetry.
   444 basis functions,   737 primitive gaussians,   461 cartesian basis functions
    81 alpha electrons       81 beta electrons
       nuclear repulsion energy      1883.8631175921 Hartrees.
 NAtoms=   22 NActive=   22 NUniq=   22 SFac= 1.00D+00 NAtFMM=   60 NAOKFM=F Big=F
 Integral buffers will be    131072 words long.
 Raffenetti 2 integral format.
 Two-electron integral symmetry is turned on.
 One-electron integrals computed using PRISM.
 NBasis=   444 RedAO= T EigKep=  1.18D-06  NBF=   444
 NBsUse=   437 1.00D-06 EigRej=  7.58D-07 NBFU=   437
 Initial guess from the checkpoint file:  "./Gau-46517.chk"
 B after Tr=     0.000000    0.000000   -0.000000
         Rot=    0.999714   -0.000000   -0.000000   -0.023933 Ang=  -2.74 deg.
 ExpMin= 4.38D-02 ExpMax= 1.06D+05 ExpMxC= 3.62D+03 IAcc=3 IRadAn=         5 AccDes= 0.00D+00
 Harris functional with IExCor=  402 and IRadAn=       5 diagonalized for initial guess.
 HarFok:  IExCor=  402 AccDes= 0.00D+00 IRadAn=         5 IDoV= 1 UseB2=F ITyADJ=14
 ICtDFT=  3500011 ScaDFX=  1.000000  1.000000  1.000000  1.000000
 FoFCou: FMM=F IPFlag=           0 FMFlag=      100000 FMFlg1=           0
         NFxFlg=           0 DoJE=T BraDBF=F KetDBF=T FulRan=T
         wScrn=  0.000000 ICntrl=       500 IOpCl=  0 I1Cent=   200000004 NGrid=           0
         NMat0=    1 NMatS0=      1 NMatT0=    0 NMatD0=    1 NMtDS0=    0 NMtDT0=    0
 Petite list used in FoFCou.
 Requested convergence on RMS density matrix=1.00D-08 within  32 cycles.
 Requested convergence on MAX density matrix=1.00D-06.
 Requested convergence on             energy=1.00D-06.
 No special actions if energy rises.
 Restarting incremental Fock formation.
 SCF Done:  E(RB3LYP) =  -2760.37428983     A.U. after   23 cycles
            NFock= 23  Conv=0.42D-08     -V/T= 2.0006
 QCSCF skips out because SCF is already converged.
 Calling FoFJK, ICntrl=      2127 FMM=F ISym2X=0 I1Cent= 0 IOpClX= 0 NMat=1 NMatS=1 NMatT=0.
 ***** Axes restored to original set *****
 -------------------------------------------------------------------
 Center     Atomic                   Forces (Hartrees/Bohr)
 Number     Number              X              Y              Z
 -------------------------------------------------------------------
      1        6           0.305281192    0.466351185   -0.012991339
      2        6           0.035014518    0.100386681    0.007318084
      3        6          -0.006634278   -0.008021977    0.000679225
      4        6          -0.001226547   -0.007706603   -0.001043529
      5        6          -0.016748518   -0.017668817    0.002199613
      6        6           0.118147817   -0.015235509   -0.041785657
      7        6          -0.292696285   -0.490034151    0.004397332
      8        6          -0.279195882   -0.114547488    0.070468358
      9        6           0.000060167    0.021068478    0.003937091
     10        6           0.005388372   -0.005096042   -0.002732215
     11        6           0.014395461    0.023950928   -0.000244500
     12        6           0.054427825   -0.096934987   -0.036136785
     13        1           0.006879848   -0.002068176   -0.002654996
     14        1           0.005190472    0.005824514   -0.000616101
     15        1          -0.003993628    0.009408138    0.003082685
     16        1          -0.610847363   -0.194696311    0.164674646
     17        1           0.005426747   -0.010522414   -0.003764082
     18       17          -0.260955867   -0.220058145    0.044647276
     19       17           0.073501659    0.353037576    0.042085279
     20       17          -0.005211694    0.002827829    0.002248104
     21       17           0.000622911   -0.002636205   -0.000700391
     22       17           0.853173074    0.202371495   -0.243068097
 -------------------------------------------------------------------
 Cartesian Forces:  Max     0.853173074 RMS     0.186377012

 GradGradGradGradGradGradGradGradGradGradGradGradGradGradGradGradGradGrad
 Berny optimization.
 Using GEDIIS/GDIIS optimizer.
 FormGI is forming the generalized inverse of G from B-inverse, IUseBI=4.
 Internal  Forces:  Max    10.923796536 RMS     1.576850882
 Search for a local minimum.
 Step number   2 out of a maximum of  112
 All quantities printed in internal units (Hartrees-Bohrs-Radians)
 Mixed Optimization -- RFO/linear search
 Update second derivatives using D2CorX and points    2    1
 DE=  5.21D-01 DEPred=-1.10D-01 R=-4.73D+00
 Trust test=-4.73D+00 RLast= 3.00D-01 DXMaxT set to 1.50D-01
 ITU= -1  0
 Use linear search instead of GDIIS.
     Eigenvalues ---    0.00238   0.00238   0.01661   0.01667   0.02070
     Eigenvalues ---    0.02070   0.02070   0.02070   0.02070   0.02070
     Eigenvalues ---    0.02070   0.02070   0.02070   0.02070   0.02070
     Eigenvalues ---    0.02070   0.02070   0.02070   0.05597   0.07483
     Eigenvalues ---    0.16000   0.16000   0.16000   0.16000   0.16040
     Eigenvalues ---    0.22115   0.22445   0.23476   0.24465   0.24898
     Eigenvalues ---    0.25000   0.25000   0.25000   0.25000   0.25000
     Eigenvalues ---    0.25000   0.27916   0.29526   0.29539   0.29539
     Eigenvalues ---    0.29539   0.37100   0.37218   0.37230   0.37230
     Eigenvalues ---    0.37230   0.40269   0.41453   0.41468   0.42183
     Eigenvalues ---    0.45184   0.45259   0.45389   0.45389   0.45389
     Eigenvalues ---    0.45389   0.45389   0.45389   1.64986 101.73039
 RFO step:  Lambda=-2.65137363D+00 EMin= 2.37799042D-03
 Quartic linear search produced a step of -0.64286.
 Maximum step size (   0.150) exceeded in Quadratic search.
    -- Step size scaled by   0.158
 Iteration  1 RMS(Cart)=  0.22506714 RMS(Int)=  0.00386775
 Iteration  2 RMS(Cart)=  0.04106965 RMS(Int)=  0.00013605
 Iteration  3 RMS(Cart)=  0.00029689 RMS(Int)=  0.00003439
 Iteration  4 RMS(Cart)=  0.00000001 RMS(Int)=  0.00003439
 Variable       Old X    -DE/DX   Delta X   Delta X   Delta X     New X
                                 (Linear)    (Quad)   (Total)
    R1        2.67413   1.33260  -0.01663   0.02290   0.00621   2.68034
    R2        2.68571   0.45824  -0.02408   0.02476   0.00063   2.68634
    R3        2.64491  -0.26471   0.00215  -0.00347  -0.00133   2.64358
    R4        3.32300   0.23595   0.00188  -0.00027   0.00160   3.32460
    R5        2.63162  -0.70567   0.01070  -0.01387  -0.00312   2.62850
    R6        2.02833   0.00754  -0.00406   0.00374  -0.00033   2.02800
    R7        2.63061  -0.44796   0.01135  -0.01302  -0.00160   2.62900
    R8        2.02914   0.00780  -0.00458   0.00421  -0.00037   2.02877
    R9        2.63903   0.23191   0.00594  -0.00415   0.00180   2.64083
   R10        2.03165   0.01067  -0.00620   0.00570  -0.00050   2.03115
   R11        3.40934   1.18599  -0.05363   0.05534   0.00171   3.41105
   R12        2.65018  -0.01764  -0.00123   0.00102  -0.00023   2.64995
   R13        2.65945  -0.79219  -0.00719   0.00211  -0.00511   2.65434
   R14        2.64592  -0.22020   0.00150  -0.00264  -0.00114   2.64478
   R15        2.01600  -0.65373   0.00386  -0.00733  -0.00347   2.01253
   R16        2.63729  -0.52801   0.00705  -0.00948  -0.00241   2.63488
   R17        2.02802   0.01228  -0.00387   0.00359  -0.00028   2.02774
   R18        2.63792  -0.30859   0.00665  -0.00786  -0.00119   2.63673
   R19        3.32793   0.00223  -0.00130   0.00118  -0.00012   3.32782
   R20        2.63341   0.18562   0.00955  -0.00772   0.00184   2.63524
   R21        3.33404   0.00515  -0.00522   0.00473  -0.00050   3.33355
   R22        3.41346  -0.02319  -0.05627   0.05047  -0.00581   3.40765
   R23        3.04111   1.64235  -0.04177   0.04998   0.00821   3.04932
    A1        2.04465  -0.50456   0.03198  -0.03152   0.00028   2.04493
    A2        2.11149   0.28820  -0.01099   0.01163   0.00056   2.11205
    A3        2.13954   1.31601  -0.02902   0.03391   0.00492   2.14446
    A4        2.03216  -1.60421   0.04001  -0.04553  -0.00549   2.02667
    A5        2.10571   0.07102  -0.00727   0.00687  -0.00035   2.10536
    A6        2.08732  -0.03686   0.00455  -0.00425   0.00027   2.08759
    A7        2.09016  -0.03416   0.00272  -0.00262   0.00007   2.09023
    A8        2.08719  -0.14012   0.00463  -0.00508  -0.00031   2.08688
    A9        2.09717   0.06938  -0.00179   0.00207   0.00021   2.09739
   A10        2.09882   0.07074  -0.00284   0.00301   0.00009   2.09892
   A11        2.10010   0.82978  -0.00367   0.00829   0.00472   2.10481
   A12        2.09265  -0.41446   0.00113  -0.00352  -0.00244   2.09021
   A13        2.09044  -0.41532   0.00254  -0.00477  -0.00228   2.08817
   A14        2.11723  -0.54432  -0.01468   0.00981  -0.00491   2.11232
   A15        2.12490   4.12376  -0.01961   0.04262   0.02302   2.14792
   A16        2.04106  -3.57944   0.03429  -0.05242  -0.01812   2.02294
   A17        2.06020  -0.45697   0.02198  -0.02242  -0.00050   2.05970
   A18        2.10767   0.60285  -0.00853   0.01129   0.00273   2.11041
   A19        2.09774  -0.19668  -0.00215   0.00066  -0.00147   2.09627
   A20        2.07777  -0.40616   0.01069  -0.01196  -0.00126   2.07651
   A21        2.10146  -0.19209  -0.00454   0.00286  -0.00166   2.09980
   A22        2.09165   0.09797   0.00176  -0.00097   0.00078   2.09243
   A23        2.09007   0.09411   0.00278  -0.00189   0.00088   2.09095
   A24        2.08464  -0.31267   0.00627  -0.00750  -0.00117   2.08347
   A25        2.09272   0.15353   0.00108  -0.00003   0.00102   2.09374
   A26        2.10582   0.15914  -0.00735   0.00753   0.00015   2.10598
   A27        2.09580   0.43868  -0.00090   0.00349   0.00262   2.09842
   A28        2.10163  -0.21318  -0.00465   0.00285  -0.00182   2.09982
   A29        2.08575  -0.22550   0.00556  -0.00634  -0.00080   2.08495
   A30        2.11659  -0.07980  -0.01427   0.01227  -0.00202   2.11458
   A31        2.07200   2.09469   0.01440  -0.00011   0.01429   2.08629
   A32        2.09459  -2.01490  -0.00013  -0.01216  -0.01228   2.08231
   A33        1.93679   8.95885   0.10132  -0.03596   0.06536   2.00215
   A34        1.93229  10.92380   0.10421  -0.02659   0.07763   2.00991
    D1        0.00000  -0.00000   0.00000  -0.00000  -0.00000   0.00000
    D2        3.14159  -0.00001   0.00000  -0.00000  -0.00000   3.14159
    D3       -0.00000   0.00000  -0.00000   0.00000   0.00000  -0.00000
    D4        3.14159   0.00001  -0.00000   0.00000   0.00000   3.14159
    D5        0.00000   0.00000  -0.00000   0.00000   0.00000   0.00000
    D6        3.14159  -0.00000  -0.00000   0.00000  -0.00000   3.14159
    D7       -3.14159   0.00000   0.00000  -0.00000   0.00000  -3.14159
    D8        0.00000   0.00000   0.00000  -0.00000   0.00000   0.00000
    D9       -0.00000   0.00000  -0.00000   0.00000   0.00000  -0.00000
   D10        3.14159  -0.00000   0.00000  -0.00000  -0.00000   3.14159
   D11        3.14159   0.00000  -0.00000   0.00000   0.00000   3.14159
   D12        0.00000   0.00000   0.00000  -0.00000   0.00000   0.00000
   D13        0.00000  -0.00000   0.00000  -0.00000   0.00000   0.00000
   D14       -3.14159  -0.00000   0.00000  -0.00000  -0.00000  -3.14159
   D15       -3.14159   0.00000   0.00000  -0.00000   0.00000  -3.14159
   D16        0.00000  -0.00000   0.00000  -0.00000  -0.00000   0.00000
   D17       -0.00000   0.00000  -0.00000   0.00000   0.00000  -0.00000
   D18        3.14159  -0.00001   0.00000  -0.00000  -0.00000   3.14159
   D19        3.14159   0.00000  -0.00000   0.00000   0.00000   3.14159
   D20       -0.00000  -0.00001   0.00000  -0.00000  -0.00000  -0.00000
   D21        0.00001  -0.00002   0.00000  -0.00000  -0.00000   0.00001
   D22       -3.14158  -0.00001   0.00000  -0.00000  -0.00000  -3.14158
   D23        0.00000  -0.00000   0.00000  -0.00000  -0.00000   0.00000
   D24       -3.14159  -0.00000   0.00000  -0.00000  -0.00000  -3.14159
   D25       -0.00000   0.00000  -0.00000   0.00000   0.00000  -0.00000
   D26        3.14159   0.00001  -0.00000   0.00000   0.00000   3.14159
   D27       -0.00000   0.00000   0.00000   0.00000   0.00000  -0.00000
   D28        3.14159   0.00000   0.00000  -0.00000   0.00000   3.14159
   D29        3.14159   0.00000  -0.00000   0.00000   0.00000   3.14159
   D30       -0.00000   0.00000  -0.00000   0.00000   0.00000  -0.00000
   D31       -0.00000   0.00000  -0.00000   0.00000   0.00000  -0.00000
   D32       -3.14159  -0.00000   0.00000  -0.00000  -0.00000  -3.14159
   D33        3.14159   0.00000  -0.00000   0.00000   0.00000   3.14159
   D34        0.00000  -0.00000   0.00000  -0.00000   0.00000   0.00000
   D35        0.00000  -0.00000   0.00000  -0.00000  -0.00000   0.00000
   D36       -3.14159  -0.00000   0.00000  -0.00000  -0.00000  -3.14159
   D37        3.14159  -0.00000  -0.00000   0.00000  -0.00000   3.14159
   D38        0.00000  -0.00000   0.00000  -0.00000  -0.00000   0.00000
   D39        0.00000   0.00000  -0.00000   0.00000   0.00000   0.00000
   D40       -3.14159  -0.00001   0.00000  -0.00000  -0.00000  -3.14159
   D41        3.14159   0.00000  -0.00000   0.00000   0.00000   3.14159
   D42       -0.00000  -0.00001   0.00000  -0.00000  -0.00000  -0.00000
   D43        0.00001  -0.00002   0.00000  -0.00000  -0.00000   0.00001
   D44       -3.14159  -0.00001  -0.00000   0.00000  -0.00000  -3.14159
   D45       -0.00001  -0.00014  -0.00000  -0.00000  -0.00000  -0.00001
         Item               Value     Threshold  Converged?
 Maximum Force            ********     0.000450     NO 
 RMS     Force            1.576851     0.000300     NO 
 Maximum Displacement     0.791135     0.001800     NO 
 RMS     Displacement     0.265322     0.001200     NO 
 Predicted change in Energy=-6.007201D-01
 GradGradGradGradGradGradGradGradGradGradGradGradGradGradGradGradGradGrad

                          Input orientation:                          
 ---------------------------------------------------------------------
 Center     Atomic      Atomic             Coordinates (Angstroms)
 Number     Number       Type             X           Y           Z
 ---------------------------------------------------------------------
      1          6           0       -0.433361    1.306063   -0.087042
      2          6           0        0.914857    1.328336   -0.527036
      3          6           0        1.647661    2.519836   -0.544687
      4          6           0        1.068340    3.714293   -0.129497
      5          6           0       -0.252595    3.721369    0.307018
      6          6           0       -0.999967    2.540800    0.331521
      7          6           0       -1.305644    0.004884   -0.044039
      8          6           0       -0.632472   -1.144760   -0.481735
      9          6           0       -1.273490   -2.388689   -0.504168
     10          6           0       -2.599531   -2.504562   -0.089055
     11          6           0       -3.281329   -1.368689    0.348897
     12          6           0       -2.640886   -0.130130    0.370511
     13          1           0        2.666404    2.510842   -0.882005
     14          1           0        1.637501    4.624429   -0.146078
     15          1           0       -0.703311    4.642652    0.628531
     16          1           0        0.380716   -1.080606   -0.803487
     17          1           0       -0.742621   -3.257746   -0.842284
     18         17           0       -3.545620    1.321576    0.941229
     19         17           0       -2.699262    2.695271    0.920372
     20         17           0       -4.959490   -1.486975    0.879570
     21         17           0       -3.397180   -4.074234   -0.121059
     22         17           0        1.763630   -0.111196   -1.077022
 ---------------------------------------------------------------------
                    Distance matrix (angstroms):
                    1          2          3          4          5
     1  C    0.000000
     2  C    1.418373   0.000000
     3  C    2.452210   1.398923   0.000000
     4  C    2.838394   2.423713   1.390944   0.000000
     5  C    2.453907   2.790196   2.404174   1.391209   0.000000
     6  C    1.421553   2.423580   2.788928   2.422296   1.397466
     7  C    1.567098   2.629722   3.911220   4.404863   3.878713
     8  C    2.490374   2.917616   4.316507   5.160158   4.944254
     9  C    3.811956   4.313428   5.712126   6.547590   6.247644
[...]
                 (A) (A) (A) (A) (A) (A) (A) (A) (A) (A) (A) (A)
                 (A) (A) (A) (A) (A) (A) (A) (A) (A)
       Virtual   (A) (A) (A) (A) (A) (A) (A) (A) (A) (A) (A) (A)
                 (A) (A) (A) (A) (A) (A) (A) (A) (A) (A) (A) (A)
                 (A) (A) (A) (A) (A) (A) (A) (A) (A) (A) (A) (A)
                 (A) (A) (A) (A) (A) (A) (A) (A) (A) (A) (A) (A)
                 (A) (A) (A) (A) (A) (A) (A) (A) (A) (A) (A) (A)
                 (A) (A) (A) (A) (A) (A) (A) (A) (A) (A) (A) (A)
                 (A) (A) (A) (A) (A) (A) (A) (A) (A) (A) (A) (A)
                 (A) (A) (A) (A) (A) (A) (A) (A) (A) (A) (A) (A)
                 (A) (A) (A) (A) (A) (A) (A) (A) (A) (A) (A) (A)
                 (A) (A) (A) (A) (A) (A) (A) (A) (A) (A) (A) (A)
                 (A) (A) (A) (A) (A) (A) (A) (A) (A) (A) (A) (A)
                 (A) (A) (A) (A) (A) (A) (A) (A) (A) (A) (A) (A)
                 (A) (A) (A) (A) (A) (A) (A) (A) (A) (A) (A) (A)
                 (A) (A) (A) (A) (A) (A) (A) (A) (A) (A) (A) (A)
                 (A) (A) (A) (A) (A) (A) (A) (A) (A) (A) (A) (A)
                 (A) (A) (A) (A) (A) (A) (A) (A) (A) (A) (A) (A)
                 (A) (A) (A) (A) (A) (A) (A) (A) (A) (A) (A) (A)
                 (A) (A) (A) (A) (A) (A) (A) (A) (A) (A) (A) (A)
                 (A) (A) (A) (A) (A) (A) (A) (A) (A) (A) (A) (A)
                 (A) (A) (A) (A) (A) (A) (A) (A) (A) (A) (A) (A)
                 (A) (A) (A) (A) (A) (A) (A) (A) (A) (A) (A) (A)
                 (A) (A) (A) (A) (A) (A) (A) (A) (A) (A) (A) (A)
                 (A) (A) (A) (A) (A) (A) (A) (A) (A) (A) (A) (A)
                 (A) (A) (A) (A) (A) (A) (A) (A) (A) (A) (A) (A)
                 (A) (A) (A) (A) (A) (A) (A) (A) (A) (A) (A) (A)
                 (A) (A) (A) (A) (A) (A) (A) (A) (A) (A) (A) (A)
                 (A) (A) (A) (A) (A) (A) (A) (A) (A) (A) (A) (A)
                 (A) (A) (A) (A) (A) (A) (A) (A) (A) (A) (A) (A)
                 (A) (A) (A) (A) (A) (A) (A) (A) (A) (A) (A) (A)
                 (A) (A) (A) (A) (A) (A) (A) (A) (A) (A)
 The electronic state is 1-A.
 Alpha  occ. eigenvalues -- -101.57133-101.57084-101.57010-101.56881-101.56877
 Alpha  occ. eigenvalues --  -10.27055 -10.26938 -10.26717 -10.26442 -10.26440
 Alpha  occ. eigenvalues --  -10.22976 -10.22607 -10.21044 -10.21033 -10.20972
 Alpha  occ. eigenvalues --  -10.20785 -10.20779  -9.48598  -9.48543  -9.48487
 Alpha  occ. eigenvalues --   -9.48352  -9.48348  -7.25098  -7.25028  -7.24971
 Alpha  occ. eigenvalues --   -7.24818  -7.24815  -7.24080  -7.24024  -7.23998
 Alpha  occ. eigenvalues --   -7.23969  -7.23963  -7.23899  -7.23836  -7.23832
 Alpha  occ. eigenvalues --   -7.23785  -7.23782  -0.94864  -0.92933  -0.89494
 Alpha  occ. eigenvalues --   -0.89060  -0.87251  -0.84962  -0.84444  -0.79812
 Alpha  occ. eigenvalues --   -0.75705  -0.75441  -0.74323  -0.65658  -0.63612
 Alpha  occ. eigenvalues --   -0.62551  -0.61442  -0.55364  -0.52866  -0.52211
 Alpha  occ. eigenvalues --   -0.51561  -0.49076  -0.47751  -0.46158  -0.45994
 Alpha  occ. eigenvalues --   -0.45639  -0.44478  -0.43195  -0.42208  -0.40474
 Alpha  occ. eigenvalues --   -0.39920  -0.39377  -0.38467  -0.37574  -0.35924
 Alpha  occ. eigenvalues --   -0.34730  -0.33986  -0.33951  -0.33628  -0.33508
 Alpha  occ. eigenvalues --   -0.32679  -0.31456  -0.27953  -0.26922  -0.26709
 Alpha  occ. eigenvalues --   -0.26666
 Alpha virt. eigenvalues --   -0.05215  -0.05018  -0.04881  -0.04201  -0.03458
 Alpha virt. eigenvalues --   -0.01685  -0.00531   0.01012   0.01590   0.01678
 Alpha virt. eigenvalues --    0.02070   0.02374   0.02782   0.03313   0.04383
 Alpha virt. eigenvalues --    0.04854   0.05150   0.05509   0.06325   0.06382
 Alpha virt. eigenvalues --    0.06679   0.07393   0.07843   0.08350   0.08662
 Alpha virt. eigenvalues --    0.08798   0.09196   0.09964   0.09986   0.10468
 Alpha virt. eigenvalues --    0.10825   0.11578   0.11914   0.12086   0.12742
 Alpha virt. eigenvalues --    0.12780   0.13134   0.13301   0.13405   0.14518
 Alpha virt. eigenvalues --    0.14733   0.15542   0.15831   0.15900   0.16520
 Alpha virt. eigenvalues --    0.16608   0.16997   0.17054   0.17402   0.18165
 Alpha virt. eigenvalues --    0.18310   0.18398   0.18855   0.19547   0.19676
 Alpha virt. eigenvalues --    0.19852   0.20556   0.20708   0.21285   0.21660
 Alpha virt. eigenvalues --    0.22125   0.22302   0.22829   0.23141   0.23490
 Alpha virt. eigenvalues --    0.23911   0.24153   0.24651   0.25365   0.25438
 Alpha virt. eigenvalues --    0.25919   0.26546   0.27153   0.27382   0.27412
 Alpha virt. eigenvalues --    0.27670   0.28136   0.28560   0.29140   0.29895
 Alpha virt. eigenvalues --    0.30090   0.30396   0.30957   0.32065   0.32247
 Alpha virt. eigenvalues --    0.32671   0.34331   0.36438   0.40852   0.41636
 Alpha virt. eigenvalues --    0.41638   0.43832   0.44364   0.45491   0.45846
 Alpha virt. eigenvalues --    0.45914   0.46744   0.47137   0.47294   0.48231
 Alpha virt. eigenvalues --    0.48663   0.49439   0.50483   0.50532   0.51131
 Alpha virt. eigenvalues --    0.51247   0.51423   0.53773   0.54051   0.54506
 Alpha virt. eigenvalues --    0.56600   0.56660   0.57716   0.57814   0.58238
 Alpha virt. eigenvalues --    0.59257   0.59799   0.60364   0.60714   0.61040
 Alpha virt. eigenvalues --    0.62790   0.63305   0.63648   0.64367   0.64785
 Alpha virt. eigenvalues --    0.65404   0.65468   0.66311   0.68004   0.68256
 Alpha virt. eigenvalues --    0.68714   0.69440   0.69851   0.70518   0.71764
 Alpha virt. eigenvalues --    0.73433   0.75900   0.78240   0.78296   0.78850
 Alpha virt. eigenvalues --    0.81059   0.81640   0.82517   0.83002   0.83508
 Alpha virt. eigenvalues --    0.83980   0.84470   0.84737   0.84778   0.85279
 Alpha virt. eigenvalues --    0.85761   0.86058   0.87156   0.87233   0.88059
 Alpha virt. eigenvalues --    0.88690   0.89019   0.89657   0.89824   0.90242
 Alpha virt. eigenvalues --    0.92026   0.92969   0.93993   0.94964   0.95418
 Alpha virt. eigenvalues --    0.95650   0.95926   0.96233   0.96586   0.96615
 Alpha virt. eigenvalues --    0.98569   0.98716   0.99452   1.00879   1.01404
 Alpha virt. eigenvalues --    1.02318   1.03851   1.04115   1.05708   1.06668
 Alpha virt. eigenvalues --    1.08310   1.09443   1.12196   1.14267   1.19434
 Alpha virt. eigenvalues --    1.20718   1.22066   1.23575   1.24143   1.25072
 Alpha virt. eigenvalues --    1.25432   1.27556   1.28303   1.29843   1.31073
 Alpha virt. eigenvalues --    1.31336   1.32091   1.32817   1.35656   1.37732
 Alpha virt. eigenvalues --    1.41818   1.42011   1.45553   1.47775   1.48172
 Alpha virt. eigenvalues --    1.48515   1.52881   1.54796   1.55399   1.57234
 Alpha virt. eigenvalues --    1.57887   1.59434   1.60281   1.63960   1.65469
 Alpha virt. eigenvalues --    1.66948   1.67950   1.68338   1.71089   1.74815
 Alpha virt. eigenvalues --    1.74864   1.78863   1.79510   1.81289   1.81481
 Alpha virt. eigenvalues --    1.83807   1.85122   1.85714   1.87247   1.88703
 Alpha virt. eigenvalues --    1.91700   1.93115   1.93127   1.94866   1.95475
 Alpha virt. eigenvalues --    1.96308   1.98415   1.98646   2.00966   2.02769
 Alpha virt. eigenvalues --    2.04243   2.11211   2.13084   2.16205   2.18689
 Alpha virt. eigenvalues --    2.19887   2.23709   2.25693   2.25985   2.26359
 Alpha virt. eigenvalues --    2.28636   2.29061   2.30876   2.31920   2.33341
 Alpha virt. eigenvalues --    2.35101   2.35666   2.36166   2.40205   2.40819
 Alpha virt. eigenvalues --    2.42169   2.44908   2.45380   2.46708   2.49837
 Alpha virt. eigenvalues --    2.51015   2.52360   2.53537   2.55376   2.55727
 Alpha virt. eigenvalues --    2.58166   2.63010   2.65962   2.66500   2.67841
 Alpha virt. eigenvalues --    2.68211   2.69520   2.71048   2.72659   2.73098
 Alpha virt. eigenvalues --    2.75003   2.76005   2.76753   2.77444   2.77792
 Alpha virt. eigenvalues --    2.79534   2.82920   2.82973   2.83944   2.86610
 Alpha virt. eigenvalues --    2.89906   2.96455   2.98461   3.09550   3.09867
 Alpha virt. eigenvalues --    3.12194   3.12972   3.13190   3.16701   3.19403
 Alpha virt. eigenvalues --    3.22003   3.22201   3.27200   3.33930   3.36252
 Alpha virt. eigenvalues --    3.38490   3.43756   3.53685   3.57471   3.68111
 Alpha virt. eigenvalues --    3.70016   3.70462   3.81868   3.96706   4.00482
 Alpha virt. eigenvalues --    4.02940   4.07645   4.08297   4.34148   4.81040
 Alpha virt. eigenvalues --    4.81376   9.76262   9.80202   9.80295   9.84004
 Alpha virt. eigenvalues --    9.84640  23.37124  23.53547  23.84559  23.85175
 Alpha virt. eigenvalues --   23.87692  23.92044  23.95771  23.96634  24.04020
 Alpha virt. eigenvalues --   24.07401  24.13663  24.15300  25.77961  25.81753
 Alpha virt. eigenvalues --   25.87994  25.93304  25.98349  26.10123  26.15385
 Alpha virt. eigenvalues --   26.22200  26.29160  26.33220  26.52063  26.61920
 Alpha virt. eigenvalues --   26.65069  26.79706  27.00567 215.75389 215.79846
 Alpha virt. eigenvalues --  215.79973 215.84775 215.85236
          Condensed to atoms (all electrons):
               1          2          3          4          5          6
     1  C   16.449322   0.180183  -6.035901  -0.978587  -5.998356   0.175491
     2  C    0.180183  14.785889  -2.795271  -1.439056   3.396021  -0.409080
     3  C   -6.035901  -2.795271  14.406190   1.573339   1.742073   3.400053
     4  C   -0.978587  -1.439056   1.573339   7.819308   1.562621  -1.429560
     5  C   -5.998356   3.396021   1.742073   1.562621  14.344951  -2.790702
     6  C    0.175491  -0.409080   3.400053  -1.429560  -2.790702  14.722090
     7  C    6.420148  -2.348139  -4.077502  -0.885379  -4.065956  -2.332054
     8  C   -1.351466  -1.011495  -0.123720  -0.046343  -0.102518  -0.998781
     9  C    1.026133   0.108539   0.132740  -0.061900   0.126546   0.113360
    10  C   -0.720432   0.065839   0.016467   0.011836   0.019860   0.065815
    11  C   -3.390905  -1.277235  -0.285544   0.012684  -0.275194  -1.274985
    12  C   -0.186382  -2.006985  -1.734531   0.279325  -1.745503  -2.012955
    13  H    0.081071   0.030430   0.306727  -0.035663  -0.030320  -0.008383
    14  H   -0.000046   0.018198  -0.045127   0.399671  -0.045511   0.018363
    15  H    0.081107  -0.008416  -0.030413  -0.035512   0.306518   0.030368
    16  H    0.049718   0.067570   0.021587   0.004425   0.021115   0.067910
    17  H   -0.005477   0.001882   0.000069   0.000143   0.000087   0.001908
    18  Cl   0.200323   0.109285   0.010910  -0.146468   0.015503   0.110950
    19  Cl   0.071250  -0.674113   0.264487  -0.148124  -0.699311  -0.402501
    20  Cl  -0.160911  -0.057683  -0.007371   0.000958  -0.007657  -0.057351
    21  Cl  -0.035285  -0.035962  -0.003379  -0.001069  -0.003414  -0.035880
    22  Cl   0.082340  -0.421002  -0.708541  -0.151807   0.260194  -0.676972
               7          8          9         10         11         12
     1  C    6.420148  -1.351466   1.026133  -0.720432  -3.390905  -0.186382
     2  C   -2.348139  -1.011495   0.108539   0.065839  -1.277235  -2.006985
     3  C   -4.077502  -0.123720   0.132740   0.016467  -0.285544  -1.734531
     4  C   -0.885379  -0.046343  -0.061900   0.011836   0.012684   0.279325
     5  C   -4.065956  -0.102518   0.126546   0.019860  -0.275194  -1.745503
     6  C   -2.332054  -0.998781   0.113360   0.065815  -1.274985  -2.012955
     7  C   19.142026  -3.659182  -1.554727   0.627158  -3.087035   2.196104
     8  C   -3.659182  15.616875   0.731639  -1.148955   1.603254  -4.035070
     9  C   -1.554727   0.731639  15.294767  -3.426745  -6.249908   0.210036
    10  C    0.627158  -1.148955  -3.426745  14.639736  -0.115072  -3.051650
    11  C   -3.087035   1.603254  -6.249908  -0.115072  18.455175   1.156117
    12  C    2.196104  -4.035070   0.210036  -3.051650   1.156117  19.500014
    13  H    0.013569  -0.001901  -0.000484   0.000036  -0.000035   0.004045
    14  H    0.003960  -0.000667  -0.000205   0.000027   0.000146   0.001319
    15  H    0.013778  -0.001995  -0.000482   0.000029  -0.000044   0.004065
    16  H   -0.011191   0.334854  -0.064705  -0.022913  -0.051923  -0.053164
    17  H    0.026443  -0.047053   0.329312   0.030791   0.004631   0.006991
    18  Cl  -0.201621  -0.122627   0.384883  -0.328656  -0.109401  -1.311517
    19  Cl   0.246815   0.194590   0.102194  -0.013320   0.003984   0.030732
    20  Cl  -0.617977   0.322477   0.100356  -0.424249  -0.304183   0.584669
    21  Cl  -0.208878   0.104558  -0.281050  -0.464439   0.712725  -0.402970
    22  Cl   0.259718   0.213142   0.095065  -0.007433   0.012665   0.004681
              13         14         15         16         17         18
     1  C    0.081071  -0.000046   0.081107   0.049718  -0.005477   0.200323
     2  C    0.030430   0.018198  -0.008416   0.067570   0.001882   0.109285
     3  C    0.306727  -0.045127  -0.030413   0.021587   0.000069   0.010910
     4  C   -0.035663   0.399671  -0.035512   0.004425   0.000143  -0.146468
     5  C   -0.030320  -0.045511   0.306518   0.021115   0.000087   0.015503
     6  C   -0.008383   0.018363   0.030368   0.067910   0.001908   0.110950
     7  C    0.013569   0.003960   0.013778  -0.011191   0.026443  -0.201621
     8  C   -0.001901  -0.000667  -0.001995   0.334854  -0.047053  -0.122627
     9  C   -0.000484  -0.000205  -0.000482  -0.064705   0.329312   0.384883
    10  C    0.000036   0.000027   0.000029  -0.022913   0.030791  -0.328656
    11  C   -0.000035   0.000146  -0.000044  -0.051923   0.004631  -0.109401
    12  C    0.004045   0.001319   0.004065  -0.053164   0.006991  -1.311517
    13  H    0.508839  -0.007504  -0.000183   0.000002   0.000000  -0.000871
    14  H   -0.007504   0.521749  -0.007502  -0.000004  -0.000000  -0.000498
    15  H   -0.000183  -0.007502   0.508847   0.000002   0.000000  -0.000855
    16  H    0.000002  -0.000004   0.000002   0.529271  -0.006939  -0.001615
    17  H    0.000000  -0.000000   0.000000  -0.006939   0.506931   0.001477
    18  Cl  -0.000871  -0.000498  -0.000855  -0.001615   0.001477  17.990329
    19  Cl   0.000503   0.000507  -0.010429  -0.008485  -0.000803   0.094843
    20  Cl  -0.000003   0.000000  -0.000003   0.000005  -0.000561  -0.248537
    21  Cl  -0.000001   0.000000  -0.000001  -0.001863  -0.006236  -0.022944
    22  Cl  -0.010514   0.000504   0.000509  -0.008862  -0.000785   0.102563
              19         20         21         22
     1  C    0.071250  -0.160911  -0.035285   0.082340
     2  C   -0.674113  -0.057683  -0.035962  -0.421002
     3  C    0.264487  -0.007371  -0.003379  -0.708541
     4  C   -0.148124   0.000958  -0.001069  -0.151807
     5  C   -0.699311  -0.007657  -0.003414   0.260194
     6  C   -0.402501  -0.057351  -0.035880  -0.676972
     7  C    0.246815  -0.617977  -0.208878   0.259718
     8  C    0.194590   0.322477   0.104558   0.213142
     9  C    0.102194   0.100356  -0.281050   0.095065
    10  C   -0.013320  -0.424249  -0.464439  -0.007433
    11  C    0.003984  -0.304183   0.712725   0.012665
    12  C    0.030732   0.584669  -0.402970   0.004681
    13  H    0.000503  -0.000003  -0.000001  -0.010514
    14  H    0.000507   0.000000   0.000000   0.000504
    15  H   -0.010429  -0.000003  -0.000001   0.000509
    16  H   -0.008485   0.000005  -0.001863  -0.008862
    17  H   -0.000803  -0.000561  -0.006236  -0.000785
    18  Cl   0.094843  -0.248537  -0.022944   0.102563
    19  Cl  17.617068  -0.000979   0.007366  -0.066559
    20  Cl  -0.000979  17.422501  -0.145803  -0.001315
    21  Cl   0.007366  -0.145803  17.320486   0.007298
    22  Cl  -0.066559  -0.001315   0.007298  17.627417
 Mulliken charges:
               1
     1  C    0.046663
     2  C   -0.279400
     3  C   -0.027340
     4  C   -0.304841
     5  C   -0.031046
     6  C   -0.277103
     7  C    0.099923
     8  C   -0.469618
     9  C   -1.115365
    10  C    0.246270
    11  C    0.460085
    12  C   -1.437372
    13  H    0.150640
    14  H    0.142622
    15  H    0.150611
    16  H    0.135205
    17  H    0.157188
    18  Cl   0.474542
    19  Cl   0.390284
    20  Cl   0.603617
    21  Cl   0.496741
    22  Cl   0.387695
 Sum of Mulliken charges =  -0.00000
 Mulliken charges with hydrogens summed into heavy atoms:
               1
     1  C    0.046663
     2  C   -0.279400
     3  C    0.123301
     4  C   -0.162219
     5  C    0.119564
     6  C   -0.277103
     7  C    0.099923
     8  C   -0.334413
     9  C   -0.958177
    10  C    0.246270
    11  C    0.460085
    12  C   -1.437372
    18  Cl   0.474542
    19  Cl   0.390284
    20  Cl   0.603617
    21  Cl   0.496741
    22  Cl   0.387695
 Electronic spatial extent (au):  <R**2>=           6130.9317
 Charge=             -0.0000 electrons
 Dipole moment (field-independent basis, Debye):
    X=              3.2228    Y=             -0.0464    Z=             -1.6835  Tot=              3.6363
 Quadrupole moment (field-independent basis, Debye-Ang):
   XX=           -120.3649   YY=           -134.9750   ZZ=           -129.4450
   XY=              0.0870   XZ=              2.2209   YZ=              0.1789
 Traceless Quadrupole moment (field-independent basis, Debye-Ang):
   XX=              7.8968   YY=             -6.7133   ZZ=             -1.1834
   XY=              0.0870   XZ=              2.2209   YZ=              0.1789
 Octapole moment (field-independent basis, Debye-Ang**2):
  XXX=             77.7510  YYY=              0.7068  ZZZ=             -0.2416  XYY=             -2.7861
  XXY=              0.3759  XXZ=              9.9346  XZZ=            -20.3246  YZZ=             -0.4709
  YYZ=              7.6017  XYZ=             -0.4625
 Hexadecapole moment (field-independent basis, Debye-Ang**3):
 XXXX=          -4981.0725 YYYY=          -1488.9127 ZZZZ=          -1152.0818 XXXY=              0.3457
 XXXZ=             10.1028 YYYX=              0.0714 YYYZ=             -2.2407 ZZZX=              6.6323
 ZZZY=              3.7965 XXYY=          -1129.6809 XXZZ=          -1128.6633 YYZZ=           -475.9593
 XXYZ=             -0.9209 YYXZ=              1.0729 ZZXY=              0.1652
 N-N= 1.786210596536D+03 E-N=-1.010960462557D+04  KE= 2.754122431367D+03
 1\1\GINC-CN033\FOpt\RB3LYP\6-311+G(d,p)\C12H5Cl5\20CY91R06\07-Apr-2022
 \0\\# opt b3lyp/6-311+g(d,p) scf=xqc\\Title Card Required\\0,1\C,-0.47
 34097301,1.2912620925,-0.111560972\C,0.2976021665,1.6203477519,-1.2358
 639302\C,1.0079326301,2.8127786913,-1.3258175691\C,0.9574850738,3.7141
 86606,-0.268083047\C,0.2073525862,3.4272722151,0.8671629316\C,-0.49377
 65377,2.2277640068,0.9320874457\C,-1.2096382571,-0.0029116824,-0.01804
 85448\C,-0.5783162152,-1.1183292013,0.5334693728\C,-1.2326613003,-2.33
 67479472,0.6345117196\C,-2.5416725585,-2.4589128098,0.18074415\C,-3.20
 55018443,-1.359920715,-0.3781282645\C,-2.5269652408,-0.1343844095,-0.4
 721041386\H,1.5883498568,3.0254755093,-2.2137186577\H,1.50645398,4.646
 3873481,-0.3288784152\H,0.1609234175,4.1210719197,1.6959982917\H,0.441
 0955043,-1.0256659215,0.8874212269\H,-0.7372645759,-3.1977004425,1.063
 1979067\Cl,-3.3279740165,1.252908377,-1.1628450776\Cl,-1.4340871276,1.
 8952413004,2.3769372383\Cl,-4.8407876485,-1.5117468009,-0.9449890725\C
 l,-3.3314635863,-4.0094897561,0.3252940377\Cl,0.3786720137,0.503879038
 3,-2.5883308815\\Version=EM64L-G16RevB.01\State=1-A\HF=-2761.5142306\R
 MSD=2.548e-09\RMSF=1.743e-05\Dipole=1.2354536,0.669251,0.2692825\Quadr
 upole=-0.4172519,4.6538281,-4.2365762,3.122344,0.8206509,-1.5853057\PG
 =C01 [X(C12H5Cl5)]\\@


 This summer one third of the nation will be ill-housed
 ill-nourished and ill-clad. Only they call it a vacation.
 -- Jonas Salk
 Job cpu time:       0 days 22 hours 56 minutes 11.3 seconds.
 Elapsed time:       0 days  5 hours 45 minutes 27.0 seconds.
 File lengths (MBytes):  RWF=    128 Int=      0 D2E=      0 Chk=     19 Scr=      1
 Normal termination of Gaussian 16 at Thu Apr  7 01:38:40 2022.
