 Entering Gaussian System, Link 0=g16
 Input=2,2prime,3,4,6-Pentachlorobiphenyl.gjf
 Output=2,2prime,3,4,6-Pentachlorobiphenyl.log
 Initial command:
 /home/apps/g16/l1.exe "./Gau-334446.inp" -scrdir="./"
 Entering Link 1 = /home/apps/g16/l1.exe PID=    335017.
  
 Copyright (c) 1988-2017, Gaussian, Inc.  All Rights Reserved.
  
 This is part of the Gaussian(R) 16 program.  It is based on
 the Gaussian(R) 09 system (copyright 2009, Gaussian, Inc.),
 the Gaussian(R) 03 system (copyright 2003, Gaussian, Inc.),
 the Gaussian(R) 98 system (copyright 1998, Gaussian, Inc.),
 the Gaussian(R) 94 system (copyright 1995, Gaussian, Inc.),
 the Gaussian 92(TM) system (copyright 1992, Gaussian, Inc.),
 the Gaussian 90(TM) system (copyright 1990, Gaussian, Inc.),
 the Gaussian 88(TM) system (copyright 1988, Gaussian, Inc.),
 the Gaussian 86(TM) system (copyright 1986, Carnegie Mellon
 University), and the Gaussian 82(TM) system (copyright 1983,
 Carnegie Mellon University). Gaussian is a federally registered
 trademark of Gaussian, Inc.
  
 This software contains proprietary and confidential information,
 including trade secrets, belonging to Gaussian, Inc.
  
 This software is provided under written license and may be
 used, copied, transmitted, or stored only in accord with that
 written license.
  
 The following legend is applicable only to US Government
 contracts under FAR:
  
                    RESTRICTED RIGHTS LEGEND
  
 Use, reproduction and disclosure by the US Government is
 subject to restrictions as set forth in subparagraphs (a)
 and (c) of the Commercial Computer Software - Restricted
 Rights clause in FAR 52.227-19.
  
 Gaussian, Inc.
 340 Quinnipiac St., Bldg. 40, Wallingford CT 06492
  
  
 ---------------------------------------------------------------
 Warning -- This program may not be used in any manner that
 competes with the business of Gaussian, Inc. or will provide
 assistance to any competitor of Gaussian, Inc.  The licensee
 of this program is prohibited from giving any competitor of
 Gaussian, Inc. access to this program.  By using this program,
 the user acknowledges that Gaussian, Inc. is engaged in the
 business of creating and licensing software in the field of
 computational chemistry and represents and warrants to the
 licensee that it is not a competitor of Gaussian, Inc. and that
 it will not use this program in any manner prohibited above.
 ---------------------------------------------------------------
  

 Cite this work as:
 Gaussian 16, Revision B.01,
 M. J. Frisch, G. W. Trucks, H. B. Schlegel, G. E. Scuseria, 
 M. A. Robb, J. R. Cheeseman, G. Scalmani, V. Barone, 
 G. A. Petersson, H. Nakatsuji, X. Li, M. Caricato, A. V. Marenich, 
 J. Bloino, B. G. Janesko, R. Gomperts, B. Mennucci, H. P. Hratchian, 
 J. V. Ortiz, A. F. Izmaylov, J. L. Sonnenberg, D. Williams-Young, 
 F. Ding, F. Lipparini, F. Egidi, J. Goings, B. Peng, A. Petrone, 
 T. Henderson, D. Ranasinghe, V. G. Zakrzewski, J. Gao, N. Rega, 
 G. Zheng, W. Liang, M. Hada, M. Ehara, K. Toyota, R. Fukuda, 
 J. Hasegawa, M. Ishida, T. Nakajima, Y. Honda, O. Kitao, H. Nakai, 
 T. Vreven, K. Throssell, J. A. Montgomery, Jr., J. E. Peralta, 
 F. Ogliaro, M. J. Bearpark, J. J. Heyd, E. N. Brothers, K. N. Kudin, 
 V. N. Staroverov, T. A. Keith, R. Kobayashi, J. Normand, 
 K. Raghavachari, A. P. Rendell, J. C. Burant, S. S. Iyengar, 
 J. Tomasi, M. Cossi, J. M. Millam, M. Klene, C. Adamo, R. Cammi, 
 J. W. Ochterski, R. L. Martin, K. Morokuma, O. Farkas, 
 J. B. Foresman, and D. J. Fox, Gaussian, Inc., Wallingford CT, 2016.
 
 ******************************************
 Gaussian 16:  EM64L-G16RevB.01 20-Dec-2017
                 3-Apr-2022 
 ******************************************
 %mem=32GB
 %nprocshared=16
 Will use up to   16 processors via shared memory.
 --------------------------------
 # opt b3lyp/6-311+g(d,p) scf=xqc
 --------------------------------
 1/18=20,19=15,26=3,38=1/1,3;
 2/9=110,12=2,17=6,18=5,40=1/2;
 3/5=4,6=6,7=111,11=2,25=1,30=1,71=1,74=-5/1,2,3;
 4//1;
 5/5=2,8=3,13=1,38=5/2,8;
 6/7=2,8=2,9=2,10=2,28=1/1;
 7//1,2,3,16;
 1/18=20,19=15,26=3/3(2);
 2/9=110/2;
 99//99;
 2/9=110/2;
 3/5=4,6=6,7=111,11=2,25=1,30=1,71=1,74=-5/1,2,3;
 4/5=5,16=3,69=1/1;
 5/5=2,8=3,13=1,38=5/2,8;
 7//1,2,3,16;
 1/18=20,19=15,26=3/3(-5);
 2/9=110/2;
 6/7=2,8=2,9=2,10=2,19=2,28=1/1;
 99/9=1/99;
 -------------------
 Title Card Required
 -------------------
 Symbolic Z-matrix:
 Charge =  0 Multiplicity = 1
 C                     0.23081   1.00035  -0.00383 
 C                     1.56319   1.03024  -0.43718 
 C                     2.27109   2.23969  -0.44325 
 C                     1.6466    3.41925  -0.01598 
 C                     0.31422   3.38937   0.41737 
 C                    -0.39367   2.17991   0.42344 
 C                    -0.77602  -0.71984   0.0048 
 C                    -0.15153  -1.89941  -0.42247 
 C                    -0.85942  -3.10886  -0.4164 
 C                    -2.1918   -3.13875   0.01695 
 C                    -2.81629  -1.95918   0.44423 
 C                    -2.1084   -0.74973   0.43816 
 H                     2.04001   0.12961  -0.76341 
 H                     3.28839   2.2625   -0.77412 
 H                     2.18709   4.34269  -0.02061 
 H                    -0.16259   4.28999   0.7436 
 H                    -0.38261  -4.00948  -0.74263 
 Cl                   -2.89268   0.73167   0.97477 
 Cl                   -2.06699   2.14238   0.96767 
 Cl                   -4.48961  -1.99672   0.98847 
 Cl                   -3.08084  -4.65768   0.02459 
 Cl                    1.52179  -1.86188  -0.9667 
 

 GradGradGradGradGradGradGradGradGradGradGradGradGradGradGradGradGradGrad
 Berny optimization.
 Initialization pass.
                           ----------------------------
                           !    Initial Parameters    !
                           ! (Angstroms and Degrees)  !
 --------------------------                            --------------------------
 ! Name  Definition              Value          Derivative Info.                !
 --------------------------------------------------------------------------------
 ! R1    R(1,2)                  1.4014         estimate D2E/DX2                !
 ! R2    R(1,6)                  1.4014         estimate D2E/DX2                !
 ! R3    R(2,3)                  1.4014         estimate D2E/DX2                !
 ! R4    R(2,13)                 1.07           estimate D2E/DX2                !
 ! R5    R(3,4)                  1.4014         estimate D2E/DX2                !
 ! R6    R(3,14)                 1.07           estimate D2E/DX2                !
 ! R7    R(4,5)                  1.4014         estimate D2E/DX2                !
 ! R8    R(4,15)                 1.07           estimate D2E/DX2                !
 ! R9    R(5,6)                  1.4014         estimate D2E/DX2                !
 ! R10   R(5,16)                 1.07           estimate D2E/DX2                !
 ! R11   R(6,19)                 1.76           estimate D2E/DX2                !
 ! R12   R(7,8)                  1.4014         estimate D2E/DX2                !
 ! R13   R(7,12)                 1.4014         estimate D2E/DX2                !
 ! R14   R(8,9)                  1.4014         estimate D2E/DX2                !
 ! R15   R(8,22)                 1.76           estimate D2E/DX2                !
 ! R16   R(9,10)                 1.4014         estimate D2E/DX2                !
 ! R17   R(9,17)                 1.07           estimate D2E/DX2                !
 ! R18   R(10,11)                1.4014         estimate D2E/DX2                !
 ! R19   R(10,21)                1.76           estimate D2E/DX2                !
 ! R20   R(11,12)                1.4014         estimate D2E/DX2                !
 ! R21   R(11,20)                1.76           estimate D2E/DX2                !
 ! R22   R(12,18)                1.76           estimate D2E/DX2                !
 ! R23   R(18,19)                1.6346         estimate D2E/DX2                !
 ! A1    A(2,1,6)              120.0            estimate D2E/DX2                !
 ! A2    A(1,2,3)              120.0            estimate D2E/DX2                !
 ! A3    A(1,2,13)             120.0            estimate D2E/DX2                !
 ! A4    A(3,2,13)             120.0            estimate D2E/DX2                !
 ! A5    A(2,3,4)              120.0            estimate D2E/DX2                !
 ! A6    A(2,3,14)             120.0            estimate D2E/DX2                !
 ! A7    A(4,3,14)             120.0            estimate D2E/DX2                !
 ! A8    A(3,4,5)              120.0            estimate D2E/DX2                !
 ! A9    A(3,4,15)             120.0            estimate D2E/DX2                !
 ! A10   A(5,4,15)             120.0            estimate D2E/DX2                !
 ! A11   A(4,5,6)              120.0            estimate D2E/DX2                !
 ! A12   A(4,5,16)             120.0            estimate D2E/DX2                !
 ! A13   A(6,5,16)             120.0            estimate D2E/DX2                !
 ! A14   A(1,6,5)              120.0            estimate D2E/DX2                !
 ! A15   A(1,6,19)             120.0            estimate D2E/DX2                !
 ! A16   A(5,6,19)             120.0            estimate D2E/DX2                !
 ! A17   A(8,7,12)             120.0            estimate D2E/DX2                !
 ! A18   A(7,8,9)              120.0            estimate D2E/DX2                !
 ! A19   A(7,8,22)             120.0            estimate D2E/DX2                !
 ! A20   A(9,8,22)             120.0            estimate D2E/DX2                !
 ! A21   A(8,9,10)             120.0            estimate D2E/DX2                !
 ! A22   A(8,9,17)             120.0            estimate D2E/DX2                !
 ! A23   A(10,9,17)            120.0            estimate D2E/DX2                !
 ! A24   A(9,10,11)            120.0            estimate D2E/DX2                !
 ! A25   A(9,10,21)            120.0            estimate D2E/DX2                !
 ! A26   A(11,10,21)           120.0            estimate D2E/DX2                !
 ! A27   A(10,11,12)           120.0            estimate D2E/DX2                !
 ! A28   A(10,11,20)           120.0            estimate D2E/DX2                !
 ! A29   A(12,11,20)           120.0            estimate D2E/DX2                !
 ! A30   A(7,12,11)            120.0            estimate D2E/DX2                !
 ! A31   A(7,12,18)            120.0            estimate D2E/DX2                !
 ! A32   A(11,12,18)           120.0            estimate D2E/DX2                !
 ! A33   A(12,18,19)           120.0            estimate D2E/DX2                !
 ! A34   A(6,19,18)            120.0            estimate D2E/DX2                !
 ! D1    D(6,1,2,3)              0.0001         estimate D2E/DX2                !
 ! D2    D(6,1,2,13)           180.0            estimate D2E/DX2                !
 ! D3    D(2,1,6,5)             -0.0001         estimate D2E/DX2                !
 ! D4    D(2,1,6,19)           180.0            estimate D2E/DX2                !
 ! D5    D(1,2,3,4)              0.0            estimate D2E/DX2                !
 ! D6    D(1,2,3,14)           180.0            estimate D2E/DX2                !
 ! D7    D(13,2,3,4)          -179.9999         estimate D2E/DX2                !
 ! D8    D(13,2,3,14)            0.0001         estimate D2E/DX2                !
 ! D9    D(2,3,4,5)             -0.0001         estimate D2E/DX2                !
 ! D10   D(2,3,4,15)           180.0            estimate D2E/DX2                !
 ! D11   D(14,3,4,5)           179.9999         estimate D2E/DX2                !
 ! D12   D(14,3,4,15)            0.0            estimate D2E/DX2                !
 ! D13   D(3,4,5,6)              0.0001         estimate D2E/DX2                !
 ! D14   D(3,4,5,16)          -179.9999         estimate D2E/DX2                !
 ! D15   D(15,4,5,6)          -180.0            estimate D2E/DX2                !
 ! D16   D(15,4,5,16)            0.0            estimate D2E/DX2                !
 ! D17   D(4,5,6,1)              0.0            estimate D2E/DX2                !
 ! D18   D(4,5,6,19)           179.9999         estimate D2E/DX2                !
 ! D19   D(16,5,6,1)           180.0            estimate D2E/DX2                !
 ! D20   D(16,5,6,19)           -0.0001         estimate D2E/DX2                !
 ! D21   D(1,6,19,18)            0.0004         estimate D2E/DX2                !
 ! D22   D(5,6,19,18)         -179.9996         estimate D2E/DX2                !
 ! D23   D(12,7,8,9)             0.0001         estimate D2E/DX2                !
 ! D24   D(12,7,8,22)         -179.9998         estimate D2E/DX2                !
 ! D25   D(8,7,12,11)           -0.0001         estimate D2E/DX2                !
 ! D26   D(8,7,12,18)          179.9999         estimate D2E/DX2                !
 ! D27   D(7,8,9,10)             0.0            estimate D2E/DX2                !
 ! D28   D(7,8,9,17)           180.0            estimate D2E/DX2                !
 ! D29   D(22,8,9,10)          179.9998         estimate D2E/DX2                !
 ! D30   D(22,8,9,17)           -0.0002         estimate D2E/DX2                !
 ! D31   D(8,9,10,11)            0.0            estimate D2E/DX2                !
 ! D32   D(8,9,10,21)         -179.9999         estimate D2E/DX2                !
 ! D33   D(17,9,10,11)         180.0            estimate D2E/DX2                !
 ! D34   D(17,9,10,21)           0.0001         estimate D2E/DX2                !
 ! D35   D(9,10,11,12)           0.0            estimate D2E/DX2                !
 ! D36   D(9,10,11,20)        -179.9998         estimate D2E/DX2                !
 ! D37   D(21,10,11,12)        179.9999         estimate D2E/DX2                !
 ! D38   D(21,10,11,20)          0.0001         estimate D2E/DX2                !
 ! D39   D(10,11,12,7)           0.0            estimate D2E/DX2                !
 ! D40   D(10,11,12,18)       -179.9999         estimate D2E/DX2                !
 ! D41   D(20,11,12,7)         179.9999         estimate D2E/DX2                !
 ! D42   D(20,11,12,18)         -0.0001         estimate D2E/DX2                !
 ! D43   D(7,12,18,19)           0.0004         estimate D2E/DX2                !
 ! D44   D(11,12,18,19)       -179.9997         estimate D2E/DX2                !
 ! D45   D(12,18,19,6)          -0.0006         estimate D2E/DX2                !
 --------------------------------------------------------------------------------
 Trust Radius=3.00D-01 FncErr=1.00D-07 GrdErr=1.00D-06 EigMax=2.50D+02 EigMin=1.00D-04
 Number of steps in this run=    112 maximum allowed number of steps=    132.
 GradGradGradGradGradGradGradGradGradGradGradGradGradGradGradGradGradGrad

                          Input orientation:                          
 ---------------------------------------------------------------------
 Center     Atomic      Atomic             Coordinates (Angstroms)
 Number     Number       Type             X           Y           Z
 ---------------------------------------------------------------------
      1          6           0        0.230814    1.000349   -0.003833
      2          6           0        1.563195    1.030235   -0.437180
      3          6           0        2.271088    2.239686   -0.443252
      4          6           0        1.646601    3.419251   -0.015977
      5          6           0        0.314219    3.389366    0.417367
      6          6           0       -0.393674    2.179915    0.423440
      7          6           0       -0.776017   -0.719843    0.004805
      8          6           0       -0.151530   -1.899408   -0.422470
      9          6           0       -0.859423   -3.108860   -0.416396
     10          6           0       -2.191803   -3.138746    0.016954
     11          6           0       -2.816290   -1.959181    0.444229
     12          6           0       -2.108397   -0.749730    0.438155
     13          1           0        2.040005    0.129611   -0.763411
     14          1           0        3.288391    2.262505   -0.774121
     15          1           0        2.187094    4.342694   -0.020613
     16          1           0       -0.162592    4.289990    0.743599
     17          1           0       -0.382613   -4.009484   -0.742630
     18         17           0       -2.892682    0.731670    0.974767
     19         17           0       -2.066995    2.142382    0.967673
     20         17           0       -4.489608   -1.996716    0.988472
     21         17           0       -3.080836   -4.657681    0.024585
     22         17           0        1.521790   -1.861875   -0.966704
 ---------------------------------------------------------------------
                    Distance matrix (angstroms):
                    1          2          3          4          5
     1  C    0.000000
     2  C    1.401400   0.000000
     3  C    2.427296   1.401400   0.000000
     4  C    2.802800   2.427296   1.401400   0.000000
     5  C    2.427296   2.802800   2.427296   1.401400   0.000000
     6  C    1.401400   2.427296   2.802800   2.427296   1.401400
     7  C    1.993200   2.954664   4.271349   4.796000   4.271349
     8  C    2.954664   3.394600   4.796000   5.629090   5.375256
     9  C    4.271349   4.796000   6.197400   7.004051   6.655789
    10  C    4.796000   5.629090   7.004051   7.598800   7.004051
    11  C    4.271349   5.375256   6.655789   7.004051   6.197400
    12  C    2.954664   4.173137   5.375256   5.629090   4.796000
    13  H    2.146700   1.070000   2.146700   3.396345   3.872800
    14  H    3.396345   2.146700   1.070000   2.146700   3.396345
    15  H    3.872800   3.396345   2.146700   1.070000   2.146700
    16  H    3.396345   3.872800   3.396345   2.146700   1.070000
    17  H    5.101033   5.410937   6.795873   7.735104   7.521579
    18  Cl   3.284215   4.683756   5.563220   5.367472   4.202173
    19  Cl   2.743718   4.048303   4.562800   4.048303   2.743718
    20  Cl   5.678860   6.916020   8.105797   8.245888   7.239668
    21  Cl   6.556000   7.357488   8.742748   9.358800   8.742748
    22  Cl   3.284215   2.940478   4.202173   5.367472   5.563220
                    6          7          8          9         10
     6  C    0.000000
     7  C    2.954664   0.000000
     8  C    4.173137   1.401400   0.000000
     9  C    5.375256   2.427296   1.401400   0.000000
    10  C    5.629090   2.802800   2.427296   1.401400   0.000000
    11  C    4.796000   2.427296   2.802800   2.427296   1.401400
    12  C    3.394600   1.401400   2.427296   2.802800   2.427296
    13  H    3.396345   3.040019   3.005992   4.360596   5.403640
    14  H    3.872800   5.101033   5.410937   6.795873   7.735104
    15  H    3.396345   5.866000   6.677911   8.059997   8.668800
    16  H    2.146700   5.101033   6.298293   7.521579   7.735104
    17  H    6.298293   3.396345   2.146700   1.070000   2.146700
    18  Cl   2.940478   2.743718   4.048303   4.562800   4.048303
    19  Cl   1.760000   3.284215   4.683756   5.563220   5.367472
    20  Cl   5.877089   4.048303   4.562800   4.048303   2.743718
    21  Cl   7.357488   4.562800   4.048303   2.743718   1.760000
    22  Cl   4.683756   2.743718   1.760000   2.743718   4.048303
                   11         12         13         14         15
    11  C    0.000000
    12  C    1.401400   0.000000
    13  H    5.422643   4.407522   0.000000
    14  H    7.521579   6.298293   2.471400   0.000000
    15  H    8.059997   6.677911   4.280590   2.471400   0.000000
    16  H    6.795873   5.410937   4.942800   4.280590   2.471400
    17  H    3.396345   3.872800   4.796000   7.267400   8.768328
    18  Cl   2.743718   1.760000   5.264517   6.603615   6.311449
    19  Cl   4.202173   2.940478   4.890332   5.632800   4.890332
    20  Cl   1.760000   2.743718   7.087045   9.041292   9.262004
    21  Cl   2.743718   4.048303   7.054227   9.438959  10.428800
    22  Cl   4.562800   4.048303   2.067823   4.490933   6.311449
                   16         17         18         19         20
    16  H    0.000000
    17  H    8.434368   0.000000
    18  Cl   4.490933   5.632800   0.000000
    19  Cl   2.879094   6.603615   1.634600   0.000000
    20  Cl   7.635817   4.890332   3.161400   4.796000   0.000000
    21  Cl   9.438959   2.879094   5.475705   6.939607   3.161400
    22  Cl   6.603615   2.879094   5.475705   5.714479   6.322800
                   21         22
    21  Cl   0.000000
    22  Cl   5.475705   0.000000
 Stoichiometry    C12H5Cl5
 Framework group  C1[X(C12H5Cl5)]
 Deg. of freedom    60
 Full point group                 C1      NOp   1
 Largest Abelian subgroup         C1      NOp   1
 Largest concise Abelian subgroup C1      NOp   1
                         Standard orientation:                         
 ---------------------------------------------------------------------
 Center     Atomic      Atomic             Coordinates (Angstroms)
 Number     Number       Type             X           Y           Z
 ---------------------------------------------------------------------
      1          6           0       -2.059584    0.391972   -0.000001
      2          6           0       -2.850963    1.548536    0.000002
      3          6           0       -4.248267    1.441463    0.000004
      4          6           0       -4.854191    0.177826    0.000005
      5          6           0       -4.062811   -0.978738    0.000000
      6          6           0       -2.665507   -0.871665   -0.000002
      7          6           0       -0.072210    0.544261   -0.000003
      8          6           0        0.533714    1.807898   -0.000003
      9          6           0        1.931017    1.914972   -0.000003
     10          6           0        2.722397    0.758408   -0.000002
     11          6           0        2.116474   -0.505229   -0.000001
     12          6           0        0.719170   -0.612302   -0.000001
     13          1           0       -2.388327    2.513351    0.000004
     14          1           0       -4.852503    2.324525    0.000007
     15          1           0       -5.921063    0.096073    0.000007
     16          1           0       -4.525447   -1.943553   -0.000002
     17          1           0        2.393654    2.879787   -0.000004
     18         17           0       -0.041802   -2.199288    0.000002
     19         17           0       -1.671624   -2.324178   -0.000006
     20         17           0        3.110357   -1.957743    0.000004
     21         17           0        4.477253    0.892880    0.000000
     22         17           0       -0.460170    3.260412    0.000000
 ---------------------------------------------------------------------
 Rotational constants (GHZ):           0.4622772           0.2139047           0.1462377
 Standard basis: 6-311+G(d,p) (5D, 7F)
 There are   461 symmetry adapted cartesian basis functions of A   symmetry.
 There are   444 symmetry adapted basis functions of A   symmetry.
   444 basis functions,   737 primitive gaussians,   461 cartesian basis functions
    81 alpha electrons       81 beta electrons
       nuclear repulsion energy      1799.2153610564 Hartrees.
 NAtoms=   22 NActive=   22 NUniq=   22 SFac= 1.00D+00 NAtFMM=   60 NAOKFM=F Big=F
 Integral buffers will be    131072 words long.
 Raffenetti 2 integral format.
 Two-electron integral symmetry is turned on.
 One-electron integrals computed using PRISM.
 NBasis=   444 RedAO= T EigKep=  1.39D-06  NBF=   444
 NBsUse=   438 1.00D-06 EigRej=  9.21D-07 NBFU=   438
 ExpMin= 4.38D-02 ExpMax= 1.06D+05 ExpMxC= 3.62D+03 IAcc=3 IRadAn=         5 AccDes= 0.00D+00
 Harris functional with IExCor=  402 and IRadAn=       5 diagonalized for initial guess.
 HarFok:  IExCor=  402 AccDes= 0.00D+00 IRadAn=         5 IDoV= 1 UseB2=F ITyADJ=14
 ICtDFT=  3500011 ScaDFX=  1.000000  1.000000  1.000000  1.000000
 FoFCou: FMM=F IPFlag=           0 FMFlag=      100000 FMFlg1=           0
         NFxFlg=           0 DoJE=T BraDBF=F KetDBF=T FulRan=T
         wScrn=  0.000000 ICntrl=       500 IOpCl=  0 I1Cent=   200000004 NGrid=           0
         NMat0=    1 NMatS0=      1 NMatT0=    0 NMatD0=    1 NMtDS0=    0 NMtDT0=    0
 Petite list used in FoFCou.
 Requested convergence on RMS density matrix=1.00D-08 within  32 cycles.
 Requested convergence on MAX density matrix=1.00D-06.
 Requested convergence on             energy=1.00D-06.
 No special actions if energy rises.
 EnCoef did     3 forward-backward iterations
 EnCoef did     4 forward-backward iterations
 EnCoef did     6 forward-backward iterations
 Restarting incremental Fock formation.
 SCF Done:  E(RB3LYP) =  -2760.93096670     A.U. after   27 cycles
            NFock= 27  Conv=0.68D-08     -V/T= 2.0021
 QCSCF skips out because SCF is already converged.

 **********************************************************************

            Population analysis using the SCF Density.

 **********************************************************************

 Orbital symmetries:
       Occupied  (A) (A) (A) (A) (A) (A) (A) (A) (A) (A) (A) (A)
                 (A) (A) (A) (A) (A) (A) (A) (A) (A) (A) (A) (A)
                 (A) (A) (A) (A) (A) (A) (A) (A) (A) (A) (A) (A)
                 (A) (A) (A) (A) (A) (A) (A) (A) (A) (A) (A) (A)
                 (A) (A) (A) (A) (A) (A) (A) (A) (A) (A) (A) (A)
                 (A) (A) (A) (A) (A) (A) (A) (A) (A) (A) (A) (A)
                 (A) (A) (A) (A) (A) (A) (A) (A) (A)
       Virtual   (A) (A) (A) (A) (A) (A) (A) (A) (A) (A) (A) (A)
                 (A) (A) (A) (A) (A) (A) (A) (A) (A) (A) (A) (A)
                 (A) (A) (A) (A) (A) (A) (A) (A) (A) (A) (A) (A)
                 (A) (A) (A) (A) (A) (A) (A) (A) (A) (A) (A) (A)
                 (A) (A) (A) (A) (A) (A) (A) (A) (A) (A) (A) (A)
                 (A) (A) (A) (A) (A) (A) (A) (A) (A) (A) (A) (A)
                 (A) (A) (A) (A) (A) (A) (A) (A) (A) (A) (A) (A)
                 (A) (A) (A) (A) (A) (A) (A) (A) (A) (A) (A) (A)
                 (A) (A) (A) (A) (A) (A) (A) (A) (A) (A) (A) (A)
                 (A) (A) (A) (A) (A) (A) (A) (A) (A) (A) (A) (A)
                 (A) (A) (A) (A) (A) (A) (A) (A) (A) (A) (A) (A)
                 (A) (A) (A) (A) (A) (A) (A) (A) (A) (A) (A) (A)
                 (A) (A) (A) (A) (A) (A) (A) (A) (A) (A) (A) (A)
                 (A) (A) (A) (A) (A) (A) (A) (A) (A) (A) (A) (A)
                 (A) (A) (A) (A) (A) (A) (A) (A) (A) (A) (A) (A)
                 (A) (A) (A) (A) (A) (A) (A) (A) (A) (A) (A) (A)
                 (A) (A) (A) (A) (A) (A) (A) (A) (A) (A) (A) (A)
                 (A) (A) (A) (A) (A) (A) (A) (A) (A) (A) (A) (A)
                 (A) (A) (A) (A) (A) (A) (A) (A) (A) (A) (A) (A)
                 (A) (A) (A) (A) (A) (A) (A) (A) (A) (A) (A) (A)
                 (A) (A) (A) (A) (A) (A) (A) (A) (A) (A) (A) (A)
                 (A) (A) (A) (A) (A) (A) (A) (A) (A) (A) (A) (A)
                 (A) (A) (A) (A) (A) (A) (A) (A) (A) (A) (A) (A)
                 (A) (A) (A) (A) (A) (A) (A) (A) (A) (A) (A) (A)
                 (A) (A) (A) (A) (A) (A) (A) (A) (A) (A) (A) (A)
                 (A) (A) (A) (A) (A) (A) (A) (A) (A) (A) (A) (A)
                 (A) (A) (A) (A) (A) (A) (A) (A) (A) (A) (A) (A)
                 (A) (A) (A) (A) (A) (A) (A) (A) (A) (A) (A) (A)
                 (A) (A) (A) (A) (A) (A) (A) (A) (A) (A) (A) (A)
                 (A) (A) (A) (A) (A) (A) (A) (A) (A)
 The electronic state is 1-A.
 Alpha  occ. eigenvalues -- -101.68849-101.67607-101.56327-101.55945-101.55422
 Alpha  occ. eigenvalues --  -10.25949 -10.25560 -10.25030 -10.24045 -10.23602
 Alpha  occ. eigenvalues --  -10.22439 -10.21150 -10.20594 -10.20446 -10.19836
 Alpha  occ. eigenvalues --  -10.19213 -10.18340  -9.60295  -9.59185  -9.47899
 Alpha  occ. eigenvalues --   -9.47437  -9.46886  -7.36709  -7.36011  -7.35888
 Alpha  occ. eigenvalues --   -7.35433  -7.34743  -7.34157  -7.24332  -7.23855
 Alpha  occ. eigenvalues --   -7.23380  -7.23342  -7.23341  -7.22926  -7.22909
 Alpha  occ. eigenvalues --   -7.22382  -7.22323  -1.15672  -0.92586  -0.90217
 Alpha  occ. eigenvalues --   -0.88853  -0.86765  -0.84908  -0.82576  -0.78077
 Alpha  occ. eigenvalues --   -0.77316  -0.73746  -0.72731  -0.67760  -0.63790
 Alpha  occ. eigenvalues --   -0.61143  -0.59859  -0.58371  -0.55623  -0.54772
 Alpha  occ. eigenvalues --   -0.52120  -0.50898  -0.50313  -0.47851  -0.47571
 Alpha  occ. eigenvalues --   -0.45697  -0.44207  -0.43588  -0.43003  -0.41503
 Alpha  occ. eigenvalues --   -0.40602  -0.40449  -0.38939  -0.37969  -0.36182
 Alpha  occ. eigenvalues --   -0.34803  -0.34098  -0.33276  -0.32092  -0.31588
 Alpha  occ. eigenvalues --   -0.30740  -0.28697  -0.27707  -0.25111  -0.25022
 Alpha  occ. eigenvalues --   -0.12701
 Alpha virt. eigenvalues --   -0.07478  -0.05529  -0.04528  -0.03753  -0.03405
 Alpha virt. eigenvalues --   -0.01828  -0.01320  -0.00198   0.00505   0.00842
 Alpha virt. eigenvalues --    0.01830   0.02282   0.03389   0.03633   0.03700
 Alpha virt. eigenvalues --    0.04130   0.04942   0.05800   0.05980   0.06038
 Alpha virt. eigenvalues --    0.06908   0.07335   0.07760   0.07857   0.08312
 Alpha virt. eigenvalues --    0.08343   0.09526   0.09761   0.10157   0.10667
 Alpha virt. eigenvalues --    0.10950   0.10976   0.11373   0.11470   0.11565
 Alpha virt. eigenvalues --    0.12783   0.13861   0.14066   0.14238   0.14277
 Alpha virt. eigenvalues --    0.14772   0.14986   0.15369   0.15580   0.15908
 Alpha virt. eigenvalues --    0.16186   0.16367   0.16866   0.17689   0.18246
 Alpha virt. eigenvalues --    0.18660   0.18798   0.19459   0.19525   0.19873
 Alpha virt. eigenvalues --    0.20533   0.20810   0.20962   0.21458   0.21792
 Alpha virt. eigenvalues --    0.22277   0.23070   0.23589   0.23653   0.24036
 Alpha virt. eigenvalues --    0.24324   0.24523   0.25614   0.25923   0.26081
 Alpha virt. eigenvalues --    0.26344   0.27059   0.27995   0.28266   0.28592
 Alpha virt. eigenvalues --    0.28854   0.29452   0.30173   0.30777   0.31231
 Alpha virt. eigenvalues --    0.32428   0.33008   0.33758   0.34277   0.35253
 Alpha virt. eigenvalues --    0.36869   0.38510   0.38662   0.39474   0.40202
 Alpha virt. eigenvalues --    0.42165   0.42661   0.43578   0.44101   0.44937
 Alpha virt. eigenvalues --    0.45169   0.46345   0.46767   0.46876   0.47901
 Alpha virt. eigenvalues --    0.48374   0.48581   0.48745   0.50145   0.51201
 Alpha virt. eigenvalues --    0.51581   0.52563   0.53045   0.53678   0.53794
 Alpha virt. eigenvalues --    0.54681   0.55298   0.56700   0.57960   0.58158
 Alpha virt. eigenvalues --    0.58676   0.58942   0.59304   0.60180   0.60724
 Alpha virt. eigenvalues --    0.61709   0.61971   0.62262   0.63998   0.64170
 Alpha virt. eigenvalues --    0.64528   0.65560   0.65997   0.67148   0.68011
 Alpha virt. eigenvalues --    0.69667   0.70286   0.70982   0.71419   0.73814
 Alpha virt. eigenvalues --    0.75678   0.77088   0.79475   0.80011   0.80103
 Alpha virt. eigenvalues --    0.80936   0.81326   0.82723   0.83155   0.83682
 Alpha virt. eigenvalues --    0.84572   0.84954   0.84957   0.85715   0.86056
 Alpha virt. eigenvalues --    0.86655   0.87567   0.87740   0.87866   0.88563
 Alpha virt. eigenvalues --    0.88956   0.90058   0.91267   0.91444   0.92844
 Alpha virt. eigenvalues --    0.93786   0.94815   0.95219   0.95574   0.95895
 Alpha virt. eigenvalues --    0.96378   0.97563   0.97618   0.98041   0.98241
 Alpha virt. eigenvalues --    0.98627   0.99973   1.01129   1.01512   1.05320
 Alpha virt. eigenvalues --    1.05617   1.06028   1.07181   1.09742   1.09793
 Alpha virt. eigenvalues --    1.10783   1.12093   1.14262   1.15009   1.17885
 Alpha virt. eigenvalues --    1.21034   1.21821   1.22918   1.24573   1.25656
 Alpha virt. eigenvalues --    1.26658   1.27477   1.27694   1.29353   1.30346
 Alpha virt. eigenvalues --    1.30569   1.30800   1.32889   1.33459   1.39986
 Alpha virt. eigenvalues --    1.42565   1.46152   1.49630   1.50058   1.51102
 Alpha virt. eigenvalues --    1.52368   1.52769   1.54838   1.56330   1.57977
 Alpha virt. eigenvalues --    1.60993   1.61420   1.63976   1.65018   1.67966
 Alpha virt. eigenvalues --    1.68748   1.69345   1.73465   1.74008   1.76239
 Alpha virt. eigenvalues --    1.77779   1.79372   1.82082   1.83876   1.85513
 Alpha virt. eigenvalues --    1.85520   1.87151   1.87488   1.88469   1.89083
 Alpha virt. eigenvalues --    1.89414   1.90242   1.92775   1.94152   1.95756
 Alpha virt. eigenvalues --    1.97281   2.01878   2.03223   2.03887   2.05685
 Alpha virt. eigenvalues --    2.05936   2.06850   2.15378   2.15561   2.21040
 Alpha virt. eigenvalues --    2.22631   2.23749   2.24862   2.27182   2.27365
 Alpha virt. eigenvalues --    2.28050   2.28403   2.30124   2.30523   2.31239
 Alpha virt. eigenvalues --    2.32063   2.33135   2.36283   2.38162   2.41050
 Alpha virt. eigenvalues --    2.42382   2.44859   2.45370   2.47373   2.53053
 Alpha virt. eigenvalues --    2.54947   2.56232   2.56880   2.58791   2.59899
 Alpha virt. eigenvalues --    2.61208   2.61495   2.63416   2.64286   2.67709
 Alpha virt. eigenvalues --    2.68285   2.69911   2.71727   2.73249   2.74368
 Alpha virt. eigenvalues --    2.75026   2.75347   2.76498   2.78807   2.78810
 Alpha virt. eigenvalues --    2.79083   2.83684   2.85391   2.85951   2.87097
 Alpha virt. eigenvalues --    2.88026   2.89650   2.96879   3.05923   3.08269
 Alpha virt. eigenvalues --    3.10665   3.11479   3.15746   3.18318   3.20673
 Alpha virt. eigenvalues --    3.25437   3.29251   3.32405   3.35968   3.37845
 Alpha virt. eigenvalues --    3.40565   3.51000   3.52396   3.55975   3.67269
 Alpha virt. eigenvalues --    3.73795   3.76882   3.86954   3.95765   4.03779
 Alpha virt. eigenvalues --    4.04397   4.11309   4.17872   4.81598   4.82169
 Alpha virt. eigenvalues --    9.64811   9.77193   9.81571   9.84072   9.97783
 Alpha virt. eigenvalues --   23.32208  23.49905  23.80327  23.86649  23.89729
 Alpha virt. eigenvalues --   23.92837  23.95562  24.00479  24.01802  24.04962
 Alpha virt. eigenvalues --   24.06722  24.14246  25.72000  25.78996  25.84085
 Alpha virt. eigenvalues --   25.86146  25.95359  26.11182  26.13205  26.20567
 Alpha virt. eigenvalues --   26.37491  26.51533  26.66460  26.71468  26.78625
 Alpha virt. eigenvalues --   26.94506  27.03740 215.64744 215.76731 215.81493
 Alpha virt. eigenvalues --  215.84552 216.02607
          Condensed to atoms (all electrons):
               1          2          3          4          5          6
     1  C   19.317139  -4.519766  -1.973087  -1.058051  -4.367941   5.561138
     2  C   -4.519766  15.381044  -1.205179   0.686804  -4.222228  -3.004688
     3  C   -1.973087  -1.205179   9.670528   0.054145  -0.376106   1.101728
     4  C   -1.058051   0.686804   0.054145   9.299912   2.153143  -5.930151
     5  C   -4.367941  -4.222228  -0.376106   2.153143  26.058514 -14.028196
     6  C    5.561138  -3.004688   1.101728  -5.930151 -14.028196  30.603095
     7  C    1.930583   1.756526  -0.890828  -0.204025  -3.945571   0.460284
     8  C   -5.933575   5.361194   0.154711   0.064515  -1.521064  -2.972923
     9  C   -2.327326   0.247480   0.189841  -0.042242   0.001595  -0.237704
    10  C    2.327291  -1.083358  -0.098568   0.012427  -0.019840   0.015685
    11  C   -2.448204   1.379830   0.056293  -0.135418  -1.715041   0.365837
    12  C    1.007535  -1.743421   0.163966  -0.820612  -2.977890   6.791074
    13  H    0.149356   0.192057  -0.133183   0.002124   0.045588   0.069803
    14  H    0.007680  -0.012997   0.395628  -0.014030  -0.054064   0.012078
    15  H    0.009798   0.029675  -0.024721   0.468439  -0.076876  -0.062930
    16  H    0.095112  -0.004705  -0.023726  -0.062303   0.271067   0.119172
    17  H    0.029664  -0.010956  -0.001270  -0.000013   0.000841   0.004652
    18  Cl  -0.097485  -1.686075  -0.665297   0.692970   4.412641  -3.725938
    19  Cl  -1.517547  -1.531592  -0.014240   1.168396   7.186489  -8.602636
    20  Cl  -0.193822   0.136478   0.011757  -0.016418  -0.203714  -0.080494
    21  Cl   0.035502  -0.049767  -0.004228   0.000796   0.015905   0.030936
    22  Cl  -0.062477   0.174698  -0.328871  -0.035579  -0.072344  -0.228335
               7          8          9         10         11         12
     1  C    1.930583  -5.933575  -2.327326   2.327291  -2.448204   1.007535
     2  C    1.756526   5.361194   0.247480  -1.083358   1.379830  -1.743421
     3  C   -0.890828   0.154711   0.189841  -0.098568   0.056293   0.163966
     4  C   -0.204025   0.064515  -0.042242   0.012427  -0.135418  -0.820612
     5  C   -3.945571  -1.521064   0.001595  -0.019840  -1.715041  -2.977890
     6  C    0.460284  -2.972923  -0.237704   0.015685   0.365837   6.791074
     7  C   16.498160  -5.172989  -7.160582   2.967225   1.446692   1.814152
     8  C   -5.172989  36.261978  13.376704 -14.698946  -3.065034  -8.063241
     9  C   -7.160582  13.376704  25.839220  -5.468387  -9.381993  -5.374263
    10  C    2.967225 -14.698946  -5.468387  33.167477 -10.087946   1.270283
    11  C    1.446692  -3.065034  -9.381993 -10.087946  29.634939   3.285466
    12  C    1.814152  -8.063241  -5.374263   1.270283   3.285466  34.340556
    13  H   -0.036659  -0.068845   0.044937   0.044174  -0.028118   0.033257
    14  H    0.018755   0.000311  -0.001920  -0.000507   0.000931   0.000315
    15  H   -0.001131   0.000064   0.000122   0.000039  -0.000329  -0.000792
    16  H    0.023697   0.001732   0.000055  -0.000092   0.003109   0.014948
    17  H    0.115064  -0.230388   0.145713   0.221721  -0.005666   0.082572
    18  Cl  -1.154647  -7.544713  -4.086174  -2.372253   0.891805 -20.926013
    19  Cl  -1.269683  -1.331260  -0.428192  -0.069021  -1.316577  -3.232500
    20  Cl  -1.588263   2.510636   3.132542   1.949951  -5.191613   1.673949
    21  Cl   0.526667  -1.672633  -2.428275  -0.997851   2.536048   0.729304
    22  Cl   0.177131   0.731307   0.386875  -1.437468   0.341413  -0.486769
              13         14         15         16         17         18
     1  C    0.149356   0.007680   0.009798   0.095112   0.029664  -0.097485
     2  C    0.192057  -0.012997   0.029675  -0.004705  -0.010956  -1.686075
     3  C   -0.133183   0.395628  -0.024721  -0.023726  -0.001270  -0.665297
     4  C    0.002124  -0.014030   0.468439  -0.062303  -0.000013   0.692970
     5  C    0.045588  -0.054064  -0.076876   0.271067   0.000841   4.412641
     6  C    0.069803   0.012078  -0.062930   0.119172   0.004652  -3.725938
     7  C   -0.036659   0.018755  -0.001131   0.023697   0.115064  -1.154647
     8  C   -0.068845   0.000311   0.000064   0.001732  -0.230388  -7.544713
     9  C    0.044937  -0.001920   0.000122   0.000055   0.145713  -4.086174
    10  C    0.044174  -0.000507   0.000039  -0.000092   0.221721  -2.372253
    11  C   -0.028118   0.000931  -0.000329   0.003109  -0.005666   0.891805
    12  C    0.033257   0.000315  -0.000792   0.014948   0.082572 -20.926013
    13  H    0.602765  -0.011709  -0.000280   0.000014   0.000136   0.027334
    14  H   -0.011709   0.535539  -0.007274  -0.000171  -0.000000  -0.001424
    15  H   -0.000280  -0.007274   0.531326  -0.008628   0.000000   0.001054
    16  H    0.000014  -0.000171  -0.008628   0.518906  -0.000000  -0.011814
    17  H    0.000136  -0.000000   0.000000  -0.000000   0.499870   0.013343
    18  Cl   0.027334  -0.001424   0.001054  -0.011814   0.013343  52.336389
    19  Cl   0.013622   0.000138   0.006364  -0.083397   0.000783   3.906213
    20  Cl  -0.000680   0.000005  -0.000002   0.000097  -0.009307  -4.508491
    21  Cl   0.000401  -0.000001   0.000000  -0.000003   0.013254   0.698871
    22  Cl  -0.083560  -0.000192   0.000217   0.000005  -0.031768  -0.338300
              19         20         21         22
     1  C   -1.517547  -0.193822   0.035502  -0.062477
     2  C   -1.531592   0.136478  -0.049767   0.174698
     3  C   -0.014240   0.011757  -0.004228  -0.328871
     4  C    1.168396  -0.016418   0.000796  -0.035579
     5  C    7.186489  -0.203714   0.015905  -0.072344
     6  C   -8.602636  -0.080494   0.030936  -0.228335
     7  C   -1.269683  -1.588263   0.526667   0.177131
     8  C   -1.331260   2.510636  -1.672633   0.731307
     9  C   -0.428192   3.132542  -2.428275   0.386875
    10  C   -0.069021   1.949951  -0.997851  -1.437468
    11  C   -1.316577  -5.191613   2.536048   0.341413
    12  C   -3.232500   1.673949   0.729304  -0.486769
    13  H    0.013622  -0.000680   0.000401  -0.083560
    14  H    0.000138   0.000005  -0.000001  -0.000192
    15  H    0.006364  -0.000002   0.000000   0.000217
    16  H   -0.083397   0.000097  -0.000003   0.000005
    17  H    0.000783  -0.009307   0.013254  -0.031768
    18  Cl   3.906213  -4.508491   0.698871  -0.338300
    19  Cl  24.030275  -0.573252   0.038581  -0.062052
    20  Cl  -0.573252  20.322834  -0.997130   0.059696
    21  Cl   0.038581  -0.997130  18.123906  -0.078091
    22  Cl  -0.062052   0.059696  -0.078091  17.821980
 Mulliken charges:
               1
     1  C    0.028485
     2  C   -0.271055
     3  C   -0.059295
     4  C   -0.284830
     5  C   -0.564908
     6  C   -0.261486
     7  C   -0.310555
     8  C   -0.187542
     9  C   -0.428024
    10  C    0.357965
    11  C   -0.566424
    12  C   -1.581876
    13  H    0.137465
    14  H    0.132911
    15  H    0.135864
    16  H    0.146927
    17  H    0.161758
    18  Cl   1.138002
    19  Cl   0.681087
    20  Cl   0.565241
    21  Cl   0.477806
    22  Cl   0.552484
 Sum of Mulliken charges =  -0.00000
 Mulliken charges with hydrogens summed into heavy atoms:
               1
     1  C    0.028485
     2  C   -0.133590
     3  C    0.073616
     4  C   -0.148966
     5  C   -0.417981
     6  C   -0.261486
     7  C   -0.310555
     8  C   -0.187542
     9  C   -0.266266
    10  C    0.357965
    11  C   -0.566424
    12  C   -1.581876
    18  Cl   1.138002
    19  Cl   0.681087
    20  Cl   0.565241
    21  Cl   0.477806
    22  Cl   0.552484
 Electronic spatial extent (au):  <R**2>=           6566.5444
 Charge=             -0.0000 electrons
 Dipole moment (field-independent basis, Debye):
    X=             -4.7578    Y=             -1.1753    Z=              0.0000  Tot=              4.9008
 Quadrupole moment (field-independent basis, Debye-Ang):
   XX=           -129.0100   YY=           -127.1002   ZZ=           -135.9874
   XY=              1.9342   XZ=             -0.0000   YZ=              0.0000
 Traceless Quadrupole moment (field-independent basis, Debye-Ang):
   XX=              1.6892   YY=              3.5990   ZZ=             -5.2882
   XY=              1.9342   XZ=             -0.0000   YZ=              0.0000
 Octapole moment (field-independent basis, Debye-Ang**2):
  XXX=            -96.5842  YYY=            -18.3493  ZZZ=              0.0000  XYY=             -7.5813
  XXY=              6.3405  XXZ=              0.0001  XZZ=             15.9526  YZZ=            -10.8768
  YYZ=              0.0000  XYZ=             -0.0001
 Hexadecapole moment (field-independent basis, Debye-Ang**3):
 XXXX=          -5679.7366 YYYY=          -2621.9333 ZZZZ=           -161.8292 XXXY=            -38.0217
 XXXZ=             -0.0005 YYYX=            -23.9922 YYYZ=              0.0001 ZZZX=              0.0002
 ZZZY=              0.0000 XXYY=          -1371.1198 XXZZ=          -1098.3091 YYZZ=           -480.3977
 XXYZ=              0.0002 YYXZ=             -0.0001 ZZXY=              4.4809
 N-N= 1.799215361056D+03 E-N=-1.013361437539D+04  KE= 2.755116070933D+03
 Calling FoFJK, ICntrl=      2127 FMM=F ISym2X=0 I1Cent= 0 IOpClX= 0 NMat=1 NMatS=1 NMatT=0.
 ***** Axes restored to original set *****
 -------------------------------------------------------------------
 Center     Atomic                   Forces (Hartrees/Bohr)
 Number     Number              X              Y              Z
 -------------------------------------------------------------------
      1        6          -0.019180308   -0.066428880   -0.006156877
      2        6          -0.003360815    0.015895714    0.004092769
      3        6          -0.019264830    0.003612806    0.007025513
      4        6          -0.007945512   -0.017183398   -0.000609777
      5        6          -0.002587383   -0.011579976   -0.001322284
      6        6           0.082531728   -0.036947892   -0.034129690
      7        6           0.020339415    0.049002006    0.002502145
      8        6          -0.013165204    0.011536434    0.006504040
      9        6          -0.004704000    0.009077392    0.003254540
     10        6           0.001141497    0.012789666    0.002025937
     11        6           0.038507709    0.008766369   -0.011040306
     12        6           0.067280719   -0.163464419   -0.052865843
     13        1           0.001977082    0.007921464    0.000836293
     14        1           0.009015752   -0.000380857   -0.003041804
     15        1           0.003675697    0.009380408    0.000550767
     16        1          -0.006444213    0.009843243    0.003971779
     17        1           0.003903092   -0.007271554   -0.002651563
     18       17          -0.186830959   -0.148828915    0.033602815
     19       17           0.045521377    0.348441732    0.050441264
     20       17          -0.012813509    0.005109447    0.005181137
     21       17           0.002317707   -0.007308154   -0.002136159
     22       17           0.000084957   -0.031982636   -0.006034696
 -------------------------------------------------------------------
 Cartesian Forces:  Max     0.348441732 RMS     0.060377025

 GradGradGradGradGradGradGradGradGradGradGradGradGradGradGradGradGradGrad
 Berny optimization.
 FormGI is forming the generalized inverse of G from B-inverse, IUseBI=4.
 Internal  Forces:  Max     0.299475171 RMS     0.046350303
 Search for a local minimum.
 Step number   1 out of a maximum of  112
 All quantities printed in internal units (Hartrees-Bohrs-Radians)
 Mixed Optimization -- RFO/linear search
 Second derivative matrix not updated -- first step.
 ITU=  0
     Eigenvalues ---    0.00238   0.00238   0.01655   0.01655   0.02070
     Eigenvalues ---    0.02070   0.02070   0.02070   0.02070   0.02070
     Eigenvalues ---    0.02070   0.02070   0.02070   0.02070   0.02070
     Eigenvalues ---    0.02070   0.02070   0.02070   0.04808   0.16000
     Eigenvalues ---    0.16000   0.16000   0.16000   0.16000   0.22000
     Eigenvalues ---    0.22408   0.23485   0.24406   0.25000   0.25000
     Eigenvalues ---    0.25000   0.25000   0.25000   0.25000   0.25000
     Eigenvalues ---    0.25000   0.25000   0.29539   0.29539   0.29539
     Eigenvalues ---    0.29539   0.29539   0.37230   0.37230   0.37230
     Eigenvalues ---    0.37230   0.37230   0.41408   0.41665   0.41941
     Eigenvalues ---    0.42170   0.45389   0.45389   0.45389   0.45389
     Eigenvalues ---    0.45389   0.45389   0.45389   0.45389   1.62945
 RFO step:  Lambda=-2.98741619D-01 EMin= 2.37799045D-03
 Linear search not attempted -- first point.
 Maximum step size (   0.300) exceeded in Quadratic search.
    -- Step size scaled by   0.430
 Iteration  1 RMS(Cart)=  0.31374194 RMS(Int)=  0.01024956
 Iteration  2 RMS(Cart)=  0.13228336 RMS(Int)=  0.00111405
 Iteration  3 RMS(Cart)=  0.00195953 RMS(Int)=  0.00002993
 Iteration  4 RMS(Cart)=  0.00000036 RMS(Int)=  0.00002993
 Variable       Old X    -DE/DX   Delta X   Delta X   Delta X     New X
                                 (Linear)    (Quad)   (Total)
    R1        2.64826   0.00035   0.00000   0.00048   0.00053   2.64879
    R2        2.64826   0.02993   0.00000   0.01749   0.01753   2.66579
    R3        2.64826  -0.00017   0.00000  -0.00019  -0.00018   2.64808
    R4        2.02201  -0.00604   0.00000  -0.00388  -0.00388   2.01813
    R5        2.64826  -0.01135   0.00000  -0.00687  -0.00691   2.64136
    R6        2.02201   0.00950   0.00000   0.00610   0.00610   2.02810
    R7        2.64826  -0.01779   0.00000  -0.01046  -0.01051   2.63775
    R8        2.02201   0.00995   0.00000   0.00638   0.00638   2.02839
    R9        2.64826  -0.01720   0.00000  -0.00974  -0.00975   2.63851
   R10        2.02201   0.01237   0.00000   0.00793   0.00793   2.02994
   R11        3.32592   0.04359   0.00000   0.03158   0.03158   3.35750
   R12        2.64826   0.02668   0.00000   0.01597   0.01601   2.66427
   R13        2.64826   0.02894   0.00000   0.01715   0.01719   2.66545
   R14        2.64826  -0.00690   0.00000  -0.00384  -0.00384   2.64442
   R15        3.32592   0.00126   0.00000   0.00092   0.00092   3.32683
   R16        2.64826  -0.02325   0.00000  -0.01390  -0.01394   2.63432
   R17        2.02201   0.00867   0.00000   0.00556   0.00556   2.02757
   R18        2.64826  -0.02054   0.00000  -0.01246  -0.01250   2.63577
   R19        3.32592   0.00513   0.00000   0.00371   0.00371   3.32963
   R20        2.64826  -0.02571   0.00000  -0.01481  -0.01481   2.63345
   R21        3.32592   0.01368   0.00000   0.00991   0.00991   3.33583
   R22        3.32592   0.15844   0.00000   0.11479   0.11479   3.44071
   R23        3.08895   0.26892   0.00000   0.06003   0.06003   3.14898
    A1        2.09440  -0.04558   0.00000  -0.03457  -0.03445   2.05995
    A2        2.09440   0.01309   0.00000   0.01101   0.01106   2.10545
    A3        2.09440  -0.00093   0.00000  -0.00023  -0.00026   2.09414
    A4        2.09440  -0.01216   0.00000  -0.01077  -0.01080   2.08360
    A5        2.09440   0.01080   0.00000   0.00813   0.00809   2.10248
    A6        2.09440  -0.00600   0.00000  -0.00463  -0.00461   2.08979
    A7        2.09440  -0.00480   0.00000  -0.00350  -0.00348   2.09091
    A8        2.09440  -0.00460   0.00000  -0.00494  -0.00503   2.08936
    A9        2.09440   0.00399   0.00000   0.00406   0.00410   2.09850
   A10        2.09440   0.00060   0.00000   0.00088   0.00093   2.09532
   A11        2.09440  -0.00726   0.00000  -0.00646  -0.00652   2.08788
   A12        2.09440   0.00475   0.00000   0.00428   0.00431   2.09871
   A13        2.09440   0.00251   0.00000   0.00218   0.00221   2.09660
   A14        2.09440   0.03354   0.00000   0.02683   0.02685   2.12125
   A15        2.09440  -0.01985   0.00000  -0.01583  -0.01584   2.07855
   A16        2.09440  -0.01368   0.00000  -0.01099  -0.01101   2.08339
   A17        2.09440  -0.04663   0.00000  -0.03415  -0.03403   2.06036
   A18        2.09440   0.01315   0.00000   0.01125   0.01129   2.10568
   A19        2.09440   0.04751   0.00000   0.03680   0.03678   2.13118
   A20        2.09440  -0.06066   0.00000  -0.04805  -0.04807   2.04633
   A21        2.09440   0.01066   0.00000   0.00791   0.00786   2.10225
   A22        2.09440  -0.00538   0.00000  -0.00400  -0.00397   2.09042
   A23        2.09440  -0.00528   0.00000  -0.00391  -0.00388   2.09051
   A24        2.09440  -0.00810   0.00000  -0.00838  -0.00847   2.08592
   A25        2.09440  -0.00607   0.00000  -0.00375  -0.00370   2.09069
   A26        2.09440   0.01417   0.00000   0.01213   0.01218   2.10657
   A27        2.09440   0.01069   0.00000   0.00704   0.00699   2.10138
   A28        2.09440   0.00378   0.00000   0.00364   0.00366   2.09806
   A29        2.09440  -0.01447   0.00000  -0.01068  -0.01065   2.08374
   A30        2.09440   0.02023   0.00000   0.01634   0.01638   2.11077
   A31        2.09440   0.00345   0.00000   0.00247   0.00246   2.09685
   A32        2.09440  -0.02368   0.00000  -0.01881  -0.01883   2.07556
   A33        2.09440  -0.10062   0.00000  -0.07893  -0.07893   2.01546
   A34        2.09440  -0.29948   0.00000  -0.23492  -0.23492   1.85947
    D1        0.00000  -0.00000   0.00000  -0.00000  -0.00000   0.00000
    D2        3.14159   0.00000   0.00000   0.00000   0.00000   3.14159
    D3       -0.00000   0.00000   0.00000   0.00000   0.00000  -0.00000
    D4        3.14159   0.00000   0.00000   0.00000   0.00000   3.14159
    D5        0.00000  -0.00000   0.00000   0.00000   0.00000   0.00000
    D6        3.14159   0.00000   0.00000   0.00000   0.00000   3.14159
    D7       -3.14159  -0.00000   0.00000  -0.00000  -0.00000  -3.14159
    D8        0.00000  -0.00000   0.00000  -0.00000  -0.00000   0.00000
    D9       -0.00000   0.00000   0.00000   0.00000   0.00000  -0.00000
   D10        3.14159  -0.00000   0.00000  -0.00000  -0.00000   3.14159
   D11        3.14159   0.00000   0.00000   0.00000   0.00000   3.14159
   D12        0.00000  -0.00000   0.00000  -0.00000  -0.00000   0.00000
   D13        0.00000  -0.00000   0.00000  -0.00000  -0.00000   0.00000
   D14       -3.14159  -0.00000   0.00000  -0.00000  -0.00000  -3.14159
   D15       -3.14159  -0.00000   0.00000  -0.00000  -0.00000  -3.14159
   D16        0.00000  -0.00000   0.00000  -0.00000  -0.00000   0.00000
   D17       -0.00000   0.00000   0.00000   0.00000   0.00000  -0.00000
   D18        3.14159  -0.00000   0.00000  -0.00000  -0.00000   3.14159
   D19        3.14159   0.00000   0.00000   0.00000   0.00000   3.14159
   D20       -0.00000  -0.00000   0.00000  -0.00000  -0.00000  -0.00000
   D21        0.00001  -0.00000   0.00000  -0.00000  -0.00000   0.00001
   D22       -3.14158  -0.00000   0.00000  -0.00000  -0.00000  -3.14159
   D23        0.00000  -0.00000   0.00000  -0.00000  -0.00000   0.00000
   D24       -3.14159  -0.00000   0.00000  -0.00000  -0.00000  -3.14159
   D25       -0.00000   0.00000   0.00000   0.00000   0.00000  -0.00000
   D26        3.14159   0.00000   0.00000   0.00000   0.00000   3.14159
   D27       -0.00000  -0.00000   0.00000  -0.00000  -0.00000  -0.00000
   D28        3.14159  -0.00000   0.00000  -0.00000  -0.00000   3.14159
   D29        3.14159   0.00000   0.00000   0.00000   0.00000   3.14159
   D30       -0.00000   0.00000   0.00000   0.00000   0.00000  -0.00000
   D31       -0.00000   0.00000   0.00000   0.00000   0.00000  -0.00000
   D32       -3.14159  -0.00000   0.00000  -0.00000  -0.00000  -3.14159
   D33        3.14159   0.00000   0.00000   0.00000   0.00000   3.14159
   D34        0.00000  -0.00000   0.00000  -0.00000  -0.00000   0.00000
   D35        0.00000  -0.00000   0.00000  -0.00000  -0.00000   0.00000
   D36       -3.14159  -0.00000   0.00000  -0.00000  -0.00000  -3.14159
   D37        3.14159   0.00000   0.00000   0.00000   0.00000   3.14159
   D38        0.00000  -0.00000   0.00000  -0.00000  -0.00000   0.00000
   D39        0.00000  -0.00000   0.00000  -0.00000  -0.00000   0.00000
   D40       -3.14159  -0.00000   0.00000  -0.00000  -0.00000  -3.14159
   D41        3.14159   0.00000   0.00000   0.00000   0.00000   3.14159
   D42       -0.00000  -0.00000   0.00000  -0.00000  -0.00000  -0.00000
   D43        0.00001   0.00000   0.00000   0.00000   0.00000   0.00001
   D44       -3.14159   0.00000   0.00000   0.00000   0.00000  -3.14159
   D45       -0.00001   0.00000   0.00000   0.00000   0.00000  -0.00001
         Item               Value     Threshold  Converged?
 Maximum Force            0.299475     0.000450     NO 
 RMS     Force            0.046350     0.000300     NO 
 Maximum Displacement     1.409768     0.001800     NO 
 RMS     Displacement     0.444456     0.001200     NO 
 Predicted change in Energy=-1.143600D-01
 GradGradGradGradGradGradGradGradGradGradGradGradGradGradGradGradGradGrad

                          Input orientation:                          
 ---------------------------------------------------------------------
 Center     Atomic      Atomic             Coordinates (Angstroms)
 Number     Number       Type             X           Y           Z
 ---------------------------------------------------------------------
      1          6           0       -0.225502    0.798062    0.108511
      2          6           0        1.081815    0.604454   -0.358552
      3          6           0        1.974049    1.681095   -0.450299
      4          6           0        1.573596    2.967118   -0.076840
      5          6           0        0.275554    3.179106    0.390617
      6          6           0       -0.610034    2.103389    0.480348
      7          6           0       -0.685979   -0.283215    0.057144
      8          6           0        0.053348   -1.395175   -0.395268
      9          6           0       -0.528258   -2.667077   -0.442529
     10          6           0       -1.850318   -2.854689   -0.042201
     11          6           0       -2.593509   -1.763458    0.407592
     12          6           0       -2.021927   -0.493502    0.457789
     13          1           0        1.406027   -0.370896   -0.648543
     14          1           0        2.971746    1.516488   -0.809909
     15          1           0        2.260052    3.789169   -0.148607
     16          1           0       -0.041295    4.163886    0.679953
     17          1           0        0.047319   -3.503556   -0.789255
     18         17           0       -3.028806    0.902419    1.051682
     19         17           0       -2.260647    2.380969    1.076281
     20         17           0       -4.269116   -1.980116    0.918947
     21         17           0       -2.565144   -4.463757   -0.108892
     22         17           0        1.727763   -1.254584   -0.920508
 ---------------------------------------------------------------------
                    Distance matrix (angstroms):
                    1          2          3          4          5
     1  C    0.000000
     2  C    1.401681   0.000000
     3  C    2.435167   1.401305   0.000000
     4  C    2.824166   2.429690   1.397745   0.000000
     5  C    2.449492   2.800025   2.415794   1.395839   0.000000
     6  C    1.410677   2.410998   2.778834   2.413446   1.396239
     7  C    1.176366   2.021350   3.345409   3.960845   3.608797
     8  C    2.267562   2.248912   3.627059   4.630567   4.646615
     9  C    3.521717   3.647232   5.016791   6.024589   5.959706
    10  C    4.000666   4.545674   5.946904   6.754097   6.411969
    11  C    3.501184   4.438693   5.784765   6.322799   5.714958
    12  C    2.239928   3.391922   4.639108   5.018915   4.332549
    13  H    2.145105   1.067949   2.138368   3.390761   3.867859
    14  H    3.403238   2.146478   1.073226   2.143955   3.387479
    15  H    3.897539   3.402165   2.148672   1.073378   2.145034
    16  H    3.418955   3.874200   3.391657   2.147758   1.074198
    17  H    4.402764   4.258102   5.541460   6.686306   6.789857
    18  Cl   2.959557   4.356001   5.281178   5.169008   4.066830
    19  Cl   2.753905   4.048062   4.555538   4.046564   2.745811
    20  Cl   4.972514   6.078196   7.365895   7.720363   6.895704
    21  Cl   5.762632   6.248952   7.647224   8.505769   8.168992
    22  Cl   3.014544   2.046720   2.983280   4.307936   4.846190
                    6          7          8          9         10
     6  C    0.000000
     7  C    2.425026   0.000000
     8  C    3.666978   1.409870   0.000000
     9  C    4.859602   2.440767   1.399369   0.000000
    10  C    5.137500   2.824541   2.424621   1.394025   0.000000
    11  C    4.346490   2.439796   2.790353   2.409252   1.394787
    12  C    2.955977   1.410495   2.418158   2.786763   2.419637
    13  H    3.385407   2.209563   1.715528   3.009376   4.140128
    14  H    3.852060   4.167693   4.143278   5.466919   6.553539
    15  H    3.387452   5.030481   5.639840   7.038762   7.813278
    16  H    2.146847   4.536543   5.662881   6.939680   7.283850
    17  H    5.786350   3.409503   2.144886   1.072942   2.140128
    18  Cl   2.760292   2.807788   4.107588   4.607245   4.086719
    19  Cl   1.776714   3.258236   4.666829   5.548939   5.369496
    20  Cl   5.500570   4.057222   4.555548   4.039746   2.745772
    21  Cl   6.877287   4.586476   4.044096   2.736472   1.761966
    22  Cl   4.324774   2.779480   1.760485   2.704298   4.016768
                   11         12         13         14         15
    11  C    0.000000
    12  C    1.393561   0.000000
    13  H    4.364738   3.604147   0.000000
    14  H    6.573615   5.530271   2.457587   0.000000
    15  H    7.395815   6.086406   4.276147   2.471621   0.000000
    16  H    6.459209   5.065918   4.942053   4.278648   2.474495
    17  H    3.381473   3.859705   3.417521   5.809779   7.647905
    18  Cl   2.776911   1.820744   4.917300   6.312625   6.143780
    19  Cl   4.211202   2.949933   4.898191   5.628764   4.890818
    20  Cl   1.765243   2.733595   6.103594   8.224674   8.778061
    21  Cl   2.749396   4.047114   5.728258   8.179970   9.560067
    22  Cl   4.549307   4.066832   0.978971   3.039500   5.130166
                   16         17         18         19         20
    16  H    0.000000
    17  H    7.807438   0.000000
    18  Cl   4.438532   5.680159   0.000000
    19  Cl   2.874264   6.590491   1.666368   0.000000
    20  Cl   7.461927   4.885738   3.140859   4.803932   0.000000
    21  Cl   9.023764   2.865282   5.509788   6.953246   3.182522
    22  Cl   5.920377   2.810515   5.582754   5.754288   6.314471
                   21         22
    21  Cl   0.000000
    22  Cl   5.420937   0.000000
 Stoichiometry    C12H5Cl5
 Framework group  C1[X(C12H5Cl5)]
 Deg. of freedom    60
 Full point group                 C1      NOp   1
 Largest Abelian subgroup         C1      NOp   1
 Largest concise Abelian subgroup C1      NOp   1
                         Standard orientation:                         
 ---------------------------------------------------------------------
 Center     Atomic      Atomic             Coordinates (Angstroms)
 Number     Number       Type             X           Y           Z
 ---------------------------------------------------------------------
      1          6           0       -1.493580    0.180180   -0.000001
      2          6           0       -2.056142    1.464016    0.000001
      3          6           0       -3.447088    1.634088    0.000004
      4          6           0       -4.296714    0.524211    0.000005
      5          6           0       -3.754599   -0.762054    0.000001
      6          6           0       -2.368103   -0.926715   -0.000002
      7          6           0       -0.337833    0.399465   -0.000002
      8          6           0        0.179153    1.711128   -0.000003
      9          6           0        1.560773    1.933296   -0.000004
     10          6           0        2.449083    0.858955   -0.000003
     11          6           0        1.951506   -0.444060   -0.000001
     12          6           0        0.577057   -0.674068   -0.000001
     13          1           0       -1.423116    2.324128    0.000003
     14          1           0       -3.862375    2.623710    0.000007
     15          1           0       -5.361629    0.658730    0.000008
     16          1           0       -4.399558   -1.621083   -0.000001
     17          1           0        1.938930    2.937389   -0.000005
     18         17           0       -0.028349   -2.391215    0.000003
     19         17           0       -1.685416   -2.567035   -0.000006
     20         17           0        3.059769   -1.818045    0.000005
     21         17           0        4.185351    1.158784   -0.000000
     22         17           0       -0.865081    3.128479   -0.000000
 ---------------------------------------------------------------------
 Rotational constants (GHZ):           0.4447460           0.2572355           0.1629736
 Standard basis: 6-311+G(d,p) (5D, 7F)
 There are   461 symmetry adapted cartesian basis functions of A   symmetry.
 There are   444 symmetry adapted basis functions of A   symmetry.
   444 basis functions,   737 primitive gaussians,   461 cartesian basis functions
    81 alpha electrons       81 beta electrons
       nuclear repulsion energy      1877.6090324405 Hartrees.
 NAtoms=   22 NActive=   22 NUniq=   22 SFac= 1.00D+00 NAtFMM=   60 NAOKFM=F Big=F
 Integral buffers will be    131072 words long.
 Raffenetti 2 integral format.
 Two-electron integral symmetry is turned on.
 One-electron integrals computed using PRISM.
 NBasis=   444 RedAO= T EigKep=  1.14D-06  NBF=   444
 NBsUse=   437 1.00D-06 EigRej=  8.30D-07 NBFU=   437
 Initial guess from the checkpoint file:  "./Gau-335017.chk"
 B after Tr=    -0.000000   -0.000000   -0.000000
         Rot=    0.999944    0.000000   -0.000000   -0.010626 Ang=   1.22 deg.
 ExpMin= 4.38D-02 ExpMax= 1.06D+05 ExpMxC= 3.62D+03 IAcc=3 IRadAn=         5 AccDes= 0.00D+00
 Harris functional with IExCor=  402 and IRadAn=       5 diagonalized for initial guess.
 HarFok:  IExCor=  402 AccDes= 0.00D+00 IRadAn=         5 IDoV= 1 UseB2=F ITyADJ=14
 ICtDFT=  3500011 ScaDFX=  1.000000  1.000000  1.000000  1.000000
 FoFCou: FMM=F IPFlag=           0 FMFlag=      100000 FMFlg1=           0
         NFxFlg=           0 DoJE=T BraDBF=F KetDBF=T FulRan=T
         wScrn=  0.000000 ICntrl=       500 IOpCl=  0 I1Cent=   200000004 NGrid=           0
         NMat0=    1 NMatS0=      1 NMatT0=    0 NMatD0=    1 NMtDS0=    0 NMtDT0=    0
 Petite list used in FoFCou.
 Requested convergence on RMS density matrix=1.00D-08 within  32 cycles.
 Requested convergence on MAX density matrix=1.00D-06.
 Requested convergence on             energy=1.00D-06.
 No special actions if energy rises.
 Restarting incremental Fock formation.
 SCF Done:  E(RB3LYP) =  -2760.51669234     A.U. after   23 cycles
            NFock= 23  Conv=0.68D-08     -V/T= 2.0009
 QCSCF skips out because SCF is already converged.
 Calling FoFJK, ICntrl=      2127 FMM=F ISym2X=0 I1Cent= 0 IOpClX= 0 NMat=1 NMatS=1 NMatT=0.
 ***** Axes restored to original set *****
 -------------------------------------------------------------------
 Center     Atomic                   Forces (Hartrees/Bohr)
 Number     Number              X              Y              Z
 -------------------------------------------------------------------
      1        6           0.207530347    0.341052947   -0.004319379
      2        6          -0.022467888    0.284435176    0.060821859
      3        6          -0.018583456   -0.008712556    0.004486178
      4        6          -0.000126059   -0.009025544   -0.001653791
      5        6          -0.014851047   -0.015022565    0.002071453
      6        6           0.065548316   -0.040598121   -0.029219814
      7        6          -0.192284025   -0.330620021    0.001255774
      8        6          -0.067778407   -0.074645055    0.008310879
      9        6           0.001810499    0.009193085    0.001130040
     10        6           0.001048499    0.001962072    0.000023096
     11        6           0.021087336    0.016297577   -0.003886512
     12        6           0.037999434   -0.162270747   -0.042994970
     13        1          -0.142674040    0.507767172    0.142369798
     14        1           0.012025739   -0.001145409   -0.004177040
     15        1           0.004155157    0.007752917    0.000087160
     16        1          -0.003881843    0.007737766    0.002732161
     17        1           0.003973464   -0.005518597   -0.002345514
     18       17          -0.175136817   -0.166931860    0.026350521
     19       17           0.041445178    0.338669800    0.049948646
     20       17          -0.007874936    0.001845058    0.002940976
     21       17           0.002295702   -0.005384430   -0.001767644
     22       17           0.246738846   -0.696838665   -0.212163878
 -------------------------------------------------------------------
 Cartesian Forces:  Max     0.696838665 RMS     0.151147610

 GradGradGradGradGradGradGradGradGradGradGradGradGradGradGradGradGradGrad
 Berny optimization.
 Using GEDIIS/GDIIS optimizer.
 FormGI is forming the generalized inverse of G from B-inverse, IUseBI=4.
 Internal  Forces:  Max     8.481693679 RMS     1.214736954
 Search for a local minimum.
 Step number   2 out of a maximum of  112
 All quantities printed in internal units (Hartrees-Bohrs-Radians)
 Mixed Optimization -- RFO/linear search
 Update second derivatives using D2CorX and points    2    1
 DE=  4.14D-01 DEPred=-1.14D-01 R=-3.62D+00
 Trust test=-3.62D+00 RLast= 3.00D-01 DXMaxT set to 1.50D-01
 ITU= -1  0
 Use linear search instead of GDIIS.
     Eigenvalues ---    0.00238   0.00238   0.01662   0.01669   0.02070
     Eigenvalues ---    0.02070   0.02070   0.02070   0.02070   0.02070
     Eigenvalues ---    0.02070   0.02070   0.02070   0.02070   0.02070
     Eigenvalues ---    0.02070   0.02070   0.02070   0.04808   0.07211
     Eigenvalues ---    0.16000   0.16000   0.16000   0.16000   0.16010
     Eigenvalues ---    0.22001   0.22436   0.23485   0.24441   0.25000
     Eigenvalues ---    0.25000   0.25000   0.25000   0.25000   0.25000
     Eigenvalues ---    0.25000   0.28013   0.29533   0.29539   0.29539
     Eigenvalues ---    0.29539   0.37150   0.37216   0.37230   0.37230
     Eigenvalues ---    0.37230   0.41183   0.41345   0.41588   0.42003
     Eigenvalues ---    0.45225   0.45250   0.45389   0.45389   0.45389
     Eigenvalues ---    0.45389   0.45389   0.45389   1.30954  79.96893
 RFO step:  Lambda=-1.88754687D+00 EMin= 2.37799045D-03
 Quartic linear search produced a step of -0.66556.
 Maximum step size (   0.150) exceeded in Quadratic search.
    -- Step size scaled by   0.158
 Iteration  1 RMS(Cart)=  0.22922090 RMS(Int)=  0.00402064
 Iteration  2 RMS(Cart)=  0.04232832 RMS(Int)=  0.00014079
 Iteration  3 RMS(Cart)=  0.00031839 RMS(Int)=  0.00001954
 Iteration  4 RMS(Cart)=  0.00000001 RMS(Int)=  0.00001954
 Variable       Old X    -DE/DX   Delta X   Delta X   Delta X     New X
                                 (Linear)    (Quad)   (Total)
    R1        2.64879  -0.08591  -0.00035  -0.00030  -0.00068   2.64811
    R2        2.66579  -0.67273  -0.01167   0.00562  -0.00607   2.65972
    R3        2.64808  -0.16895   0.00012  -0.00129  -0.00117   2.64691
    R4        2.01813  -0.54571   0.00258  -0.00624  -0.00366   2.01447
    R5        2.64136  -0.41045   0.00460  -0.00696  -0.00234   2.63901
    R6        2.02810   0.01275  -0.00406   0.00365  -0.00041   2.02770
    R7        2.63775  -0.25028   0.00699  -0.00797  -0.00095   2.63680
    R8        2.02839   0.00859  -0.00425   0.00379  -0.00046   2.02793
    R9        2.63851   0.14238   0.00649  -0.00478   0.00172   2.64023
   R10        2.02994   0.00897  -0.00528   0.00469  -0.00059   2.02935
   R11        3.35750  -0.14540  -0.02102   0.01707  -0.00395   3.35355
   R12        2.66427   1.12753  -0.01065   0.01743   0.00675   2.67102
   R13        2.66545   0.44830  -0.01144   0.01336   0.00190   2.66735
   R14        2.64442  -0.20505   0.00255  -0.00373  -0.00118   2.64325
   R15        3.32683   0.24233  -0.00061   0.00236   0.00175   3.32858
   R16        2.63432  -0.56286   0.00928  -0.01225  -0.00295   2.63138
   R17        2.02757   0.00719  -0.00370   0.00330  -0.00040   2.02716
   R18        2.63577  -0.35898   0.00832  -0.00995  -0.00160   2.63416
   R19        3.32963   0.00405  -0.00247   0.00217  -0.00030   3.32933
   R20        2.63345   0.17582   0.00986  -0.00751   0.00235   2.63580
   R21        3.33583   0.00810  -0.00659   0.00576  -0.00083   3.33499
   R22        3.44071   1.06264  -0.07640   0.07406  -0.00234   3.43837
   R23        3.14898   1.31602  -0.03996   0.04620   0.00624   3.15522
    A1        2.05995  -0.39299   0.02293  -0.02270   0.00015   2.06010
    A2        2.10545   0.50432  -0.00736   0.01022   0.00282   2.10828
    A3        2.09414  -0.22642   0.00017  -0.00195  -0.00176   2.09237
    A4        2.08360  -0.27789   0.00719  -0.00826  -0.00106   2.08254
    A5        2.10248  -0.15776  -0.00538   0.00337  -0.00199   2.10050
    A6        2.08979   0.07972   0.00307  -0.00199   0.00106   2.09085
    A7        2.09091   0.07803   0.00232  -0.00138   0.00093   2.09184
    A8        2.08936  -0.25993   0.00335  -0.00487  -0.00146   2.08791
    A9        2.09850   0.13189  -0.00273   0.00334   0.00058   2.09907
   A10        2.09532   0.12804  -0.00062   0.00153   0.00088   2.09620
   A11        2.08788   0.31661   0.00434  -0.00123   0.00316   2.09103
   A12        2.09871  -0.15692  -0.00287   0.00121  -0.00168   2.09703
   A13        2.09660  -0.15969  -0.00147   0.00001  -0.00148   2.09513
   A14        2.12125  -0.01025  -0.01787   0.01520  -0.00268   2.11856
   A15        2.07855   1.52451   0.01055   0.00274   0.01329   2.09184
   A16        2.08339  -1.51426   0.00732  -0.01794  -0.01061   2.07278
   A17        2.06036  -0.43265   0.02265  -0.02263  -0.00005   2.06031
   A18        2.10568   0.21939  -0.00751   0.00814   0.00060   2.10628
   A19        2.13118   1.10444  -0.02448   0.02948   0.00502   2.13619
   A20        2.04633  -1.32382   0.03199  -0.03762  -0.00562   2.04071
   A21        2.10225   0.07722  -0.00523   0.00499  -0.00021   2.10204
   A22        2.09042  -0.03876   0.00265  -0.00252   0.00011   2.09053
   A23        2.09051  -0.03846   0.00258  -0.00247   0.00010   2.09061
   A24        2.08592  -0.10296   0.00564  -0.00571  -0.00001   2.08591
   A25        2.09069   0.04386   0.00246  -0.00173   0.00070   2.09139
   A26        2.10657   0.05910  -0.00811   0.00744  -0.00070   2.10588
   A27        2.10138   0.66814  -0.00465   0.00912   0.00450   2.10589
   A28        2.09806  -0.32922  -0.00244  -0.00044  -0.00290   2.09516
   A29        2.08374  -0.33892   0.00709  -0.00868  -0.00161   2.08214
   A30        2.11077  -0.42915  -0.01090   0.00608  -0.00484   2.10593
   A31        2.09685   3.25399  -0.00163   0.02647   0.02485   2.12170
   A32        2.07556  -2.82484   0.01253  -0.03255  -0.02001   2.05555
   A33        2.01546   8.48169   0.05253   0.02042   0.07296   2.08842
   A34        1.85947   6.67102   0.15635  -0.08248   0.07388   1.93335
    D1        0.00000  -0.00000   0.00000  -0.00000   0.00000   0.00000
    D2        3.14159  -0.00000  -0.00000  -0.00000  -0.00000   3.14159
    D3       -0.00000   0.00000  -0.00000   0.00000   0.00000  -0.00000
    D4        3.14159   0.00000  -0.00000   0.00000   0.00000   3.14159
    D5        0.00000   0.00000  -0.00000   0.00000   0.00000   0.00000
    D6        3.14159   0.00000  -0.00000   0.00000  -0.00000   3.14159
    D7       -3.14159   0.00000   0.00000  -0.00000   0.00000  -3.14159
    D8        0.00000   0.00000   0.00000  -0.00000   0.00000   0.00000
    D9       -0.00000   0.00000  -0.00000   0.00000  -0.00000  -0.00000
   D10        3.14159  -0.00000   0.00000  -0.00000   0.00000   3.14159
   D11        3.14159   0.00000  -0.00000   0.00000   0.00000   3.14159
   D12        0.00000   0.00000   0.00000  -0.00000   0.00000   0.00000
   D13        0.00000  -0.00000   0.00000  -0.00000   0.00000   0.00000
   D14       -3.14159  -0.00000   0.00000  -0.00000   0.00000  -3.14159
   D15       -3.14159   0.00000   0.00000  -0.00000   0.00000  -3.14159
   D16        0.00000  -0.00000   0.00000  -0.00000   0.00000   0.00000
   D17       -0.00000   0.00000  -0.00000   0.00000  -0.00000  -0.00000
   D18        3.14159  -0.00000   0.00000  -0.00000  -0.00000   3.14159
   D19        3.14159   0.00000  -0.00000   0.00000  -0.00000   3.14159
   D20       -0.00000  -0.00000   0.00000  -0.00000  -0.00000  -0.00000
   D21        0.00001  -0.00001   0.00000  -0.00000  -0.00000   0.00001
   D22       -3.14159  -0.00000   0.00000  -0.00000  -0.00000  -3.14159
   D23        0.00000  -0.00000   0.00000  -0.00000  -0.00000   0.00000
   D24       -3.14159  -0.00000   0.00000  -0.00000   0.00000  -3.14159
   D25       -0.00000   0.00000  -0.00000   0.00000   0.00000  -0.00000
   D26        3.14159   0.00000  -0.00000   0.00000  -0.00000   3.14159
   D27       -0.00000  -0.00000   0.00000  -0.00000   0.00000  -0.00000
   D28        3.14159  -0.00000   0.00000  -0.00000   0.00000   3.14159
   D29        3.14159   0.00000  -0.00000   0.00000   0.00000   3.14159
   D30       -0.00000   0.00000  -0.00000   0.00000   0.00000  -0.00000
   D31       -0.00000   0.00000  -0.00000   0.00000   0.00000  -0.00000
   D32       -3.14159  -0.00000   0.00000  -0.00000   0.00000  -3.14159
   D33        3.14159   0.00000  -0.00000   0.00000   0.00000   3.14159
   D34        0.00000   0.00000   0.00000  -0.00000   0.00000   0.00000
   D35        0.00000  -0.00000   0.00000  -0.00000  -0.00000   0.00000
   D36       -3.14159  -0.00000   0.00000  -0.00000  -0.00000  -3.14159
   D37        3.14159   0.00000  -0.00000   0.00000  -0.00000   3.14159
   D38        0.00000  -0.00000   0.00000  -0.00000  -0.00000   0.00000
   D39        0.00000  -0.00000   0.00000  -0.00000   0.00000   0.00000
   D40       -3.14159  -0.00000   0.00000  -0.00000   0.00000  -3.14159
   D41        3.14159   0.00000  -0.00000   0.00000  -0.00000   3.14159
   D42       -0.00000  -0.00000   0.00000  -0.00000   0.00000  -0.00000
   D43        0.00001  -0.00000  -0.00000   0.00000  -0.00000   0.00001
   D44       -3.14159   0.00000  -0.00000   0.00000  -0.00000  -3.14159
   D45       -0.00001  -0.00007  -0.00000   0.00000  -0.00000  -0.00001
         Item               Value     Threshold  Converged?
 Maximum Force            8.481694     0.000450     NO 
 RMS     Force            1.214737     0.000300     NO 
 Maximum Displacement     0.951067     0.001800     NO 
 RMS     Displacement     0.270670     0.001200     NO 
 Predicted change in Energy=-4.416801D-01
 GradGradGradGradGradGradGradGradGradGradGradGradGradGradGradGradGradGrad

                          Input orientation:                          
 ---------------------------------------------------------------------
 Center     Atomic      Atomic             Coordinates (Angstroms)
 Number     Number       Type             X           Y           Z
 ---------------------------------------------------------------------
      1          6           0        0.002057    0.924954    0.057372
      2          6           0        1.328447    0.865437   -0.390791
      3          6           0        2.122568    2.018369   -0.435886
      4          6           0        1.601925    3.249987   -0.033047
      5          6           0        0.283125    3.327765    0.416042
      6          6           0       -0.504984    2.174921    0.459173
      7          6           0       -0.674107   -0.555569    0.002082
      8          6           0       -0.033505   -1.738679   -0.431168
      9          6           0       -0.716273   -2.959459   -0.435498
     10          6           0       -2.040985   -3.028340   -0.011998
     11          6           0       -2.685598   -1.869613    0.417994
     12          6           0       -2.016932   -0.645574    0.427583
     13          1           0        1.742569   -0.066181   -0.702191
     14          1           0        3.136255    1.954411   -0.781862
     15          1           0        2.211507    4.132480   -0.068136
     16          1           0       -0.125799    4.270533    0.727823
     17          1           0       -0.216014   -3.848507   -0.767284
     18         17           0       -2.933386    0.816713    1.004149
     19         17           0       -2.178468    2.305655    1.035062
     20         17           0       -4.364341   -1.940861    0.957692
     21         17           0       -2.885601   -4.574442   -0.024103
     22         17           0        1.638278   -1.757867   -0.985548
 ---------------------------------------------------------------------
                    Distance matrix (angstroms):
                    1          2          3          4          5
     1  C    0.000000
     2  C    1.401321   0.000000
     3  C    2.436273   1.400684   0.000000
     4  C    2.823743   2.426695   1.396506   0.000000
     5  C    2.445638   2.794055   2.413266   1.395336   0.000000
     6  C    1.407463   2.408040   2.780228   2.416012   1.397150
     7  C    1.628559   2.486730   3.826011   4.434389   4.020938
     8  C    2.708298   2.939041   4.331753   5.264971   5.146541
     9  C    3.980902   4.337361   5.730427   6.640273   6.422858
    10  C    4.450547   5.163144   6.556228   7.258693   6.781208
[...]
                 (A) (A) (A) (A) (A) (A) (A) (A) (A)
       Virtual   (A) (A) (A) (A) (A) (A) (A) (A) (A) (A) (A) (A)
                 (A) (A) (A) (A) (A) (A) (A) (A) (A) (A) (A) (A)
                 (A) (A) (A) (A) (A) (A) (A) (A) (A) (A) (A) (A)
                 (A) (A) (A) (A) (A) (A) (A) (A) (A) (A) (A) (A)
                 (A) (A) (A) (A) (A) (A) (A) (A) (A) (A) (A) (A)
                 (A) (A) (A) (A) (A) (A) (A) (A) (A) (A) (A) (A)
                 (A) (A) (A) (A) (A) (A) (A) (A) (A) (A) (A) (A)
                 (A) (A) (A) (A) (A) (A) (A) (A) (A) (A) (A) (A)
                 (A) (A) (A) (A) (A) (A) (A) (A) (A) (A) (A) (A)
                 (A) (A) (A) (A) (A) (A) (A) (A) (A) (A) (A) (A)
                 (A) (A) (A) (A) (A) (A) (A) (A) (A) (A) (A) (A)
                 (A) (A) (A) (A) (A) (A) (A) (A) (A) (A) (A) (A)
                 (A) (A) (A) (A) (A) (A) (A) (A) (A) (A) (A) (A)
                 (A) (A) (A) (A) (A) (A) (A) (A) (A) (A) (A) (A)
                 (A) (A) (A) (A) (A) (A) (A) (A) (A) (A) (A) (A)
                 (A) (A) (A) (A) (A) (A) (A) (A) (A) (A) (A) (A)
                 (A) (A) (A) (A) (A) (A) (A) (A) (A) (A) (A) (A)
                 (A) (A) (A) (A) (A) (A) (A) (A) (A) (A) (A) (A)
                 (A) (A) (A) (A) (A) (A) (A) (A) (A) (A) (A) (A)
                 (A) (A) (A) (A) (A) (A) (A) (A) (A) (A) (A) (A)
                 (A) (A) (A) (A) (A) (A) (A) (A) (A) (A) (A) (A)
                 (A) (A) (A) (A) (A) (A) (A) (A) (A) (A) (A) (A)
                 (A) (A) (A) (A) (A) (A) (A) (A) (A) (A) (A) (A)
                 (A) (A) (A) (A) (A) (A) (A) (A) (A) (A) (A) (A)
                 (A) (A) (A) (A) (A) (A) (A) (A) (A) (A) (A) (A)
                 (A) (A) (A) (A) (A) (A) (A) (A) (A) (A) (A) (A)
                 (A) (A) (A) (A) (A) (A) (A) (A) (A) (A) (A) (A)
                 (A) (A) (A) (A) (A) (A) (A) (A) (A) (A) (A) (A)
                 (A) (A) (A) (A) (A) (A) (A) (A) (A) (A) (A) (A)
                 (A) (A) (A) (A) (A) (A) (A) (A) (A) (A) (A)
 The electronic state is 1-A.
 Alpha  occ. eigenvalues -- -101.57715-101.57626-101.57454-101.57318-101.56311
 Alpha  occ. eigenvalues --  -10.27751 -10.27575 -10.27513 -10.27071 -10.25501
 Alpha  occ. eigenvalues --  -10.23478 -10.21955 -10.21945 -10.20220 -10.20154
 Alpha  occ. eigenvalues --  -10.20044 -10.19687  -9.49173  -9.49089  -9.48930
 Alpha  occ. eigenvalues --   -9.48787  -9.47784  -7.25665  -7.25592  -7.25422
 Alpha  occ. eigenvalues --   -7.25264  -7.24651  -7.24589  -7.24569  -7.24488
 Alpha  occ. eigenvalues --   -7.24414  -7.24333  -7.24266  -7.24242  -7.24213
 Alpha  occ. eigenvalues --   -7.23267  -7.23228  -0.95743  -0.91821  -0.90462
 Alpha  occ. eigenvalues --   -0.89850  -0.87013  -0.85379  -0.83513  -0.80234
 Alpha  occ. eigenvalues --   -0.76047  -0.75232  -0.73938  -0.65617  -0.63598
 Alpha  occ. eigenvalues --   -0.62904  -0.60795  -0.55125  -0.54501  -0.52218
 Alpha  occ. eigenvalues --   -0.49825  -0.49154  -0.47859  -0.46702  -0.45833
 Alpha  occ. eigenvalues --   -0.45384  -0.44829  -0.42895  -0.42743  -0.40662
 Alpha  occ. eigenvalues --   -0.39570  -0.38935  -0.38432  -0.37877  -0.35664
 Alpha  occ. eigenvalues --   -0.35322  -0.34708  -0.34231  -0.33632  -0.32759
 Alpha  occ. eigenvalues --   -0.32436  -0.31907  -0.27952  -0.27499  -0.26563
 Alpha  occ. eigenvalues --   -0.26425
 Alpha virt. eigenvalues --   -0.05789  -0.05489  -0.04492  -0.04058  -0.03608
 Alpha virt. eigenvalues --   -0.00735  -0.00076   0.00380   0.01283   0.01396
 Alpha virt. eigenvalues --    0.01857   0.02508   0.02919   0.03407   0.04307
 Alpha virt. eigenvalues --    0.04629   0.05201   0.05502   0.06114   0.06384
 Alpha virt. eigenvalues --    0.06599   0.07508   0.07681   0.08287   0.08812
 Alpha virt. eigenvalues --    0.08943   0.09444   0.09854   0.10142   0.10742
 Alpha virt. eigenvalues --    0.10858   0.11346   0.11511   0.12522   0.12627
 Alpha virt. eigenvalues --    0.12871   0.13113   0.13196   0.13678   0.14254
 Alpha virt. eigenvalues --    0.14676   0.14937   0.15012   0.15296   0.16056
 Alpha virt. eigenvalues --    0.16436   0.16809   0.17200   0.17526   0.18361
 Alpha virt. eigenvalues --    0.18674   0.18752   0.19141   0.19581   0.19771
 Alpha virt. eigenvalues --    0.20095   0.20209   0.20573   0.21061   0.21292
 Alpha virt. eigenvalues --    0.21761   0.22018   0.22521   0.23033   0.23725
 Alpha virt. eigenvalues --    0.23815   0.24174   0.24539   0.24917   0.25518
 Alpha virt. eigenvalues --    0.25603   0.26415   0.26703   0.27256   0.27451
 Alpha virt. eigenvalues --    0.27948   0.28164   0.28846   0.29016   0.29445
 Alpha virt. eigenvalues --    0.29846   0.30793   0.31041   0.31272   0.32119
 Alpha virt. eigenvalues --    0.32337   0.32868   0.34360   0.35587   0.39566
 Alpha virt. eigenvalues --    0.41057   0.42945   0.43529   0.44224   0.44678
 Alpha virt. eigenvalues --    0.45336   0.46205   0.46659   0.46810   0.47658
 Alpha virt. eigenvalues --    0.48211   0.49007   0.49773   0.50865   0.50889
 Alpha virt. eigenvalues --    0.51120   0.51332   0.51973   0.53344   0.54232
 Alpha virt. eigenvalues --    0.54790   0.56865   0.57415   0.57856   0.58081
 Alpha virt. eigenvalues --    0.58328   0.58476   0.60209   0.61046   0.61090
 Alpha virt. eigenvalues --    0.61643   0.62268   0.62959   0.63826   0.63963
 Alpha virt. eigenvalues --    0.64667   0.65829   0.66109   0.67272   0.68341
 Alpha virt. eigenvalues --    0.68452   0.69246   0.69725   0.69948   0.71387
 Alpha virt. eigenvalues --    0.71998   0.73178   0.76826   0.78261   0.78682
 Alpha virt. eigenvalues --    0.80579   0.81355   0.81794   0.82292   0.82544
 Alpha virt. eigenvalues --    0.83329   0.83975   0.84266   0.84345   0.84854
 Alpha virt. eigenvalues --    0.85024   0.85468   0.85703   0.86535   0.86942
 Alpha virt. eigenvalues --    0.88241   0.89205   0.89749   0.90089   0.90249
 Alpha virt. eigenvalues --    0.90784   0.91513   0.92218   0.93424   0.94668
 Alpha virt. eigenvalues --    0.95362   0.95416   0.95868   0.96484   0.96947
 Alpha virt. eigenvalues --    0.98079   0.98365   0.99515   1.00136   1.00593
 Alpha virt. eigenvalues --    1.01658   1.03142   1.04162   1.04455   1.05488
 Alpha virt. eigenvalues --    1.05968   1.09039   1.11146   1.12653   1.16383
 Alpha virt. eigenvalues --    1.17335   1.19065   1.20905   1.22272   1.23956
 Alpha virt. eigenvalues --    1.25465   1.26385   1.27476   1.28636   1.30127
 Alpha virt. eigenvalues --    1.30298   1.31212   1.31514   1.33699   1.36275
 Alpha virt. eigenvalues --    1.37703   1.40766   1.44724   1.45431   1.47792
 Alpha virt. eigenvalues --    1.49047   1.49539   1.53299   1.55188   1.55526
 Alpha virt. eigenvalues --    1.57366   1.57856   1.59312   1.60800   1.63979
 Alpha virt. eigenvalues --    1.64877   1.66211   1.68830   1.69859   1.73260
 Alpha virt. eigenvalues --    1.73474   1.75747   1.78590   1.79321   1.81161
 Alpha virt. eigenvalues --    1.82425   1.82574   1.84562   1.85833   1.86570
 Alpha virt. eigenvalues --    1.87857   1.90329   1.93260   1.93536   1.94312
 Alpha virt. eigenvalues --    1.95441   1.98486   2.00522   2.01379   2.02564
 Alpha virt. eigenvalues --    2.02957   2.05181   2.06321   2.12473   2.15591
 Alpha virt. eigenvalues --    2.20425   2.21038   2.23048   2.25396   2.25693
 Alpha virt. eigenvalues --    2.27135   2.27474   2.30006   2.30673   2.30918
 Alpha virt. eigenvalues --    2.32385   2.35987   2.36421   2.38216   2.39030
 Alpha virt. eigenvalues --    2.41121   2.42598   2.43679   2.45146   2.47019
 Alpha virt. eigenvalues --    2.49591   2.51507   2.52220   2.54710   2.55861
 Alpha virt. eigenvalues --    2.57924   2.59633   2.61084   2.62264   2.66152
 Alpha virt. eigenvalues --    2.67184   2.68746   2.69588   2.71375   2.71895
 Alpha virt. eigenvalues --    2.74775   2.75051   2.75322   2.77617   2.78713
 Alpha virt. eigenvalues --    2.79638   2.81659   2.83575   2.84150   2.84332
 Alpha virt. eigenvalues --    2.86757   2.89996   2.97453   2.98642   3.06170
 Alpha virt. eigenvalues --    3.09128   3.10058   3.11937   3.14399   3.14427
 Alpha virt. eigenvalues --    3.19352   3.21926   3.23815   3.27518   3.33338
 Alpha virt. eigenvalues --    3.38358   3.39425   3.50828   3.52222   3.56559
 Alpha virt. eigenvalues --    3.63417   3.70066   3.75227   3.83627   3.91920
 Alpha virt. eigenvalues --    4.00615   4.02616   4.07072   4.13302   4.34117
 Alpha virt. eigenvalues --    4.80422   4.82479   9.75452   9.79367   9.81171
 Alpha virt. eigenvalues --    9.83435   9.84997  23.34437  23.57904  23.81620
 Alpha virt. eigenvalues --   23.83954  23.90260  23.92157  23.94286  23.99000
 Alpha virt. eigenvalues --   24.05943  24.07328  24.10559  24.16932  25.77485
 Alpha virt. eigenvalues --   25.81908  25.85825  25.94293  25.97708  26.09570
 Alpha virt. eigenvalues --   26.14505  26.23344  26.28851  26.37524  26.49515
 Alpha virt. eigenvalues --   26.64026  26.67419  26.78258  27.02510 215.74559
 Alpha virt. eigenvalues --  215.78881 215.81101 215.83916 215.85799
          Condensed to atoms (all electrons):
               1          2          3          4          5          6
     1  C   22.987837  -1.646425  -2.418868  -1.965213  -0.043665  -2.240501
     2  C   -1.646425  10.280307  -1.386793   1.223599   0.487815   1.235994
     3  C   -2.418868  -1.386793   9.947205  -1.051537   0.524328  -2.121653
     4  C   -1.965213   1.223599  -1.051537   8.936657   0.327337   0.864435
     5  C   -0.043665   0.487815   0.524328   0.327337   9.411043  -4.162572
     6  C   -2.240501   1.235994  -2.121653   0.864435  -4.162572  31.016403
     7  C    8.595270  -2.504130   1.055548  -1.734220  -0.345342  -5.501358
     8  C   -5.390952  -0.504408   0.628128  -0.265774   0.008133  -5.592284
     9  C   -5.006162  -0.142504   0.020530   0.004728   0.173489  -1.809621
    10  C   -0.615976  -0.061754  -0.082412   0.037481   0.063675  -0.110765
    11  C   -3.578577  -0.161203   0.427393  -0.184155  -0.085409  -2.376000
    12  C   -1.890559  -0.660136   0.087953  -0.192148  -0.096560  -3.505354
    13  H   -0.026041   0.353609  -0.067955  -0.008766  -0.005985  -0.131056
    14  H    0.038052  -0.037577   0.372730  -0.015533  -0.008724   0.001669
    15  H    0.036037  -0.015128  -0.013362   0.373621  -0.035410  -0.005410
    16  H    0.087641  -0.016066  -0.008723  -0.050310   0.400494  -0.051070
    17  H    0.024951   0.000072  -0.000223   0.000044  -0.000069   0.001209
    18  Cl  -0.570710   0.145274   0.099301  -0.069523  -0.022730   0.304114
    19  Cl  -0.519983  -0.212819   0.118944  -0.079164  -0.382668   1.026182
    20  Cl  -0.196461   0.004746   0.012526  -0.003304   0.000574  -0.091660
    21  Cl  -0.046387  -0.006115   0.002920  -0.001230  -0.000624  -0.048055
    22  Cl   0.224753   0.135467   0.145260  -0.089689  -0.056388   0.175741
               7          8          9         10         11         12
     1  C    8.595270  -5.390952  -5.006162  -0.615976  -3.578577  -1.890559
     2  C   -2.504130  -0.504408  -0.142504  -0.061754  -0.161203  -0.660136
     3  C    1.055548   0.628128   0.020530  -0.082412   0.427393   0.087953
     4  C   -1.734220  -0.265774   0.004728   0.037481  -0.184155  -0.192148
     5  C   -0.345342   0.008133   0.173489   0.063675  -0.085409  -0.096560
     6  C   -5.501358  -5.592284  -1.809621  -0.110765  -2.376000  -3.505354
     7  C   27.703570  -9.535597  -8.292082   2.249648  -5.530261   1.143324
     8  C   -9.535597  33.755740  -4.168015  -6.515472   9.042460  -5.220664
     9  C   -8.292082  -4.168015  29.630038   2.268616 -11.732355   6.139159
    10  C    2.249648  -6.515472   2.268616  19.354095  -7.404158  -1.932370
    11  C   -5.530261   9.042460 -11.732355  -7.404158  30.263705  -3.733526
    12  C    1.143324  -5.220664   6.139159  -1.932370  -3.733526  19.068506
    13  H    0.086124   0.058763   0.017064   0.004923   0.011390   0.069021
    14  H   -0.002090   0.000323   0.000200   0.000066  -0.000318   0.001337
    15  H    0.008177   0.001141   0.000041   0.000045   0.000078   0.001279
    16  H    0.003439  -0.003404  -0.000504   0.000099  -0.000753   0.001022
    17  H    0.157664   0.028550   0.081592   0.017984   0.057854  -0.017285
    18  Cl  -0.455239  -0.239770   1.036284   0.428368  -0.972147  -1.232913
    19  Cl  -0.062825  -0.215046  -0.336024  -0.103170   0.011762  -0.350346
    20  Cl  -0.981156   0.636859   0.077046  -0.631595   0.189825   0.374734
    21  Cl   0.076157  -0.497544   0.007783  -0.372501   0.331124  -0.123973
    22  Cl  -0.407936   0.354783  -1.295505  -0.584306   0.777166  -0.551208
              13         14         15         16         17         18
     1  C   -0.026041   0.038052   0.036037   0.087641   0.024951  -0.570710
     2  C    0.353609  -0.037577  -0.015128  -0.016066   0.000072   0.145274
     3  C   -0.067955   0.372730  -0.013362  -0.008723  -0.000223   0.099301
     4  C   -0.008766  -0.015533   0.373621  -0.050310   0.000044  -0.069523
     5  C   -0.005985  -0.008724  -0.035410   0.400494  -0.000069  -0.022730
     6  C   -0.131056   0.001669  -0.005410  -0.051070   0.001209   0.304114
     7  C    0.086124  -0.002090   0.008177   0.003439   0.157664  -0.455239
     8  C    0.058763   0.000323   0.001141  -0.003404   0.028550  -0.239770
     9  C    0.017064   0.000200   0.000041  -0.000504   0.081592   1.036284
    10  C    0.004923   0.000066   0.000045   0.000099   0.017984   0.428368
    11  C    0.011390  -0.000318   0.000078  -0.000753   0.057854  -0.972147
    12  C    0.069021   0.001337   0.001279   0.001022  -0.017285  -1.232913
    13  H    0.539383  -0.007142  -0.000259   0.000057   0.000002  -0.010315
    14  H   -0.007142   0.530608  -0.007366  -0.000218   0.000000  -0.000512
    15  H   -0.000259  -0.007366   0.528314  -0.007455  -0.000000  -0.000428
    16  H    0.000057  -0.000218  -0.007455   0.511315   0.000000  -0.000882
    17  H    0.000002   0.000000  -0.000000   0.000000   0.491142   0.000485
    18  Cl  -0.010315  -0.000512  -0.000428  -0.000882   0.000485  18.308351
    19  Cl  -0.003581   0.000733  -0.000046  -0.012265  -0.000640   0.080613
    20  Cl   0.000625  -0.000000   0.000001  -0.000003  -0.000643  -0.334495
    21  Cl   0.000121  -0.000000   0.000000  -0.000001  -0.007883  -0.012422
    22  Cl  -0.008263  -0.000497  -0.000328  -0.000795  -0.007814  -0.067055
              19         20         21         22
     1  C   -0.519983  -0.196461  -0.046387   0.224753
     2  C   -0.212819   0.004746  -0.006115   0.135467
     3  C    0.118944   0.012526   0.002920   0.145260
     4  C   -0.079164  -0.003304  -0.001230  -0.089689
     5  C   -0.382668   0.000574  -0.000624  -0.056388
     6  C    1.026182  -0.091660  -0.048055   0.175741
     7  C   -0.062825  -0.981156   0.076157  -0.407936
     8  C   -0.215046   0.636859  -0.497544   0.354783
     9  C   -0.336024   0.077046   0.007783  -1.295505
    10  C   -0.103170  -0.631595  -0.372501  -0.584306
    11  C    0.011762   0.189825   0.331124   0.777166
    12  C   -0.350346   0.374734  -0.123973  -0.551208
    13  H   -0.003581   0.000625   0.000121  -0.008263
    14  H    0.000733  -0.000000  -0.000000  -0.000497
    15  H   -0.000046   0.000001   0.000000  -0.000328
    16  H   -0.012265  -0.000003  -0.000001  -0.000795
    17  H   -0.000640  -0.000643  -0.007883  -0.007814
    18  Cl   0.080613  -0.334495  -0.012422  -0.067055
    19  Cl  17.565477  -0.002835   0.004547   0.073182
    20  Cl  -0.002835  17.534979  -0.193587   0.002442
    21  Cl   0.004547  -0.193587  17.407847  -0.044227
    22  Cl   0.073182   0.002442  -0.044227  17.819626
 Mulliken charges:
               1
     1  C    0.161941
     2  C   -0.511825
     3  C   -0.291239
     4  C   -0.057336
     5  C   -0.150742
     6  C   -0.878389
     7  C    0.273314
     8  C   -0.365950
     9  C   -0.673799
    10  C   -0.010521
    11  C    0.646104
    12  C   -1.379292
    13  H    0.128283
    14  H    0.134258
    15  H    0.136458
    16  H    0.148382
    17  H    0.173008
    18  Cl   0.586352
    19  Cl   0.399970
    20  Cl   0.601384
    21  Cl   0.524049
    22  Cl   0.405592
 Sum of Mulliken charges =  -0.00000
 Mulliken charges with hydrogens summed into heavy atoms:
               1
     1  C    0.161941
     2  C   -0.383542
     3  C   -0.156981
     4  C    0.079121
     5  C   -0.002360
     6  C   -0.878389
     7  C    0.273314
     8  C   -0.365950
     9  C   -0.500792
    10  C   -0.010521
    11  C    0.646104
    12  C   -1.379292
    18  Cl   0.586352
    19  Cl   0.399970
    20  Cl   0.601384
    21  Cl   0.524049
    22  Cl   0.405592
 Electronic spatial extent (au):  <R**2>=           6089.0016
 Charge=              0.0000 electrons
 Dipole moment (field-independent basis, Debye):
    X=             -1.9662    Y=              0.4501    Z=              1.5154  Tot=              2.5228
 Quadrupole moment (field-independent basis, Debye-Ang):
   XX=           -122.2977   YY=           -133.8288   ZZ=           -130.0877
   XY=              4.6659   XZ=             -3.5094   YZ=             -0.2347
 Traceless Quadrupole moment (field-independent basis, Debye-Ang):
   XX=              6.4404   YY=             -5.0907   ZZ=             -1.3496
   XY=              4.6659   XZ=             -3.5094   YZ=             -0.2347
 Octapole moment (field-independent basis, Debye-Ang**2):
  XXX=            -53.6661  YYY=              0.0767  ZZZ=              2.5464  XYY=             21.3774
  XXY=            -10.9097  XXZ=              4.5023  XZZ=             -3.9727  YZZ=             -3.3701
  YYZ=             -5.8028  XYZ=              1.4510
 Hexadecapole moment (field-independent basis, Debye-Ang**3):
 XXXX=          -4915.9721 YYYY=          -1848.1714 ZZZZ=           -849.4228 XXXY=             45.9665
 XXXZ=            -19.5537 YYYX=            -27.5183 YYYZ=              1.9161 ZZZX=            -24.0744
 ZZZY=             -4.4181 XXYY=          -1203.7149 XXZZ=          -1002.8865 YYZZ=           -484.1390
 XXYZ=             -5.0042 YYXZ=              9.8459 ZZXY=              0.0780
 N-N= 1.788757337677D+03 E-N=-1.011453027061D+04  KE= 2.754119766085D+03
 1\1\GINC-CN264\FOpt\RB3LYP\6-311+G(d,p)\C12H5Cl5\20CY91R06\03-Apr-2022
 \0\\# opt b3lyp/6-311+g(d,p) scf=xqc\\Title Card Required\\0,1\C,0.080
 5568062,0.8030665059,0.0498502429\C,1.3293374162,0.8262303815,0.680330
 0882\C,2.0703459674,1.9999838904,0.7652290247\C,1.5676263721,3.1771053
 253,0.2149264948\C,0.3282408329,3.1785453213,-0.4177598946\C,-0.402669
 2706,1.9966239585,-0.4954034068\C,-0.6874782625,-0.4731372473,-0.03200
 74029\C,-0.5221235787,-1.3569373164,-1.1040627535\C,-1.217010426,-2.55
 55214994,-1.186023149\C,-2.106911672,-2.8996481389,-0.1772679085\C,-2.
 3087221154,-2.0516192062,0.9178939835\C,-1.5924711106,-0.8463392212,0.
 9739784065\H,1.7154049903,-0.0924814464,1.106706177\H,3.0350419066,1.9
 946818376,1.2584044914\H,2.1369123833,4.0973688499,0.2754770424\H,-0.0
 74858378,4.0852658125,-0.8501448809\H,-1.0703617207,-3.2182084811,-2.0
 269674718\Cl,-1.8295732713,0.2306544802,2.3247202114\Cl,-1.9646464686,
 2.0272694235,-1.2995607364\Cl,-3.4209769303,-2.4876174357,2.1777650511
 \Cl,-2.9605390443,-4.4142911797,-0.3159879242\Cl,0.585611844,-0.964863
 8645,-2.4026361854\\Version=EM64L-G16RevB.01\State=1-A\HF=-2761.512592
 8\RMSD=7.907e-09\RMSF=1.408e-05\Dipole=0.9287872,0.3485994,0.0318309\Q
 uadrupole=0.9473038,3.0390431,-3.9863469,3.747178,2.6388254,1.9962416\
 PG=C01 [X(C12H5Cl5)]\\@


 It is also a good rule not to put too much confidence in
 experimental results until they have been confirmed by
 Theory.
                             -- Sir Arthur Eddington
 Job cpu time:       1 days  0 hours 16 minutes 44.5 seconds.
 Elapsed time:       0 days  1 hours 31 minutes 19.3 seconds.
 File lengths (MBytes):  RWF=    136 Int=      0 D2E=      0 Chk=     20 Scr=      1
 Normal termination of Gaussian 16 at Sun Apr  3 13:06:42 2022.
