 Entering Gaussian System, Link 0=g16
 Input=2,2prime,3,3prime,4,5prime,6-Heptachlorobiphenyl.gjf
 Output=2,2prime,3,3prime,4,5prime,6-Heptachlorobiphenyl.log
 Initial command:
 /home/apps/g16/l1.exe "./Gau-209081.inp" -scrdir="./"
 Entering Link 1 = /home/apps/g16/l1.exe PID=    209082.
  
 Copyright (c) 1988-2017, Gaussian, Inc.  All Rights Reserved.
  
 This is part of the Gaussian(R) 16 program.  It is based on
 the Gaussian(R) 09 system (copyright 2009, Gaussian, Inc.),
 the Gaussian(R) 03 system (copyright 2003, Gaussian, Inc.),
 the Gaussian(R) 98 system (copyright 1998, Gaussian, Inc.),
 the Gaussian(R) 94 system (copyright 1995, Gaussian, Inc.),
 the Gaussian 92(TM) system (copyright 1992, Gaussian, Inc.),
 the Gaussian 90(TM) system (copyright 1990, Gaussian, Inc.),
 the Gaussian 88(TM) system (copyright 1988, Gaussian, Inc.),
 the Gaussian 86(TM) system (copyright 1986, Carnegie Mellon
 University), and the Gaussian 82(TM) system (copyright 1983,
 Carnegie Mellon University). Gaussian is a federally registered
 trademark of Gaussian, Inc.
  
 This software contains proprietary and confidential information,
 including trade secrets, belonging to Gaussian, Inc.
  
 This software is provided under written license and may be
 used, copied, transmitted, or stored only in accord with that
 written license.
  
 The following legend is applicable only to US Government
 contracts under FAR:
  
                    RESTRICTED RIGHTS LEGEND
  
 Use, reproduction and disclosure by the US Government is
 subject to restrictions as set forth in subparagraphs (a)
 and (c) of the Commercial Computer Software - Restricted
 Rights clause in FAR 52.227-19.
  
 Gaussian, Inc.
 340 Quinnipiac St., Bldg. 40, Wallingford CT 06492
  
  
 ---------------------------------------------------------------
 Warning -- This program may not be used in any manner that
 competes with the business of Gaussian, Inc. or will provide
 assistance to any competitor of Gaussian, Inc.  The licensee
 of this program is prohibited from giving any competitor of
 Gaussian, Inc. access to this program.  By using this program,
 the user acknowledges that Gaussian, Inc. is engaged in the
 business of creating and licensing software in the field of
 computational chemistry and represents and warrants to the
 licensee that it is not a competitor of Gaussian, Inc. and that
 it will not use this program in any manner prohibited above.
 ---------------------------------------------------------------
  

 Cite this work as:
 Gaussian 16, Revision B.01,
 M. J. Frisch, G. W. Trucks, H. B. Schlegel, G. E. Scuseria, 
 M. A. Robb, J. R. Cheeseman, G. Scalmani, V. Barone, 
 G. A. Petersson, H. Nakatsuji, X. Li, M. Caricato, A. V. Marenich, 
 J. Bloino, B. G. Janesko, R. Gomperts, B. Mennucci, H. P. Hratchian, 
 J. V. Ortiz, A. F. Izmaylov, J. L. Sonnenberg, D. Williams-Young, 
 F. Ding, F. Lipparini, F. Egidi, J. Goings, B. Peng, A. Petrone, 
 T. Henderson, D. Ranasinghe, V. G. Zakrzewski, J. Gao, N. Rega, 
 G. Zheng, W. Liang, M. Hada, M. Ehara, K. Toyota, R. Fukuda, 
 J. Hasegawa, M. Ishida, T. Nakajima, Y. Honda, O. Kitao, H. Nakai, 
 T. Vreven, K. Throssell, J. A. Montgomery, Jr., J. E. Peralta, 
 F. Ogliaro, M. J. Bearpark, J. J. Heyd, E. N. Brothers, K. N. Kudin, 
 V. N. Staroverov, T. A. Keith, R. Kobayashi, J. Normand, 
 K. Raghavachari, A. P. Rendell, J. C. Burant, S. S. Iyengar, 
 J. Tomasi, M. Cossi, J. M. Millam, M. Klene, C. Adamo, R. Cammi, 
 J. W. Ochterski, R. L. Martin, K. Morokuma, O. Farkas, 
 J. B. Foresman, and D. J. Fox, Gaussian, Inc., Wallingford CT, 2016.
 
 ******************************************
 Gaussian 16:  EM64L-G16RevB.01 20-Dec-2017
                 2-Apr-2022 
 ******************************************
 %mem=32GB
 %nprocshared=16
 Will use up to   16 processors via shared memory.
 --------------------------------
 # opt b3lyp/6-311+g(d,p) scf=xqc
 --------------------------------
 1/18=20,19=15,26=3,38=1/1,3;
 2/9=110,12=2,17=6,18=5,40=1/2;
 3/5=4,6=6,7=111,11=2,25=1,30=1,71=1,74=-5/1,2,3;
 4//1;
 5/5=2,8=3,13=1,38=5/2,8;
 6/7=2,8=2,9=2,10=2,28=1/1;
 7//1,2,3,16;
 1/18=20,19=15,26=3/3(2);
 2/9=110/2;
 99//99;
 2/9=110/2;
 3/5=4,6=6,7=111,11=2,25=1,30=1,71=1,74=-5/1,2,3;
 4/5=5,16=3,69=1/1;
 5/5=2,8=3,13=1,38=5/2,8;
 7//1,2,3,16;
 1/18=20,19=15,26=3/3(-5);
 2/9=110/2;
 6/7=2,8=2,9=2,10=2,19=2,28=1/1;
 99/9=1/99;
 -------------------
 Title Card Required
 -------------------
 Symbolic Z-matrix:
 Charge =  0 Multiplicity = 1
 C                     0.40494   0.5925    0.03963 
 C                     1.73732   0.62239  -0.39372 
 C                     2.44521   1.83184  -0.39979 
 C                     1.82072   3.0114    0.02749 
 C                     0.48834   2.98152   0.46083 
 C                    -0.21955   1.77207   0.4669 
 C                    -0.62341  -1.16446   0.04845 
 C                     0.00107  -2.34402  -0.37882 
 C                    -0.70682  -3.55347  -0.37275 
 C                    -2.0392   -3.58336   0.0606 
 C                    -2.66369  -2.40379   0.48788 
 C                    -1.95579  -1.19434   0.4818 
 H                     2.21413  -0.27824  -0.71995 
 H                     2.36122   3.93485   0.02285 
 H                    -0.23001  -4.4541   -0.69898 
 Cl                   -2.74008   0.28706   1.01842 
 Cl                   -1.89287   1.73453   1.01114 
 Cl                   -4.337    -2.44133   1.03212 
 Cl                   -0.29594   4.46292   0.99744 
 Cl                   -2.92823  -5.10229   0.06823 
 Cl                    1.67439  -2.30649  -0.92306 
 Cl                    4.11853   1.86937  -0.94402 
 

 GradGradGradGradGradGradGradGradGradGradGradGradGradGradGradGradGradGrad
 Berny optimization.
 Initialization pass.
                           ----------------------------
                           !    Initial Parameters    !
                           ! (Angstroms and Degrees)  !
 --------------------------                            --------------------------
 ! Name  Definition              Value          Derivative Info.                !
 --------------------------------------------------------------------------------
 ! R1    R(1,2)                  1.4014         estimate D2E/DX2                !
 ! R2    R(1,6)                  1.4014         estimate D2E/DX2                !
 ! R3    R(2,3)                  1.4014         estimate D2E/DX2                !
 ! R4    R(2,13)                 1.07           estimate D2E/DX2                !
 ! R5    R(3,4)                  1.4014         estimate D2E/DX2                !
 ! R6    R(3,22)                 1.76           estimate D2E/DX2                !
 ! R7    R(4,5)                  1.4014         estimate D2E/DX2                !
 ! R8    R(4,14)                 1.07           estimate D2E/DX2                !
 ! R9    R(5,6)                  1.4014         estimate D2E/DX2                !
 ! R10   R(5,19)                 1.76           estimate D2E/DX2                !
 ! R11   R(6,17)                 1.76           estimate D2E/DX2                !
 ! R12   R(7,8)                  1.4014         estimate D2E/DX2                !
 ! R13   R(7,12)                 1.4014         estimate D2E/DX2                !
 ! R14   R(8,9)                  1.4014         estimate D2E/DX2                !
 ! R15   R(8,21)                 1.76           estimate D2E/DX2                !
 ! R16   R(9,10)                 1.4014         estimate D2E/DX2                !
 ! R17   R(9,15)                 1.07           estimate D2E/DX2                !
 ! R18   R(10,11)                1.4014         estimate D2E/DX2                !
 ! R19   R(10,20)                1.76           estimate D2E/DX2                !
 ! R20   R(11,12)                1.4014         estimate D2E/DX2                !
 ! R21   R(11,18)                1.76           estimate D2E/DX2                !
 ! R22   R(12,16)                1.76           estimate D2E/DX2                !
 ! R23   R(16,17)                1.6772         estimate D2E/DX2                !
 ! A1    A(2,1,6)              120.0            estimate D2E/DX2                !
 ! A2    A(1,2,3)              120.0            estimate D2E/DX2                !
 ! A3    A(1,2,13)             120.0            estimate D2E/DX2                !
 ! A4    A(3,2,13)             120.0            estimate D2E/DX2                !
 ! A5    A(2,3,4)              120.0            estimate D2E/DX2                !
 ! A6    A(2,3,22)             120.0            estimate D2E/DX2                !
 ! A7    A(4,3,22)             120.0            estimate D2E/DX2                !
 ! A8    A(3,4,5)              120.0            estimate D2E/DX2                !
 ! A9    A(3,4,14)             120.0            estimate D2E/DX2                !
 ! A10   A(5,4,14)             120.0            estimate D2E/DX2                !
 ! A11   A(4,5,6)              120.0            estimate D2E/DX2                !
 ! A12   A(4,5,19)             120.0            estimate D2E/DX2                !
 ! A13   A(6,5,19)             120.0            estimate D2E/DX2                !
 ! A14   A(1,6,5)              120.0            estimate D2E/DX2                !
 ! A15   A(1,6,17)             120.0            estimate D2E/DX2                !
 ! A16   A(5,6,17)             120.0            estimate D2E/DX2                !
 ! A17   A(8,7,12)             120.0            estimate D2E/DX2                !
 ! A18   A(7,8,9)              120.0            estimate D2E/DX2                !
 ! A19   A(7,8,21)             120.0            estimate D2E/DX2                !
 ! A20   A(9,8,21)             120.0            estimate D2E/DX2                !
 ! A21   A(8,9,10)             120.0            estimate D2E/DX2                !
 ! A22   A(8,9,15)             120.0            estimate D2E/DX2                !
 ! A23   A(10,9,15)            120.0            estimate D2E/DX2                !
 ! A24   A(9,10,11)            120.0            estimate D2E/DX2                !
 ! A25   A(9,10,20)            120.0            estimate D2E/DX2                !
 ! A26   A(11,10,20)           120.0            estimate D2E/DX2                !
 ! A27   A(10,11,12)           120.0            estimate D2E/DX2                !
 ! A28   A(10,11,18)           120.0            estimate D2E/DX2                !
 ! A29   A(12,11,18)           120.0            estimate D2E/DX2                !
 ! A30   A(7,12,11)            120.0            estimate D2E/DX2                !
 ! A31   A(7,12,16)            120.0            estimate D2E/DX2                !
 ! A32   A(11,12,16)           120.0            estimate D2E/DX2                !
 ! A33   A(12,16,17)           120.0            estimate D2E/DX2                !
 ! A34   A(6,17,16)            120.0            estimate D2E/DX2                !
 ! D1    D(6,1,2,3)              0.0001         estimate D2E/DX2                !
 ! D2    D(6,1,2,13)           180.0            estimate D2E/DX2                !
 ! D3    D(2,1,6,5)             -0.0001         estimate D2E/DX2                !
 ! D4    D(2,1,6,17)           180.0            estimate D2E/DX2                !
 ! D5    D(1,2,3,4)              0.0            estimate D2E/DX2                !
 ! D6    D(1,2,3,22)           180.0            estimate D2E/DX2                !
 ! D7    D(13,2,3,4)          -179.9999         estimate D2E/DX2                !
 ! D8    D(13,2,3,22)            0.0001         estimate D2E/DX2                !
 ! D9    D(2,3,4,5)             -0.0001         estimate D2E/DX2                !
 ! D10   D(2,3,4,14)           180.0            estimate D2E/DX2                !
 ! D11   D(22,3,4,5)           179.9999         estimate D2E/DX2                !
 ! D12   D(22,3,4,14)            0.0            estimate D2E/DX2                !
 ! D13   D(3,4,5,6)              0.0001         estimate D2E/DX2                !
 ! D14   D(3,4,5,19)          -179.9999         estimate D2E/DX2                !
 ! D15   D(14,4,5,6)          -180.0            estimate D2E/DX2                !
 ! D16   D(14,4,5,19)            0.0            estimate D2E/DX2                !
 ! D17   D(4,5,6,1)              0.0            estimate D2E/DX2                !
 ! D18   D(4,5,6,17)           179.9999         estimate D2E/DX2                !
 ! D19   D(19,5,6,1)           180.0            estimate D2E/DX2                !
 ! D20   D(19,5,6,17)           -0.0001         estimate D2E/DX2                !
 ! D21   D(1,6,17,16)            0.0004         estimate D2E/DX2                !
 ! D22   D(5,6,17,16)         -179.9996         estimate D2E/DX2                !
 ! D23   D(12,7,8,9)             0.0001         estimate D2E/DX2                !
 ! D24   D(12,7,8,21)         -179.9998         estimate D2E/DX2                !
 ! D25   D(8,7,12,11)           -0.0001         estimate D2E/DX2                !
 ! D26   D(8,7,12,16)          179.9999         estimate D2E/DX2                !
 ! D27   D(7,8,9,10)             0.0            estimate D2E/DX2                !
 ! D28   D(7,8,9,15)           180.0            estimate D2E/DX2                !
 ! D29   D(21,8,9,10)          179.9998         estimate D2E/DX2                !
 ! D30   D(21,8,9,15)           -0.0002         estimate D2E/DX2                !
 ! D31   D(8,9,10,11)            0.0            estimate D2E/DX2                !
 ! D32   D(8,9,10,20)         -179.9999         estimate D2E/DX2                !
 ! D33   D(15,9,10,11)         180.0            estimate D2E/DX2                !
 ! D34   D(15,9,10,20)           0.0001         estimate D2E/DX2                !
 ! D35   D(9,10,11,12)           0.0            estimate D2E/DX2                !
 ! D36   D(9,10,11,18)        -179.9998         estimate D2E/DX2                !
 ! D37   D(20,10,11,12)        179.9999         estimate D2E/DX2                !
 ! D38   D(20,10,11,18)          0.0001         estimate D2E/DX2                !
 ! D39   D(10,11,12,7)           0.0            estimate D2E/DX2                !
 ! D40   D(10,11,12,16)       -179.9999         estimate D2E/DX2                !
 ! D41   D(18,11,12,7)         179.9999         estimate D2E/DX2                !
 ! D42   D(18,11,12,16)         -0.0001         estimate D2E/DX2                !
 ! D43   D(7,12,16,17)           0.0004         estimate D2E/DX2                !
 ! D44   D(11,12,16,17)       -179.9997         estimate D2E/DX2                !
 ! D45   D(12,16,17,6)          -0.0006         estimate D2E/DX2                !
 --------------------------------------------------------------------------------
 Trust Radius=3.00D-01 FncErr=1.00D-07 GrdErr=1.00D-06 EigMax=2.50D+02 EigMin=1.00D-04
 Number of steps in this run=    112 maximum allowed number of steps=    132.
 GradGradGradGradGradGradGradGradGradGradGradGradGradGradGradGradGradGrad

                          Input orientation:                          
 ---------------------------------------------------------------------
 Center     Atomic      Atomic             Coordinates (Angstroms)
 Number     Number       Type             X           Y           Z
 ---------------------------------------------------------------------
      1          6           0        0.404937    0.592502    0.039631
      2          6           0        1.737318    0.622388   -0.393715
      3          6           0        2.445212    1.831839   -0.399788
      4          6           0        1.820725    3.011404    0.027487
      5          6           0        0.488343    2.981519    0.460832
      6          6           0       -0.219551    1.772068    0.466904
      7          6           0       -0.623413   -1.164455    0.048454
      8          6           0        0.001075   -2.344020   -0.378821
      9          6           0       -0.706818   -3.553472   -0.372747
     10          6           0       -2.039198   -3.583358    0.060603
     11          6           0       -2.663685   -2.403793    0.487878
     12          6           0       -1.955792   -1.194342    0.481804
     13          1           0        2.214129   -0.278236   -0.719947
     14          1           0        2.361217    3.934847    0.022851
     15          1           0       -0.230008   -4.454096   -0.698981
     16         17           0       -2.740077    0.287058    1.018416
     17         17           0       -1.892871    1.734535    1.011138
     18         17           0       -4.337003   -2.441328    1.032121
     19         17           0       -0.295944    4.462920    0.997437
     20         17           0       -2.928231   -5.102293    0.068234
     21         17           0        1.674395   -2.306487   -0.923055
     22         17           0        4.118532    1.869372   -0.944021
 ---------------------------------------------------------------------
                    Distance matrix (angstroms):
                    1          2          3          4          5
     1  C    0.000000
     2  C    1.401400   0.000000
     3  C    2.427296   1.401400   0.000000
     4  C    2.802800   2.427296   1.401400   0.000000
     5  C    2.427296   2.802800   2.427296   1.401400   0.000000
     6  C    1.401400   2.427296   2.802800   2.427296   1.401400
     7  C    2.035800   2.993555   4.312210   4.838600   4.312210
     8  C    2.993555   3.437200   4.838600   5.670695   5.413300
     9  C    4.312210   4.838600   6.240000   7.046010   6.695474
    10  C    4.838600   5.670695   7.046010   7.641400   7.046010
    11  C    4.312210   5.413300   6.695474   7.046010   6.240000
    12  C    2.993555   4.207863   5.413300   5.670695   4.838600
    13  H    2.146700   1.070000   2.146700   3.396345   3.872800
    14  H    3.872800   3.396345   2.146700   1.070000   2.146700
    15  H    5.139733   5.452912   6.838077   7.776050   7.559733
    16  Cl   3.307934   4.706764   5.593288   5.404157   4.241900
    17  Cl   2.743718   4.048303   4.562800   4.048303   2.743718
    18  Cl   5.716219   6.951025   8.143019   8.286084   7.281319
    19  Cl   4.048303   4.562800   4.048303   2.743718   1.760000
    20  Cl   6.598600   7.399508   8.784937   9.401400   8.784937
    21  Cl   3.307934   2.976990   4.241900   5.404157   5.593288
    22  Cl   4.048303   2.743718   1.760000   2.743718   4.048303
                    6          7          8          9         10
     6  C    0.000000
     7  C    2.993555   0.000000
     8  C    4.207863   1.401400   0.000000
     9  C    5.413300   2.427296   1.401400   0.000000
    10  C    5.670695   2.802800   2.427296   1.401400   0.000000
    11  C    4.838600   2.427296   2.802800   2.427296   1.401400
    12  C    3.437200   1.401400   2.427296   2.802800   2.427296
    13  H    3.396345   3.070418   3.046546   4.402232   5.442783
    14  H    3.396345   5.908600   6.719806   8.102114   8.711400
    15  H    6.334391   3.396345   2.146700   1.070000   2.146700
    16  Cl   2.976990   2.743718   4.048303   4.562800   4.048303
    17  Cl   1.760000   3.307934   4.706764   5.593288   5.404157
    18  Cl   5.918242   4.048303   4.562800   4.048303   2.743718
    19  Cl   2.743718   5.716219   6.951025   8.143019   8.286084
    20  Cl   7.399508   4.562800   4.048303   2.743718   1.760000
    21  Cl   4.706764   2.743718   1.760000   2.743718   4.048303
    22  Cl   4.562800   5.716219   5.918242   7.281319   8.286084
                   11         12         13         14         15
    11  C    0.000000
    12  C    1.401400   0.000000
    13  H    5.456181   4.435279   0.000000
    14  H    8.102114   6.719806   4.280590   0.000000
    15  H    3.396345   3.872800   4.838600   8.809645   0.000000
    16  Cl   2.743718   1.760000   5.280684   6.349860   5.632800
    17  Cl   4.241900   2.976990   4.890332   4.890332   6.632403
    18  Cl   1.760000   2.743718   7.118008   9.302708   4.890332
    19  Cl   7.281319   5.918242   5.632800   2.879094   9.077189
    20  Cl   2.743718   4.048303   7.094830  10.471400   2.879094
    21  Cl   4.562800   4.048303   2.108641   6.349860   2.879094
    22  Cl   8.143019   6.951025   2.879094   2.879094   7.678288
                   16         17         18         19         20
    16  Cl   0.000000
    17  Cl   1.677200   0.000000
    18  Cl   3.161400   4.838600   0.000000
    19  Cl   4.838600   3.161400   8.000000   0.000000
    20  Cl   5.475705   6.978771   3.161400   9.964218   0.000000
    21  Cl   5.475705   5.726810   6.322800   7.307216   5.475705
    22  Cl   7.307216   6.322800   9.694501   5.475705   9.964218
                   21         22
    21  Cl   0.000000
    22  Cl   4.838600   0.000000
 Stoichiometry    C12H3Cl7
 Framework group  C1[X(C12H3Cl7)]
 Deg. of freedom    60
 Full point group                 C1      NOp   1
 Largest Abelian subgroup         C1      NOp   1
 Largest concise Abelian subgroup C1      NOp   1
                         Standard orientation:                         
 ---------------------------------------------------------------------
 Center     Atomic      Atomic             Coordinates (Angstroms)
 Number     Number       Type             X           Y           Z
 ---------------------------------------------------------------------
      1          6           0        1.260623    0.320179    0.000001
      2          6           0        2.091370    1.448798   -0.000000
      3          6           0        3.484157    1.293659   -0.000002
      4          6           0        4.046196    0.009901   -0.000003
      5          6           0        3.215448   -1.118718    0.000000
      6          6           0        1.822662   -0.963579    0.000002
      7          6           0       -0.762664    0.545547    0.000003
      8          6           0       -1.324703    1.829305    0.000004
      9          6           0       -2.717490    1.984444    0.000004
     10          6           0       -3.548237    0.855825    0.000003
     11          6           0       -2.986198   -0.427933    0.000001
     12          6           0       -1.593412   -0.583072    0.000001
     13          1           0        1.662241    2.428975   -0.000001
     14          1           0        5.109619   -0.108551   -0.000005
     15          1           0       -3.146619    2.964621    0.000006
     16         17           0       -0.887554   -2.195327   -0.000004
     17         17           0        0.779337   -2.380997    0.000005
     18         17           0       -4.029523   -1.845351   -0.000006
     19         17           0        3.921306   -2.730973    0.000003
     20         17           0       -5.297419    1.050661   -0.000000
     21         17           0       -0.281379    3.246723    0.000002
     22         17           0        4.527481    2.711077   -0.000005
 ---------------------------------------------------------------------
 Rotational constants (GHZ):           0.3150239           0.1303517           0.0922006
 Standard basis: 6-311+G(d,p) (5D, 7F)
 There are   511 symmetry adapted cartesian basis functions of A   symmetry.
 There are   492 symmetry adapted basis functions of A   symmetry.
   492 basis functions,   827 primitive gaussians,   511 cartesian basis functions
    97 alpha electrons       97 beta electrons
       nuclear repulsion energy      2347.5428091967 Hartrees.
 NAtoms=   22 NActive=   22 NUniq=   22 SFac= 1.00D+00 NAtFMM=   60 NAOKFM=F Big=F
 Integral buffers will be    131072 words long.
 Raffenetti 2 integral format.
 Two-electron integral symmetry is turned on.
 One-electron integrals computed using PRISM.
 NBasis=   492 RedAO= T EigKep=  1.17D-06  NBF=   492
 NBsUse=   486 1.00D-06 EigRej=  6.60D-07 NBFU=   486
 ExpMin= 4.38D-02 ExpMax= 1.06D+05 ExpMxC= 3.62D+03 IAcc=3 IRadAn=         5 AccDes= 0.00D+00
 Harris functional with IExCor=  402 and IRadAn=       5 diagonalized for initial guess.
 HarFok:  IExCor=  402 AccDes= 0.00D+00 IRadAn=         5 IDoV= 1 UseB2=F ITyADJ=14
 ICtDFT=  3500011 ScaDFX=  1.000000  1.000000  1.000000  1.000000
 FoFCou: FMM=F IPFlag=           0 FMFlag=      100000 FMFlg1=           0
         NFxFlg=           0 DoJE=T BraDBF=F KetDBF=T FulRan=T
         wScrn=  0.000000 ICntrl=       500 IOpCl=  0 I1Cent=   200000004 NGrid=           0
         NMat0=    1 NMatS0=      1 NMatT0=    0 NMatD0=    1 NMtDS0=    0 NMtDT0=    0
 Petite list used in FoFCou.
 Requested convergence on RMS density matrix=1.00D-08 within  32 cycles.
 Requested convergence on MAX density matrix=1.00D-06.
 Requested convergence on             energy=1.00D-06.
 No special actions if energy rises.
 EnCoef did     5 forward-backward iterations
 EnCoef did     3 forward-backward iterations
 EnCoef did     2 forward-backward iterations
 Restarting incremental Fock formation.
 SCF Done:  E(RB3LYP) =  -3680.18950724     A.U. after   26 cycles
            NFock= 26  Conv=0.74D-08     -V/T= 2.0021
 QCSCF skips out because SCF is already converged.

 **********************************************************************

            Population analysis using the SCF Density.

 **********************************************************************

 Orbital symmetries:
       Occupied  (A) (A) (A) (A) (A) (A) (A) (A) (A) (A) (A) (A)
                 (A) (A) (A) (A) (A) (A) (A) (A) (A) (A) (A) (A)
                 (A) (A) (A) (A) (A) (A) (A) (A) (A) (A) (A) (A)
                 (A) (A) (A) (A) (A) (A) (A) (A) (A) (A) (A) (A)
                 (A) (A) (A) (A) (A) (A) (A) (A) (A) (A) (A) (A)
                 (A) (A) (A) (A) (A) (A) (A) (A) (A) (A) (A) (A)
                 (A) (A) (A) (A) (A) (A) (A) (A) (A) (A) (A) (A)
                 (A) (A) (A) (A) (A) (A) (A) (A) (A) (A) (A) (A)
                 (A)
       Virtual   (A) (A) (A) (A) (A) (A) (A) (A) (A) (A) (A) (A)
                 (A) (A) (A) (A) (A) (A) (A) (A) (A) (A) (A) (A)
                 (A) (A) (A) (A) (A) (A) (A) (A) (A) (A) (A) (A)
                 (A) (A) (A) (A) (A) (A) (A) (A) (A) (A) (A) (A)
                 (A) (A) (A) (A) (A) (A) (A) (A) (A) (A) (A) (A)
                 (A) (A) (A) (A) (A) (A) (A) (A) (A) (A) (A) (A)
                 (A) (A) (A) (A) (A) (A) (A) (A) (A) (A) (A) (A)
                 (A) (A) (A) (A) (A) (A) (A) (A) (A) (A) (A) (A)
                 (A) (A) (A) (A) (A) (A) (A) (A) (A) (A) (A) (A)
                 (A) (A) (A) (A) (A) (A) (A) (A) (A) (A) (A) (A)
                 (A) (A) (A) (A) (A) (A) (A) (A) (A) (A) (A) (A)
                 (A) (A) (A) (A) (A) (A) (A) (A) (A) (A) (A) (A)
                 (A) (A) (A) (A) (A) (A) (A) (A) (A) (A) (A) (A)
                 (A) (A) (A) (A) (A) (A) (A) (A) (A) (A) (A) (A)
                 (A) (A) (A) (A) (A) (A) (A) (A) (A) (A) (A) (A)
                 (A) (A) (A) (A) (A) (A) (A) (A) (A) (A) (A) (A)
                 (A) (A) (A) (A) (A) (A) (A) (A) (A) (A) (A) (A)
                 (A) (A) (A) (A) (A) (A) (A) (A) (A) (A) (A) (A)
                 (A) (A) (A) (A) (A) (A) (A) (A) (A) (A) (A) (A)
                 (A) (A) (A) (A) (A) (A) (A) (A) (A) (A) (A) (A)
                 (A) (A) (A) (A) (A) (A) (A) (A) (A) (A) (A) (A)
                 (A) (A) (A) (A) (A) (A) (A) (A) (A) (A) (A) (A)
                 (A) (A) (A) (A) (A) (A) (A) (A) (A) (A) (A) (A)
                 (A) (A) (A) (A) (A) (A) (A) (A) (A) (A) (A) (A)
                 (A) (A) (A) (A) (A) (A) (A) (A) (A) (A) (A) (A)
                 (A) (A) (A) (A) (A) (A) (A) (A) (A) (A) (A) (A)
                 (A) (A) (A) (A) (A) (A) (A) (A) (A) (A) (A) (A)
                 (A) (A) (A) (A) (A) (A) (A) (A) (A) (A) (A) (A)
                 (A) (A) (A) (A) (A) (A) (A) (A) (A) (A) (A) (A)
                 (A) (A) (A) (A) (A) (A) (A) (A) (A) (A) (A) (A)
                 (A) (A) (A) (A) (A) (A) (A) (A) (A) (A) (A) (A)
                 (A) (A) (A) (A) (A) (A) (A) (A) (A) (A) (A) (A)
                 (A) (A) (A) (A) (A)
 The electronic state is 1-A.
 Alpha  occ. eigenvalues -- -101.64398-101.63006-101.58122-101.57713-101.57173
 Alpha  occ. eigenvalues -- -101.56477-101.56469 -10.29131 -10.29080 -10.27399
 Alpha  occ. eigenvalues --  -10.27184 -10.27119 -10.26802 -10.25087 -10.24445
 Alpha  occ. eigenvalues --  -10.24317 -10.22662 -10.21874 -10.21325  -9.56918
 Alpha  occ. eigenvalues --   -9.55685  -9.49584  -9.49136  -9.48727  -9.47990
 Alpha  occ. eigenvalues --   -9.47923  -7.33448  -7.32480  -7.32379  -7.31976
 Alpha  occ. eigenvalues --   -7.30970  -7.30565  -7.26071  -7.25614  -7.25171
 Alpha  occ. eigenvalues --   -7.25057  -7.25005  -7.24618  -7.24574  -7.24440
 Alpha  occ. eigenvalues --   -7.24397  -7.24202  -7.24169  -7.23478  -7.23424
 Alpha  occ. eigenvalues --   -7.23412  -7.23350  -1.12557  -0.94411  -0.93709
 Alpha  occ. eigenvalues --   -0.90238  -0.89991  -0.88228  -0.86436  -0.85017
 Alpha  occ. eigenvalues --   -0.83291  -0.78930  -0.77290  -0.74699  -0.73939
 Alpha  occ. eigenvalues --   -0.68068  -0.65090  -0.62219  -0.61211  -0.59453
 Alpha  occ. eigenvalues --   -0.55740  -0.53062  -0.52848  -0.52059  -0.51536
 Alpha  occ. eigenvalues --   -0.50400  -0.48505  -0.46911  -0.45819  -0.45049
 Alpha  occ. eigenvalues --   -0.44633  -0.44050  -0.43412  -0.42184  -0.41118
 Alpha  occ. eigenvalues --   -0.39188  -0.39032  -0.37002  -0.36452  -0.35596
 Alpha  occ. eigenvalues --   -0.34577  -0.34240  -0.34184  -0.33706  -0.32684
 Alpha  occ. eigenvalues --   -0.32443  -0.31658  -0.29362  -0.27992  -0.26306
 Alpha  occ. eigenvalues --   -0.26123  -0.13398
 Alpha virt. eigenvalues --   -0.09864  -0.07241  -0.06324  -0.06189  -0.05037
 Alpha virt. eigenvalues --   -0.03414  -0.01979  -0.01279  -0.00790   0.00263
 Alpha virt. eigenvalues --    0.00583   0.00832   0.01367   0.02625   0.02882
 Alpha virt. eigenvalues --    0.03434   0.03647   0.04359   0.04897   0.04929
 Alpha virt. eigenvalues --    0.05503   0.05757   0.06737   0.06985   0.07153
 Alpha virt. eigenvalues --    0.07175   0.07556   0.08135   0.08880   0.09054
 Alpha virt. eigenvalues --    0.09237   0.09357   0.09771   0.10206   0.10391
 Alpha virt. eigenvalues --    0.10506   0.10795   0.11531   0.11866   0.12210
 Alpha virt. eigenvalues --    0.12509   0.12777   0.13235   0.13957   0.14045
 Alpha virt. eigenvalues --    0.14382   0.14398   0.14703   0.14992   0.15283
 Alpha virt. eigenvalues --    0.15342   0.16017   0.16760   0.17380   0.17764
 Alpha virt. eigenvalues --    0.18403   0.18523   0.18992   0.19342   0.19449
 Alpha virt. eigenvalues --    0.20071   0.20205   0.20718   0.20884   0.21934
 Alpha virt. eigenvalues --    0.22205   0.22211   0.22552   0.22888   0.23152
 Alpha virt. eigenvalues --    0.23968   0.24144   0.24324   0.25132   0.25363
 Alpha virt. eigenvalues --    0.25799   0.26578   0.26585   0.26870   0.27047
 Alpha virt. eigenvalues --    0.27678   0.28144   0.29330   0.29730   0.29789
 Alpha virt. eigenvalues --    0.30479   0.31209   0.31575   0.32660   0.33073
 Alpha virt. eigenvalues --    0.33944   0.34491   0.34828   0.35314   0.37880
 Alpha virt. eigenvalues --    0.38758   0.39611   0.40475   0.41272   0.41588
 Alpha virt. eigenvalues --    0.42315   0.42634   0.43095   0.43567   0.44060
 Alpha virt. eigenvalues --    0.44706   0.44854   0.45747   0.45783   0.46551
 Alpha virt. eigenvalues --    0.47198   0.47315   0.47754   0.48715   0.48915
 Alpha virt. eigenvalues --    0.49318   0.49941   0.50295   0.51647   0.52087
 Alpha virt. eigenvalues --    0.52907   0.53389   0.53998   0.55232   0.56636
 Alpha virt. eigenvalues --    0.56774   0.57540   0.58011   0.58217   0.59046
 Alpha virt. eigenvalues --    0.59155   0.59516   0.60249   0.60785   0.60902
 Alpha virt. eigenvalues --    0.61422   0.61482   0.63222   0.64334   0.64784
 Alpha virt. eigenvalues --    0.66059   0.66397   0.66787   0.69092   0.69464
 Alpha virt. eigenvalues --    0.69633   0.71892   0.75045   0.75657   0.76974
 Alpha virt. eigenvalues --    0.77899   0.81035   0.81050   0.81337   0.82259
 Alpha virt. eigenvalues --    0.82920   0.83508   0.83558   0.83799   0.84063
 Alpha virt. eigenvalues --    0.84195   0.84608   0.85173   0.85391   0.85580
 Alpha virt. eigenvalues --    0.85623   0.86234   0.86402   0.86698   0.87392
 Alpha virt. eigenvalues --    0.87937   0.88688   0.88860   0.88923   0.89594
 Alpha virt. eigenvalues --    0.91078   0.91629   0.92342   0.93358   0.94161
 Alpha virt. eigenvalues --    0.94294   0.94716   0.94824   0.95040   0.95556
 Alpha virt. eigenvalues --    0.95748   0.96330   0.96522   0.97184   0.98721
 Alpha virt. eigenvalues --    0.99234   0.99519   1.01752   1.04039   1.04247
 Alpha virt. eigenvalues --    1.04290   1.06682   1.06704   1.08087   1.08152
 Alpha virt. eigenvalues --    1.12710   1.13378   1.16351   1.17908   1.19678
 Alpha virt. eigenvalues --    1.20572   1.20734   1.21757   1.22901   1.23830
 Alpha virt. eigenvalues --    1.24232   1.24417   1.26360   1.26914   1.27238
 Alpha virt. eigenvalues --    1.28594   1.28859   1.28969   1.29541   1.31020
 Alpha virt. eigenvalues --    1.31053   1.32887   1.35295   1.40668   1.45994
 Alpha virt. eigenvalues --    1.47475   1.49450   1.49981   1.50730   1.55058
 Alpha virt. eigenvalues --    1.56858   1.57161   1.58755   1.59832   1.60556
 Alpha virt. eigenvalues --    1.61601   1.64187   1.67450   1.70441   1.73482
 Alpha virt. eigenvalues --    1.75136   1.75611   1.79022   1.79230   1.81161
 Alpha virt. eigenvalues --    1.82770   1.85066   1.85212   1.85550   1.86354
 Alpha virt. eigenvalues --    1.86822   1.87377   1.88342   1.93150   1.94081
 Alpha virt. eigenvalues --    1.95249   1.96359   2.03147   2.04422   2.04918
 Alpha virt. eigenvalues --    2.06542   2.08556   2.10758   2.14350   2.16360
 Alpha virt. eigenvalues --    2.19726   2.21043   2.22368   2.22794   2.24562
 Alpha virt. eigenvalues --    2.26121   2.26242   2.26445   2.26506   2.28247
 Alpha virt. eigenvalues --    2.28493   2.29065   2.30949   2.31852   2.33486
 Alpha virt. eigenvalues --    2.36017   2.38369   2.41501   2.42805   2.42931
 Alpha virt. eigenvalues --    2.43984   2.46030   2.52095   2.52935   2.53575
 Alpha virt. eigenvalues --    2.56093   2.56402   2.57164   2.58221   2.59193
 Alpha virt. eigenvalues --    2.59780   2.60162   2.60938   2.61687   2.66807
 Alpha virt. eigenvalues --    2.69671   2.71880   2.72467   2.73707   2.73836
 Alpha virt. eigenvalues --    2.74152   2.74640   2.76322   2.77700   2.79829
 Alpha virt. eigenvalues --    2.84012   2.85066   2.86473   2.87924   2.90005
 Alpha virt. eigenvalues --    3.04073   3.06365   3.06583   3.09479   3.09537
 Alpha virt. eigenvalues --    3.13214   3.15444   3.19197   3.21209   3.24140
 Alpha virt. eigenvalues --    3.27169   3.30518   3.34940   3.37664   3.42976
 Alpha virt. eigenvalues --    3.50852   3.62218   3.67408   3.70580   3.76114
 Alpha virt. eigenvalues --    3.79046   3.91754   3.98715   4.04785   4.12067
 Alpha virt. eigenvalues --    4.79438   4.80445   9.67419   9.75835   9.76646
 Alpha virt. eigenvalues --    9.78319   9.81007   9.84034   9.97349  23.29671
 Alpha virt. eigenvalues --   23.36968  23.79048  23.79982  23.84125  23.84828
 Alpha virt. eigenvalues --   23.94088  23.94215  23.98090  24.00941  24.05033
 Alpha virt. eigenvalues --   24.07264  25.73305  25.77775  25.80583  25.81055
 Alpha virt. eigenvalues --   25.83680  25.86709  25.98129  26.07930  26.10013
 Alpha virt. eigenvalues --   26.13828  26.20442  26.24203  26.37364  26.47965
 Alpha virt. eigenvalues --   26.56520  26.61393  26.71390  26.74249  26.95034
 Alpha virt. eigenvalues --   26.96878  27.01463 215.68050 215.75101 215.76374
 Alpha virt. eigenvalues --  215.78544 215.81100 215.84601 216.03546
          Condensed to atoms (all electrons):
               1          2          3          4          5          6
     1  C   26.736307  -1.429859  -6.270161   6.078141  -4.920605  -0.685691
     2  C   -1.429859  17.794053  -1.151173  -7.739200   0.253589  -1.937221
     3  C   -6.270161  -1.151173  23.215256  -8.826658  -2.615677   4.593082
     4  C    6.078141  -7.739200  -8.826658  32.081555  -5.269274  -9.219636
     5  C   -4.920605   0.253589  -2.615677  -5.269274  21.183055  -2.382918
     6  C   -0.685691  -1.937221   4.593082  -9.219636  -2.382918  24.693740
     7  C    7.394744  -0.322068  -3.322781   0.422184  -1.812652  -1.598938
     8  C   -4.702105   1.924175  -1.418986   1.185545  -0.149965  -2.802696
     9  C   -3.152037  -0.446663   1.079289   0.547788  -0.587579  -0.365897
    10  C   -0.036408  -0.087029   0.004772   0.071279  -0.042977  -0.656350
    11  C   -4.172869   0.437371  -0.607042   0.044072   0.340506  -0.376301
    12  C   -3.531235  -1.253609   0.198021  -0.249579   0.937749  -3.121651
    13  H    0.069077   0.186732  -0.083825   0.061909  -0.003319   0.033231
    14  H    0.000853   0.055485   0.089409   0.114570   0.020124   0.045290
    15  H   -0.001105  -0.000465  -0.000343   0.000311   0.000254   0.000208
    16  Cl   4.015165   1.439828  -1.013471   2.935394  -3.818146   7.623157
    17  Cl  -7.466829  -1.489830   2.377896  -3.734986   4.670496  -7.739843
    18  Cl  -0.022820  -0.024788   0.004965  -0.005830  -0.014871  -0.160082
    19  Cl  -0.525334   0.353455  -0.160342  -1.275138  -0.085075   0.875403
    20  Cl  -0.118146   0.001156  -0.001048   0.002058  -0.003509   0.002402
    21  Cl   0.214210   0.018483  -0.592040  -0.048238   0.110992  -0.141540
    22  Cl  -0.598251   0.429303  -0.655007  -0.408963   0.180695   0.453899
               7          8          9         10         11         12
     1  C    7.394744  -4.702105  -3.152037  -0.036408  -4.172869  -3.531235
     2  C   -0.322068   1.924175  -0.446663  -0.087029   0.437371  -1.253609
     3  C   -3.322781  -1.418986   1.079289   0.004772  -0.607042   0.198021
     4  C    0.422184   1.185545   0.547788   0.071279   0.044072  -0.249579
     5  C   -1.812652  -0.149965  -0.587579  -0.042977   0.340506   0.937749
     6  C   -1.598938  -2.802696  -0.365897  -0.656350  -0.376301  -3.121651
     7  C   29.295110  -6.247118  -5.912344   1.645958  -5.883656   1.935936
     8  C   -6.247118  35.632247  -1.690355  -7.210735   1.846710  -8.613795
     9  C   -5.912344  -1.690355  30.669239  -3.405769 -13.403699   1.994412
    10  C    1.645958  -7.210735  -3.405769  27.976136  -5.961338  -4.588279
    11  C   -5.883656   1.846710 -13.403699  -5.961338  35.184691  -3.837390
    12  C    1.935936  -8.613795   1.994412  -4.588279  -3.837390  36.646093
    13  H    0.067316  -0.044538   0.046969   0.009416  -0.006752   0.003271
    14  H    0.003737  -0.001204  -0.000179  -0.000010   0.000155   0.001893
    15  H    0.009324  -0.155011   0.138484   0.185345   0.028679   0.116405
    16  Cl -11.948454  -1.339534   0.972371  -1.640088   5.410540 -26.256094
    17  Cl   4.346941   0.080221  -0.772748   0.888414  -1.542319  16.057481
    18  Cl  -0.670370   0.811289   1.253741  -0.022770  -2.491399   1.027929
    19  Cl  -0.012879  -0.051763  -0.012779   0.004819   0.005351   0.005255
    20  Cl  -0.397669  -0.744965  -0.340344  -1.171934   1.422895   0.253341
    21  Cl  -0.090354  -0.091260  -0.142493  -0.564266   0.279903  -0.006555
    22  Cl  -0.132010  -0.056644  -0.014198  -0.004969  -0.007575  -0.029487
              13         14         15         16         17         18
     1  C    0.069077   0.000853  -0.001105   4.015165  -7.466829  -0.022820
     2  C    0.186732   0.055485  -0.000465   1.439828  -1.489830  -0.024788
     3  C   -0.083825   0.089409  -0.000343  -1.013471   2.377896   0.004965
     4  C    0.061909   0.114570   0.000311   2.935394  -3.734986  -0.005830
     5  C   -0.003319   0.020124   0.000254  -3.818146   4.670496  -0.014871
     6  C    0.033231   0.045290   0.000208   7.623157  -7.739843  -0.160082
     7  C    0.067316   0.003737   0.009324 -11.948454   4.346941  -0.670370
     8  C   -0.044538  -0.001204  -0.155011  -1.339534   0.080221   0.811289
     9  C    0.046969  -0.000179   0.138484   0.972371  -0.772748   1.253741
    10  C    0.009416  -0.000010   0.185345  -1.640088   0.888414  -0.022770
    11  C   -0.006752   0.000155   0.028679   5.410540  -1.542319  -2.491399
    12  C    0.003271   0.001893   0.116405 -26.256094  16.057481   1.027929
    13  H    0.553669  -0.000397   0.000025  -0.006317   0.009241   0.000003
    14  H   -0.000397   0.490213  -0.000000  -0.004384   0.014792   0.000001
    15  H    0.000025  -0.000000   0.510124   0.023641  -0.004540  -0.005892
    16  Cl  -0.006317  -0.004384   0.023641  90.733758 -49.871840  -1.287025
    17  Cl   0.009241   0.014792  -0.004540 -49.871840  59.961126  -0.071029
    18  Cl   0.000003   0.000001  -0.005892  -1.287025  -0.071029  18.452702
    19  Cl   0.000821   0.000109  -0.000002  -0.740187   0.143912  -0.003032
    20  Cl   0.000131  -0.000000   0.009501   0.394848  -0.081639  -0.408965
    21  Cl  -0.035715   0.000087  -0.018883  -0.050250   0.007291   0.010186
    22  Cl  -0.025697  -0.001778  -0.000021  -0.013503   0.021631   0.000034
              19         20         21         22
     1  C   -0.525334  -0.118146   0.214210  -0.598251
     2  C    0.353455   0.001156   0.018483   0.429303
     3  C   -0.160342  -0.001048  -0.592040  -0.655007
     4  C   -1.275138   0.002058  -0.048238  -0.408963
     5  C   -0.085075  -0.003509   0.110992   0.180695
     6  C    0.875403   0.002402  -0.141540   0.453899
     7  C   -0.012879  -0.397669  -0.090354  -0.132010
     8  C   -0.051763  -0.744965  -0.091260  -0.056644
     9  C   -0.012779  -0.340344  -0.142493  -0.014198
    10  C    0.004819  -1.171934  -0.564266  -0.004969
    11  C    0.005351   1.422895   0.279903  -0.007575
    12  C    0.005255   0.253341  -0.006555  -0.029487
    13  H    0.000821   0.000131  -0.035715  -0.025697
    14  H    0.000109  -0.000000   0.000087  -0.001778
    15  H   -0.000002   0.009501  -0.018883  -0.000021
    16  Cl  -0.740187   0.394848  -0.050250  -0.013503
    17  Cl   0.143912  -0.081639   0.007291   0.021631
    18  Cl  -0.003032  -0.408965   0.010186   0.000034
    19  Cl  17.905679  -0.000107   0.001590  -0.015184
    20  Cl  -0.000107  17.730189  -0.026750  -0.000058
    21  Cl   0.001590  -0.026750  17.636804  -0.018950
    22  Cl  -0.015184  -0.000058  -0.018950  17.473960
 Mulliken charges:
               1
     1  C   -0.875043
     2  C   -1.011724
     3  C    1.155868
     4  C   -0.767303
     5  C    0.009108
     6  C   -1.131647
     7  C   -0.769959
     8  C   -0.159514
     9  C   -0.455206
    10  C    0.606782
    11  C   -0.710533
    12  C   -1.690112
    13  H    0.164749
    14  H    0.171236
    15  H    0.163962
    16  Cl   1.440593
    17  Cl   1.196155
    18  Cl   0.628026
    19  Cl   0.585428
    20  Cl   0.478613
    21  Cl   0.547748
    22  Cl   0.422771
 Sum of Mulliken charges =  -0.00000
 Mulliken charges with hydrogens summed into heavy atoms:
               1
     1  C   -0.875043
     2  C   -0.846975
     3  C    1.155868
     4  C   -0.596067
     5  C    0.009108
     6  C   -1.131647
     7  C   -0.769959
     8  C   -0.159514
     9  C   -0.291244
    10  C    0.606782
    11  C   -0.710533
    12  C   -1.690112
    16  Cl   1.440593
    17  Cl   1.196155
    18  Cl   0.628026
    19  Cl   0.585428
    20  Cl   0.478613
    21  Cl   0.547748
    22  Cl   0.422771
 Electronic spatial extent (au):  <R**2>=          10029.9260
 Charge=             -0.0000 electrons
 Dipole moment (field-independent basis, Debye):
    X=              1.9650    Y=             -1.2061    Z=              0.0000  Tot=              2.3057
 Quadrupole moment (field-independent basis, Debye-Ang):
   XX=           -168.8469   YY=           -154.7398   ZZ=           -159.0811
   XY=             -2.3876   XZ=             -0.0000   YZ=              0.0000
 Traceless Quadrupole moment (field-independent basis, Debye-Ang):
   XX=             -7.9576   YY=              6.1495   ZZ=              1.8081
   XY=             -2.3876   XZ=             -0.0000   YZ=              0.0000
 Octapole moment (field-independent basis, Debye-Ang**2):
  XXX=             61.9143  YYY=            -26.9289  ZZZ=             -0.0000  XYY=            -15.3729
  XXY=              5.7893  XXZ=             -0.0000  XZZ=             -2.9830  YZZ=             -9.6986
  YYZ=             -0.0000  XYZ=              0.0000
 Hexadecapole moment (field-independent basis, Debye-Ang**3):
 XXXX=          -9395.6523 YYYY=          -3693.2991 ZZZZ=           -185.7810 XXXY=            -17.3395
 XXXZ=             -0.0001 YYYX=             23.2951 YYYZ=             -0.0000 ZZZX=              0.0001
 ZZZY=             -0.0001 XXYY=          -2194.1680 XXZZ=          -1615.0179 YYZZ=           -673.6313
 XXYZ=              0.0001 YYXZ=             -0.0001 ZZXY=              6.9524
 N-N= 2.347542809197D+03 E-N=-1.341544808310D+04  KE= 3.672543128139D+03
 Calling FoFJK, ICntrl=      2127 FMM=F ISym2X=0 I1Cent= 0 IOpClX= 0 NMat=1 NMatS=1 NMatT=0.
 ***** Axes restored to original set *****
 -------------------------------------------------------------------
 Center     Atomic                   Forces (Hartrees/Bohr)
 Number     Number              X              Y              Z
 -------------------------------------------------------------------
      1        6          -0.014994253   -0.020112389    0.001162878
      2        6          -0.005811702    0.015830475    0.004887851
      3        6          -0.015899731    0.002432455    0.005695159
      4        6          -0.001985961   -0.008272851   -0.000899644
      5        6          -0.005559068   -0.005133795    0.000867462
      6        6           0.035841714   -0.013446700   -0.014333443
      7        6          -0.012149871    0.022507847    0.008229885
      8        6          -0.022984209    0.013667414    0.010139316
      9        6          -0.003383415    0.009212517    0.002844837
     10        6           0.003397525    0.007571741    0.000302687
     11        6           0.018813516    0.011263977   -0.004082835
     12        6           0.035272294   -0.127786353   -0.035620014
     13        1           0.002501002    0.005004920    0.000115949
     14        1           0.003228538    0.008092687    0.000456194
     15        1           0.003711412   -0.008255940   -0.002773323
     16       17          -0.240957722   -0.379885958    0.008042466
     17       17           0.220960906    0.495815982    0.020317971
     18       17          -0.008242795   -0.003297415    0.002096340
     19       17           0.008189069    0.004109073   -0.001926163
     20       17           0.004007600   -0.004514034   -0.002168105
     21       17           0.000633734   -0.025489561   -0.004996050
     22       17          -0.004588584    0.000685909    0.001640581
 -------------------------------------------------------------------
 Cartesian Forces:  Max     0.495815982 RMS     0.088992869

 GradGradGradGradGradGradGradGradGradGradGradGradGradGradGradGradGradGrad
 Berny optimization.
 FormGI is forming the generalized inverse of G from B-inverse, IUseBI=4.
 Internal  Forces:  Max     0.530576780 RMS     0.056630143
 Search for a local minimum.
 Step number   1 out of a maximum of  112
 All quantities printed in internal units (Hartrees-Bohrs-Radians)
 Mixed Optimization -- RFO/linear search
 Second derivative matrix not updated -- first step.
 ITU=  0
     Eigenvalues ---    0.00238   0.00238   0.01655   0.01655   0.02070
     Eigenvalues ---    0.02070   0.02070   0.02070   0.02070   0.02070
     Eigenvalues ---    0.02070   0.02070   0.02070   0.02070   0.02070
     Eigenvalues ---    0.02070   0.02070   0.02070   0.04244   0.16000
     Eigenvalues ---    0.16000   0.16000   0.23315   0.23485   0.23491
     Eigenvalues ---    0.25000   0.25000   0.25000   0.25000   0.25000
     Eigenvalues ---    0.25000   0.25000   0.25000   0.25000   0.25000
     Eigenvalues ---    0.25000   0.25000   0.29539   0.29539   0.29539
     Eigenvalues ---    0.29539   0.29539   0.29539   0.29539   0.37230
     Eigenvalues ---    0.37230   0.37230   0.41665   0.41669   0.42042
     Eigenvalues ---    0.42170   0.45389   0.45389   0.45389   0.45389
     Eigenvalues ---    0.45389   0.45389   0.45389   0.45389   1.29765
 RFO step:  Lambda=-2.65577336D-01 EMin= 2.37799078D-03
 Linear search not attempted -- first point.
 Maximum step size (   0.300) exceeded in Quadratic search.
    -- Step size scaled by   0.571
 Iteration  1 RMS(Cart)=  0.28058564 RMS(Int)=  0.00641132
 Iteration  2 RMS(Cart)=  0.01718391 RMS(Int)=  0.00004428
 Iteration  3 RMS(Cart)=  0.00013833 RMS(Int)=  0.00001808
 Iteration  4 RMS(Cart)=  0.00000000 RMS(Int)=  0.00001808
 Variable       Old X    -DE/DX   Delta X   Delta X   Delta X     New X
                                 (Linear)    (Quad)   (Total)
    R1        2.64826  -0.00568   0.00000  -0.00443  -0.00441   2.64385
    R2        2.64826  -0.00565   0.00000  -0.00425  -0.00423   2.64403
    R3        2.64826  -0.00643   0.00000  -0.00525  -0.00525   2.64301
    R4        2.02201  -0.00313   0.00000  -0.00280  -0.00280   2.01920
    R5        2.64826  -0.01899   0.00000  -0.01530  -0.01532   2.63295
    R6        3.32592  -0.00486   0.00000  -0.00494  -0.00494   3.32098
    R7        2.64826  -0.01894   0.00000  -0.01510  -0.01512   2.63314
    R8        2.02201   0.00861   0.00000   0.00771   0.00771   2.02971
    R9        2.64826  -0.00034   0.00000  -0.00011  -0.00012   2.64815
   R10        3.32592  -0.00078   0.00000  -0.00079  -0.00079   3.32513
   R11        3.32592   0.00136   0.00000   0.00139   0.00139   3.32731
   R12        2.64826   0.01256   0.00000   0.01035   0.01037   2.65864
   R13        2.64826  -0.01038   0.00000  -0.00784  -0.00780   2.64046
   R14        2.64826  -0.01219   0.00000  -0.00968  -0.00969   2.63857
   R15        3.32592   0.00160   0.00000   0.00163   0.00163   3.32755
   R16        2.64826  -0.02602   0.00000  -0.02104  -0.02107   2.62719
   R17        2.02201   0.00945   0.00000   0.00845   0.00845   2.03046
   R18        2.64826  -0.01352   0.00000  -0.01111  -0.01114   2.63713
   R19        3.32592   0.00186   0.00000   0.00189   0.00189   3.32781
   R20        2.64826  -0.00741   0.00000  -0.00587  -0.00586   2.64240
   R21        3.32592   0.00856   0.00000   0.00870   0.00870   3.33462
   R22        3.32592   0.10492   0.00000   0.10675   0.10675   3.43267
   R23        3.16945   0.53058   0.00000   0.19373   0.19373   3.36318
    A1        2.09440  -0.02848   0.00000  -0.03093  -0.03087   2.06352
    A2        2.09440   0.01003   0.00000   0.01163   0.01165   2.10605
    A3        2.09440  -0.00032   0.00000   0.00047   0.00046   2.09486
    A4        2.09440  -0.00970   0.00000  -0.01210  -0.01211   2.08228
    A5        2.09440   0.01040   0.00000   0.01094   0.01092   2.10531
    A6        2.09440  -0.00387   0.00000  -0.00399  -0.00398   2.09041
    A7        2.09440  -0.00654   0.00000  -0.00695  -0.00694   2.08746
    A8        2.09440  -0.00970   0.00000  -0.01189  -0.01194   2.08246
    A9        2.09440   0.00626   0.00000   0.00783   0.00786   2.10225
   A10        2.09440   0.00344   0.00000   0.00406   0.00408   2.09848
   A11        2.09440  -0.00140   0.00000  -0.00147  -0.00150   2.09290
   A12        2.09440  -0.01481   0.00000  -0.01644  -0.01643   2.07797
   A13        2.09440   0.01621   0.00000   0.01791   0.01792   2.11232
   A14        2.09440   0.01915   0.00000   0.02172   0.02173   2.11613
   A15        2.09440  -0.00710   0.00000  -0.00812  -0.00813   2.08626
   A16        2.09440  -0.01205   0.00000  -0.01360  -0.01360   2.08079
   A17        2.09440  -0.02968   0.00000  -0.03135  -0.03127   2.06312
   A18        2.09440   0.01517   0.00000   0.01722   0.01723   2.11162
   A19        2.09440   0.03554   0.00000   0.03913   0.03913   2.13352
   A20        2.09440  -0.05071   0.00000  -0.05635  -0.05636   2.03804
   A21        2.09440   0.00308   0.00000   0.00288   0.00283   2.09723
   A22        2.09440  -0.00094   0.00000  -0.00064  -0.00061   2.09378
   A23        2.09440  -0.00214   0.00000  -0.00225  -0.00222   2.09218
   A24        2.09440  -0.00702   0.00000  -0.00900  -0.00906   2.08534
   A25        2.09440  -0.00670   0.00000  -0.00680  -0.00677   2.08762
   A26        2.09440   0.01372   0.00000   0.01580   0.01583   2.11023
   A27        2.09440   0.00625   0.00000   0.00628   0.00626   2.10066
   A28        2.09440  -0.00839   0.00000  -0.00897  -0.00896   2.08544
   A29        2.09440   0.00214   0.00000   0.00269   0.00270   2.09709
   A30        2.09440   0.01219   0.00000   0.01397   0.01401   2.10841
   A31        2.09440   0.01399   0.00000   0.01526   0.01524   2.10963
   A32        2.09440  -0.02619   0.00000  -0.02922  -0.02925   2.06515
   A33        2.09440   0.14968   0.00000   0.16571   0.16571   2.26011
   A34        2.09440  -0.03168   0.00000  -0.03507  -0.03507   2.05932
    D1        0.00000   0.00000   0.00000   0.00000   0.00000   0.00000
    D2        3.14159   0.00000   0.00000   0.00000   0.00000   3.14159
    D3       -0.00000  -0.00000   0.00000  -0.00000  -0.00000  -0.00000
    D4        3.14159   0.00000   0.00000   0.00000   0.00000   3.14159
    D5        0.00000  -0.00000   0.00000   0.00000   0.00000   0.00000
    D6        3.14159  -0.00000   0.00000  -0.00000  -0.00000   3.14159
    D7       -3.14159  -0.00000   0.00000  -0.00000  -0.00000  -3.14159
    D8        0.00000  -0.00000   0.00000  -0.00000  -0.00000   0.00000
    D9       -0.00000   0.00000   0.00000   0.00000   0.00000  -0.00000
   D10        3.14159  -0.00000   0.00000  -0.00000  -0.00000   3.14159
   D11        3.14159   0.00000   0.00000   0.00000   0.00000   3.14159
   D12        0.00000  -0.00000   0.00000   0.00000   0.00000   0.00000
   D13        0.00000  -0.00000   0.00000  -0.00000  -0.00000   0.00000
   D14       -3.14159  -0.00000   0.00000  -0.00000  -0.00000  -3.14159
   D15       -3.14159  -0.00000   0.00000  -0.00000  -0.00000  -3.14159
   D16        0.00000  -0.00000   0.00000  -0.00000  -0.00000   0.00000
   D17       -0.00000   0.00000   0.00000   0.00000   0.00000  -0.00000
   D18        3.14159  -0.00000   0.00000  -0.00000  -0.00000   3.14159
   D19        3.14159   0.00000   0.00000   0.00000   0.00000   3.14159
   D20       -0.00000  -0.00000   0.00000  -0.00000  -0.00000  -0.00000
   D21        0.00001  -0.00000   0.00000  -0.00000  -0.00000   0.00001
   D22       -3.14159  -0.00000   0.00000  -0.00000  -0.00000  -3.14159
   D23        0.00000   0.00000   0.00000   0.00000   0.00000   0.00000
   D24       -3.14159  -0.00000   0.00000  -0.00000  -0.00000  -3.14159
   D25       -0.00000  -0.00000   0.00000  -0.00000  -0.00000  -0.00000
   D26        3.14159   0.00000   0.00000   0.00000   0.00000   3.14159
   D27       -0.00000  -0.00000   0.00000  -0.00000  -0.00000  -0.00000
   D28        3.14159  -0.00000   0.00000  -0.00000  -0.00000   3.14159
   D29        3.14159   0.00000   0.00000   0.00000   0.00000   3.14159
   D30       -0.00000   0.00000   0.00000   0.00000   0.00000  -0.00000
   D31       -0.00000   0.00000   0.00000   0.00000   0.00000  -0.00000
   D32       -3.14159  -0.00000   0.00000  -0.00000  -0.00000  -3.14159
   D33        3.14159   0.00000   0.00000   0.00000   0.00000   3.14159
   D34        0.00000  -0.00000   0.00000  -0.00000  -0.00000   0.00000
   D35        0.00000  -0.00000   0.00000  -0.00000  -0.00000   0.00000
   D36       -3.14159  -0.00000   0.00000  -0.00000  -0.00000  -3.14159
   D37        3.14159   0.00000   0.00000   0.00000   0.00000   3.14159
   D38        0.00000  -0.00000   0.00000  -0.00000  -0.00000   0.00000
   D39        0.00000   0.00000   0.00000   0.00000   0.00000   0.00000
   D40       -3.14159  -0.00000   0.00000  -0.00000  -0.00000  -3.14159
   D41        3.14159   0.00000   0.00000   0.00000   0.00000   3.14159
   D42       -0.00000  -0.00000   0.00000  -0.00000  -0.00000  -0.00000
   D43        0.00001  -0.00000   0.00000  -0.00000  -0.00000   0.00001
   D44       -3.14159   0.00000   0.00000   0.00000   0.00000  -3.14159
   D45       -0.00001  -0.00000   0.00000  -0.00000  -0.00000  -0.00001
         Item               Value     Threshold  Converged?
 Maximum Force            0.530577     0.000450     NO 
 RMS     Force            0.056630     0.000300     NO 
 Maximum Displacement     1.328989     0.001800     NO 
 RMS     Displacement     0.294212     0.001200     NO 
 Predicted change in Energy=-1.202763D-01
 GradGradGradGradGradGradGradGradGradGradGradGradGradGradGradGradGradGrad

                          Input orientation:                          
 ---------------------------------------------------------------------
 Center     Atomic      Atomic             Coordinates (Angstroms)
 Number     Number       Type             X           Y           Z
 ---------------------------------------------------------------------
      1          6           0        0.562757    0.785829    0.023947
      2          6           0        1.892896    0.915675   -0.389886
      3          6           0        2.529218    2.160924   -0.365656
      4          6           0        1.850379    3.296508    0.071263
      5          6           0        0.525187    3.181716    0.486291
      6          6           0       -0.109425    1.932569    0.460766
      7          6           0       -0.556584   -1.494251   -0.035506
      8          6           0       -0.084655   -2.759960   -0.428698
      9          6           0       -0.909176   -3.885171   -0.368377
     10          6           0       -2.218278   -3.768408    0.084849
     11          6           0       -2.700022   -2.519149    0.478187
     12          6           0       -1.874340   -1.392275    0.417795
     13          1           0        2.433466    0.058615   -0.728940
     14          1           0        2.341791    4.251419    0.088706
     15          1           0       -0.531749   -4.844008   -0.672802
     16         17           0       -2.558189    0.206409    0.943345
     17         17           0       -1.784375    1.808439    0.989272
     18         17           0       -4.361604   -2.370773    1.053482
     19         17           0       -0.325648    4.620185    1.036756
     20         17           0       -3.245517   -5.197041    0.154975
     21         17           0        1.556383   -3.009758   -1.016264
     22         17           0        4.200776    2.297080   -0.890785
 ---------------------------------------------------------------------
                    Distance matrix (angstroms):
                    1          2          3          4          5
     1  C    0.000000
     2  C    1.399066   0.000000
     3  C    2.430976   1.398620   0.000000
     4  C    2.822006   2.425455   1.393295   0.000000
     5  C    2.440378   2.788055   2.404988   1.393398   0.000000
     6  C    1.399161   2.401452   2.774447   2.419271   1.401339
     7  C    2.540714   3.454458   4.794943   5.362484   4.827749
     8  C    3.632720   4.174028   5.572379   6.377705   6.042568
     9  C    4.913120   5.558794   6.955417   7.706163   7.261456
    10  C    5.336567   6.250420   7.609116   8.152741   7.482779
    11  C    4.666363   5.800557   7.068247   7.395513   6.549954
    12  C    3.292218   4.491219   5.712298   5.998192   5.165638
    13  H    2.143649   1.068516   2.135614   3.385893   3.856433
    14  H    3.896083   3.399668   2.147497   1.074078   2.145318
    15  H    5.777411   6.255629   7.650682   8.514469   8.177583
    16  Cl   3.304743   4.700290   5.604938   5.453872   4.309125
    17  Cl   2.736168   4.027583   4.535103   4.033427   2.733671
    18  Cl   5.939143   7.211298   8.368612   8.465906   7.418394
    19  Cl   4.064152   4.547597   4.020570   2.723856   1.759581
    20  Cl   7.093297   8.004090   9.367938   9.905329   9.194104
    21  Cl   4.059041   3.989312   5.301476   6.406101   6.454098
    22  Cl   4.044229   2.735962   1.757386   2.729241   4.023539
                    6          7          8          9         10
     6  C    0.000000
     7  C    3.491322   0.000000
     8  C    4.776148   1.406889   0.000000
     9  C    5.930698   2.439595   1.396271   0.000000
    10  C    6.090132   2.819132   2.415169   1.390250   0.000000
    11  C    5.150659   2.430766   2.778592   2.406204   1.395507
    12  C    3.764487   1.397270   2.406259   2.786420   2.423871
    13  H    3.375411   3.439860   3.791496   5.182346   6.078411
    14  H    3.394695   6.436515   7.437391   8.773928   9.225609
    15  H    6.883701   3.409932   2.145399   1.074474   2.139002
    16  Cl   3.034627   2.803002   4.098807   4.602270   4.080652
    17  Cl   1.760734   3.669523   5.076412   5.918309   5.666345
    18  Cl   6.078741   4.053686   4.543195   4.029187   2.735961
    19  Cl   2.757136   6.212037   7.528093   8.640370   8.651975
    20  Cl   7.794865   4.580098   4.033743   2.730090   1.761003
    21  Cl   5.420621   2.779079   1.760864   2.695383   4.004506
    22  Cl   4.531820   6.143139   6.644705   8.037708   8.885171
                   11         12         13         14         15
    11  C    0.000000
    12  C    1.398300   0.000000
    13  H    5.869815   4.687993   0.000000
    14  H    8.450572   7.052329   4.272769   0.000000
    15  H    3.380999   3.860883   5.729866   9.568904   0.000000
    16  Cl   2.768602   1.816492   5.266403   6.411109   5.676716
    17  Cl   4.452823   3.252576   4.878967   4.878977   6.970410
    18  Cl   1.764606   2.747369   7.433165   9.472050   4.874910
    19  Cl   7.544518   6.239491   5.615899   2.854823   9.619565
    20  Cl   2.751933   4.052831   7.788072  10.977057   2.859088
    21  Cl   4.537738   4.054953   3.204175   7.386644   2.800489
    22  Cl   8.525911   7.227085   2.856625   2.869611   8.569682
                   16         17         18         19         20
    16  Cl   0.000000
    17  Cl   1.779718   0.000000
    18  Cl   3.147428   4.910401   0.000000
    19  Cl   4.947160   3.167974   8.072343   0.000000
    20  Cl   5.503745   7.204702   3.168715  10.280131   0.000000
    21  Cl   5.577948   6.196601   6.301963   8.122374   5.405022
    22  Cl   7.308800   6.292489   9.944012   5.440656  10.616155
                   21         22
    21  Cl   0.000000
    22  Cl   5.930521   0.000000
 Stoichiometry    C12H3Cl7
 Framework group  C1[X(C12H3Cl7)]
 Deg. of freedom    60
 Full point group                 C1      NOp   1
 Largest Abelian subgroup         C1      NOp   1
 Largest concise Abelian subgroup C1      NOp   1
                         Standard orientation:                         
 ---------------------------------------------------------------------
 Center     Atomic      Atomic             Coordinates (Angstroms)
 Number     Number       Type             X           Y           Z
 ---------------------------------------------------------------------
      1          6           0        1.506729    0.403015   -0.000001
      2          6           0        2.361835    1.510345   -0.000004
      3          6           0        3.750004    1.339690   -0.000005
      4          6           0        4.308187    0.063091   -0.000004
      5          6           0        3.468319   -1.048745    0.000001
      6          6           0        2.077885   -0.874260    0.000002
      7          6           0       -1.009310    0.756248    0.000006
      8          6           0       -1.791479    1.925671    0.000008
      9          6           0       -3.186095    1.857716    0.000006
     10          6           0       -3.825297    0.623124    0.000002
     11          6           0       -3.062259   -0.545300   -0.000000
     12          6           0       -1.665613   -0.477295    0.000002
     13          1           0        1.956424    2.498965   -0.000007
     14          1           0        5.374636   -0.064701   -0.000005
     15          1           0       -3.767431    2.761343    0.000007
     16         17           0       -0.727010   -2.032501   -0.000003
     17         17           0        1.033695   -2.291953    0.000007
     18         17           0       -3.873423   -2.112414   -0.000010
     19         17           0        4.180477   -2.657769    0.000006
     20         17           0       -5.584954    0.554310   -0.000004
     21         17           0       -1.075793    3.534532    0.000009
     22         17           0        4.802239    2.747243   -0.000010
 ---------------------------------------------------------------------
 Rotational constants (GHZ):           0.3093713           0.1161177           0.0844287
 Standard basis: 6-311+G(d,p) (5D, 7F)
 There are   511 symmetry adapted cartesian basis functions of A   symmetry.
 There are   492 symmetry adapted basis functions of A   symmetry.
   492 basis functions,   827 primitive gaussians,   511 cartesian basis functions
    97 alpha electrons       97 beta electrons
       nuclear repulsion energy      2279.5239509565 Hartrees.
 NAtoms=   22 NActive=   22 NUniq=   22 SFac= 1.00D+00 NAtFMM=   60 NAOKFM=F Big=F
 Integral buffers will be    131072 words long.
 Raffenetti 2 integral format.
 Two-electron integral symmetry is turned on.
 One-electron integrals computed using PRISM.
 NBasis=   492 RedAO= T EigKep=  1.04D-06  NBF=   492
 NBsUse=   487 1.00D-06 EigRej=  6.24D-07 NBFU=   487
 Initial guess from the checkpoint file:  "./Gau-209082.chk"
 B after Tr=    -0.000000    0.000000    0.000000
         Rot=    0.999584    0.000000    0.000000   -0.028846 Ang=   3.31 deg.
 ExpMin= 4.38D-02 ExpMax= 1.06D+05 ExpMxC= 3.62D+03 IAcc=3 IRadAn=         5 AccDes= 0.00D+00
 Harris functional with IExCor=  402 and IRadAn=       5 diagonalized for initial guess.
 HarFok:  IExCor=  402 AccDes= 0.00D+00 IRadAn=         5 IDoV= 1 UseB2=F ITyADJ=14
 ICtDFT=  3500011 ScaDFX=  1.000000  1.000000  1.000000  1.000000
 FoFCou: FMM=F IPFlag=           0 FMFlag=      100000 FMFlg1=           0
         NFxFlg=           0 DoJE=T BraDBF=F KetDBF=T FulRan=T
         wScrn=  0.000000 ICntrl=       500 IOpCl=  0 I1Cent=   200000004 NGrid=           0
         NMat0=    1 NMatS0=      1 NMatT0=    0 NMatD0=    1 NMtDS0=    0 NMtDT0=    0
 Petite list used in FoFCou.
 Requested convergence on RMS density matrix=1.00D-08 within  32 cycles.
 Requested convergence on MAX density matrix=1.00D-06.
 Requested convergence on             energy=1.00D-06.
 No special actions if energy rises.
 SCF Done:  E(RB3LYP) =  -3680.28820092     A.U. after   20 cycles
            NFock= 20  Conv=0.68D-08     -V/T= 2.0023
 QCSCF skips out because SCF is already converged.
 Calling FoFJK, ICntrl=      2127 FMM=F ISym2X=0 I1Cent= 0 IOpClX= 0 NMat=1 NMatS=1 NMatT=0.
 ***** Axes restored to original set *****
 -------------------------------------------------------------------
 Center     Atomic                   Forces (Hartrees/Bohr)
 Number     Number              X              Y              Z
 -------------------------------------------------------------------
      1        6          -0.004841018   -0.000551675    0.001491190
      2        6          -0.010920252    0.001792230    0.003934377
      3        6          -0.007434937   -0.002184735    0.002039301
      4        6          -0.000601427   -0.004869888   -0.000716693
      5        6          -0.009026180   -0.001073510    0.002772216
      6        6           0.027711447   -0.025684372   -0.013953105
      7        6          -0.042194306   -0.003189326    0.013302444
      8        6          -0.006945666    0.021796584    0.006382097
      9        6          -0.000839170    0.003110060    0.000860477
     10        6           0.000223701   -0.001611715   -0.000376347
     11        6          -0.001412638    0.010960106    0.002523842
     12        6           0.043642505   -0.086541364   -0.030631747
     13        1           0.004716079   -0.008862169   -0.003218184
     14        1           0.000960872    0.005015487    0.000625371
     15        1           0.001946829   -0.004996278   -0.001579747
     16       17          -0.103611998   -0.255867491   -0.013916287
     17       17           0.101322117    0.344910801    0.031393504
     18       17          -0.002082127   -0.001118476    0.000475859
     19       17           0.004120986    0.002653745   -0.000859234
     20       17           0.005425563    0.002542584   -0.001310024
     21       17           0.002594532    0.003346276   -0.000226403
     22       17          -0.002754913    0.000423128    0.000987091
 -------------------------------------------------------------------
 Cartesian Forces:  Max     0.344910801 RMS     0.057976991

 GradGradGradGradGradGradGradGradGradGradGradGradGradGradGradGradGradGrad
 Berny optimization.
 Using GEDIIS/GDIIS optimizer.
 FormGI is forming the generalized inverse of G from B-inverse, IUseBI=4.
 Internal  Forces:  Max     0.325988214 RMS     0.038368259
 Search for a local minimum.
 Step number   2 out of a maximum of  112
 All quantities printed in internal units (Hartrees-Bohrs-Radians)
 Mixed Optimization -- RFO/linear search
 Update second derivatives using D2CorX and points    1    2
 DE= -9.87D-02 DEPred=-1.20D-01 R= 8.21D-01
 TightC=F SS=  1.41D+00  RLast= 3.00D-01 DXNew= 5.0454D-01 9.0000D-01
 Trust test= 8.21D-01 RLast= 3.00D-01 DXMaxT set to 5.05D-01
 ITU=  1  0
 Use linear search instead of GDIIS.
 Linear search step of   0.595 exceeds DXMaxT=   0.505 but not scaled.
 Quartic linear search produced a step of  1.98194.
 Iteration  1 RMS(Cart)=  0.31173115 RMS(Int)=  0.02700507
 Iteration  2 RMS(Cart)=  0.24225641 RMS(Int)=  0.00445535
 Iteration  3 RMS(Cart)=  0.01115399 RMS(Int)=  0.00010513
 Iteration  4 RMS(Cart)=  0.00000668 RMS(Int)=  0.00010508
 Iteration  5 RMS(Cart)=  0.00000000 RMS(Int)=  0.00010508
 Variable       Old X    -DE/DX   Delta X   Delta X   Delta X     New X
                                 (Linear)    (Quad)   (Total)
    R1        2.64385  -0.01375  -0.00874   0.00000  -0.00862   2.63523
    R2        2.64403  -0.00579  -0.00839   0.00000  -0.00827   2.63576
    R3        2.64301  -0.00089  -0.01041   0.00000  -0.01041   2.63260
    R4        2.01920   0.01051  -0.00556   0.00000  -0.00556   2.01365
    R5        2.63295   0.00159  -0.03036   0.00000  -0.03047   2.60247
    R6        3.32098  -0.00288  -0.00979   0.00000  -0.00979   3.31119
    R7        2.63314  -0.00334  -0.02997   0.00000  -0.03009   2.60305
    R8        2.02971   0.00491   0.01528   0.00000   0.01528   2.04499
    R9        2.64815  -0.00574  -0.00023   0.00000  -0.00023   2.64792
   R10        3.32513  -0.00009  -0.00157   0.00000  -0.00157   3.32356
   R11        3.32731   0.00155   0.00275   0.00000   0.00275   3.33006
   R12        2.65864  -0.02841   0.02056   0.00000   0.02067   2.67931
   R13        2.64046  -0.05291  -0.01547   0.00000  -0.01527   2.62518
   R14        2.63857  -0.00148  -0.01921   0.00000  -0.01928   2.61929
   R15        3.32755   0.00202   0.00323   0.00000   0.00323   3.33078
   R16        2.62719   0.00256  -0.04176   0.00000  -0.04196   2.58524
   R17        2.03046   0.00559   0.01676   0.00000   0.01676   2.04722
   R18        2.63713   0.00648  -0.02207   0.00000  -0.02219   2.61493
   R19        3.32781  -0.00528   0.00375   0.00000   0.00375   3.33157
   R20        2.64240  -0.00758  -0.01161   0.00000  -0.01154   2.63086
   R21        3.33462   0.00202   0.01725   0.00000   0.01725   3.35188
   R22        3.43267   0.05222   0.21158   0.00000   0.21158   3.64425
   R23        3.36318   0.32599   0.38396   0.00000   0.38396   3.74714
    A1        2.06352  -0.00044  -0.06119   0.00000  -0.06084   2.00269
    A2        2.10605  -0.00691   0.02309   0.00000   0.02320   2.12925
    A3        2.09486   0.00270   0.00091   0.00000   0.00086   2.09572
    A4        2.08228   0.00421  -0.02401   0.00000  -0.02406   2.05822
    A5        2.10531   0.00669   0.02164   0.00000   0.02150   2.12682
    A6        2.09041  -0.00225  -0.00789   0.00000  -0.00782   2.08259
    A7        2.08746  -0.00444  -0.01375   0.00000  -0.01368   2.07378
    A8        2.08246  -0.00061  -0.02366   0.00000  -0.02393   2.05853
    A9        2.10225   0.00187   0.01557   0.00000   0.01571   2.11796
   A10        2.09848  -0.00126   0.00809   0.00000   0.00822   2.10670
   A11        2.09290  -0.01175  -0.00296   0.00000  -0.00312   2.08978
   A12        2.07797  -0.00239  -0.03256   0.00000  -0.03248   2.04548
   A13        2.11232   0.01415   0.03552   0.00000   0.03560   2.14792
   A14        2.11613   0.01302   0.04308   0.00000   0.04317   2.15930
   A15        2.08626  -0.03488  -0.01611   0.00000  -0.01616   2.07010
   A16        2.08079   0.02186  -0.02696   0.00000  -0.02701   2.05378
   A17        2.06312   0.01264  -0.06198   0.00000  -0.06151   2.00161
   A18        2.11162  -0.00455   0.03414   0.00000   0.03416   2.14579
   A19        2.13352  -0.00393   0.07755   0.00000   0.07754   2.21106
   A20        2.03804   0.00848  -0.11169   0.00000  -0.11171   1.92633
   A21        2.09723  -0.00488   0.00561   0.00000   0.00531   2.10254
   A22        2.09378   0.00246  -0.00121   0.00000  -0.00106   2.09272
   A23        2.09218   0.00242  -0.00440   0.00000  -0.00425   2.08793
   A24        2.08534  -0.00104  -0.01795   0.00000  -0.01831   2.06703
   A25        2.08762  -0.00467  -0.01342   0.00000  -0.01324   2.07438
   A26        2.11023   0.00572   0.03138   0.00000   0.03155   2.14178
   A27        2.10066  -0.01640   0.01241   0.00000   0.01233   2.11299
   A28        2.08544   0.00601  -0.01776   0.00000  -0.01772   2.06772
   A29        2.09709   0.01039   0.00534   0.00000   0.00538   2.10247
   A30        2.10841   0.01423   0.02777   0.00000   0.02801   2.13642
   A31        2.10963  -0.05356   0.03020   0.00000   0.03007   2.13971
   A32        2.06515   0.03934  -0.05796   0.00000  -0.05809   2.00706
   A33        2.26011  -0.01709   0.32843   0.00000   0.32843   2.58854
   A34        2.05932  -0.17007  -0.06951   0.00000  -0.06951   1.98982
    D1        0.00000  -0.00000   0.00000   0.00000   0.00000   0.00000
    D2        3.14159   0.00000   0.00000   0.00000   0.00000   3.14159
    D3       -0.00000   0.00000  -0.00000   0.00000  -0.00000  -0.00000
    D4        3.14159  -0.00000   0.00000   0.00000   0.00000   3.14159
    D5        0.00000  -0.00000   0.00000   0.00000   0.00000   0.00000
    D6        3.14159   0.00000  -0.00000   0.00000  -0.00000   3.14159
    D7       -3.14159  -0.00000  -0.00000   0.00000  -0.00000  -3.14159
    D8        0.00000  -0.00000  -0.00000   0.00000  -0.00000   0.00000
    D9       -0.00000   0.00000   0.00000   0.00000   0.00000  -0.00000
   D10        3.14159   0.00000  -0.00000   0.00000  -0.00000   3.14159
   D11        3.14159   0.00000   0.00000   0.00000   0.00000   3.14159
   D12        0.00000  -0.00000   0.00000   0.00000   0.00000   0.00000
   D13        0.00000  -0.00000  -0.00000   0.00000  -0.00000   0.00000
   D14       -3.14159  -0.00000  -0.00000   0.00000  -0.00000  -3.14159
   D15       -3.14159  -0.00000  -0.00000   0.00000  -0.00000  -3.14159
   D16        0.00000  -0.00000  -0.00000   0.00000  -0.00000   0.00000
   D17       -0.00000   0.00000   0.00000   0.00000   0.00000   0.00000
   D18        3.14159   0.00000  -0.00000   0.00000  -0.00000   3.14159
   D19        3.14159   0.00000   0.00000   0.00000   0.00000   3.14159
   D20       -0.00000   0.00000  -0.00000   0.00000  -0.00000  -0.00000
   D21        0.00001   0.00000  -0.00000   0.00000  -0.00000   0.00001
   D22       -3.14159   0.00000  -0.00000   0.00000  -0.00000  -3.14159
   D23        0.00000   0.00000   0.00000   0.00000   0.00000   0.00000
   D24       -3.14159  -0.00000  -0.00000   0.00000  -0.00000  -3.14159
   D25       -0.00000  -0.00000  -0.00000   0.00000  -0.00000  -0.00000
   D26        3.14159   0.00000   0.00000   0.00000   0.00000   3.14159
   D27       -0.00000  -0.00000  -0.00000   0.00000  -0.00000  -0.00000
   D28        3.14159  -0.00000  -0.00000   0.00000  -0.00000   3.14159
   D29        3.14159   0.00000   0.00000   0.00000   0.00000   3.14159
   D30       -0.00000   0.00000   0.00000   0.00000   0.00000  -0.00000
   D31       -0.00000   0.00000   0.00000   0.00000   0.00000   0.00000
   D32       -3.14159  -0.00000  -0.00000   0.00000  -0.00000  -3.14159
   D33        3.14159   0.00000   0.00000   0.00000   0.00000  -3.14159
   D34        0.00000  -0.00000  -0.00000   0.00000  -0.00000   0.00000
   D35        0.00000   0.00000  -0.00000   0.00000  -0.00000  -0.00000
   D36       -3.14159  -0.00000  -0.00000   0.00000  -0.00000  -3.14159
   D37        3.14159   0.00000   0.00000   0.00000   0.00000   3.14159
   D38        0.00000  -0.00000  -0.00000   0.00000  -0.00000   0.00000
   D39        0.00000  -0.00000   0.00000   0.00000   0.00000   0.00000
   D40       -3.14159  -0.00000  -0.00000   0.00000  -0.00000   3.14159
   D41        3.14159   0.00000   0.00000   0.00000   0.00000   3.14159
   D42       -0.00000   0.00000  -0.00000   0.00000  -0.00000  -0.00000
   D43        0.00001   0.00000  -0.00000   0.00000  -0.00000   0.00001
   D44       -3.14159   0.00000   0.00000   0.00000   0.00000  -3.14159
   D45       -0.00001   0.00000  -0.00001   0.00000  -0.00001  -0.00002
         Item               Value     Threshold  Converged?
 Maximum Force            0.325988     0.000450     NO 
 RMS     Force            0.038368     0.000300     NO 
 Maximum Displacement     2.463625     0.001800     NO 
 RMS     Displacement     0.542440     0.001200     NO 
 Predicted change in Energy=-2.223649D-02
 GradGradGradGradGradGradGradGradGradGradGradGradGradGradGradGradGradGrad

                          Input orientation:                          
 ---------------------------------------------------------------------
 Center     Atomic      Atomic             Coordinates (Angstroms)
 Number     Number       Type             X           Y           Z
 ---------------------------------------------------------------------
      1          6           0        0.864237    1.131657   -0.010426
      2          6           0        2.168825    1.458763   -0.378791
      3          6           0        2.655083    2.761522   -0.294321
      4          6           0        1.873564    3.801168    0.158406
      5          6           0        0.578060    3.519582    0.532326
      6          6           0        0.098975    2.205816    0.443425
      7          6           0       -0.422808   -2.149934   -0.202731
      8          6           0       -0.272960   -3.525820   -0.510504
      9          6           0       -1.293062   -4.450030   -0.347992
     10          6           0       -2.514442   -4.058525    0.127937
     11          6           0       -2.702690   -2.723765    0.440639
     12          6           0       -1.677554   -1.796102    0.277117
     13          1           0        2.827869    0.702387   -0.737966
     14          1           0        2.259756    4.810154    0.220671
     15          1           0       -1.124400   -5.490323   -0.598937
     16         17           0       -2.130421    0.013504    0.766181
     17         17           0       -1.566375    1.906898    0.935937
     18         17           0       -4.285861   -2.215007    1.057790
     19         17           0       -0.402390    4.861680    1.107391
     20         17           0       -3.781509   -5.269544    0.317952
     21         17           0        1.174737   -4.313452   -1.135389
     22         17           0        4.306657    3.093945   -0.776001
 ---------------------------------------------------------------------
                    Distance matrix (angstroms):
                    1          2          3          4          5
     1  C    0.000000
     2  C    1.394504   0.000000
     3  C    2.438070   1.393112   0.000000
     4  C    2.858940   2.421285   1.377170   0.000000
     5  C    2.465495   2.758196   2.360514   1.377475   0.000000
     6  C    1.394784   2.349129   2.717860   2.403238   1.401217
[...]
                 (A) (A) (A) (A) (A) (A) (A) (A) (A) (A) (A) (A)
                 (A) (A) (A) (A) (A) (A) (A) (A) (A) (A) (A) (A)
                 (A) (A) (A) (A) (A) (A) (A) (A) (A) (A) (A) (A)
                 (A) (A) (A) (A) (A) (A) (A) (A) (A) (A) (A) (A)
                 (A) (A) (A) (A) (A) (A) (A) (A) (A) (A) (A) (A)
                 (A) (A) (A) (A) (A) (A) (A) (A) (A) (A) (A) (A)
                 (A) (A) (A) (A) (A) (A) (A) (A) (A) (A) (A) (A)
                 (A) (A) (A) (A) (A) (A) (A) (A) (A) (A) (A) (A)
                 (A) (A) (A) (A) (A) (A) (A) (A) (A) (A) (A) (A)
                 (A) (A) (A) (A) (A) (A) (A) (A) (A) (A) (A) (A)
                 (A) (A) (A) (A) (A) (A) (A) (A) (A) (A) (A) (A)
                 (A) (A) (A) (A) (A) (A) (A) (A) (A) (A) (A) (A)
                 (A) (A) (A) (A) (A) (A) (A) (A) (A) (A) (A) (A)
                 (A) (A) (A) (A) (A) (A) (A) (A) (A) (A) (A) (A)
                 (A) (A) (A) (A) (A) (A) (A) (A) (A) (A) (A) (A)
                 (A) (A) (A) (A) (A) (A) (A) (A) (A) (A) (A) (A)
                 (A) (A) (A) (A) (A) (A) (A) (A) (A) (A) (A) (A)
                 (A) (A) (A) (A) (A) (A) (A) (A) (A) (A) (A) (A)
                 (A) (A) (A) (A) (A) (A) (A) (A) (A) (A) (A) (A)
                 (A) (A) (A) (A) (A) (A) (A) (A) (A) (A) (A) (A)
                 (A) (A) (A) (A) (A) (A)
 The electronic state is 1-A.
 Alpha  occ. eigenvalues -- -101.58276-101.58214-101.58210-101.58070-101.57728
 Alpha  occ. eigenvalues -- -101.57713-101.57544 -10.28535 -10.28262 -10.28197
 Alpha  occ. eigenvalues --  -10.27861 -10.27552 -10.27389 -10.26903 -10.24404
 Alpha  occ. eigenvalues --  -10.23943 -10.22648 -10.22246 -10.21949  -9.49733
 Alpha  occ. eigenvalues --   -9.49690  -9.49673  -9.49539  -9.49186  -9.49185
 Alpha  occ. eigenvalues --   -9.48997  -7.26226  -7.26182  -7.26178  -7.26018
 Alpha  occ. eigenvalues --   -7.25675  -7.25670  -7.25471  -7.25211  -7.25172
 Alpha  occ. eigenvalues --   -7.25152  -7.25146  -7.25093  -7.25070  -7.25016
 Alpha  occ. eigenvalues --   -7.24965  -7.24665  -7.24663  -7.24605  -7.24601
 Alpha  occ. eigenvalues --   -7.24473  -7.24437  -0.96608  -0.94775  -0.91589
 Alpha  occ. eigenvalues --   -0.91003  -0.90582  -0.88308  -0.87625  -0.85044
 Alpha  occ. eigenvalues --   -0.84071  -0.80261  -0.76493  -0.75428  -0.74588
 Alpha  occ. eigenvalues --   -0.67329  -0.64420  -0.63160  -0.61848  -0.55372
 Alpha  occ. eigenvalues --   -0.55231  -0.53749  -0.53364  -0.50109  -0.48687
 Alpha  occ. eigenvalues --   -0.47407  -0.47166  -0.46681  -0.46248  -0.45112
 Alpha  occ. eigenvalues --   -0.44159  -0.42723  -0.41795  -0.41313  -0.40312
 Alpha  occ. eigenvalues --   -0.39458  -0.39190  -0.36921  -0.36134  -0.36009
 Alpha  occ. eigenvalues --   -0.35103  -0.34900  -0.34430  -0.33813  -0.33503
 Alpha  occ. eigenvalues --   -0.33315  -0.32775  -0.32349  -0.28553  -0.28234
 Alpha  occ. eigenvalues --   -0.27223  -0.26698
 Alpha virt. eigenvalues --   -0.06599  -0.06324  -0.06052  -0.05178  -0.05043
 Alpha virt. eigenvalues --   -0.02954  -0.00833  -0.00351   0.00130   0.00651
 Alpha virt. eigenvalues --    0.01039   0.01822   0.02173   0.02331   0.02613
 Alpha virt. eigenvalues --    0.03556   0.04010   0.04574   0.04895   0.05709
 Alpha virt. eigenvalues --    0.05822   0.05969   0.06949   0.07105   0.07141
 Alpha virt. eigenvalues --    0.08226   0.08351   0.08496   0.08908   0.09046
 Alpha virt. eigenvalues --    0.09351   0.09743   0.10316   0.10365   0.10676
 Alpha virt. eigenvalues --    0.10865   0.11407   0.11759   0.11939   0.12098
 Alpha virt. eigenvalues --    0.12505   0.12830   0.13245   0.13605   0.13922
 Alpha virt. eigenvalues --    0.14147   0.14548   0.14729   0.15537   0.15806
 Alpha virt. eigenvalues --    0.16298   0.16802   0.17139   0.17523   0.18152
 Alpha virt. eigenvalues --    0.18323   0.18533   0.18688   0.19156   0.19386
 Alpha virt. eigenvalues --    0.19587   0.20042   0.20325   0.20795   0.21111
 Alpha virt. eigenvalues --    0.21879   0.22173   0.22461   0.22795   0.22875
 Alpha virt. eigenvalues --    0.23222   0.23560   0.23997   0.24347   0.24741
 Alpha virt. eigenvalues --    0.24986   0.25604   0.26025   0.26214   0.26380
 Alpha virt. eigenvalues --    0.27042   0.27172   0.27647   0.28315   0.28644
 Alpha virt. eigenvalues --    0.28881   0.29200   0.29730   0.30050   0.30523
 Alpha virt. eigenvalues --    0.30808   0.31565   0.31730   0.32205   0.33774
 Alpha virt. eigenvalues --    0.35360   0.38767   0.40708   0.40805   0.42669
 Alpha virt. eigenvalues --    0.43099   0.43269   0.44345   0.44620   0.45177
 Alpha virt. eigenvalues --    0.45197   0.45491   0.46021   0.46297   0.47022
 Alpha virt. eigenvalues --    0.47267   0.47770   0.48211   0.48627   0.48667
 Alpha virt. eigenvalues --    0.50108   0.50504   0.50802   0.50850   0.52446
 Alpha virt. eigenvalues --    0.53875   0.54479   0.56176   0.56643   0.57320
 Alpha virt. eigenvalues --    0.57446   0.57993   0.58869   0.59291   0.59638
 Alpha virt. eigenvalues --    0.60436   0.60870   0.62304   0.62590   0.62905
 Alpha virt. eigenvalues --    0.63107   0.63363   0.64193   0.64437   0.65238
 Alpha virt. eigenvalues --    0.67074   0.67424   0.67511   0.68129   0.68575
 Alpha virt. eigenvalues --    0.69172   0.69472   0.70780   0.74539   0.77027
 Alpha virt. eigenvalues --    0.79023   0.79914   0.80361   0.81197   0.81729
 Alpha virt. eigenvalues --    0.82642   0.82908   0.83155   0.83572   0.83735
 Alpha virt. eigenvalues --    0.83994   0.84337   0.84570   0.84707   0.84970
 Alpha virt. eigenvalues --    0.85204   0.85615   0.85731   0.85894   0.86890
 Alpha virt. eigenvalues --    0.87834   0.88189   0.88775   0.89125   0.89802
 Alpha virt. eigenvalues --    0.90418   0.91060   0.91777   0.92031   0.92277
 Alpha virt. eigenvalues --    0.93014   0.93853   0.94222   0.94372   0.94481
 Alpha virt. eigenvalues --    0.94841   0.95956   0.96136   0.96851   0.97194
 Alpha virt. eigenvalues --    0.98252   0.99211   0.99310   1.01108   1.02287
 Alpha virt. eigenvalues --    1.02666   1.04581   1.05015   1.05473   1.09171
 Alpha virt. eigenvalues --    1.09963   1.14111   1.14162   1.16360   1.18639
 Alpha virt. eigenvalues --    1.19652   1.20774   1.21724   1.22711   1.23299
 Alpha virt. eigenvalues --    1.24274   1.24456   1.26137   1.27878   1.28047
 Alpha virt. eigenvalues --    1.28438   1.29207   1.29889   1.30279   1.31257
 Alpha virt. eigenvalues --    1.34176   1.35230   1.36585   1.37676   1.40977
 Alpha virt. eigenvalues --    1.44276   1.47399   1.47748   1.48102   1.54623
 Alpha virt. eigenvalues --    1.55215   1.57165   1.57821   1.58413   1.59415
 Alpha virt. eigenvalues --    1.60507   1.63148   1.65714   1.67776   1.70581
 Alpha virt. eigenvalues --    1.73724   1.75022   1.76506   1.78463   1.80660
 Alpha virt. eigenvalues --    1.80814   1.81557   1.82628   1.84395   1.85653
 Alpha virt. eigenvalues --    1.87826   1.91357   1.92022   1.93110   1.93435
 Alpha virt. eigenvalues --    1.96264   1.98351   1.99690   2.02693   2.03809
 Alpha virt. eigenvalues --    2.05969   2.07445   2.08155   2.10862   2.17492
 Alpha virt. eigenvalues --    2.18989   2.22500   2.23672   2.24050   2.24813
 Alpha virt. eigenvalues --    2.24946   2.25954   2.26935   2.27607   2.29553
 Alpha virt. eigenvalues --    2.30406   2.31444   2.32242   2.32744   2.33866
 Alpha virt. eigenvalues --    2.37090   2.40387   2.42082   2.42193   2.42829
 Alpha virt. eigenvalues --    2.45513   2.46446   2.48132   2.49777   2.51172
 Alpha virt. eigenvalues --    2.52200   2.54893   2.54912   2.55879   2.57843
 Alpha virt. eigenvalues --    2.60521   2.61779   2.63740   2.65316   2.67411
 Alpha virt. eigenvalues --    2.68835   2.69321   2.70126   2.72120   2.73898
 Alpha virt. eigenvalues --    2.74512   2.74997   2.76438   2.81194   2.82434
 Alpha virt. eigenvalues --    2.82865   2.85741   2.89066   2.95749   2.96680
 Alpha virt. eigenvalues --    3.05178   3.07217   3.08172   3.08552   3.11383
 Alpha virt. eigenvalues --    3.12344   3.13943   3.17189   3.20366   3.22748
 Alpha virt. eigenvalues --    3.25238   3.27969   3.34091   3.39392   3.42816
 Alpha virt. eigenvalues --    3.49912   3.61061   3.64647   3.69936   3.75443
 Alpha virt. eigenvalues --    3.79968   3.89380   3.95738   4.01329   4.08610
 Alpha virt. eigenvalues --    4.31728   4.79790   4.80911   9.75113   9.76643
 Alpha virt. eigenvalues --    9.78308   9.78942   9.80763   9.83690   9.85061
 Alpha virt. eigenvalues --   23.32048  23.48349  23.80872  23.82221  23.83529
 Alpha virt. eigenvalues --   23.88312  23.93090  23.93865  24.00454  24.05468
 Alpha virt. eigenvalues --   24.07777  24.12523  25.77061  25.79113  25.81912
 Alpha virt. eigenvalues --   25.83358  25.86285  25.94549  25.98168  26.08162
 Alpha virt. eigenvalues --   26.09782  26.14797  26.17428  26.24386  26.30719
 Alpha virt. eigenvalues --   26.37943  26.49337  26.58048  26.63923  26.65427
 Alpha virt. eigenvalues --   26.71476  26.84302  27.04070 215.74259 215.75795
 Alpha virt. eigenvalues --  215.77737 215.78493 215.80733 215.84515 215.85933
          Condensed to atoms (all electrons):
               1          2          3          4          5          6
     1  C   30.362988  -6.208082  -7.345841  -1.308066  -1.875504   3.465970
     2  C   -6.208082  39.574216 -11.557309  -3.025470  -4.871540   6.424187
     3  C   -7.345841 -11.557309  27.292343  -2.924389  -1.931075  -3.756073
     4  C   -1.308066  -3.025470  -2.924389  33.870482  -6.409135 -12.592968
     5  C   -1.875504  -4.871540  -1.931075  -6.409135  22.991456   2.091922
     6  C    3.465970   6.424187  -3.756073 -12.592968   2.091922  29.741739
     7  C   10.904314 -12.916248   6.702108  -3.146723  -3.111057  -2.589876
     8  C   -6.740270   0.246361  -0.698158   1.455795  -0.642979  -7.491337
     9  C   -5.533541   0.535334  -0.718234   0.556645   0.102464  -1.927985
    10  C   -1.286247   0.291619  -0.247925   0.163134   0.073773  -0.111186
    11  C   -4.742426  -1.039988   1.076080  -0.299793  -0.395290  -3.043125
    12  C   -0.714797  -2.114537  -0.155304   1.017652  -1.204475  -2.859506
    13  H    0.033603   0.044879   0.067613   0.048140  -0.015029  -0.151698
    14  H    0.064482  -0.039911   0.010851   0.167166   0.070598   0.060415
    15  H    0.022438  -0.002656  -0.000039   0.000071  -0.000698   0.003679
    16  Cl  -0.933419   0.123171   0.309579  -0.398920   0.206930   0.009612
    17  Cl  -0.717304   0.528656   0.014042   1.253980   0.762808  -1.628227
    18  Cl  -0.176544  -0.024509   0.035748  -0.004414  -0.013754  -0.103328
    19  Cl  -0.329538   0.117732  -0.068217  -0.549964  -0.633134   1.024853
    20  Cl  -0.040373  -0.008812   0.005346   0.000738  -0.001899  -0.036782
    21  Cl   0.073009  -0.451391   0.630973  -0.412250  -0.071387   0.363528
    22  Cl  -0.241505   1.131992  -1.363661  -0.461421   0.125191   0.299556
               7          8          9         10         11         12
     1  C   10.904314  -6.740270  -5.533541  -1.286247  -4.742426  -0.714797
     2  C  -12.916248   0.246361   0.535334   0.291619  -1.039988  -2.114537
     3  C    6.702108  -0.698158  -0.718234  -0.247925   1.076080  -0.155304
     4  C   -3.146723   1.455795   0.556645   0.163134  -0.299793   1.017652
     5  C   -3.111057  -0.642979   0.102464   0.073773  -0.395290  -1.204475
     6  C   -2.589876  -7.491337  -1.927985  -0.111186  -3.043125  -2.859506
     7  C   40.989302 -15.040156 -11.894193  -0.470554  -3.807698   1.530497
     8  C  -15.040156  42.822354  -2.265905  -5.096368   5.708087  -5.696859
     9  C  -11.894193  -2.265905  31.338309   4.578369 -12.159487   4.670618
    10  C   -0.470554  -5.096368   4.578369  26.471164 -10.090166  -7.262621
    11  C   -3.807698   5.708087 -12.159487 -10.090166  35.475991  -2.483510
    12  C    1.530497  -5.696859   4.670618  -7.262621  -2.483510  26.186524
    13  H    0.180635   0.051694   0.019502   0.007707   0.013286   0.080239
    14  H    0.013742  -0.000352  -0.000065   0.000013   0.000155   0.000973
    15  H    0.148085   0.016768   0.117055   0.023124   0.043749  -0.016754
    16  Cl  -0.331429   0.566039   0.935052   1.143324  -0.331790  -3.249398
    17  Cl  -0.784988  -0.319022  -0.337199  -0.104051  -0.051219  -0.300305
    18  Cl  -0.921416   0.566316   0.065422  -0.816776  -0.016326   0.827968
    19  Cl   0.025535  -0.036616  -0.006627  -0.000898   0.004495  -0.045241
    20  Cl   0.021170  -0.462647   0.009383  -0.475768   0.431574  -0.132598
    21  Cl   0.862040  -0.689603  -1.444919  -0.870411   0.901615  -0.350864
    22  Cl  -0.181019  -0.036848  -0.000393   0.004909  -0.013081  -0.047207
              13         14         15         16         17         18
     1  C    0.033603   0.064482   0.022438  -0.933419  -0.717304  -0.176544
     2  C    0.044879  -0.039911  -0.002656   0.123171   0.528656  -0.024509
     3  C    0.067613   0.010851  -0.000039   0.309579   0.014042   0.035748
     4  C    0.048140   0.167166   0.000071  -0.398920   1.253980  -0.004414
     5  C   -0.015029   0.070598  -0.000698   0.206930   0.762808  -0.013754
     6  C   -0.151698   0.060415   0.003679   0.009612  -1.628227  -0.103328
     7  C    0.180635   0.013742   0.148085  -0.331429  -0.784988  -0.921416
     8  C    0.051694  -0.000352   0.016768   0.566039  -0.319022   0.566316
     9  C    0.019502  -0.000065   0.117055   0.935052  -0.337199   0.065422
    10  C    0.007707   0.000013   0.023124   1.143324  -0.104051  -0.816776
    11  C    0.013286   0.000155   0.043749  -0.331790  -0.051219  -0.016326
    12  C    0.080239   0.000973  -0.016754  -3.249398  -0.300305   0.827968
    13  H    0.514582  -0.000214   0.000002  -0.011486  -0.004670   0.000574
    14  H   -0.000214   0.489786  -0.000000  -0.000114  -0.001308  -0.000000
    15  H    0.000002  -0.000000   0.488145   0.000708  -0.000589  -0.000943
    16  Cl  -0.011486  -0.000114   0.000708  18.772813   0.064796  -0.397462
    17  Cl  -0.004670  -0.001308  -0.000589   0.064796  18.271127  -0.004275
    18  Cl   0.000574  -0.000000  -0.000943  -0.397462  -0.004275  17.573584
    19  Cl   0.000070  -0.004769  -0.000006   0.004709  -0.313638   0.000114
    20  Cl   0.000130   0.000000  -0.007400  -0.015326   0.007049  -0.185719
    21  Cl  -0.008424  -0.000048  -0.009057  -0.073892   0.083840   0.008136
    22  Cl  -0.018506  -0.005407  -0.000013  -0.003244  -0.006980   0.000014
              19         20         21         22
     1  C   -0.329538  -0.040373   0.073009  -0.241505
     2  C    0.117732  -0.008812  -0.451391   1.131992
     3  C   -0.068217   0.005346   0.630973  -1.363661
     4  C   -0.549964   0.000738  -0.412250  -0.461421
     5  C   -0.633134  -0.001899  -0.071387   0.125191
     6  C    1.024853  -0.036782   0.363528   0.299556
     7  C    0.025535   0.021170   0.862040  -0.181019
     8  C   -0.036616  -0.462647  -0.689603  -0.036848
     9  C   -0.006627   0.009383  -1.444919  -0.000393
    10  C   -0.000898  -0.475768  -0.870411   0.004909
    11  C    0.004495   0.431574   0.901615  -0.013081
    12  C   -0.045241  -0.132598  -0.350864  -0.047207
    13  H    0.000070   0.000130  -0.008424  -0.018506
    14  H   -0.004769   0.000000  -0.000048  -0.005407
    15  H   -0.000006  -0.007400  -0.009057  -0.000013
    16  Cl   0.004709  -0.015326  -0.073892  -0.003244
    17  Cl  -0.313638   0.007049   0.083840  -0.006980
    18  Cl   0.000114  -0.185719   0.008136   0.000014
    19  Cl  17.351408  -0.000011   0.000971  -0.011981
    20  Cl  -0.000011  17.402781  -0.043280   0.000066
    21  Cl   0.000971  -0.043280  18.093631  -0.004817
    22  Cl  -0.011981   0.000066  -0.004817  17.395496
 Mulliken charges:
               1
     1  C   -0.733349
     2  C   -0.757693
     3  C    0.621543
     4  C   -1.000289
     5  C    0.751813
     6  C   -1.193371
     7  C   -0.182071
     8  C   -0.216294
     9  C   -0.639607
    10  C    0.075835
    11  C    0.818867
    12  C   -1.680492
    13  H    0.147370
    14  H    0.174007
    15  H    0.174330
    16  Cl   0.609746
    17  Cl   0.587476
    18  Cl   0.587589
    19  Cl   0.470753
    20  Cl   0.532378
    21  Cl   0.412601
    22  Cl   0.438858
 Sum of Mulliken charges =  -0.00000
 Mulliken charges with hydrogens summed into heavy atoms:
               1
     1  C   -0.733349
     2  C   -0.610323
     3  C    0.621543
     4  C   -0.826282
     5  C    0.751813
     6  C   -1.193371
     7  C   -0.182071
     8  C   -0.216294
     9  C   -0.465277
    10  C    0.075835
    11  C    0.818867
    12  C   -1.680492
    16  Cl   0.609746
    17  Cl   0.587476
    18  Cl   0.587589
    19  Cl   0.470753
    20  Cl   0.532378
    21  Cl   0.412601
    22  Cl   0.438858
 Electronic spatial extent (au):  <R**2>=           9124.9604
 Charge=              0.0000 electrons
 Dipole moment (field-independent basis, Debye):
    X=             -0.0561    Y=              0.6307    Z=             -0.9140  Tot=              1.1119
 Quadrupole moment (field-independent basis, Debye-Ang):
   XX=           -155.5475   YY=           -159.2452   ZZ=           -156.6064
   XY=              1.0026   XZ=              3.4959   YZ=              0.3182
 Traceless Quadrupole moment (field-independent basis, Debye-Ang):
   XX=              1.5856   YY=             -2.1122   ZZ=              0.5266
   XY=              1.0026   XZ=              3.4959   YZ=              0.3182
 Octapole moment (field-independent basis, Debye-Ang**2):
  XXX=             18.0339  YYY=             -8.5008  ZZZ=              7.0259  XYY=             -9.9292
  XXY=             -6.2364  XXZ=             -2.0643  XZZ=            -12.6634  YZZ=             -3.4184
  YYZ=              2.6066  XYZ=             -0.3660
 Hexadecapole moment (field-independent basis, Debye-Ang**3):
 XXXX=          -7819.5292 YYYY=          -1981.6659 ZZZZ=          -1884.3475 XXXY=             -8.7601
 XXXZ=             16.4189 YYYX=            -16.4428 YYYZ=            -17.5997 ZZZX=            -14.5907
 ZZZY=             23.4273 XXYY=          -1698.1072 XXZZ=          -1625.2447 YYZZ=           -669.6046
 XXYZ=             12.0752 YYXZ=             -4.6942 ZZXY=             -5.5444
 N-N= 2.358337410958D+03 E-N=-1.343787150092D+04  KE= 3.671259586956D+03
 1\1\GINC-CN305\FOpt\RB3LYP\6-311+G(d,p)\C12H3Cl7\20CY91R06\02-Apr-2022
 \0\\# opt b3lyp/6-311+g(d,p) scf=xqc\\Title Card Required\\0,1\C,0.234
 4801236,0.3861260314,0.0094931089\C,0.9297603883,0.6542397761,-1.16984
 94674\C,1.6323961979,1.8445001535,-1.3024675989\C,1.6586449451,2.78104
 47127,-0.2780980555\C,0.9664857462,2.5156342266,0.9001181483\C,0.25231
 93907,1.32164083,1.0530293194\C,-0.5079512914,-0.9030558139,0.13516948
 01\C,0.1123510781,-2.0527214132,0.6354343583\C,-0.5593129977,-3.262419
 1052,0.7408340342\C,-1.8862848832,-3.3450654276,0.3394051162\C,-2.5515
 27749,-2.2228992357,-0.1692744606\C,-1.8483036439,-1.012582432,-0.2647
 958619\H,0.9188645803,-0.0659774095,-1.9770871762\H,2.2070370714,3.706
 5395823,-0.3852984689\H,-0.0574254266,-4.1357967807,1.1322711403\Cl,-2
 .6516455938,0.4026277191,-0.8894552492\Cl,-0.6156198593,0.98625518,2.5
 264914293\Cl,-4.2086763154,-2.3316054881,-0.6717843132\Cl,1.017362282,
 3.7094335898,2.170982519\Cl,-2.6945534185,-4.8821463355,0.4867351782\C
 l,1.7819101843,-1.9931082498,1.1579552882\Cl,2.5029802111,2.1739087994
 ,-2.7870914184\\Version=EM64L-G16RevB.01\State=1-A\HF=-3680.7493487\RM
 SD=9.500e-09\RMSF=1.523e-05\Dipole=0.310777,-0.2518771,-0.1770554\Quad
 rupole=-1.7331438,3.1300706,-1.3969269,-0.3366917,-0.2346431,-1.351543
 7\PG=C01 [X(C12H3Cl7)]\\@


 IT IS BY LOGIC THAT WE PROVE, BUT BY INTUITION THAT WE DISCOVER.
     -- J.H.POINCARE (1854-1912)
 Job cpu time:       1 days  8 hours 57 minutes 50.6 seconds.
 Elapsed time:       0 days  2 hours  5 minutes 22.3 seconds.
 File lengths (MBytes):  RWF=    160 Int=      0 D2E=      0 Chk=     25 Scr=      1
 Normal termination of Gaussian 16 at Sat Apr  2 02:42:34 2022.
