 Entering Gaussian System, Link 0=g16
 Input=2,3,4prime-Trichlorobiphenyl.gjf
 Output=2,3,4prime-Trichlorobiphenyl.log
 Initial command:
 /usr/local/g16/l1.exe "/scratch/pkc/Gau-17828.inp" -scrdir="/scratch/pkc/"
 Entering Link 1 = /usr/local/g16/l1.exe PID=     17829.
  
 Copyright (c) 1988-2017, Gaussian, Inc.  All Rights Reserved.
  
 This is part of the Gaussian(R) 16 program.  It is based on
 the Gaussian(R) 09 system (copyright 2009, Gaussian, Inc.),
 the Gaussian(R) 03 system (copyright 2003, Gaussian, Inc.),
 the Gaussian(R) 98 system (copyright 1998, Gaussian, Inc.),
 the Gaussian(R) 94 system (copyright 1995, Gaussian, Inc.),
 the Gaussian 92(TM) system (copyright 1992, Gaussian, Inc.),
 the Gaussian 90(TM) system (copyright 1990, Gaussian, Inc.),
 the Gaussian 88(TM) system (copyright 1988, Gaussian, Inc.),
 the Gaussian 86(TM) system (copyright 1986, Carnegie Mellon
 University), and the Gaussian 82(TM) system (copyright 1983,
 Carnegie Mellon University). Gaussian is a federally registered
 trademark of Gaussian, Inc.
  
 This software contains proprietary and confidential information,
 including trade secrets, belonging to Gaussian, Inc.
  
 This software is provided under written license and may be
 used, copied, transmitted, or stored only in accord with that
 written license.
  
 The following legend is applicable only to US Government
 contracts under FAR:
  
                    RESTRICTED RIGHTS LEGEND
  
 Use, reproduction and disclosure by the US Government is
 subject to restrictions as set forth in subparagraphs (a)
 and (c) of the Commercial Computer Software - Restricted
 Rights clause in FAR 52.227-19.
  
 Gaussian, Inc.
 340 Quinnipiac St., Bldg. 40, Wallingford CT 06492
  
  
 ---------------------------------------------------------------
 Warning -- This program may not be used in any manner that
 competes with the business of Gaussian, Inc. or will provide
 assistance to any competitor of Gaussian, Inc.  The licensee
 of this program is prohibited from giving any competitor of
 Gaussian, Inc. access to this program.  By using this program,
 the user acknowledges that Gaussian, Inc. is engaged in the
 business of creating and licensing software in the field of
 computational chemistry and represents and warrants to the
 licensee that it is not a competitor of Gaussian, Inc. and that
 it will not use this program in any manner prohibited above.
 ---------------------------------------------------------------
  

 Cite this work as:
 Gaussian 16, Revision B.01,
 M. J. Frisch, G. W. Trucks, H. B. Schlegel, G. E. Scuseria, 
 M. A. Robb, J. R. Cheeseman, G. Scalmani, V. Barone, 
 G. A. Petersson, H. Nakatsuji, X. Li, M. Caricato, A. V. Marenich, 
 J. Bloino, B. G. Janesko, R. Gomperts, B. Mennucci, H. P. Hratchian, 
 J. V. Ortiz, A. F. Izmaylov, J. L. Sonnenberg, D. Williams-Young, 
 F. Ding, F. Lipparini, F. Egidi, J. Goings, B. Peng, A. Petrone, 
 T. Henderson, D. Ranasinghe, V. G. Zakrzewski, J. Gao, N. Rega, 
 G. Zheng, W. Liang, M. Hada, M. Ehara, K. Toyota, R. Fukuda, 
 J. Hasegawa, M. Ishida, T. Nakajima, Y. Honda, O. Kitao, H. Nakai, 
 T. Vreven, K. Throssell, J. A. Montgomery, Jr., J. E. Peralta, 
 F. Ogliaro, M. J. Bearpark, J. J. Heyd, E. N. Brothers, K. N. Kudin, 
 V. N. Staroverov, T. A. Keith, R. Kobayashi, J. Normand, 
 K. Raghavachari, A. P. Rendell, J. C. Burant, S. S. Iyengar, 
 J. Tomasi, M. Cossi, J. M. Millam, M. Klene, C. Adamo, R. Cammi, 
 J. W. Ochterski, R. L. Martin, K. Morokuma, O. Farkas, 
 J. B. Foresman, and D. J. Fox, Gaussian, Inc., Wallingford CT, 2016.
 
 ******************************************
 Gaussian 16:  EM64L-G16RevB.01 20-Dec-2017
                14-Mar-2022 
 ******************************************
 %mem=10GB
 %nprocshared=4
 Will use up to    4 processors via shared memory.
 --------------------------------
 # opt b3lyp/6-311+g(d,p) scf=xqc
 --------------------------------
 1/18=20,19=15,26=3,38=1/1,3;
 2/9=110,12=2,17=6,18=5,40=1/2;
 3/5=4,6=6,7=111,11=2,25=1,30=1,71=1,74=-5/1,2,3;
 4//1;
 5/5=2,8=3,13=1,38=5/2,8;
 6/7=2,8=2,9=2,10=2,28=1/1;
 7//1,2,3,16;
 1/18=20,19=15,26=3/3(2);
 2/9=110/2;
 99//99;
 2/9=110/2;
 3/5=4,6=6,7=111,11=2,25=1,30=1,71=1,74=-5/1,2,3;
 4/5=5,16=3,69=1/1;
 5/5=2,8=3,13=1,38=5/2,8;
 7//1,2,3,16;
 1/18=20,19=15,26=3/3(-5);
 2/9=110/2;
 6/7=2,8=2,9=2,10=2,19=2,28=1/1;
 99/9=1/99;
 -------------------
 Title Card Required
 -------------------
 Symbolic Z-matrix:
 Charge =  0 Multiplicity = 1
 C                    -0.30988  -0.21161  -0.00285 
 C                     1.0225   -0.18172  -0.4362 
 C                     1.7304    1.02773  -0.44227 
 C                     1.10591   2.2073   -0.015 
 C                    -0.22647   2.17741   0.41835 
 C                    -0.93437   0.96796   0.42442 
 C                    -1.08778  -1.54067   0.00382 
 C                    -0.4633   -2.72024  -0.42345 
 C                    -1.17119  -3.92969  -0.41738 
 C                    -2.50357  -3.95958   0.01597 
 C                    -3.12806  -2.78001   0.44325 
 C                    -2.42016  -1.57056   0.43717 
 H                     1.49931  -1.08235  -0.76243 
 H                     2.7477    1.05055  -0.77314 
 H                    -0.70328   3.07803   0.74458 
 H                    -1.95167   0.94514   0.75529 
 H                     0.55401  -2.69742  -0.75432 
 H                    -0.69438  -4.83031  -0.74361 
 H                    -3.04406  -4.88302   0.02061 
 Cl                   -3.20445  -0.08916   0.97378 
 Cl                   -4.80137  -2.81755   0.98749 
 Cl                    1.99494   3.72623  -0.02262 
 

 GradGradGradGradGradGradGradGradGradGradGradGradGradGradGradGradGradGrad
 Berny optimization.
 Initialization pass.
                           ----------------------------
                           !    Initial Parameters    !
                           ! (Angstroms and Degrees)  !
 --------------------------                            --------------------------
 ! Name  Definition              Value          Derivative Info.                !
 --------------------------------------------------------------------------------
 ! R1    R(1,2)                  1.4014         estimate D2E/DX2                !
 ! R2    R(1,6)                  1.4014         estimate D2E/DX2                !
 ! R3    R(1,7)                  1.54           estimate D2E/DX2                !
 ! R4    R(2,3)                  1.4014         estimate D2E/DX2                !
 ! R5    R(2,13)                 1.07           estimate D2E/DX2                !
 ! R6    R(3,4)                  1.4014         estimate D2E/DX2                !
 ! R7    R(3,14)                 1.07           estimate D2E/DX2                !
 ! R8    R(4,5)                  1.4014         estimate D2E/DX2                !
 ! R9    R(4,22)                 1.76           estimate D2E/DX2                !
 ! R10   R(5,6)                  1.4014         estimate D2E/DX2                !
 ! R11   R(5,15)                 1.07           estimate D2E/DX2                !
 ! R12   R(6,16)                 1.07           estimate D2E/DX2                !
 ! R13   R(7,8)                  1.4014         estimate D2E/DX2                !
 ! R14   R(7,12)                 1.4014         estimate D2E/DX2                !
 ! R15   R(8,9)                  1.4014         estimate D2E/DX2                !
 ! R16   R(8,17)                 1.07           estimate D2E/DX2                !
 ! R17   R(9,10)                 1.4014         estimate D2E/DX2                !
 ! R18   R(9,18)                 1.07           estimate D2E/DX2                !
 ! R19   R(10,11)                1.4014         estimate D2E/DX2                !
 ! R20   R(10,19)                1.07           estimate D2E/DX2                !
 ! R21   R(11,12)                1.4014         estimate D2E/DX2                !
 ! R22   R(11,21)                1.76           estimate D2E/DX2                !
 ! R23   R(12,20)                1.76           estimate D2E/DX2                !
 ! A1    A(2,1,6)              120.0            estimate D2E/DX2                !
 ! A2    A(2,1,7)              120.0            estimate D2E/DX2                !
 ! A3    A(6,1,7)              120.0            estimate D2E/DX2                !
 ! A4    A(1,2,3)              120.0            estimate D2E/DX2                !
 ! A5    A(1,2,13)             120.0            estimate D2E/DX2                !
 ! A6    A(3,2,13)             120.0            estimate D2E/DX2                !
 ! A7    A(2,3,4)              120.0            estimate D2E/DX2                !
 ! A8    A(2,3,14)             120.0            estimate D2E/DX2                !
 ! A9    A(4,3,14)             120.0            estimate D2E/DX2                !
 ! A10   A(3,4,5)              120.0            estimate D2E/DX2                !
 ! A11   A(3,4,22)             120.0            estimate D2E/DX2                !
 ! A12   A(5,4,22)             120.0            estimate D2E/DX2                !
 ! A13   A(4,5,6)              120.0            estimate D2E/DX2                !
 ! A14   A(4,5,15)             120.0            estimate D2E/DX2                !
 ! A15   A(6,5,15)             120.0            estimate D2E/DX2                !
 ! A16   A(1,6,5)              120.0            estimate D2E/DX2                !
 ! A17   A(1,6,16)             120.0            estimate D2E/DX2                !
 ! A18   A(5,6,16)             120.0            estimate D2E/DX2                !
 ! A19   A(1,7,8)              120.0            estimate D2E/DX2                !
 ! A20   A(1,7,12)             120.0            estimate D2E/DX2                !
 ! A21   A(8,7,12)             120.0            estimate D2E/DX2                !
 ! A22   A(7,8,9)              120.0            estimate D2E/DX2                !
 ! A23   A(7,8,17)             120.0            estimate D2E/DX2                !
 ! A24   A(9,8,17)             120.0            estimate D2E/DX2                !
 ! A25   A(8,9,10)             120.0            estimate D2E/DX2                !
 ! A26   A(8,9,18)             120.0            estimate D2E/DX2                !
 ! A27   A(10,9,18)            120.0            estimate D2E/DX2                !
 ! A28   A(9,10,11)            120.0            estimate D2E/DX2                !
 ! A29   A(9,10,19)            120.0            estimate D2E/DX2                !
 ! A30   A(11,10,19)           120.0            estimate D2E/DX2                !
 ! A31   A(10,11,12)           120.0            estimate D2E/DX2                !
 ! A32   A(10,11,21)           120.0            estimate D2E/DX2                !
 ! A33   A(12,11,21)           120.0            estimate D2E/DX2                !
 ! A34   A(7,12,11)            120.0            estimate D2E/DX2                !
 ! A35   A(7,12,20)            120.0            estimate D2E/DX2                !
 ! A36   A(11,12,20)           120.0            estimate D2E/DX2                !
 ! D1    D(6,1,2,3)              0.0001         estimate D2E/DX2                !
 ! D2    D(6,1,2,13)           180.0            estimate D2E/DX2                !
 ! D3    D(7,1,2,3)           -180.0            estimate D2E/DX2                !
 ! D4    D(7,1,2,13)            -0.0001         estimate D2E/DX2                !
 ! D5    D(2,1,6,5)             -0.0001         estimate D2E/DX2                !
 ! D6    D(2,1,6,16)           180.0            estimate D2E/DX2                !
 ! D7    D(7,1,6,5)            180.0            estimate D2E/DX2                !
 ! D8    D(7,1,6,16)             0.0            estimate D2E/DX2                !
 ! D9    D(2,1,7,8)             -0.0001         estimate D2E/DX2                !
 ! D10   D(2,1,7,12)           179.9998         estimate D2E/DX2                !
 ! D11   D(6,1,7,8)            179.9999         estimate D2E/DX2                !
 ! D12   D(6,1,7,12)            -0.0002         estimate D2E/DX2                !
 ! D13   D(1,2,3,4)              0.0            estimate D2E/DX2                !
 ! D14   D(1,2,3,14)           180.0            estimate D2E/DX2                !
 ! D15   D(13,2,3,4)          -179.9999         estimate D2E/DX2                !
 ! D16   D(13,2,3,14)            0.0001         estimate D2E/DX2                !
 ! D17   D(2,3,4,5)             -0.0001         estimate D2E/DX2                !
 ! D18   D(2,3,4,22)           180.0            estimate D2E/DX2                !
 ! D19   D(14,3,4,5)           179.9999         estimate D2E/DX2                !
 ! D20   D(14,3,4,22)            0.0            estimate D2E/DX2                !
 ! D21   D(3,4,5,6)              0.0001         estimate D2E/DX2                !
 ! D22   D(3,4,5,15)          -179.9999         estimate D2E/DX2                !
 ! D23   D(22,4,5,6)          -180.0            estimate D2E/DX2                !
 ! D24   D(22,4,5,15)            0.0            estimate D2E/DX2                !
 ! D25   D(4,5,6,1)              0.0            estimate D2E/DX2                !
 ! D26   D(4,5,6,16)           179.9999         estimate D2E/DX2                !
 ! D27   D(15,5,6,1)           180.0            estimate D2E/DX2                !
 ! D28   D(15,5,6,16)           -0.0001         estimate D2E/DX2                !
 ! D29   D(1,7,8,9)            179.9999         estimate D2E/DX2                !
 ! D30   D(1,7,8,17)             0.0001         estimate D2E/DX2                !
 ! D31   D(12,7,8,9)             0.0001         estimate D2E/DX2                !
 ! D32   D(12,7,8,17)         -179.9998         estimate D2E/DX2                !
 ! D33   D(1,7,12,11)         -179.9999         estimate D2E/DX2                !
 ! D34   D(1,7,12,20)            0.0            estimate D2E/DX2                !
 ! D35   D(8,7,12,11)           -0.0001         estimate D2E/DX2                !
 ! D36   D(8,7,12,20)          179.9999         estimate D2E/DX2                !
 ! D37   D(7,8,9,10)             0.0            estimate D2E/DX2                !
 ! D38   D(7,8,9,18)           180.0            estimate D2E/DX2                !
 ! D39   D(17,8,9,10)          179.9998         estimate D2E/DX2                !
 ! D40   D(17,8,9,18)           -0.0002         estimate D2E/DX2                !
 ! D41   D(8,9,10,11)            0.0            estimate D2E/DX2                !
 ! D42   D(8,9,10,19)         -179.9999         estimate D2E/DX2                !
 ! D43   D(18,9,10,11)         180.0            estimate D2E/DX2                !
 ! D44   D(18,9,10,19)           0.0001         estimate D2E/DX2                !
 ! D45   D(9,10,11,12)           0.0            estimate D2E/DX2                !
 ! D46   D(9,10,11,21)        -179.9998         estimate D2E/DX2                !
 ! D47   D(19,10,11,12)        179.9999         estimate D2E/DX2                !
 ! D48   D(19,10,11,21)          0.0001         estimate D2E/DX2                !
 ! D49   D(10,11,12,7)           0.0            estimate D2E/DX2                !
 ! D50   D(10,11,12,20)       -179.9999         estimate D2E/DX2                !
 ! D51   D(21,11,12,7)         179.9999         estimate D2E/DX2                !
 ! D52   D(21,11,12,20)         -0.0001         estimate D2E/DX2                !
 --------------------------------------------------------------------------------
 Trust Radius=3.00D-01 FncErr=1.00D-07 GrdErr=1.00D-06 EigMax=2.50D+02 EigMin=1.00D-04
 Number of steps in this run=    121 maximum allowed number of steps=    132.
 GradGradGradGradGradGradGradGradGradGradGradGradGradGradGradGradGradGrad

                          Input orientation:                          
 ---------------------------------------------------------------------
 Center     Atomic      Atomic             Coordinates (Angstroms)
 Number     Number       Type             X           Y           Z
 ---------------------------------------------------------------------
      1          6           0       -0.309879   -0.211607   -0.002851
      2          6           0        1.022502   -0.181721   -0.436198
      3          6           0        1.730396    1.027730   -0.442270
      4          6           0        1.105908    2.207295   -0.014995
      5          6           0       -0.226473    2.177410    0.418349
      6          6           0       -0.934367    0.967959    0.424422
      7          6           0       -1.087784   -1.540674    0.003823
      8          6           0       -0.463296   -2.720239   -0.423452
      9          6           0       -1.171189   -3.929690   -0.417378
     10          6           0       -2.503570   -3.959577    0.015972
     11          6           0       -3.128057   -2.780012    0.443247
     12          6           0       -2.420164   -1.570560    0.437173
     13          1           0        1.499313   -1.082345   -0.762430
     14          1           0        2.747698    1.050549   -0.773139
     15          1           0       -0.703284    3.078034    0.744581
     16          1           0       -1.951670    0.945140    0.755291
     17          1           0        0.554006   -2.697421   -0.754322
     18          1           0       -0.694380   -4.830314   -0.743612
     19          1           0       -3.044061   -4.883020    0.020612
     20         17           0       -3.204448   -0.089161    0.973785
     21         17           0       -4.801374   -2.817547    0.987490
     22         17           0        1.994943    3.726229   -0.022621
 ---------------------------------------------------------------------
                    Distance matrix (angstroms):
                    1          2          3          4          5
     1  C    0.000000
     2  C    1.401400   0.000000
     3  C    2.427296   1.401400   0.000000
     4  C    2.802800   2.427296   1.401400   0.000000
     5  C    2.427296   2.802800   2.427296   1.401400   0.000000
     6  C    1.401400   2.427296   2.802800   2.427296   1.401400
     7  C    1.540000   2.548270   3.838989   4.342800   3.838989
     8  C    2.548270   2.941400   4.342800   5.187469   4.975106
     9  C    3.838989   4.342800   5.744200   6.558176   6.235992
    10  C    4.342800   5.187469   6.558176   7.145600   6.558176
    11  C    3.838989   4.975106   6.235992   6.558176   5.744200
    12  C    2.548270   3.813607   4.975106   5.187469   4.342800
    13  H    2.146700   1.070000   2.146700   3.396345   3.872800
    14  H    3.396345   2.146700   1.070000   2.146700   3.396345
    15  H    3.396345   3.872800   3.396345   2.146700   1.070000
    16  H    2.146700   3.396345   3.872800   3.396345   2.146700
    17  H    2.736837   2.578650   3.918930   4.990735   5.074276
    18  H    4.693509   4.965039   6.347206   7.300676   7.118798
    19  H    5.412800   6.232802   7.612271   8.215600   7.612271
    20  Cl   3.057342   4.456874   5.254079   4.983028   3.783409
    21  Cl   5.286324   6.549198   7.713260   7.819846   6.797295
    22  Cl   4.562800   4.048303   2.743718   1.760000   2.743718
                    6          7          8          9         10
     6  C    0.000000
     7  C    2.548270   0.000000
     8  C    3.813607   1.401400   0.000000
     9  C    4.975106   2.427296   1.401400   0.000000
    10  C    5.187469   2.802800   2.427296   1.401400   0.000000
    11  C    4.342800   2.427296   2.802800   2.427296   1.401400
    12  C    2.941400   1.401400   2.427296   2.802800   2.427296
    13  H    3.396345   2.736837   2.578650   3.918930   4.990735
    14  H    3.872800   4.693509   4.965039   6.347206   7.300676
    15  H    2.146700   4.693509   5.919617   7.118798   7.300676
    16  H    1.070000   2.736837   4.127917   5.074276   4.990735
    17  H    4.127917   2.146700   1.070000   2.146700   3.396345
    18  H    5.919617   3.396345   2.146700   1.070000   2.146700
    19  H    6.232802   3.872800   3.396345   2.146700   1.070000
    20  Cl   2.563702   2.743718   4.048303   4.562800   4.048303
    21  Cl   5.440665   4.048303   4.562800   4.048303   2.743718
    22  Cl   4.048303   6.102800   6.910901   8.294174   8.905600
                   11         12         13         14         15
    11  C    0.000000
    12  C    1.401400   0.000000
    13  H    5.074276   4.127917   0.000000
    14  H    7.118798   5.919617   2.471400   0.000000
    15  H    6.347206   4.965039   4.942800   4.280590   0.000000
    16  H    3.918930   2.578650   4.280590   4.942800   2.471400
    17  H    3.872800   3.396345   1.871400   4.342800   6.097816
    18  H    3.396345   3.872800   4.342800   6.814200   8.047159
    19  H    2.146700   3.396345   5.974992   8.329571   8.329571
    20  Cl   2.743718   1.760000   5.111382   6.307038   4.042212
    21  Cl   1.760000   2.743718   6.765486   8.663168   7.184095
    22  Cl   8.294174   6.910901   4.890332   2.879094   2.879094
                   16         17         18         19         20
    16  H    0.000000
    17  H    4.671787   0.000000
    18  H    6.097816   2.471400   0.000000
    19  H    5.974992   4.280590   2.471400   0.000000
    20  Cl   1.639199   4.890332   5.632800   4.890332   0.000000
    21  Cl   4.725732   5.632800   4.890332   2.879094   3.161400
    22  Cl   4.890332   6.623817   8.998151   9.975600   6.525618
                   21         22
    21  Cl   0.000000
    22  Cl   9.488480   0.000000
 Stoichiometry    C12H7Cl3
 Framework group  C1[X(C12H7Cl3)]
 Deg. of freedom    60
 Full point group                 C1      NOp   1
 Largest Abelian subgroup         C1      NOp   1
 Largest concise Abelian subgroup C1      NOp   1
                         Standard orientation:                         
 ---------------------------------------------------------------------
 Center     Atomic      Atomic             Coordinates (Angstroms)
 Number     Number       Type             X           Y           Z
 ---------------------------------------------------------------------
      1          6           0        0.772308    0.532403    0.000002
      2          6           0        1.712913    1.571240   -0.000001
      3          6           0        3.082876    1.276071   -0.000002
      4          6           0        3.512233   -0.057935   -0.000001
      5          6           0        2.571628   -1.096773    0.000004
      6          6           0        1.201666   -0.801604    0.000006
      7          6           0       -0.733145    0.856764    0.000003
      8          6           0       -1.162502    2.190771    0.000002
      9          6           0       -2.532465    2.485940    0.000001
     10          6           0       -3.473070    1.447102    0.000000
     11          6           0       -3.043713    0.113095    0.000001
     12          6           0       -1.673750   -0.182074    0.000002
     13          1           0        1.385089    2.589784   -0.000004
     14          1           0        3.801049    2.069247   -0.000005
     15          1           0        2.899452   -2.115317    0.000008
     16          1           0        0.483493   -1.594780    0.000008
     17          1           0       -0.444330    2.983947   -0.000001
     18          1           0       -2.860289    3.504484   -0.000000
     19          1           0       -4.519067    1.672470   -0.000002
     20         17           0       -1.134526   -1.857435    0.000001
     21         17           0       -4.225006   -1.191568   -0.000004
     22         17           0        5.232751   -0.428634   -0.000003
 ---------------------------------------------------------------------
 Rotational constants (GHZ):           1.1004390           0.2044883           0.1724440
 Standard basis: 6-311+G(d,p) (5D, 7F)
 There are   411 symmetry adapted cartesian basis functions of A   symmetry.
 There are   396 symmetry adapted basis functions of A   symmetry.
   396 basis functions,   647 primitive gaussians,   411 cartesian basis functions
    65 alpha electrons       65 beta electrons
       nuclear repulsion energy      1192.5918550759 Hartrees.
 NAtoms=   22 NActive=   22 NUniq=   22 SFac= 1.00D+00 NAtFMM=   60 NAOKFM=F Big=F
 Integral buffers will be    131072 words long.
 Raffenetti 2 integral format.
 Two-electron integral symmetry is turned on.
 One-electron integrals computed using PRISM.
 NBasis=   396 RedAO= T EigKep=  1.52D-06  NBF=   396
 NBsUse=   391 1.00D-06 EigRej=  8.37D-07 NBFU=   391
 ExpMin= 4.38D-02 ExpMax= 1.06D+05 ExpMxC= 3.62D+03 IAcc=3 IRadAn=         5 AccDes= 0.00D+00
 Harris functional with IExCor=  402 and IRadAn=       5 diagonalized for initial guess.
 HarFok:  IExCor=  402 AccDes= 0.00D+00 IRadAn=         5 IDoV= 1 UseB2=F ITyADJ=14
 ICtDFT=  3500011 ScaDFX=  1.000000  1.000000  1.000000  1.000000
 FoFCou: FMM=F IPFlag=           0 FMFlag=      100000 FMFlg1=           0
         NFxFlg=           0 DoJE=T BraDBF=F KetDBF=T FulRan=T
         wScrn=  0.000000 ICntrl=       500 IOpCl=  0 I1Cent=   200000004 NGrid=           0
         NMat0=    1 NMatS0=      1 NMatT0=    0 NMatD0=    1 NMtDS0=    0 NMtDT0=    0
 Petite list used in FoFCou.
 Requested convergence on RMS density matrix=1.00D-08 within  32 cycles.
 Requested convergence on MAX density matrix=1.00D-06.
 Requested convergence on             energy=1.00D-06.
 No special actions if energy rises.
 SCF Done:  E(RB3LYP) =  -1842.21974659     A.U. after   15 cycles
            NFock= 15  Conv=0.82D-08     -V/T= 2.0028
 QCSCF skips out because SCF is already converged.

 **********************************************************************

            Population analysis using the SCF Density.

 **********************************************************************

 Orbital symmetries:
       Occupied  (A) (A) (A) (A) (A) (A) (A) (A) (A) (A) (A) (A)
                 (A) (A) (A) (A) (A) (A) (A) (A) (A) (A) (A) (A)
                 (A) (A) (A) (A) (A) (A) (A) (A) (A) (A) (A) (A)
                 (A) (A) (A) (A) (A) (A) (A) (A) (A) (A) (A) (A)
                 (A) (A) (A) (A) (A) (A) (A) (A) (A) (A) (A) (A)
                 (A) (A) (A) (A) (A)
       Virtual   (A) (A) (A) (A) (A) (A) (A) (A) (A) (A) (A) (A)
                 (A) (A) (A) (A) (A) (A) (A) (A) (A) (A) (A) (A)
                 (A) (A) (A) (A) (A) (A) (A) (A) (A) (A) (A) (A)
                 (A) (A) (A) (A) (A) (A) (A) (A) (A) (A) (A) (A)
                 (A) (A) (A) (A) (A) (A) (A) (A) (A) (A) (A) (A)
                 (A) (A) (A) (A) (A) (A) (A) (A) (A) (A) (A) (A)
                 (A) (A) (A) (A) (A) (A) (A) (A) (A) (A) (A) (A)
                 (A) (A) (A) (A) (A) (A) (A) (A) (A) (A) (A) (A)
                 (A) (A) (A) (A) (A) (A) (A) (A) (A) (A) (A) (A)
                 (A) (A) (A) (A) (A) (A) (A) (A) (A) (A) (A) (A)
                 (A) (A) (A) (A) (A) (A) (A) (A) (A) (A) (A) (A)
                 (A) (A) (A) (A) (A) (A) (A) (A) (A) (A) (A) (A)
                 (A) (A) (A) (A) (A) (A) (A) (A) (A) (A) (A) (A)
                 (A) (A) (A) (A) (A) (A) (A) (A) (A) (A) (A) (A)
                 (A) (A) (A) (A) (A) (A) (A) (A) (A) (A) (A) (A)
                 (A) (A) (A) (A) (A) (A) (A) (A) (A) (A) (A) (A)
                 (A) (A) (A) (A) (A) (A) (A) (A) (A) (A) (A) (A)
                 (A) (A) (A) (A) (A) (A) (A) (A) (A) (A) (A) (A)
                 (A) (A) (A) (A) (A) (A) (A) (A) (A) (A) (A) (A)
                 (A) (A) (A) (A) (A) (A) (A) (A) (A) (A) (A) (A)
                 (A) (A) (A) (A) (A) (A) (A) (A) (A) (A) (A) (A)
                 (A) (A) (A) (A) (A) (A) (A) (A) (A) (A) (A) (A)
                 (A) (A) (A) (A) (A) (A) (A) (A) (A) (A) (A) (A)
                 (A) (A) (A) (A) (A) (A) (A) (A) (A) (A) (A) (A)
                 (A) (A) (A) (A) (A) (A) (A) (A) (A) (A) (A) (A)
                 (A) (A) (A) (A) (A) (A) (A) (A) (A) (A) (A) (A)
                 (A) (A) (A) (A) (A) (A) (A) (A) (A) (A) (A) (A)
                 (A) (A)
 The electronic state is 1-A.
 Alpha  occ. eigenvalues -- -101.57279-101.56987-101.55819 -10.26803 -10.26752
 Alpha  occ. eigenvalues --  -10.24717 -10.22713 -10.20973 -10.20937 -10.20778
 Alpha  occ. eigenvalues --  -10.20537 -10.19772 -10.19716 -10.19204 -10.17210
 Alpha  occ. eigenvalues --   -9.49079  -9.48419  -9.47264  -7.25491  -7.24906
 Alpha  occ. eigenvalues --   -7.24536  -7.24495  -7.23902  -7.23842  -7.23720
 Alpha  occ. eigenvalues --   -7.22752  -7.22715  -0.93874  -0.89848  -0.88310
 Alpha  occ. eigenvalues --   -0.86395  -0.84351  -0.78574  -0.76763  -0.75760
 Alpha  occ. eigenvalues --   -0.73562  -0.65175  -0.63903  -0.62430  -0.60192
 Alpha  occ. eigenvalues --   -0.54830  -0.52811  -0.51490  -0.49470  -0.48404
 Alpha  occ. eigenvalues --   -0.47063  -0.45778  -0.45041  -0.44800  -0.44017
 Alpha  occ. eigenvalues --   -0.40806  -0.40394  -0.39996  -0.38960  -0.37134
 Alpha  occ. eigenvalues --   -0.36955  -0.36157  -0.33990  -0.33287  -0.32307
 Alpha  occ. eigenvalues --   -0.29261  -0.28040  -0.27273  -0.26973  -0.24352
 Alpha virt. eigenvalues --   -0.06664  -0.04971  -0.03008  -0.02946  -0.00645
 Alpha virt. eigenvalues --   -0.00567   0.00760   0.01104   0.01452   0.01896
 Alpha virt. eigenvalues --    0.02841   0.03764   0.04361   0.04439   0.05646
 Alpha virt. eigenvalues --    0.05939   0.06063   0.06606   0.06922   0.07977
 Alpha virt. eigenvalues --    0.08015   0.08570   0.08593   0.09441   0.10104
 Alpha virt. eigenvalues --    0.10161   0.11048   0.11622   0.11838   0.12003
 Alpha virt. eigenvalues --    0.12869   0.13003   0.13642   0.14258   0.14536
 Alpha virt. eigenvalues --    0.14626   0.14781   0.15036   0.15810   0.16670
 Alpha virt. eigenvalues --    0.17318   0.17459   0.17823   0.17922   0.18393
 Alpha virt. eigenvalues --    0.18493   0.18500   0.18740   0.20300   0.20349
 Alpha virt. eigenvalues --    0.20484   0.20740   0.21148   0.21634   0.21996
 Alpha virt. eigenvalues --    0.22179   0.22627   0.23193   0.23401   0.24308
 Alpha virt. eigenvalues --    0.24507   0.25263   0.25951   0.26608   0.26983
 Alpha virt. eigenvalues --    0.27625   0.27964   0.28255   0.29467   0.30063
 Alpha virt. eigenvalues --    0.30570   0.31663   0.32045   0.33012   0.33461
 Alpha virt. eigenvalues --    0.34801   0.35748   0.36071   0.37065   0.39081
 Alpha virt. eigenvalues --    0.40879   0.42512   0.43039   0.43390   0.44464
 Alpha virt. eigenvalues --    0.45916   0.46331   0.46333   0.47252   0.48621
 Alpha virt. eigenvalues --    0.49606   0.50185   0.50793   0.51235   0.51516
 Alpha virt. eigenvalues --    0.52974   0.53971   0.54153   0.55276   0.55877
 Alpha virt. eigenvalues --    0.56518   0.57782   0.57879   0.58182   0.59091
 Alpha virt. eigenvalues --    0.59698   0.61237   0.61581   0.62118   0.63310
 Alpha virt. eigenvalues --    0.63985   0.64594   0.65543   0.66112   0.67552
 Alpha virt. eigenvalues --    0.67553   0.68438   0.68936   0.68997   0.70142
 Alpha virt. eigenvalues --    0.72734   0.75249   0.76491   0.77722   0.80108
 Alpha virt. eigenvalues --    0.81093   0.81445   0.82089   0.83070   0.83378
 Alpha virt. eigenvalues --    0.84314   0.84955   0.85369   0.85623   0.85715
 Alpha virt. eigenvalues --    0.86365   0.86507   0.87303   0.88483   0.89153
 Alpha virt. eigenvalues --    0.90501   0.90502   0.90786   0.92205   0.93601
 Alpha virt. eigenvalues --    0.94081   0.94613   0.95098   0.95988   0.96281
 Alpha virt. eigenvalues --    0.97204   0.97340   0.98506   1.00034   1.01027
 Alpha virt. eigenvalues --    1.02800   1.03107   1.04949   1.06736   1.07124
 Alpha virt. eigenvalues --    1.07498   1.09274   1.11250   1.11860   1.12696
 Alpha virt. eigenvalues --    1.12932   1.18572   1.20431   1.25218   1.25331
 Alpha virt. eigenvalues --    1.26060   1.27430   1.28489   1.30203   1.30814
 Alpha virt. eigenvalues --    1.33454   1.34924   1.38461   1.44531   1.46350
 Alpha virt. eigenvalues --    1.48088   1.49063   1.50199   1.52558   1.54146
 Alpha virt. eigenvalues --    1.54868   1.55510   1.56114   1.56490   1.59081
 Alpha virt. eigenvalues --    1.61717   1.64464   1.64903   1.66132   1.67858
 Alpha virt. eigenvalues --    1.70500   1.71398   1.72512   1.74010   1.77208
 Alpha virt. eigenvalues --    1.78165   1.83470   1.83612   1.83938   1.84463
 Alpha virt. eigenvalues --    1.86696   1.87617   1.90666   1.90741   1.92236
 Alpha virt. eigenvalues --    1.93236   1.94160   1.94870   1.96591   1.96935
 Alpha virt. eigenvalues --    1.98739   2.01012   2.01621   2.02235   2.07156
 Alpha virt. eigenvalues --    2.07404   2.09926   2.12663   2.17050   2.21701
 Alpha virt. eigenvalues --    2.23340   2.25216   2.25301   2.26232   2.28203
 Alpha virt. eigenvalues --    2.28541   2.30684   2.32273   2.35023   2.35972
 Alpha virt. eigenvalues --    2.38018   2.40355   2.42685   2.43350   2.43943
 Alpha virt. eigenvalues --    2.48656   2.52007   2.52645   2.55938   2.58459
 Alpha virt. eigenvalues --    2.60839   2.61234   2.64047   2.64313   2.65916
 Alpha virt. eigenvalues --    2.66747   2.68248   2.71208   2.72469   2.73525
 Alpha virt. eigenvalues --    2.74006   2.74179   2.75084   2.75143   2.76896
 Alpha virt. eigenvalues --    2.79097   2.81188   2.82137   2.84325   2.84389
 Alpha virt. eigenvalues --    2.85862   2.91716   2.93467   2.93618   2.95814
 Alpha virt. eigenvalues --    3.05603   3.07091   3.08150   3.09433   3.14667
 Alpha virt. eigenvalues --    3.18031   3.19780   3.21945   3.23294   3.33081
 Alpha virt. eigenvalues --    3.35787   3.38878   3.41660   3.49870   3.52590
 Alpha virt. eigenvalues --    3.57729   3.60391   3.69242   3.72279   3.80242
 Alpha virt. eigenvalues --    3.94941   4.01935   4.05658   4.11221   4.17053
 Alpha virt. eigenvalues --    4.21014   4.46935   4.79992   4.83720   9.77166
 Alpha virt. eigenvalues --    9.78089   9.87155  23.42599  23.60541  23.85792
 Alpha virt. eigenvalues --   23.87916  23.89006  23.96359  23.97514  24.01651
 Alpha virt. eigenvalues --   24.03185  24.07623  24.12298  24.15126  25.78603
 Alpha virt. eigenvalues --   25.82717  25.88185  26.12418  26.15799  26.48648
 Alpha virt. eigenvalues --   26.59742  26.75920  26.84145 215.76323 215.77340
 Alpha virt. eigenvalues --  215.89480
          Condensed to atoms (all electrons):
               1          2          3          4          5          6
     1  C   13.403555  -1.710584   1.699200  -2.755397  -3.227153   0.523334
     2  C   -1.710584  18.119052  -1.561063   0.192704  -0.746271  -5.085125
     3  C    1.699200  -1.561063  16.728433  -1.538026  -5.076527  -1.761794
     4  C   -2.755397   0.192704  -1.538026  12.789420   1.791627  -2.369887
     5  C   -3.227153  -0.746271  -5.076527   1.791627  11.253831   2.064606
     6  C    0.523334  -5.085125  -1.761794  -2.369887   2.064606  13.486616
     7  C    3.864701  -2.166344  -0.429897  -1.069878  -0.775312   0.159940
     8  C   -1.937447   5.634807  -0.419523   0.053546  -0.651423  -3.618312
     9  C   -0.741116  -3.070432  -0.174609  -0.358521   0.120392   0.950796
    10  C   -0.154033   1.468428  -0.121011   0.068215  -0.081329  -0.646930
    11  C   -1.638006  -1.682033  -0.404115  -0.056951   0.549942   1.112829
    12  C   -1.617644  -3.733135  -0.504808  -0.310093   0.818992   2.803583
    13  H    0.078245   0.276919  -0.109829  -0.047132  -0.023935   0.009527
    14  H    0.019354  -0.049931   0.267234   0.067402   0.039056   0.004306
    15  H    0.077671  -0.024503   0.062295  -0.000584   0.287239  -0.060885
    16  H   -0.300217  -0.034549  -0.054429   0.033870   0.111409   0.611074
    17  H    0.039566   0.064048   0.038397   0.000544  -0.002900  -0.005646
    18  H   -0.001796   0.014430   0.000650   0.000156  -0.000134  -0.002342
    19  H    0.003890   0.001206   0.000249   0.000022   0.000036   0.000708
    20  Cl   0.649069   0.575244  -0.037491  -0.129789  -0.655716  -1.531239
    21  Cl  -0.238740  -0.150855  -0.003361  -0.003991   0.043950   0.125361
    22  Cl  -0.210971   0.037117   0.126897  -1.113477   0.424323   0.029658
               7          8          9         10         11         12
     1  C    3.864701  -1.937447  -0.741116  -0.154033  -1.638006  -1.617644
     2  C   -2.166344   5.634807  -3.070432   1.468428  -1.682033  -3.733135
     3  C   -0.429897  -0.419523  -0.174609  -0.121011  -0.404115  -0.504808
     4  C   -1.069878   0.053546  -0.358521   0.068215  -0.056951  -0.310093
     5  C   -0.775312  -0.651423   0.120392  -0.081329   0.549942   0.818992
     6  C    0.159940  -3.618312   0.950796  -0.646930   1.112829   2.803583
     7  C   12.378406  -4.074145  -0.804411  -1.636400   0.082272   0.856150
     8  C   -4.074145  18.117233  -4.701563   3.872677  -4.198182  -2.959554
     9  C   -0.804411  -4.701563  12.393675  -0.209845   0.705212   1.671067
    10  C   -1.636400   3.872677  -0.209845  15.899379  -7.593724  -4.741656
    11  C    0.082272  -4.198182   0.705212  -7.593724  16.953748   2.185239
    12  C    0.856150  -2.959554   1.671067  -4.741656   2.185239  13.323754
    13  H    0.071809  -0.008890   0.039989  -0.005271   0.006290   0.031259
    14  H    0.000279   0.008188  -0.001192   0.000350  -0.000116   0.001701
    15  H    0.015539   0.001547   0.000796  -0.000298  -0.000715   0.003319
    16  H   -0.087574  -0.029692  -0.003014  -0.004249   0.040583   0.182903
    17  H    0.031046   0.370693  -0.143391  -0.009735  -0.011134  -0.046778
    18  H    0.017419   0.021205   0.335548   0.019602  -0.046793  -0.008888
    19  H    0.036044  -0.014764  -0.074188   0.337491   0.030953   0.031813
    20  Cl  -0.045937   0.923542   0.074202   0.886710  -0.150443  -2.167093
    21  Cl  -0.420025  -0.202172   0.295205  -0.669419  -0.344953   0.931797
    22  Cl  -0.057386  -0.021544  -0.005386  -0.000313   0.000077  -0.026642
              13         14         15         16         17         18
     1  C    0.078245   0.019354   0.077671  -0.300217   0.039566  -0.001796
     2  C    0.276919  -0.049931  -0.024503  -0.034549   0.064048   0.014430
     3  C   -0.109829   0.267234   0.062295  -0.054429   0.038397   0.000650
     4  C   -0.047132   0.067402  -0.000584   0.033870   0.000544   0.000156
     5  C   -0.023935   0.039056   0.287239   0.111409  -0.002900  -0.000134
     6  C    0.009527   0.004306  -0.060885   0.611074  -0.005646  -0.002342
     7  C    0.071809   0.000279   0.015539  -0.087574   0.031046   0.017419
     8  C   -0.008890   0.008188   0.001547  -0.029692   0.370693   0.021205
     9  C    0.039989  -0.001192   0.000796  -0.003014  -0.143391   0.335548
    10  C   -0.005271   0.000350  -0.000298  -0.004249  -0.009735   0.019602
    11  C    0.006290  -0.000116  -0.000715   0.040583  -0.011134  -0.046793
    12  C    0.031259   0.001701   0.003319   0.182903  -0.046778  -0.008888
    13  H    0.565122  -0.007980   0.000104  -0.000268   0.001497  -0.000006
    14  H   -0.007980   0.518582  -0.000374   0.000109   0.000017   0.000000
    15  H    0.000104  -0.000374   0.528370  -0.014612   0.000000   0.000000
    16  H   -0.000268   0.000109  -0.014612   0.704260  -0.000094  -0.000001
    17  H    0.001497   0.000017   0.000000  -0.000094   0.553742  -0.006591
    18  H   -0.000006   0.000000   0.000000  -0.000001  -0.006591   0.527039
    19  H   -0.000001  -0.000000  -0.000000   0.000003  -0.000242  -0.007355
    20  Cl   0.000073  -0.000072   0.001896  -0.288663  -0.000843   0.001001
    21  Cl   0.000100  -0.000002   0.000004   0.006016   0.000558  -0.000687
    22  Cl  -0.000311  -0.012299  -0.014268   0.000880   0.000013  -0.000000
              19         20         21         22
     1  C    0.003890   0.649069  -0.238740  -0.210971
     2  C    0.001206   0.575244  -0.150855   0.037117
     3  C    0.000249  -0.037491  -0.003361   0.126897
     4  C    0.000022  -0.129789  -0.003991  -1.113477
     5  C    0.000036  -0.655716   0.043950   0.424323
     6  C    0.000708  -1.531239   0.125361   0.029658
     7  C    0.036044  -0.045937  -0.420025  -0.057386
     8  C   -0.014764   0.923542  -0.202172  -0.021544
     9  C   -0.074188   0.074202   0.295205  -0.005386
    10  C    0.337491   0.886710  -0.669419  -0.000313
    11  C    0.030953  -0.150443  -0.344953   0.000077
    12  C    0.031813  -2.167093   0.931797  -0.026642
    13  H   -0.000001   0.000073   0.000100  -0.000311
    14  H   -0.000000  -0.000072  -0.000002  -0.012299
    15  H   -0.000000   0.001896   0.000004  -0.014268
    16  H    0.000003  -0.288663   0.006016   0.000880
    17  H   -0.000242  -0.000843   0.000558   0.000013
    18  H   -0.007355   0.001001  -0.000687  -0.000000
    19  H    0.508343   0.000231  -0.005534   0.000000
    20  Cl   0.000231  18.466290  -0.271254  -0.001041
    21  Cl  -0.005534  -0.271254  17.382424  -0.000036
    22  Cl   0.000000  -0.001041  -0.000036  17.433522
 Mulliken charges:
               1
     1  C    0.174521
     2  C   -0.369130
     3  C   -0.726870
     4  C    0.756222
     5  C   -0.264702
     6  C   -0.800178
     7  C    0.053704
     8  C   -0.166225
     9  C   -0.299214
    10  C   -0.678640
    11  C    0.460020
    12  C   -0.725288
    13  H    0.122689
    14  H    0.145385
    15  H    0.137457
    16  H    0.126253
    17  H    0.127233
    18  H    0.137543
    19  H    0.151096
    20  Cl   0.701325
    21  Cl   0.525614
    22  Cl   0.411187
 Sum of Mulliken charges =  -0.00000
 Mulliken charges with hydrogens summed into heavy atoms:
               1
     1  C    0.174521
     2  C   -0.246442
     3  C   -0.581485
     4  C    0.756222
     5  C   -0.127245
     6  C   -0.673925
     7  C    0.053704
     8  C   -0.038992
     9  C   -0.161672
    10  C   -0.527544
    11  C    0.460020
    12  C   -0.725288
    20  Cl   0.701325
    21  Cl   0.525614
    22  Cl   0.411187
 Electronic spatial extent (au):  <R**2>=           5554.9499
 Charge=             -0.0000 electrons
 Dipole moment (field-independent basis, Debye):
    X=             -1.4300    Y=              2.4986    Z=             -0.0000  Tot=              2.8789
 Quadrupole moment (field-independent basis, Debye-Ang):
   XX=           -115.1770   YY=            -95.6909   ZZ=           -112.6743
   XY=             -4.5136   XZ=              0.0000   YZ=             -0.0000
 Traceless Quadrupole moment (field-independent basis, Debye-Ang):
   XX=             -7.3295   YY=             12.1565   ZZ=             -4.8269
   XY=             -4.5136   XZ=              0.0000   YZ=             -0.0000
 Octapole moment (field-independent basis, Debye-Ang**2):
  XXX=            -59.9646  YYY=              2.8521  ZZZ=             -0.0001  XYY=             -1.2168
  XXY=             24.9755  XXZ=             -0.0001  XZZ=             -1.6147  YZZ=            -10.7282
  YYZ=             -0.0000  XYZ=             -0.0000
 Hexadecapole moment (field-independent basis, Debye-Ang**3):
 XXXX=          -6156.2583 YYYY=          -1171.4760 ZZZZ=           -132.8112 XXXY=            -23.6855
 XXXZ=              0.0003 YYYX=             -7.3399 YYYZ=             -0.0002 ZZZX=              0.0000
 ZZZY=              0.0000 XXYY=          -1133.3294 XXZZ=          -1070.3647 YYZZ=           -258.5908
 XXYZ=             -0.0002 YYXZ=              0.0001 ZZXY=             14.6295
 N-N= 1.192591855076D+03 E-N=-6.737218304435D+03  KE= 1.837160758826D+03
 Calling FoFJK, ICntrl=      2127 FMM=F ISym2X=0 I1Cent= 0 IOpClX= 0 NMat=1 NMatS=1 NMatT=0.
 ***** Axes restored to original set *****
 -------------------------------------------------------------------
 Center     Atomic                   Forces (Hartrees/Bohr)
 Number     Number              X              Y              Z
 -------------------------------------------------------------------
      1        6          -0.015288555   -0.026394974    0.000079580
      2        6          -0.003994462    0.021531544    0.005359946
      3        6          -0.010633389   -0.002840027    0.002969958
      4        6          -0.008244874   -0.008870747    0.001050068
      5        6           0.013411158   -0.011633509   -0.006603186
      6        6           0.048728483    0.030520409   -0.010322022
      7        6           0.019870768    0.033434724   -0.000267054
      8        6          -0.021844574   -0.011124090    0.005107712
      9        6          -0.005682713    0.019402769    0.005516164
     10        6           0.007084903    0.011379477   -0.000196969
     11        6          -0.000754024   -0.001547836   -0.000042090
     12        6           0.001091510   -0.005706134   -0.001431362
     13        1           0.007041383   -0.003228905   -0.002926298
     14        1           0.008687383    0.000655778   -0.002738930
     15        1          -0.003737821    0.008230553    0.002777248
     16        1           0.041276855    0.027901846   -0.008359017
     17        1           0.005756716   -0.001646931   -0.002206016
     18        1           0.003316852   -0.008288343   -0.002649352
     19        1          -0.006008864   -0.006428336    0.000772314
     20       17          -0.085093683   -0.059318541    0.016894507
     21       17           0.005438724   -0.003998163   -0.002542813
     22       17          -0.000421776   -0.002030561   -0.000242389
 -------------------------------------------------------------------
 Cartesian Forces:  Max     0.085093683 RMS     0.018416778

 GradGradGradGradGradGradGradGradGradGradGradGradGradGradGradGradGradGrad
 Berny optimization.
 FormGI is forming the generalized inverse of G from B-inverse, IUseBI=4.
 Internal  Forces:  Max     0.278424818 RMS     0.050752945
 Search for a local minimum.
 Step number   1 out of a maximum of  121
 All quantities printed in internal units (Hartrees-Bohrs-Radians)
 Mixed Optimization -- RFO/linear search
 Second derivative matrix not updated -- first step.
 ITU=  0
     Eigenvalues ---    0.00237   0.01506   0.01506   0.02070   0.02070
     Eigenvalues ---    0.02070   0.02070   0.02070   0.02070   0.02070
     Eigenvalues ---    0.02070   0.02070   0.02070   0.02070   0.02070
     Eigenvalues ---    0.02070   0.02070   0.02070   0.02070   0.16000
     Eigenvalues ---    0.16000   0.16000   0.16000   0.16000   0.16000
     Eigenvalues ---    0.16000   0.22000   0.22085   0.22981   0.23478
     Eigenvalues ---    0.24000   0.24913   0.25000   0.25000   0.25000
     Eigenvalues ---    0.25000   0.25000   0.28519   0.29539   0.29539
     Eigenvalues ---    0.29539   0.37230   0.37230   0.37230   0.37230
     Eigenvalues ---    0.37230   0.37230   0.37230   0.41268   0.41535
     Eigenvalues ---    0.41554   0.41640   0.45389   0.45389   0.45389
     Eigenvalues ---    0.45389   0.45389   0.45389   0.45389   0.45389
 RFO step:  Lambda=-4.19577488D-01 EMin= 2.36824243D-03
 Linear search not attempted -- first point.
 Maximum step size (   0.300) exceeded in Quadratic search.
    -- Step size scaled by   0.382
 Iteration  1 RMS(Cart)=  0.19942628 RMS(Int)=  0.00997555
 Iteration  2 RMS(Cart)=  0.03642408 RMS(Int)=  0.00030753
 Iteration  3 RMS(Cart)=  0.00057771 RMS(Int)=  0.00004688
 Iteration  4 RMS(Cart)=  0.00000018 RMS(Int)=  0.00004688
 Variable       Old X    -DE/DX   Delta X   Delta X   Delta X     New X
                                 (Linear)    (Quad)   (Total)
    R1        2.64826   0.01747   0.00000   0.00792   0.00797   2.65623
    R2        2.64826   0.01755   0.00000   0.00805   0.00809   2.65636
    R3        2.91018   0.06809   0.00000   0.03687   0.03687   2.94705
    R4        2.64826  -0.01355   0.00000  -0.00602  -0.00601   2.64225
    R5        2.02201   0.00675   0.00000   0.00325   0.00325   2.02526
    R6        2.64826  -0.02759   0.00000  -0.01244  -0.01248   2.63578
    R7        2.02201   0.00912   0.00000   0.00439   0.00439   2.02640
    R8        2.64826  -0.02563   0.00000  -0.01148  -0.01153   2.63673
    R9        3.32592  -0.00196   0.00000  -0.00105  -0.00105   3.32487
   R10        2.64826  -0.00114   0.00000  -0.00040  -0.00040   2.64786
   R11        2.02201   0.00944   0.00000   0.00455   0.00455   2.02656
   R12        2.02201  -0.04242   0.00000  -0.02044  -0.02044   2.00156
   R13        2.64826   0.01913   0.00000   0.00888   0.00898   2.65724
   R14        2.64826   0.12216   0.00000   0.05462   0.05470   2.70296
   R15        2.64826  -0.02288   0.00000  -0.01073  -0.01071   2.63755
   R16        2.02201   0.00612   0.00000   0.00295   0.00295   2.02496
   R17        2.64826  -0.04222   0.00000  -0.01970  -0.01978   2.62849
   R18        2.02201   0.00926   0.00000   0.00446   0.00446   2.02647
   R19        2.64826  -0.03158   0.00000  -0.01432  -0.01442   2.63384
   R20        2.02201   0.00859   0.00000   0.00414   0.00414   2.02614
   R21        2.64826   0.01209   0.00000   0.00602   0.00599   2.65426
   R22        3.32592  -0.00587   0.00000  -0.00313  -0.00313   3.32278
   R23        3.32592  -0.00686   0.00000  -0.00366  -0.00366   3.32226
    A1        2.09440  -0.06282   0.00000  -0.03522  -0.03512   2.05927
    A2        2.09440  -0.13245   0.00000  -0.07577  -0.07582   2.01858
    A3        2.09440   0.19528   0.00000   0.11099   0.11094   2.20534
    A4        2.09440   0.03953   0.00000   0.02353   0.02358   2.11797
    A5        2.09440  -0.01491   0.00000  -0.00857  -0.00859   2.08580
    A6        2.09440  -0.02462   0.00000  -0.01496  -0.01498   2.07941
    A7        2.09440  -0.00119   0.00000  -0.00170  -0.00174   2.09266
    A8        2.09440   0.00107   0.00000   0.00116   0.00118   2.09558
    A9        2.09440   0.00012   0.00000   0.00054   0.00056   2.09495
   A10        2.09440  -0.00800   0.00000  -0.00575  -0.00585   2.08855
   A11        2.09440   0.00282   0.00000   0.00221   0.00225   2.09665
   A12        2.09440   0.00518   0.00000   0.00355   0.00359   2.09799
   A13        2.09440   0.01064   0.00000   0.00576   0.00571   2.10010
   A14        2.09440  -0.00588   0.00000  -0.00325  -0.00323   2.09117
   A15        2.09440  -0.00475   0.00000  -0.00251  -0.00248   2.09191
   A16        2.09440   0.02185   0.00000   0.01338   0.01342   2.10782
   A17        2.09440   0.01681   0.00000   0.01157   0.01155   2.10594
   A18        2.09440  -0.03865   0.00000  -0.02495  -0.02497   2.06943
   A19        2.09440  -0.20246   0.00000  -0.11646  -0.11655   1.97784
   A20        2.09440   0.27842   0.00000   0.15758   0.15749   2.25188
   A21        2.09440  -0.07596   0.00000  -0.04113  -0.04094   2.05346
   A22        2.09440   0.05846   0.00000   0.03437   0.03450   2.12889
   A23        2.09440  -0.02741   0.00000  -0.01599  -0.01605   2.07835
   A24        2.09440  -0.03106   0.00000  -0.01839  -0.01845   2.07594
   A25        2.09440   0.00350   0.00000  -0.00089  -0.00095   2.09345
   A26        2.09440  -0.00077   0.00000   0.00108   0.00112   2.09551
   A27        2.09440  -0.00272   0.00000  -0.00020  -0.00017   2.09423
   A28        2.09440  -0.00793   0.00000  -0.00740  -0.00759   2.08680
   A29        2.09440   0.00606   0.00000   0.00508   0.00518   2.09957
   A30        2.09440   0.00187   0.00000   0.00232   0.00242   2.09681
   A31        2.09440   0.04075   0.00000   0.02332   0.02319   2.11759
   A32        2.09440  -0.02734   0.00000  -0.01563  -0.01557   2.07883
   A33        2.09440  -0.01341   0.00000  -0.00769  -0.00763   2.08677
   A34        2.09440  -0.01882   0.00000  -0.00828  -0.00822   2.08618
   A35        2.09440   0.18381   0.00000   0.10352   0.10349   2.19789
   A36        2.09440  -0.16499   0.00000  -0.09525  -0.09528   1.99912
    D1        0.00000   0.00000   0.00000   0.00000   0.00000   0.00000
    D2        3.14159   0.00000   0.00000   0.00000   0.00000   3.14159
    D3       -3.14159   0.00000   0.00000  -0.00000  -0.00000  -3.14159
    D4       -0.00000  -0.00000   0.00000  -0.00000  -0.00000  -0.00000
    D5       -0.00000  -0.00000   0.00000  -0.00000  -0.00000  -0.00000
    D6        3.14159  -0.00000   0.00000  -0.00000  -0.00000   3.14159
    D7        3.14159   0.00000   0.00000   0.00000   0.00000   3.14159
    D8        0.00000  -0.00000   0.00000  -0.00000  -0.00000   0.00000
    D9       -0.00000  -0.00000   0.00000  -0.00000  -0.00000  -0.00000
   D10        3.14159  -0.00000   0.00000  -0.00000  -0.00000   3.14159
   D11        3.14159  -0.00000   0.00000  -0.00000  -0.00000   3.14159
   D12       -0.00000  -0.00000   0.00000  -0.00000  -0.00000  -0.00000
   D13        0.00000  -0.00000   0.00000  -0.00000  -0.00000   0.00000
   D14        3.14159  -0.00000   0.00000  -0.00000  -0.00000   3.14159
   D15       -3.14159  -0.00000   0.00000  -0.00000  -0.00000  -3.14159
   D16        0.00000  -0.00000   0.00000  -0.00000  -0.00000   0.00000
   D17       -0.00000   0.00000   0.00000   0.00000   0.00000  -0.00000
   D18        3.14159   0.00000   0.00000   0.00000   0.00000   3.14159
   D19        3.14159  -0.00000   0.00000  -0.00000  -0.00000   3.14159
   D20        0.00000  -0.00000   0.00000  -0.00000  -0.00000   0.00000
   D21        0.00000   0.00000   0.00000   0.00000   0.00000   0.00000
   D22       -3.14159   0.00000   0.00000   0.00000   0.00000  -3.14159
   D23       -3.14159  -0.00000   0.00000  -0.00000  -0.00000  -3.14159
   D24        0.00000   0.00000   0.00000   0.00000   0.00000   0.00000
   D25       -0.00000   0.00000   0.00000   0.00000   0.00000  -0.00000
   D26        3.14159   0.00000   0.00000   0.00000   0.00000   3.14159
   D27        3.14159   0.00000   0.00000   0.00000   0.00000   3.14159
   D28       -0.00000   0.00000   0.00000   0.00000   0.00000  -0.00000
   D29        3.14159   0.00000   0.00000   0.00000   0.00000   3.14159
   D30        0.00000   0.00000   0.00000   0.00000   0.00000   0.00000
   D31        0.00000   0.00000   0.00000   0.00000   0.00000   0.00000
   D32       -3.14159  -0.00000   0.00000  -0.00000  -0.00000  -3.14159
   D33       -3.14159   0.00000   0.00000   0.00000   0.00000  -3.14159
   D34        0.00000  -0.00000   0.00000  -0.00000  -0.00000   0.00000
   D35       -0.00000  -0.00000   0.00000  -0.00000  -0.00000  -0.00000
   D36        3.14159  -0.00000   0.00000  -0.00000  -0.00000   3.14159
   D37       -0.00000   0.00000   0.00000  -0.00000  -0.00000  -0.00000
   D38        3.14159  -0.00000   0.00000  -0.00000  -0.00000   3.14159
   D39        3.14159   0.00000   0.00000   0.00000   0.00000   3.14159
   D40       -0.00000   0.00000   0.00000   0.00000   0.00000  -0.00000
   D41       -0.00000  -0.00000   0.00000  -0.00000  -0.00000  -0.00000
   D42       -3.14159  -0.00000   0.00000  -0.00000  -0.00000  -3.14159
   D43        3.14159   0.00000   0.00000  -0.00000   0.00000   3.14159
   D44        0.00000  -0.00000   0.00000  -0.00000  -0.00000   0.00000
   D45        0.00000   0.00000   0.00000   0.00000   0.00000   0.00000
   D46       -3.14159  -0.00000   0.00000  -0.00000  -0.00000  -3.14159
   D47        3.14159   0.00000   0.00000   0.00000   0.00000   3.14159
   D48        0.00000  -0.00000   0.00000  -0.00000  -0.00000   0.00000
   D49        0.00000   0.00000   0.00000   0.00000   0.00000   0.00000
   D50       -3.14159   0.00000   0.00000   0.00000   0.00000  -3.14159
   D51        3.14159   0.00000   0.00000   0.00000   0.00000   3.14159
   D52       -0.00000   0.00000   0.00000   0.00000   0.00000  -0.00000
         Item               Value     Threshold  Converged?
 Maximum Force            0.278425     0.000450     NO 
 RMS     Force            0.050753     0.000300     NO 
 Maximum Displacement     0.976228     0.001800     NO 
 RMS     Displacement     0.231123     0.001200     NO 
 Predicted change in Energy=-1.484326D-01
 GradGradGradGradGradGradGradGradGradGradGradGradGradGradGradGradGradGrad

                          Input orientation:                          
 ---------------------------------------------------------------------
 Center     Atomic      Atomic             Coordinates (Angstroms)
 Number     Number       Type             X           Y           Z
 ---------------------------------------------------------------------
      1          6           0       -0.440523   -0.101006    0.060962
      2          6           0        0.884367   -0.209298   -0.395867
      3          6           0        1.724217    0.906569   -0.462989
      4          6           0        1.249776    2.158430   -0.071571
      5          6           0       -0.062342    2.287815    0.385010
      6          6           0       -0.902035    1.168067    0.451352
      7          6           0       -1.258453   -1.428656    0.081089
      8          6           0       -0.525499   -2.540951   -0.369287
      9          6           0       -1.082491   -3.819476   -0.425901
     10          6           0       -2.400453   -4.020835   -0.029505
     11          6           0       -3.155503   -2.939908    0.422260
     12          6           0       -2.612821   -1.646001    0.486477
     13          1           0        1.261495   -1.165365   -0.699670
     14          1           0        2.731605    0.800406   -0.814816
     15          1           0       -0.429618    3.249185    0.686563
     16          1           0       -1.892921    1.298079    0.802220
     17          1           0        0.491290   -2.404114   -0.678574
     18          1           0       -0.495350   -4.646288   -0.774621
     19          1           0       -2.833989   -5.000601   -0.070681
     20         17           0       -3.721046   -0.418104    1.082203
     21         17           0       -4.820347   -3.208103    0.920390
     22         17           0        2.301412    3.566615   -0.153566
 ---------------------------------------------------------------------
                    Distance matrix (angstroms):
                    1          2          3          4          5
     1  C    0.000000
     2  C    1.405615   0.000000
     3  C    2.444551   1.398218   0.000000
     4  C    2.824841   2.417607   1.394796   0.000000
     5  C    2.440184   2.782374   2.412205   1.395299   0.000000
     6  C    1.405683   2.409595   2.793135   2.425811   1.401186
     7  C    1.559509   2.511175   3.826960   4.379692   3.916020
     8  C    2.479045   2.724892   4.117694   5.032337   4.909222
     9  C    3.804757   4.111304   5.496771   6.426537   6.244781
    10  C    4.383443   5.045006   6.440507   7.176995   6.740746
    11  C    3.944746   4.944302   6.276203   6.755990   6.074383
    12  C    2.699436   3.882393   5.121230   5.450208   4.689366
    13  H    2.146692   1.071721   2.136127   3.382640   3.854027
    14  H    3.412026   2.146463   1.072326   2.143002   3.384982
    15  H    3.408119   3.854778   3.383537   2.141233   1.072407
    16  H    2.148573   3.379487   3.851977   3.373464   2.122420
    17  H    2.592199   2.247588   3.539380   4.664822   4.842718
    18  H    4.621774   4.661969   5.988140   7.060023   7.043723
    19  H    5.454543   6.073591   7.471667   8.241896   7.810934
    20  Cl   3.450408   4.841294   5.813198   5.716537   4.603715
    21  Cl   5.438339   6.577928   7.853380   8.162723   7.289058
    22  Cl   4.584285   4.040327   2.739478   1.759445   2.740935
                    6          7          8          9         10
     6  C    0.000000
     7  C    2.647093   0.000000
     8  C    3.817334   1.406151   0.000000
     9  C    5.067319   2.450310   1.395733   0.000000
    10  C    5.422286   2.834746   2.412667   1.390935   0.000000
    11  C    4.685555   2.449302   2.775362   2.406325   1.393771
    12  C    3.293479   1.430346   2.426969   2.810398   2.439503
    13  H    3.383876   2.651235   2.279198   3.551553   4.691770
    14  H    3.865449   4.657459   4.687418   6.003490   7.085132
    15  H    2.146987   4.789130   5.886398   7.185387   7.566382
    16  H    1.059182   2.890962   4.240333   5.324889   5.407421
    17  H    3.997320   2.142476   1.071561   2.131637   3.375982
    18  H    5.956101   3.415805   2.144213   1.072362   2.139114
    19  H    6.485170   3.906935   3.386469   2.142191   1.072189
    20  Cl   3.295563   2.843908   4.101807   4.561325   3.994939
    21  Cl   5.892710   4.069145   4.533660   4.019682   2.723732
    22  Cl   4.047349   6.138439   6.733522   8.128918   8.927056
                   11         12         13         14         15
    11  C    0.000000
    12  C    1.404572   0.000000
    13  H    4.890564   4.080231   0.000000
    14  H    7.083667   6.020063   2.457383   0.000000
    15  H    6.767952   5.363698   4.926434   4.271297   0.000000
    16  H    4.438357   3.047221   4.274877   4.924299   2.441608
    17  H    3.846818   3.401115   1.458823   3.912355   5.888247
    18  H    3.379449   3.882754   3.899866   6.330982   8.029812
    19  H    2.143086   3.407738   5.646031   8.073491   8.626319
    20  Cl   2.667369   1.758063   5.344080   6.835214   4.943585
    21  Cl   1.758342   2.738907   6.617113   8.724165   7.812154
    22  Cl   8.511424   7.192406   4.875581   2.876496   2.874909
                   16         17         18         19         20
    16  H    0.000000
    17  H    4.645799   0.000000
    18  H    6.306753   2.451536   0.000000
    19  H    6.428136   4.262482   2.467854   0.000000
    20  Cl   2.523036   4.978790   5.632980   4.807837   0.000000
    21  Cl   5.374892   5.605048   4.862822   2.853224   3.003122
    22  Cl   4.863355   6.261133   8.698239   9.988814   7.326330
                   21         22
    21  Cl   0.000000
    22  Cl   9.887853   0.000000
 Stoichiometry    C12H7Cl3
 Framework group  C1[X(C12H7Cl3)]
 Deg. of freedom    60
 Full point group                 C1      NOp   1
 Largest Abelian subgroup         C1      NOp   1
 Largest concise Abelian subgroup C1      NOp   1
                         Standard orientation:                         
 ---------------------------------------------------------------------
 Center     Atomic      Atomic             Coordinates (Angstroms)
 Number     Number       Type             X           Y           Z
 ---------------------------------------------------------------------
      1          6           0        0.868531    0.277203    0.000003
      2          6           0        1.746315    1.375041   -0.000001
      3          6           0        3.133220    1.197537   -0.000002
      4          6           0        3.669392   -0.090087   -0.000001
      5          6           0        2.815591   -1.193665    0.000005
      6          6           0        1.426078   -1.013179    0.000006
      7          6           0       -0.651079    0.627711    0.000003
      8          6           0       -0.903312    2.011054    0.000002
      9          6           0       -2.200646    2.525832    0.000001
     10          6           0       -3.290543    1.661643    0.000001
     11          6           0       -3.076208    0.284451    0.000001
     12          6           0       -1.778391   -0.252663    0.000002
     13          1           0        1.347477    2.369784   -0.000004
     14          1           0        3.783945    2.049851   -0.000005
     15          1           0        3.225238   -2.184748    0.000008
     16          1           0        0.803951   -1.870399    0.000009
     17          1           0       -0.075449    2.691410   -0.000000
     18          1           0       -2.357686    3.586633    0.000001
     19          1           0       -4.289545    2.050982   -0.000001
     20         17           0       -1.715243   -2.009592   -0.000000
     21         17           0       -4.462665   -0.796985   -0.000004
     22         17           0        5.413696   -0.320411   -0.000003
 ---------------------------------------------------------------------
 Rotational constants (GHZ):           1.1380595           0.1889374           0.1620365
 Standard basis: 6-311+G(d,p) (5D, 7F)
 There are   411 symmetry adapted cartesian basis functions of A   symmetry.
 There are   396 symmetry adapted basis functions of A   symmetry.
   396 basis functions,   647 primitive gaussians,   411 cartesian basis functions
    65 alpha electrons       65 beta electrons
       nuclear repulsion energy      1173.7164340096 Hartrees.
 NAtoms=   22 NActive=   22 NUniq=   22 SFac= 1.00D+00 NAtFMM=   60 NAOKFM=F Big=F
 Integral buffers will be    131072 words long.
 Raffenetti 2 integral format.
 Two-electron integral symmetry is turned on.
 One-electron integrals computed using PRISM.
 NBasis=   396 RedAO= T EigKep=  1.61D-06  NBF=   396
 NBsUse=   391 1.00D-06 EigRej=  7.64D-07 NBFU=   391
 Initial guess from the checkpoint file:  "/scratch/pkc/Gau-17829.chk"
 B after Tr=    -0.000000   -0.000000    0.000000
         Rot=    0.999778   -0.000000   -0.000000    0.021082 Ang=  -2.42 deg.
 ExpMin= 4.38D-02 ExpMax= 1.06D+05 ExpMxC= 3.62D+03 IAcc=3 IRadAn=         5 AccDes= 0.00D+00
 Harris functional with IExCor=  402 and IRadAn=       5 diagonalized for initial guess.
 HarFok:  IExCor=  402 AccDes= 0.00D+00 IRadAn=         5 IDoV= 1 UseB2=F ITyADJ=14
 ICtDFT=  3500011 ScaDFX=  1.000000  1.000000  1.000000  1.000000
 FoFCou: FMM=F IPFlag=           0 FMFlag=      100000 FMFlg1=           0
         NFxFlg=           0 DoJE=T BraDBF=F KetDBF=T FulRan=T
         wScrn=  0.000000 ICntrl=       500 IOpCl=  0 I1Cent=   200000004 NGrid=           0
         NMat0=    1 NMatS0=      1 NMatT0=    0 NMatD0=    1 NMtDS0=    0 NMtDT0=    0
 Petite list used in FoFCou.
 Requested convergence on RMS density matrix=1.00D-08 within  32 cycles.
 Requested convergence on MAX density matrix=1.00D-06.
 Requested convergence on             energy=1.00D-06.
 No special actions if energy rises.
 SCF Done:  E(RB3LYP) =  -1842.25744683     A.U. after   16 cycles
            NFock= 16  Conv=0.79D-08     -V/T= 2.0029
 QCSCF skips out because SCF is already converged.
 Calling FoFJK, ICntrl=      2127 FMM=F ISym2X=0 I1Cent= 0 IOpClX= 0 NMat=1 NMatS=1 NMatT=0.
 ***** Axes restored to original set *****
 -------------------------------------------------------------------
 Center     Atomic                   Forces (Hartrees/Bohr)
 Number     Number              X              Y              Z
 -------------------------------------------------------------------
      1        6          -0.015076139   -0.022122631    0.000812018
      2        6           0.002293326    0.024654120    0.003874857
      3        6          -0.008332069   -0.002809104    0.002217580
      4        6          -0.006465851   -0.005181061    0.001156913
      5        6           0.003006177   -0.008529173   -0.002592202
      6        6           0.018533794   -0.002587094   -0.006591878
      7        6           0.009042687    0.023356116    0.001407473
      8        6          -0.021821699   -0.016310967    0.004126012
      9        6          -0.004087852    0.013978024    0.003971901
     10        6           0.002015167    0.005728868    0.000412061
     11        6           0.001500585   -0.001103048   -0.000701366
     12        6           0.008944853   -0.001971048   -0.003317186
     13        1           0.010218210    0.008577309   -0.001755582
     14        1           0.007009185   -0.000694642   -0.002439660
     15        1          -0.002783138    0.006401859    0.002119287
     16        1          -0.013070921    0.001938715    0.004670343
     17        1          -0.003674630   -0.010244391   -0.000713516
     18        1           0.003942946   -0.006110938   -0.002446686
     19        1          -0.004499758   -0.005763523    0.000399983
     20       17           0.011256605    0.007858796   -0.002232657
     21       17           0.003697014   -0.006802429   -0.002495657
     22       17          -0.001648495   -0.002263756    0.000117961
 -------------------------------------------------------------------
 Cartesian Forces:  Max     0.024654120 RMS     0.008454283

 GradGradGradGradGradGradGradGradGradGradGradGradGradGradGradGradGradGrad
 Berny optimization.
 Using GEDIIS/GDIIS optimizer.
 FormGI is forming the generalized inverse of G from B-inverse, IUseBI=4.
 Internal  Forces:  Max     0.063577200 RMS     0.011979374
 Search for a local minimum.
 Step number   2 out of a maximum of  121
 All quantities printed in internal units (Hartrees-Bohrs-Radians)
 Mixed Optimization -- RFO/linear search
 Update second derivatives using D2CorX and points    1    2
 DE= -3.77D-02 DEPred=-1.48D-01 R= 2.54D-01
 Trust test= 2.54D-01 RLast= 3.00D-01 DXMaxT set to 3.00D-01
 ITU=  0  0
 Use linear search instead of GDIIS.
     Eigenvalues ---    0.00237   0.01479   0.01484   0.02070   0.02070
     Eigenvalues ---    0.02070   0.02070   0.02070   0.02070   0.02070
     Eigenvalues ---    0.02070   0.02070   0.02070   0.02070   0.02070
     Eigenvalues ---    0.02070   0.02070   0.02070   0.02070   0.15969
     Eigenvalues ---    0.16000   0.16000   0.16000   0.16000   0.16000
     Eigenvalues ---    0.16035   0.22003   0.22093   0.22933   0.23416
     Eigenvalues ---    0.23957   0.24854   0.24951   0.25000   0.25000
     Eigenvalues ---    0.25000   0.28448   0.29535   0.29539   0.29539
     Eigenvalues ---    0.37071   0.37190   0.37230   0.37230   0.37230
     Eigenvalues ---    0.37230   0.37230   0.40307   0.41177   0.41463
     Eigenvalues ---    0.41682   0.45050   0.45350   0.45389   0.45389
     Eigenvalues ---    0.45389   0.45389   0.45389   0.45389   2.13401
 RFO step:  Lambda=-1.23445660D-02 EMin= 2.36824243D-03
 Quartic linear search produced a step of -0.34171.
 Iteration  1 RMS(Cart)=  0.13822486 RMS(Int)=  0.00396730
 Iteration  2 RMS(Cart)=  0.00690398 RMS(Int)=  0.00005345
 Iteration  3 RMS(Cart)=  0.00001965 RMS(Int)=  0.00005314
 Iteration  4 RMS(Cart)=  0.00000000 RMS(Int)=  0.00005314
 Variable       Old X    -DE/DX   Delta X   Delta X   Delta X     New X
                                 (Linear)    (Quad)   (Total)
    R1        2.65623   0.01054  -0.00272   0.02291   0.02025   2.67648
    R2        2.65636  -0.00165  -0.00277   0.00540   0.00273   2.65909
    R3        2.94705  -0.00556  -0.01260   0.01981   0.00721   2.95426
    R4        2.64225  -0.00761   0.00205  -0.01584  -0.01382   2.62843
    R5        2.02526  -0.00356  -0.00111  -0.00315  -0.00426   2.02099
    R6        2.63578  -0.00708   0.00426  -0.02177  -0.01760   2.61818
    R7        2.02640   0.00745  -0.00150   0.01671   0.01521   2.04161
    R8        2.63673  -0.01036   0.00394  -0.02595  -0.02207   2.61466
    R9        3.32487  -0.00280   0.00036  -0.00691  -0.00655   3.31832
   R10        2.64786  -0.00838   0.00014  -0.01262  -0.01244   2.63541
   R11        2.02656   0.00729  -0.00155   0.01656   0.01501   2.04157
   R12        2.00156   0.01401   0.00699   0.00553   0.01252   2.01408
   R13        2.65724   0.00769  -0.00307   0.01900   0.01601   2.67325
   R14        2.70296  -0.01658  -0.01869   0.02688   0.00826   2.71123
   R15        2.63755  -0.00632   0.00366  -0.01874  -0.01508   2.62247
   R16        2.02496  -0.00459  -0.00101  -0.00519  -0.00620   2.01876
   R17        2.62849  -0.00709   0.00676  -0.02814  -0.02146   2.60703
   R18        2.02647   0.00767  -0.00153   0.01713   0.01561   2.04208
   R19        2.63384  -0.00953   0.00493  -0.02666  -0.02181   2.61204
   R20        2.02614   0.00707  -0.00141   0.01582   0.01441   2.04055
   R21        2.65426   0.00536  -0.00205   0.01302   0.01097   2.66523
   R22        3.32278  -0.00317   0.00107  -0.00952  -0.00845   3.31434
   R23        3.32226  -0.00236   0.00125  -0.00826  -0.00701   3.31525
    A1        2.05927  -0.01430   0.01200  -0.06434  -0.05216   2.00711
    A2        2.01858   0.05769   0.02591   0.07930   0.10512   2.12370
    A3        2.20534  -0.04339  -0.03791  -0.01496  -0.05296   2.15238
    A4        2.11797   0.00399  -0.00806   0.03269   0.02466   2.14264
    A5        2.08580   0.01115   0.00294   0.03627   0.03919   2.12499
    A6        2.07941  -0.01513   0.00512  -0.06896  -0.06386   2.01556
    A7        2.09266   0.00050   0.00059  -0.00040   0.00006   2.09271
    A8        2.09558  -0.00021  -0.00040   0.00061   0.00028   2.09586
    A9        2.09495  -0.00030  -0.00019  -0.00021  -0.00034   2.09462
   A10        2.08855   0.00150   0.00200  -0.00364  -0.00181   2.08674
   A11        2.09665  -0.00081  -0.00077   0.00110   0.00041   2.09706
   A12        2.09799  -0.00069  -0.00123   0.00254   0.00139   2.09938
   A13        2.10010  -0.00158  -0.00195  -0.00267  -0.00466   2.09545
   A14        2.09117   0.00112   0.00110   0.00230   0.00342   2.09459
   A15        2.09191   0.00046   0.00085   0.00037   0.00123   2.09315
   A16        2.10782   0.00988  -0.00459   0.03836   0.03391   2.14172
   A17        2.10594  -0.00472  -0.00395  -0.00425  -0.00826   2.09768
   A18        2.06943  -0.00517   0.00853  -0.03411  -0.02565   2.04378
   A19        1.97784   0.06358   0.03983   0.06013   0.09988   2.07772
   A20        2.25188  -0.05015  -0.05382   0.00856  -0.04533   2.20655
   A21        2.05346  -0.01343   0.01399  -0.06869  -0.05454   1.99892
   A22        2.12889   0.00540  -0.01179   0.04388   0.03217   2.16106
   A23        2.07835   0.00732   0.00548   0.01722   0.02267   2.10101
   A24        2.07594  -0.01272   0.00630  -0.06110  -0.05483   2.02111
   A25        2.09345   0.00315   0.00032   0.00810   0.00834   2.10179
   A26        2.09551  -0.00125  -0.00038  -0.00229  -0.00263   2.09288
   A27        2.09423  -0.00191   0.00006  -0.00581  -0.00571   2.08852
   A28        2.08680  -0.00430   0.00259  -0.01863  -0.01619   2.07061
   A29        2.09957   0.00408  -0.00177   0.01774   0.01605   2.11562
   A30        2.09681   0.00022  -0.00083   0.00089   0.00014   2.09695
   A31        2.11759  -0.00126  -0.00792   0.01637   0.00837   2.12596
   A32        2.07883  -0.01182   0.00532  -0.04278  -0.03742   2.04141
   A33        2.08677   0.01308   0.00261   0.02641   0.02905   2.11582
   A34        2.08618   0.01044   0.00281   0.01897   0.02185   2.10803
   A35        2.19789  -0.02799  -0.03536   0.01813  -0.01727   2.18062
   A36        1.99912   0.01755   0.03256  -0.03710  -0.00459   1.99453
    D1        0.00000  -0.00000  -0.00000  -0.00000  -0.00000   0.00000
    D2        3.14159  -0.00000  -0.00000  -0.00000  -0.00000   3.14159
    D3       -3.14159  -0.00000   0.00000  -0.00000  -0.00000  -3.14159
    D4       -0.00000  -0.00000   0.00000   0.00000   0.00000  -0.00000
    D5       -0.00000   0.00000   0.00000   0.00000   0.00000  -0.00000
    D6        3.14159   0.00000   0.00000   0.00000   0.00000   3.14159
    D7        3.14159  -0.00000  -0.00000   0.00000   0.00000   3.14159
    D8       -0.00000  -0.00000   0.00000  -0.00000  -0.00000  -0.00000
    D9       -0.00000  -0.00000   0.00000  -0.00000  -0.00000  -0.00000
   D10        3.14159  -0.00000   0.00000  -0.00000  -0.00000   3.14159
   D11        3.14159  -0.00000   0.00000  -0.00000  -0.00000   3.14159
   D12       -0.00000   0.00000   0.00000  -0.00000   0.00000  -0.00000
   D13        0.00000  -0.00000   0.00000  -0.00000  -0.00000   0.00000
   D14        3.14159   0.00000   0.00000   0.00000   0.00000   3.14159
   D15       -3.14159  -0.00000   0.00000  -0.00000  -0.00000  -3.14159
   D16        0.00000  -0.00000   0.00000  -0.00000  -0.00000   0.00000
   D17       -0.00000   0.00000  -0.00000   0.00000   0.00000  -0.00000
   D18        3.14159   0.00000  -0.00000  -0.00000  -0.00000   3.14159
   D19        3.14159   0.00000   0.00000   0.00000   0.00000   3.14159
   D20        0.00000  -0.00000   0.00000  -0.00000  -0.00000   0.00000
   D21        0.00000  -0.00000  -0.00000  -0.00000  -0.00000   0.00000
   D22       -3.14159  -0.00000  -0.00000  -0.00000  -0.00000  -3.14159
   D23       -3.14159   0.00000   0.00000   0.00000   0.00000  -3.14159
   D24        0.00000   0.00000  -0.00000   0.00000   0.00000   0.00000
   D25       -0.00000   0.00000  -0.00000   0.00000   0.00000  -0.00000
   D26        3.14159   0.00000  -0.00000   0.00000   0.00000   3.14159
   D27        3.14159   0.00000  -0.00000   0.00000   0.00000   3.14159
   D28       -0.00000   0.00000  -0.00000   0.00000   0.00000  -0.00000
   D29        3.14159  -0.00000  -0.00000   0.00000   0.00000  -3.14159
   D30        0.00000  -0.00000  -0.00000  -0.00000  -0.00000   0.00000
   D31        0.00000  -0.00000  -0.00000  -0.00000  -0.00000   0.00000
   D32       -3.14159  -0.00000   0.00000  -0.00000  -0.00000  -3.14159
   D33       -3.14159  -0.00000  -0.00000  -0.00000  -0.00000   3.14159
   D34        0.00000  -0.00000   0.00000  -0.00000  -0.00000  -0.00000
   D35       -0.00000   0.00000   0.00000   0.00000   0.00000  -0.00000
   D36        3.14159   0.00000   0.00000   0.00000   0.00000   3.14159
   D37       -0.00000  -0.00000   0.00000   0.00000   0.00000  -0.00000
   D38        3.14159  -0.00000   0.00000  -0.00000  -0.00000   3.14159
   D39        3.14159   0.00000  -0.00000   0.00000   0.00000   3.14159
   D40       -0.00000   0.00000  -0.00000   0.00000   0.00000  -0.00000
   D41       -0.00000   0.00000   0.00000   0.00000   0.00000  -0.00000
   D42       -3.14159  -0.00000   0.00000  -0.00000  -0.00000  -3.14159
   D43        3.14159   0.00000   0.00000   0.00000   0.00000  -3.14159
   D44        0.00000  -0.00000   0.00000  -0.00000  -0.00000   0.00000
   D45        0.00000   0.00000  -0.00000   0.00000   0.00000   0.00000
   D46       -3.14159  -0.00000   0.00000  -0.00000  -0.00000  -3.14159
   D47        3.14159   0.00000  -0.00000   0.00000   0.00000   3.14159
   D48        0.00000  -0.00000   0.00000  -0.00000  -0.00000   0.00000
   D49        0.00000  -0.00000  -0.00000  -0.00000  -0.00000  -0.00000
   D50       -3.14159  -0.00000  -0.00000  -0.00000  -0.00000  -3.14159
   D51        3.14159   0.00000  -0.00000   0.00000   0.00000   3.14159
   D52       -0.00000   0.00000  -0.00000   0.00000   0.00000  -0.00000
         Item               Value     Threshold  Converged?
 Maximum Force            0.063577     0.000450     NO 
 RMS     Force            0.011979     0.000300     NO 
 Maximum Displacement     0.525916     0.001800     NO 
 RMS     Displacement     0.140018     0.001200     NO 
 Predicted change in Energy=-8.207515D-03
 GradGradGradGradGradGradGradGradGradGradGradGradGradGradGradGradGradGrad

                          Input orientation:                          
 ---------------------------------------------------------------------
 Center     Atomic      Atomic             Coordinates (Angstroms)
 Number     Number       Type             X           Y           Z
 ---------------------------------------------------------------------
      1          6           0       -0.338892   -0.158237    0.016732
      2          6           0        1.007681   -0.128149   -0.421251
      3          6           0        1.763618    1.039021   -0.451094
      4          6           0        1.201192    2.236903   -0.040828
      5          6           0       -0.111432    2.260500    0.396052
      6          6           0       -0.860335    1.084325    0.421886
      7          6           0       -1.165271   -1.485094    0.039792
      8          6           0       -0.550057   -2.684873   -0.388226
      9          6           0       -1.189701   -3.916250   -0.408756
     10          6           0       -2.501774   -4.028864    0.002367
     11          6           0       -3.160922   -2.892762    0.432901
     12          6           0       -2.528735   -1.632327    0.461344
     13          1           0        1.511460   -1.011242   -0.753074
     14          1           0        2.787916    1.012223   -0.793585
     15          1           0       -0.557274    3.190546    0.717606
     16          1           0       -1.866174    1.156659    0.766848
     17          1           0        0.464713   -2.682417   -0.722087
     18          1           0       -0.658538   -4.793824   -0.748569
     19          1           0       -3.011866   -4.980542   -0.008313
     20         17           0       -3.547380   -0.327363    1.042031
     21         17           0       -4.827031   -3.086114    0.945502
     22         17           0        2.149571    3.714339   -0.075800
[...]
     20         17           0       -1.244732   -1.897920    0.296593
     21         17           0       -4.303203   -1.060548    0.127031
     22         17           0        5.254651   -0.341244    0.012634
 ---------------------------------------------------------------------
 Rotational constants (GHZ):           1.1250491           0.1972185           0.1753061

 **********************************************************************

            Population analysis using the SCF Density.

 **********************************************************************

 Orbital symmetries:
       Occupied  (A) (A) (A) (A) (A) (A) (A) (A) (A) (A) (A) (A)
                 (A) (A) (A) (A) (A) (A) (A) (A) (A) (A) (A) (A)
                 (A) (A) (A) (A) (A) (A) (A) (A) (A) (A) (A) (A)
                 (A) (A) (A) (A) (A) (A) (A) (A) (A) (A) (A) (A)
                 (A) (A) (A) (A) (A) (A) (A) (A) (A) (A) (A) (A)
                 (A) (A) (A) (A) (A)
       Virtual   (A) (A) (A) (A) (A) (A) (A) (A) (A) (A) (A) (A)
                 (A) (A) (A) (A) (A) (A) (A) (A) (A) (A) (A) (A)
                 (A) (A) (A) (A) (A) (A) (A) (A) (A) (A) (A) (A)
                 (A) (A) (A) (A) (A) (A) (A) (A) (A) (A) (A) (A)
                 (A) (A) (A) (A) (A) (A) (A) (A) (A) (A) (A) (A)
                 (A) (A) (A) (A) (A) (A) (A) (A) (A) (A) (A) (A)
                 (A) (A) (A) (A) (A) (A) (A) (A) (A) (A) (A) (A)
                 (A) (A) (A) (A) (A) (A) (A) (A) (A) (A) (A) (A)
                 (A) (A) (A) (A) (A) (A) (A) (A) (A) (A) (A) (A)
                 (A) (A) (A) (A) (A) (A) (A) (A) (A) (A) (A) (A)
                 (A) (A) (A) (A) (A) (A) (A) (A) (A) (A) (A) (A)
                 (A) (A) (A) (A) (A) (A) (A) (A) (A) (A) (A) (A)
                 (A) (A) (A) (A) (A) (A) (A) (A) (A) (A) (A) (A)
                 (A) (A) (A) (A) (A) (A) (A) (A) (A) (A) (A) (A)
                 (A) (A) (A) (A) (A) (A) (A) (A) (A) (A) (A) (A)
                 (A) (A) (A) (A) (A) (A) (A) (A) (A) (A) (A) (A)
                 (A) (A) (A) (A) (A) (A) (A) (A) (A) (A) (A) (A)
                 (A) (A) (A) (A) (A) (A) (A) (A) (A) (A) (A) (A)
                 (A) (A) (A) (A) (A) (A) (A) (A) (A) (A) (A) (A)
                 (A) (A) (A) (A) (A) (A) (A) (A) (A) (A) (A) (A)
                 (A) (A) (A) (A) (A) (A) (A) (A) (A) (A) (A) (A)
                 (A) (A) (A) (A) (A) (A) (A) (A) (A) (A) (A) (A)
                 (A) (A) (A) (A) (A) (A) (A) (A) (A) (A) (A) (A)
                 (A) (A) (A) (A) (A) (A) (A) (A) (A) (A) (A) (A)
                 (A) (A) (A) (A) (A) (A) (A) (A) (A) (A) (A) (A)
                 (A) (A) (A) (A) (A) (A) (A) (A) (A) (A) (A) (A)
                 (A) (A) (A) (A) (A) (A) (A) (A) (A) (A) (A) (A)
                 (A) (A) (A) (A) (A) (A)
 The electronic state is 1-A.
 Alpha  occ. eigenvalues -- -101.56645-101.56577-101.56038 -10.26256 -10.26086
 Alpha  occ. eigenvalues --  -10.24970 -10.22065 -10.20895 -10.20607 -10.20275
 Alpha  occ. eigenvalues --  -10.20186 -10.19991 -10.19934 -10.19926 -10.19867
 Alpha  occ. eigenvalues --   -9.48108  -9.48057  -9.47495  -7.24587  -7.24536
 Alpha  occ. eigenvalues --   -7.23953  -7.23592  -7.23546  -7.23532  -7.23470
 Alpha  occ. eigenvalues --   -7.22980  -7.22945  -0.93151  -0.90584  -0.87400
 Alpha  occ. eigenvalues --   -0.86103  -0.84728  -0.78848  -0.77508  -0.74872
 Alpha  occ. eigenvalues --   -0.73640  -0.64889  -0.64084  -0.61958  -0.60306
 Alpha  occ. eigenvalues --   -0.54812  -0.52026  -0.51076  -0.48912  -0.48656
 Alpha  occ. eigenvalues --   -0.47045  -0.45350  -0.44928  -0.44879  -0.42930
 Alpha  occ. eigenvalues --   -0.41197  -0.40684  -0.39359  -0.37959  -0.37679
 Alpha  occ. eigenvalues --   -0.35791  -0.35233  -0.34458  -0.33804  -0.32364
 Alpha  occ. eigenvalues --   -0.31652  -0.28194  -0.27935  -0.26367  -0.25291
 Alpha virt. eigenvalues --   -0.05546  -0.04475  -0.03403  -0.02365  -0.01837
 Alpha virt. eigenvalues --   -0.00748   0.00614   0.01037   0.01616   0.02357
 Alpha virt. eigenvalues --    0.02826   0.02905   0.04049   0.04473   0.04979
 Alpha virt. eigenvalues --    0.05304   0.05715   0.06459   0.06919   0.07376
 Alpha virt. eigenvalues --    0.08266   0.08577   0.08598   0.08950   0.09460
 Alpha virt. eigenvalues --    0.10321   0.10580   0.11050   0.11502   0.11949
 Alpha virt. eigenvalues --    0.12287   0.12554   0.13077   0.13228   0.13895
 Alpha virt. eigenvalues --    0.14019   0.14719   0.15279   0.15348   0.15718
 Alpha virt. eigenvalues --    0.16060   0.16396   0.17146   0.17783   0.18151
 Alpha virt. eigenvalues --    0.18402   0.18715   0.18862   0.19215   0.19459
 Alpha virt. eigenvalues --    0.19844   0.20188   0.20526   0.20903   0.21263
 Alpha virt. eigenvalues --    0.21789   0.22546   0.22620   0.23046   0.23309
 Alpha virt. eigenvalues --    0.23566   0.24107   0.24759   0.24974   0.25411
 Alpha virt. eigenvalues --    0.26040   0.26295   0.26820   0.27476   0.27655
 Alpha virt. eigenvalues --    0.28215   0.28535   0.29204   0.29253   0.29389
 Alpha virt. eigenvalues --    0.30595   0.31246   0.31719   0.32050   0.32697
 Alpha virt. eigenvalues --    0.34236   0.34499   0.35229   0.35893   0.42348
 Alpha virt. eigenvalues --    0.43475   0.43762   0.44768   0.45428   0.45792
 Alpha virt. eigenvalues --    0.46159   0.47404   0.48193   0.49319   0.50331
 Alpha virt. eigenvalues --    0.50739   0.51080   0.51749   0.52755   0.53467
 Alpha virt. eigenvalues --    0.55201   0.55502   0.56576   0.57444   0.57556
 Alpha virt. eigenvalues --    0.58057   0.58481   0.59794   0.60102   0.61595
 Alpha virt. eigenvalues --    0.61967   0.62747   0.63695   0.64152   0.64877
 Alpha virt. eigenvalues --    0.66000   0.66392   0.67384   0.68514   0.69114
 Alpha virt. eigenvalues --    0.69342   0.69559   0.70665   0.70920   0.71712
 Alpha virt. eigenvalues --    0.72380   0.73251   0.73642   0.75866   0.78504
 Alpha virt. eigenvalues --    0.81322   0.81664   0.81904   0.82393   0.83793
 Alpha virt. eigenvalues --    0.84134   0.84775   0.85106   0.85298   0.85722
 Alpha virt. eigenvalues --    0.85757   0.86225   0.86537   0.86764   0.88185
 Alpha virt. eigenvalues --    0.89532   0.89661   0.90699   0.91825   0.92631
 Alpha virt. eigenvalues --    0.93751   0.94235   0.95134   0.95417   0.96944
 Alpha virt. eigenvalues --    0.97741   0.97926   0.99821   0.99921   1.00654
 Alpha virt. eigenvalues --    1.02493   1.04133   1.04918   1.05865   1.07169
 Alpha virt. eigenvalues --    1.09797   1.11213   1.12966   1.13678   1.14934
 Alpha virt. eigenvalues --    1.18987   1.20205   1.24775   1.25975   1.26261
 Alpha virt. eigenvalues --    1.28942   1.29299   1.30718   1.32107   1.34945
 Alpha virt. eigenvalues --    1.35415   1.38753   1.43530   1.48477   1.49160
 Alpha virt. eigenvalues --    1.50171   1.50817   1.52215   1.54015   1.54596
 Alpha virt. eigenvalues --    1.56154   1.58458   1.58816   1.60253   1.61659
 Alpha virt. eigenvalues --    1.63279   1.65121   1.67648   1.69244   1.69431
 Alpha virt. eigenvalues --    1.71562   1.72734   1.74838   1.75929   1.76282
 Alpha virt. eigenvalues --    1.79652   1.82556   1.85829   1.86096   1.89186
 Alpha virt. eigenvalues --    1.89423   1.90497   1.90782   1.92291   1.93572
 Alpha virt. eigenvalues --    1.93843   1.94799   1.95473   1.95990   1.97844
 Alpha virt. eigenvalues --    1.98203   2.02194   2.03259   2.04803   2.07010
 Alpha virt. eigenvalues --    2.09245   2.11770   2.16895   2.19593   2.20779
 Alpha virt. eigenvalues --    2.25535   2.26273   2.28235   2.29185   2.30468
 Alpha virt. eigenvalues --    2.30658   2.32956   2.35486   2.39000   2.39450
 Alpha virt. eigenvalues --    2.41348   2.41863   2.43375   2.45289   2.45968
 Alpha virt. eigenvalues --    2.51667   2.53265   2.54608   2.58025   2.60454
 Alpha virt. eigenvalues --    2.62183   2.65237   2.66582   2.67513   2.68511
 Alpha virt. eigenvalues --    2.69893   2.71248   2.73228   2.73831   2.74707
 Alpha virt. eigenvalues --    2.75531   2.76727   2.77356   2.78402   2.78774
 Alpha virt. eigenvalues --    2.79765   2.80450   2.81617   2.84337   2.84978
 Alpha virt. eigenvalues --    2.89049   2.92227   2.92610   2.98742   2.99830
 Alpha virt. eigenvalues --    3.07445   3.08852   3.12411   3.14127   3.16709
 Alpha virt. eigenvalues --    3.18883   3.21994   3.23026   3.33589   3.35697
 Alpha virt. eigenvalues --    3.38561   3.43118   3.48314   3.51486   3.58522
 Alpha virt. eigenvalues --    3.60082   3.71571   3.72966   3.81631   3.94982
 Alpha virt. eigenvalues --    3.97068   4.04528   4.09722   4.12878   4.13960
 Alpha virt. eigenvalues --    4.38208   4.81191   4.83643   9.76838   9.77772
 Alpha virt. eigenvalues --    9.82120  23.43315  23.60743  23.88765  23.89199
 Alpha virt. eigenvalues --   23.91005  23.94422  23.97486  24.02767  24.06952
 Alpha virt. eigenvalues --   24.08166  24.14836  24.16812  25.80839  25.83018
 Alpha virt. eigenvalues --   25.91786  26.12165  26.15223  26.25791  26.55748
 Alpha virt. eigenvalues --   26.59324  26.81184 215.76022 215.76853 215.82141
          Condensed to atoms (all electrons):
               1          2          3          4          5          6
     1  C   40.460067  -1.561920  -0.493224  -6.014820  -0.277325  -5.740590
     2  C   -1.561920  25.766492  -1.625939   0.399706  -1.433384 -13.656596
     3  C   -0.493224  -1.625939  18.982087  -1.793520  -8.354480  -0.670740
     4  C   -6.014820   0.399706  -1.793520  17.736150  -3.984079   1.869734
     5  C   -0.277325  -1.433384  -8.354480  -3.984079  22.913854  -5.138871
     6  C   -5.740590 -13.656596  -0.670740   1.869734  -5.138871  30.565479
     7  C   -5.727467  -1.609110   0.039244  -1.466992   1.948533  -1.646165
     8  C   -4.399154   1.249949  -0.096681  -0.130256   0.600628  -2.006230
     9  C    1.810926   0.111797  -0.006938   0.143381  -0.114109   0.304825
    10  C   -2.767291  -0.017969   0.012442  -0.100451   0.111135  -0.297777
    11  C    5.674376   0.043971   0.149989   0.099473  -0.080609   0.058980
    12  C  -13.208169  -1.665459   0.437770  -0.442463  -0.083122   2.806586
    13  H    0.019056   0.304035  -0.033905  -0.019679  -0.019744   0.026687
    14  H   -0.018315  -0.019782   0.251173   0.082184   0.055407  -0.010695
    15  H   -0.010983  -0.020002   0.065394   0.075776   0.248706  -0.018718
    16  H   -0.079641   0.058664  -0.033475  -0.007867  -0.044221   0.336349
    17  H    0.071360   0.108324  -0.003777   0.007191  -0.010171  -0.046089
    18  H    0.001199   0.000167  -0.000235  -0.000047  -0.000137  -0.001242
    19  H    0.017599  -0.000239   0.000008   0.000018  -0.000059  -0.001006
    20  Cl  -2.951899  -0.113909  -0.125703  -0.129487   0.335585  -0.054141
    21  Cl   0.033315  -0.002633   0.001175   0.002512   0.002618   0.020723
    22  Cl  -0.136465   0.351331   0.004292  -1.222018   0.111590   0.280690
               7          8          9         10         11         12
     1  C   -5.727467  -4.399154   1.810926  -2.767291   5.674376 -13.208169
     2  C   -1.609110   1.249949   0.111797  -0.017969   0.043971  -1.665459
     3  C    0.039244  -0.096681  -0.006938   0.012442   0.149989   0.437770
     4  C   -1.466992  -0.130256   0.143381  -0.100451   0.099473  -0.442463
     5  C    1.948533   0.600628  -0.114109   0.111135  -0.080609  -0.083122
     6  C   -1.646165  -2.006230   0.304825  -0.297777   0.058980   2.806586
     7  C   29.879555  -4.492562  -1.728614  -5.313500  -3.464175  -1.418690
     8  C   -4.492562  29.000468  -1.472170   3.838349 -10.165859  -6.467978
     9  C   -1.728614  -1.472170   9.047389   0.882455   0.211559  -3.326784
    10  C   -5.313500   3.838349   0.882455  18.632903  -4.285922  -4.947821
    11  C   -3.464175 -10.165859   0.211559  -4.285922  29.530937  -9.831027
    12  C   -1.418690  -6.467978  -3.326784  -4.947821  -9.831027  43.750705
    13  H    0.022665   0.048275  -0.011136   0.007625  -0.005195   0.014810
    14  H    0.016381  -0.002434  -0.000511   0.000149  -0.000854   0.002157
    15  H    0.011445   0.000433  -0.000516   0.000200  -0.000118   0.003754
    16  H    0.021582  -0.040765  -0.009779   0.007993   0.000438   0.137320
    17  H    0.005716   0.296021  -0.021809  -0.032886   0.033417  -0.059175
    18  H   -0.002344   0.018108   0.372237   0.003795  -0.024298  -0.018804
    19  H    0.071718  -0.082252  -0.005413   0.213959   0.148976  -0.013201
    20  Cl   0.334144   0.874659  -0.025409   1.029221  -1.167411   0.349536
    21  Cl  -0.152171   0.012816   0.096048  -0.340418  -1.219087   1.059908
    22  Cl  -0.106407   0.019800   0.006707  -0.002693   0.002405  -0.051765
              13         14         15         16         17         18
     1  C    0.019056  -0.018315  -0.010983  -0.079641   0.071360   0.001199
     2  C    0.304035  -0.019782  -0.020002   0.058664   0.108324   0.000167
     3  C   -0.033905   0.251173   0.065394  -0.033475  -0.003777  -0.000235
     4  C   -0.019679   0.082184   0.075776  -0.007867   0.007191  -0.000047
     5  C   -0.019744   0.055407   0.248706  -0.044221  -0.010171  -0.000137
     6  C    0.026687  -0.010695  -0.018718   0.336349  -0.046089  -0.001242
     7  C    0.022665   0.016381   0.011445   0.021582   0.005716  -0.002344
     8  C    0.048275  -0.002434   0.000433  -0.040765   0.296021   0.018108
     9  C   -0.011136  -0.000511  -0.000516  -0.009779  -0.021809   0.372237
    10  C    0.007625   0.000149   0.000200   0.007993  -0.032886   0.003795
    11  C   -0.005195  -0.000854  -0.000118   0.000438   0.033417  -0.024298
    12  C    0.014810   0.002157   0.003754   0.137320  -0.059175  -0.018804
    13  H    0.527188  -0.007904   0.000069  -0.000282  -0.000439   0.000019
    14  H   -0.007904   0.515050  -0.000310   0.000068   0.000019   0.000000
    15  H    0.000069  -0.000310   0.514613  -0.007723   0.000002   0.000000
    16  H   -0.000282   0.000068  -0.007723   0.519747  -0.000016   0.000003
    17  H   -0.000439   0.000019   0.000002  -0.000016   0.527730  -0.007048
    18  H    0.000019   0.000000   0.000000   0.000003  -0.007048   0.527622
    19  H   -0.000000  -0.000000  -0.000000  -0.000001  -0.000224  -0.007654
    20  Cl  -0.003123  -0.000051  -0.000678   0.004722  -0.003973   0.001307
    21  Cl  -0.000102  -0.000001  -0.000005  -0.000060   0.000542  -0.000449
    22  Cl   0.000016  -0.012051  -0.012332  -0.000313  -0.000057  -0.000001
              19         20         21         22
     1  C    0.017599  -2.951899   0.033315  -0.136465
     2  C   -0.000239  -0.113909  -0.002633   0.351331
     3  C    0.000008  -0.125703   0.001175   0.004292
     4  C    0.000018  -0.129487   0.002512  -1.222018
     5  C   -0.000059   0.335585   0.002618   0.111590
     6  C   -0.001006  -0.054141   0.020723   0.280690
     7  C    0.071718   0.334144  -0.152171  -0.106407
     8  C   -0.082252   0.874659   0.012816   0.019800
     9  C   -0.005413  -0.025409   0.096048   0.006707
    10  C    0.213959   1.029221  -0.340418  -0.002693
    11  C    0.148976  -1.167411  -1.219087   0.002405
    12  C   -0.013201   0.349536   1.059908  -0.051765
    13  H   -0.000000  -0.003123  -0.000102   0.000016
    14  H   -0.000000  -0.000051  -0.000001  -0.012051
    15  H   -0.000000  -0.000678  -0.000005  -0.012332
    16  H   -0.000001   0.004722  -0.000060  -0.000313
    17  H   -0.000224  -0.003973   0.000542  -0.000057
    18  H   -0.007654   0.001307  -0.000449  -0.000001
    19  H    0.510364  -0.002451  -0.004403   0.000000
    20  Cl  -0.002451  18.237625  -0.202513  -0.000172
    21  Cl  -0.004403  -0.202513  17.273470   0.000073
    22  Cl   0.000000  -0.000172   0.000073  17.389063
 Mulliken charges:
               1
     1  C    1.299364
     2  C   -0.667494
     3  C   -0.704959
     4  C    0.895554
     5  C   -0.787744
     6  C   -0.981195
     7  C    0.777215
     8  C   -0.603166
     9  C   -0.264132
    10  C   -0.633496
    11  C    0.290035
    12  C   -1.028087
    13  H    0.131065
    14  H    0.150319
    15  H    0.150994
    16  H    0.137257
    17  H    0.135340
    18  H    0.137802
    19  H    0.154261
    20  Cl   0.614123
    21  Cl   0.418640
    22  Cl   0.378307
 Sum of Mulliken charges =  -0.00000
 Mulliken charges with hydrogens summed into heavy atoms:
               1
     1  C    1.299364
     2  C   -0.536429
     3  C   -0.554641
     4  C    0.895554
     5  C   -0.636750
     6  C   -0.843938
     7  C    0.777215
     8  C   -0.467827
     9  C   -0.126329
    10  C   -0.479235
    11  C    0.290035
    12  C   -1.028087
    20  Cl   0.614123
    21  Cl   0.418640
    22  Cl   0.378307
 Electronic spatial extent (au):  <R**2>=           5580.2807
 Charge=              0.0000 electrons
 Dipole moment (field-independent basis, Debye):
    X=             -0.7638    Y=              2.5961    Z=             -0.3848  Tot=              2.7333
 Quadrupole moment (field-independent basis, Debye-Ang):
   XX=           -115.0991   YY=           -102.0750   ZZ=           -106.4144
   XY=             -5.4610   XZ=              1.3845   YZ=              3.2352
 Traceless Quadrupole moment (field-independent basis, Debye-Ang):
   XX=             -7.2363   YY=              5.7878   ZZ=              1.4484
   XY=             -5.4610   XZ=              1.3845   YZ=              3.2352
 Octapole moment (field-independent basis, Debye-Ang**2):
  XXX=            -54.1942  YYY=             -0.2999  ZZZ=              3.1598  XYY=            -11.9780
  XXY=             17.0457  XXZ=              1.1522  XZZ=             11.4136  YZZ=             -8.5571
  YYZ=             -0.7709  XYZ=             11.9595
 Hexadecapole moment (field-independent basis, Debye-Ang**3):
 XXXX=          -6214.4698 YYYY=          -1019.9049 ZZZZ=           -307.3385 XXXY=            -43.1018
 XXXZ=             19.9306 YYYX=            -12.5365 YYYZ=            -13.6954 ZZZX=             -4.2836
 ZZZY=             17.8549 XXYY=          -1148.3804 XXZZ=          -1066.5772 YYZZ=           -236.2149
 XXYZ=             18.2371 YYXZ=              6.8020 ZZXY=             16.2807
 N-N= 1.186498610577D+03 E-N=-6.725121258438D+03  KE= 1.836982101343D+03
 1\1\GINC-DAMODAR\FOpt\RB3LYP\6-311+G(d,p)\C12H7Cl3\PKC\15-Mar-2022\0\\
 # opt b3lyp/6-311+g(d,p) scf=xqc\\Title Card Required\\0,1\C,-0.377785
 3263,-0.1904776444,-0.0126030011\C,0.5876903862,0.0169623479,-1.003899
 4445\C,1.3351440879,1.1916262029,-1.0465101273\C,1.1176951733,2.166342
 0723,-0.0797334472\C,0.168342741,1.9842928839,0.9215325487\C,-0.575721
 0759,0.8092737252,0.9470542192\C,-1.1258387333,-1.4789164915,0.0397632
 14\C,-0.4062650487,-2.6697863986,0.1997038685\C,-1.047103806,-3.901748
 1632,0.2610649577\C,-2.431127334,-3.9706208914,0.162928287\C,-3.168075
 3617,-2.8015357089,-0.0046808026\C,-2.5259781247,-1.558334069,-0.07006
 08895\H,0.7500207143,-0.7415329185,-1.7612427696\H,2.073873717,1.34824
 61835,-1.82205638\H,0.0151928723,2.7499559826,1.6712200675\H,-1.311733
 5779,0.6675920495,1.7291864699\H,0.6715221317,-2.6132447518,0.29436427
 65\H,-0.4710146416,-4.8098968703,0.3925314124\H,-2.9496293194,-4.91925
 69967,0.2125049623\Cl,-3.4695244702,-0.109527455,-0.3379217295\Cl,-4.9
 069873985,-2.9342935219,-0.141490099\Cl,2.0580723546,3.6513382235,-0.1
 201772835\\Version=EM64L-G16RevB.01\State=1-A\HF=-1842.2809512\RMSD=3.
 368e-09\RMSF=1.311e-05\Dipole=0.5545105,-0.9088568,0.1514504\Quadrupol
 e=-4.1658173,3.0569828,1.1088345,-5.2075908,-2.4005007,0.8910704\PG=C0
 1 [X(C12H7Cl3)]\\@


 THE 2ND LAW OF THERMODYNAMICS HAS THE SAME
 DEGREE OF TRUTH AS THE STATEMENT THAT IF YOU THROW
 A TUMBLERFULL OF WATER INTO THE SEA, YOU CANNOT GET
 THE SAME TUMBLERFULL OF WATER OUT AGAIN.
          - J.C. MAXWELL, LETTER TO LORD RAYLEIGH, DECEMBER 6,1870
 Job cpu time:       0 days 10 hours 31 minutes 38.7 seconds.
 Elapsed time:       0 days  3 hours  9 minutes  5.8 seconds.
 File lengths (MBytes):  RWF=    107 Int=      0 D2E=      0 Chk=     17 Scr=      1
 Normal termination of Gaussian 16 at Tue Mar 15 03:08:49 2022.
