 Entering Gaussian System, Link 0=g16
 Input=2,3,4,4prime,5-Pentachlorobiphenyl.gjf
 Output=2,3,4,4prime,5-Pentachlorobiphenyl.log
 Initial command:
 /usr/local/g16/l1.exe "/scratch/pkc/Gau-79423.inp" -scrdir="/scratch/pkc/"
 Entering Link 1 = /usr/local/g16/l1.exe PID=     79424.
  
 Copyright (c) 1988-2017, Gaussian, Inc.  All Rights Reserved.
  
 This is part of the Gaussian(R) 16 program.  It is based on
 the Gaussian(R) 09 system (copyright 2009, Gaussian, Inc.),
 the Gaussian(R) 03 system (copyright 2003, Gaussian, Inc.),
 the Gaussian(R) 98 system (copyright 1998, Gaussian, Inc.),
 the Gaussian(R) 94 system (copyright 1995, Gaussian, Inc.),
 the Gaussian 92(TM) system (copyright 1992, Gaussian, Inc.),
 the Gaussian 90(TM) system (copyright 1990, Gaussian, Inc.),
 the Gaussian 88(TM) system (copyright 1988, Gaussian, Inc.),
 the Gaussian 86(TM) system (copyright 1986, Carnegie Mellon
 University), and the Gaussian 82(TM) system (copyright 1983,
 Carnegie Mellon University). Gaussian is a federally registered
 trademark of Gaussian, Inc.
  
 This software contains proprietary and confidential information,
 including trade secrets, belonging to Gaussian, Inc.
  
 This software is provided under written license and may be
 used, copied, transmitted, or stored only in accord with that
 written license.
  
 The following legend is applicable only to US Government
 contracts under FAR:
  
                    RESTRICTED RIGHTS LEGEND
  
 Use, reproduction and disclosure by the US Government is
 subject to restrictions as set forth in subparagraphs (a)
 and (c) of the Commercial Computer Software - Restricted
 Rights clause in FAR 52.227-19.
  
 Gaussian, Inc.
 340 Quinnipiac St., Bldg. 40, Wallingford CT 06492
  
  
 ---------------------------------------------------------------
 Warning -- This program may not be used in any manner that
 competes with the business of Gaussian, Inc. or will provide
 assistance to any competitor of Gaussian, Inc.  The licensee
 of this program is prohibited from giving any competitor of
 Gaussian, Inc. access to this program.  By using this program,
 the user acknowledges that Gaussian, Inc. is engaged in the
 business of creating and licensing software in the field of
 computational chemistry and represents and warrants to the
 licensee that it is not a competitor of Gaussian, Inc. and that
 it will not use this program in any manner prohibited above.
 ---------------------------------------------------------------
  

 Cite this work as:
 Gaussian 16, Revision B.01,
 M. J. Frisch, G. W. Trucks, H. B. Schlegel, G. E. Scuseria, 
 M. A. Robb, J. R. Cheeseman, G. Scalmani, V. Barone, 
 G. A. Petersson, H. Nakatsuji, X. Li, M. Caricato, A. V. Marenich, 
 J. Bloino, B. G. Janesko, R. Gomperts, B. Mennucci, H. P. Hratchian, 
 J. V. Ortiz, A. F. Izmaylov, J. L. Sonnenberg, D. Williams-Young, 
 F. Ding, F. Lipparini, F. Egidi, J. Goings, B. Peng, A. Petrone, 
 T. Henderson, D. Ranasinghe, V. G. Zakrzewski, J. Gao, N. Rega, 
 G. Zheng, W. Liang, M. Hada, M. Ehara, K. Toyota, R. Fukuda, 
 J. Hasegawa, M. Ishida, T. Nakajima, Y. Honda, O. Kitao, H. Nakai, 
 T. Vreven, K. Throssell, J. A. Montgomery, Jr., J. E. Peralta, 
 F. Ogliaro, M. J. Bearpark, J. J. Heyd, E. N. Brothers, K. N. Kudin, 
 V. N. Staroverov, T. A. Keith, R. Kobayashi, J. Normand, 
 K. Raghavachari, A. P. Rendell, J. C. Burant, S. S. Iyengar, 
 J. Tomasi, M. Cossi, J. M. Millam, M. Klene, C. Adamo, R. Cammi, 
 J. W. Ochterski, R. L. Martin, K. Morokuma, O. Farkas, 
 J. B. Foresman, and D. J. Fox, Gaussian, Inc., Wallingford CT, 2016.
 
 ******************************************
 Gaussian 16:  EM64L-G16RevB.01 20-Dec-2017
                16-Mar-2022 
 ******************************************
 %mem=10GB
 %nprocshared=4
 Will use up to    4 processors via shared memory.
 --------------------------------
 # opt b3lyp/6-311+g(d,p) scf=xqc
 --------------------------------
 1/18=20,19=15,26=3,38=1/1,3;
 2/9=110,12=2,17=6,18=5,40=1/2;
 3/5=4,6=6,7=111,11=2,25=1,30=1,71=1,74=-5/1,2,3;
 4//1;
 5/5=2,8=3,13=1,38=5/2,8;
 6/7=2,8=2,9=2,10=2,28=1/1;
 7//1,2,3,16;
 1/18=20,19=15,26=3/3(2);
 2/9=110/2;
 99//99;
 2/9=110/2;
 3/5=4,6=6,7=111,11=2,25=1,30=1,71=1,74=-5/1,2,3;
 4/5=5,16=3,69=1/1;
 5/5=2,8=3,13=1,38=5/2,8;
 7//1,2,3,16;
 1/18=20,19=15,26=3/3(-5);
 2/9=110/2;
 6/7=2,8=2,9=2,10=2,19=2,28=1/1;
 99/9=1/99;
 -------------------
 Title Card Required
 -------------------
 Symbolic Z-matrix:
 Charge =  0 Multiplicity = 1
 C                     1.45451  -0.47198   0.59021 
 C                     2.78689  -0.44209   0.15687 
 C                     3.49478   0.76736   0.15079 
 C                     2.8703    1.94693   0.57807 
 C                     1.53791   1.91704   1.01141 
 C                     0.83002   0.70759   1.01749 
 C                     0.6766   -1.80104   0.59689 
 C                     1.30109  -2.98061   0.16961 
 C                     0.5932   -4.19006   0.17569 
 C                    -0.73918  -4.21995   0.60904 
 C                    -1.36367  -3.04038   1.03631 
 C                    -0.65578  -1.83093   1.03024 
 H                     3.2637   -1.34271  -0.16937 
 H                     4.51209   0.79018  -0.18008 
 H                     1.0611    2.81767   1.33764 
 H                    -0.18728   0.68477   1.34835 
 H                     2.31839  -2.95779  -0.16126 
 Cl                   -1.44006  -0.34953   1.56685 
 Cl                   -3.03699  -3.07792   1.58055 
 Cl                   -1.62821  -5.73888   0.61667 
 Cl                    3.75933   3.46586   0.57044 
 Cl                    1.37748  -5.67146  -0.36092 
 

 GradGradGradGradGradGradGradGradGradGradGradGradGradGradGradGradGradGrad
 Berny optimization.
 Initialization pass.
                           ----------------------------
                           !    Initial Parameters    !
                           ! (Angstroms and Degrees)  !
 --------------------------                            --------------------------
 ! Name  Definition              Value          Derivative Info.                !
 --------------------------------------------------------------------------------
 ! R1    R(1,2)                  1.4014         estimate D2E/DX2                !
 ! R2    R(1,6)                  1.4014         estimate D2E/DX2                !
 ! R3    R(1,7)                  1.54           estimate D2E/DX2                !
 ! R4    R(2,3)                  1.4014         estimate D2E/DX2                !
 ! R5    R(2,13)                 1.07           estimate D2E/DX2                !
 ! R6    R(3,4)                  1.4014         estimate D2E/DX2                !
 ! R7    R(3,14)                 1.07           estimate D2E/DX2                !
 ! R8    R(4,5)                  1.4014         estimate D2E/DX2                !
 ! R9    R(4,21)                 1.76           estimate D2E/DX2                !
 ! R10   R(5,6)                  1.4014         estimate D2E/DX2                !
 ! R11   R(5,15)                 1.07           estimate D2E/DX2                !
 ! R12   R(6,16)                 1.07           estimate D2E/DX2                !
 ! R13   R(7,8)                  1.4014         estimate D2E/DX2                !
 ! R14   R(7,12)                 1.4014         estimate D2E/DX2                !
 ! R15   R(8,9)                  1.4014         estimate D2E/DX2                !
 ! R16   R(8,17)                 1.07           estimate D2E/DX2                !
 ! R17   R(9,10)                 1.4014         estimate D2E/DX2                !
 ! R18   R(9,22)                 1.76           estimate D2E/DX2                !
 ! R19   R(10,11)                1.4014         estimate D2E/DX2                !
 ! R20   R(10,20)                1.76           estimate D2E/DX2                !
 ! R21   R(11,12)                1.4014         estimate D2E/DX2                !
 ! R22   R(11,19)                1.76           estimate D2E/DX2                !
 ! R23   R(12,18)                1.76           estimate D2E/DX2                !
 ! A1    A(2,1,6)              120.0            estimate D2E/DX2                !
 ! A2    A(2,1,7)              120.0            estimate D2E/DX2                !
 ! A3    A(6,1,7)              120.0            estimate D2E/DX2                !
 ! A4    A(1,2,3)              120.0            estimate D2E/DX2                !
 ! A5    A(1,2,13)             120.0            estimate D2E/DX2                !
 ! A6    A(3,2,13)             120.0            estimate D2E/DX2                !
 ! A7    A(2,3,4)              120.0            estimate D2E/DX2                !
 ! A8    A(2,3,14)             120.0            estimate D2E/DX2                !
 ! A9    A(4,3,14)             120.0            estimate D2E/DX2                !
 ! A10   A(3,4,5)              120.0            estimate D2E/DX2                !
 ! A11   A(3,4,21)             120.0            estimate D2E/DX2                !
 ! A12   A(5,4,21)             120.0            estimate D2E/DX2                !
 ! A13   A(4,5,6)              120.0            estimate D2E/DX2                !
 ! A14   A(4,5,15)             120.0            estimate D2E/DX2                !
 ! A15   A(6,5,15)             120.0            estimate D2E/DX2                !
 ! A16   A(1,6,5)              120.0            estimate D2E/DX2                !
 ! A17   A(1,6,16)             120.0            estimate D2E/DX2                !
 ! A18   A(5,6,16)             120.0            estimate D2E/DX2                !
 ! A19   A(1,7,8)              120.0            estimate D2E/DX2                !
 ! A20   A(1,7,12)             120.0            estimate D2E/DX2                !
 ! A21   A(8,7,12)             120.0            estimate D2E/DX2                !
 ! A22   A(7,8,9)              120.0            estimate D2E/DX2                !
 ! A23   A(7,8,17)             120.0            estimate D2E/DX2                !
 ! A24   A(9,8,17)             120.0            estimate D2E/DX2                !
 ! A25   A(8,9,10)             120.0            estimate D2E/DX2                !
 ! A26   A(8,9,22)             120.0            estimate D2E/DX2                !
 ! A27   A(10,9,22)            120.0            estimate D2E/DX2                !
 ! A28   A(9,10,11)            120.0            estimate D2E/DX2                !
 ! A29   A(9,10,20)            120.0            estimate D2E/DX2                !
 ! A30   A(11,10,20)           120.0            estimate D2E/DX2                !
 ! A31   A(10,11,12)           120.0            estimate D2E/DX2                !
 ! A32   A(10,11,19)           120.0            estimate D2E/DX2                !
 ! A33   A(12,11,19)           120.0            estimate D2E/DX2                !
 ! A34   A(7,12,11)            120.0            estimate D2E/DX2                !
 ! A35   A(7,12,18)            120.0            estimate D2E/DX2                !
 ! A36   A(11,12,18)           120.0            estimate D2E/DX2                !
 ! D1    D(6,1,2,3)              0.0001         estimate D2E/DX2                !
 ! D2    D(6,1,2,13)           180.0            estimate D2E/DX2                !
 ! D3    D(7,1,2,3)           -180.0            estimate D2E/DX2                !
 ! D4    D(7,1,2,13)            -0.0001         estimate D2E/DX2                !
 ! D5    D(2,1,6,5)             -0.0001         estimate D2E/DX2                !
 ! D6    D(2,1,6,16)           180.0            estimate D2E/DX2                !
 ! D7    D(7,1,6,5)            180.0            estimate D2E/DX2                !
 ! D8    D(7,1,6,16)             0.0            estimate D2E/DX2                !
 ! D9    D(2,1,7,8)             -0.0001         estimate D2E/DX2                !
 ! D10   D(2,1,7,12)           179.9998         estimate D2E/DX2                !
 ! D11   D(6,1,7,8)            179.9999         estimate D2E/DX2                !
 ! D12   D(6,1,7,12)            -0.0002         estimate D2E/DX2                !
 ! D13   D(1,2,3,4)              0.0            estimate D2E/DX2                !
 ! D14   D(1,2,3,14)           180.0            estimate D2E/DX2                !
 ! D15   D(13,2,3,4)          -179.9999         estimate D2E/DX2                !
 ! D16   D(13,2,3,14)            0.0001         estimate D2E/DX2                !
 ! D17   D(2,3,4,5)             -0.0001         estimate D2E/DX2                !
 ! D18   D(2,3,4,21)           180.0            estimate D2E/DX2                !
 ! D19   D(14,3,4,5)           179.9999         estimate D2E/DX2                !
 ! D20   D(14,3,4,21)            0.0            estimate D2E/DX2                !
 ! D21   D(3,4,5,6)              0.0001         estimate D2E/DX2                !
 ! D22   D(3,4,5,15)          -179.9999         estimate D2E/DX2                !
 ! D23   D(21,4,5,6)          -180.0            estimate D2E/DX2                !
 ! D24   D(21,4,5,15)            0.0            estimate D2E/DX2                !
 ! D25   D(4,5,6,1)              0.0            estimate D2E/DX2                !
 ! D26   D(4,5,6,16)           179.9999         estimate D2E/DX2                !
 ! D27   D(15,5,6,1)           180.0            estimate D2E/DX2                !
 ! D28   D(15,5,6,16)           -0.0001         estimate D2E/DX2                !
 ! D29   D(1,7,8,9)            179.9999         estimate D2E/DX2                !
 ! D30   D(1,7,8,17)             0.0001         estimate D2E/DX2                !
 ! D31   D(12,7,8,9)             0.0001         estimate D2E/DX2                !
 ! D32   D(12,7,8,17)         -179.9998         estimate D2E/DX2                !
 ! D33   D(1,7,12,11)         -179.9999         estimate D2E/DX2                !
 ! D34   D(1,7,12,18)            0.0            estimate D2E/DX2                !
 ! D35   D(8,7,12,11)           -0.0001         estimate D2E/DX2                !
 ! D36   D(8,7,12,18)          179.9999         estimate D2E/DX2                !
 ! D37   D(7,8,9,10)             0.0            estimate D2E/DX2                !
 ! D38   D(7,8,9,22)           180.0            estimate D2E/DX2                !
 ! D39   D(17,8,9,10)          179.9998         estimate D2E/DX2                !
 ! D40   D(17,8,9,22)           -0.0002         estimate D2E/DX2                !
 ! D41   D(8,9,10,11)            0.0            estimate D2E/DX2                !
 ! D42   D(8,9,10,20)         -179.9999         estimate D2E/DX2                !
 ! D43   D(22,9,10,11)         180.0            estimate D2E/DX2                !
 ! D44   D(22,9,10,20)           0.0001         estimate D2E/DX2                !
 ! D45   D(9,10,11,12)           0.0            estimate D2E/DX2                !
 ! D46   D(9,10,11,19)        -179.9998         estimate D2E/DX2                !
 ! D47   D(20,10,11,12)        179.9999         estimate D2E/DX2                !
 ! D48   D(20,10,11,19)          0.0001         estimate D2E/DX2                !
 ! D49   D(10,11,12,7)           0.0            estimate D2E/DX2                !
 ! D50   D(10,11,12,18)       -179.9999         estimate D2E/DX2                !
 ! D51   D(19,11,12,7)         179.9999         estimate D2E/DX2                !
 ! D52   D(19,11,12,18)         -0.0001         estimate D2E/DX2                !
 --------------------------------------------------------------------------------
 Trust Radius=3.00D-01 FncErr=1.00D-07 GrdErr=1.00D-06 EigMax=2.50D+02 EigMin=1.00D-04
 Number of steps in this run=    121 maximum allowed number of steps=    132.
 GradGradGradGradGradGradGradGradGradGradGradGradGradGradGradGradGradGrad

                          Input orientation:                          
 ---------------------------------------------------------------------
 Center     Atomic      Atomic             Coordinates (Angstroms)
 Number     Number       Type             X           Y           Z
 ---------------------------------------------------------------------
      1          6           0        1.454508   -0.471976    0.590213
      2          6           0        2.786889   -0.442090    0.156866
      3          6           0        3.494783    0.767361    0.150794
      4          6           0        2.870296    1.946926    0.578069
      5          6           0        1.537914    1.917041    1.011413
      6          6           0        0.830020    0.707590    1.017486
      7          6           0        0.676603   -1.801043    0.596886
      8          6           0        1.301091   -2.980608    0.169612
      9          6           0        0.593198   -4.190059    0.175686
     10          6           0       -0.739182   -4.219946    0.609036
     11          6           0       -1.363670   -3.040381    1.036311
     12          6           0       -0.655777   -1.830929    1.030237
     13          1           0        3.263700   -1.342714   -0.169366
     14          1           0        4.512086    0.790180   -0.180075
     15          1           0        1.061103    2.817665    1.337645
     16          1           0       -0.187283    0.684771    1.348355
     17          1           0        2.318393   -2.957790   -0.161258
     18         17           0       -1.440061   -0.349530    1.566848
     19         17           0       -3.036987   -3.077916    1.580554
     20         17           0       -1.628215   -5.738881    0.616667
     21         17           0        3.759330    3.465860    0.570443
     22         17           0        1.377483   -5.671460   -0.360923
 ---------------------------------------------------------------------
                    Distance matrix (angstroms):
                    1          2          3          4          5
     1  C    0.000000
     2  C    1.401400   0.000000
     3  C    2.427296   1.401400   0.000000
     4  C    2.802800   2.427296   1.401400   0.000000
     5  C    2.427296   2.802800   2.427296   1.401400   0.000000
     6  C    1.401400   2.427296   2.802800   2.427296   1.401400
     7  C    1.540000   2.548270   3.838989   4.342800   3.838989
     8  C    2.548270   2.941400   4.342800   5.187469   4.975106
     9  C    3.838989   4.342800   5.744200   6.558176   6.235992
    10  C    4.342800   5.187469   6.558176   7.145600   6.558176
    11  C    3.838989   4.975106   6.235992   6.558176   5.744200
    12  C    2.548270   3.813607   4.975106   5.187469   4.342800
    13  H    2.146700   1.070000   2.146700   3.396345   3.872800
    14  H    3.396345   2.146700   1.070000   2.146700   3.396345
    15  H    3.396345   3.872800   3.396345   2.146700   1.070000
    16  H    2.146700   3.396345   3.872800   3.396345   2.146700
    17  H    2.736837   2.578650   3.918930   4.990735   5.074276
    18  Cl   3.057342   4.456874   5.254079   4.983028   3.783409
    19  Cl   5.286324   6.549198   7.713260   7.819846   6.797295
    20  Cl   6.102800   6.910901   8.294174   8.905600   8.294174
    21  Cl   4.562800   4.048303   2.743718   1.760000   2.743718
    22  Cl   5.286324   5.440665   6.797295   7.819846   7.713260
                    6          7          8          9         10
     6  C    0.000000
     7  C    2.548270   0.000000
     8  C    3.813607   1.401400   0.000000
     9  C    4.975106   2.427296   1.401400   0.000000
    10  C    5.187469   2.802800   2.427296   1.401400   0.000000
    11  C    4.342800   2.427296   2.802800   2.427296   1.401400
    12  C    2.941400   1.401400   2.427296   2.802800   2.427296
    13  H    3.396345   2.736837   2.578650   3.918930   4.990735
    14  H    3.872800   4.693509   4.965039   6.347206   7.300676
    15  H    2.146700   4.693509   5.919617   7.118798   7.300676
    16  H    1.070000   2.736837   4.127917   5.074276   4.990735
    17  H    4.127917   2.146700   1.070000   2.146700   3.396345
    18  Cl   2.563702   2.743718   4.048303   4.562800   4.048303
    19  Cl   5.440665   4.048303   4.562800   4.048303   2.743718
    20  Cl   6.910901   4.562800   4.048303   2.743718   1.760000
    21  Cl   4.048303   6.102800   6.910901   8.294174   8.905600
    22  Cl   6.549198   4.048303   2.743718   1.760000   2.743718
                   11         12         13         14         15
    11  C    0.000000
    12  C    1.401400   0.000000
    13  H    5.074276   4.127917   0.000000
    14  H    7.118798   5.919617   2.471400   0.000000
    15  H    6.347206   4.965039   4.942800   4.280590   0.000000
    16  H    3.918930   2.578650   4.280590   4.942800   2.471400
    17  H    3.872800   3.396345   1.871400   4.342800   6.097816
    18  Cl   2.743718   1.760000   5.111382   6.307038   4.042212
    19  Cl   1.760000   2.743718   6.765486   8.663168   7.184095
    20  Cl   2.743718   4.048303   6.623817   8.998151   8.998151
    21  Cl   8.294174   6.910901   4.890332   2.879094   2.879094
    22  Cl   4.048303   4.562800   4.725732   7.184095   8.663168
                   16         17         18         19         20
    16  H    0.000000
    17  H    4.671787   0.000000
    18  Cl   1.639199   4.890332   0.000000
    19  Cl   4.725732   5.632800   3.161400   0.000000
    20  Cl   6.623817   4.890332   5.475705   3.161400   0.000000
    21  Cl   4.890332   6.623817   6.525618   9.488480  10.665600
    22  Cl   6.765486   2.879094   6.322800   5.475705   3.161400
                   21         22
    21  Cl   0.000000
    22  Cl   9.488480   0.000000
 Stoichiometry    C12H5Cl5
 Framework group  C1[X(C12H5Cl5)]
 Deg. of freedom    60
 Full point group                 C1      NOp   1
 Largest Abelian subgroup         C1      NOp   1
 Largest concise Abelian subgroup C1      NOp   1
                         Standard orientation:                         
 ---------------------------------------------------------------------
 Center     Atomic      Atomic             Coordinates (Angstroms)
 Number     Number       Type             X           Y           Z
 ---------------------------------------------------------------------
      1          6           0        1.569481    0.286118    0.000002
      2          6           0        2.260870    1.505094   -0.000001
      3          6           0        3.662229    1.515823   -0.000002
      4          6           0        4.372199    0.307575   -0.000001
      5          6           0        3.680811   -0.911402    0.000004
      6          6           0        2.279452   -0.922130    0.000006
      7          6           0        0.029527    0.274328    0.000003
      8          6           0       -0.680444    1.482576    0.000002
      9          6           0       -2.081803    1.471847    0.000001
     10          6           0       -2.773191    0.252871    0.000001
     11          6           0       -2.063220   -0.955378    0.000002
     12          6           0       -0.661862   -0.944649    0.000002
     13          1           0        1.718791    2.427619   -0.000003
     14          1           0        4.190119    2.446539   -0.000005
     15          1           0        4.222890   -1.833926    0.000007
     16          1           0        1.751562   -1.852846    0.000008
     17          1           0       -0.152554    2.413292   -0.000000
     18         17           0        0.229782   -2.462072    0.000001
     19         17           0       -2.931526   -2.486275   -0.000003
     20         17           0       -4.533140    0.239396   -0.000002
     21         17           0        6.132148    0.321049   -0.000003
     22         17           0       -2.973446    2.989270    0.000001
 ---------------------------------------------------------------------
 Rotational constants (GHZ):           0.5471986           0.1404436           0.1117595
 Standard basis: 6-311+G(d,p) (5D, 7F)
 There are   461 symmetry adapted cartesian basis functions of A   symmetry.
 There are   444 symmetry adapted basis functions of A   symmetry.
   444 basis functions,   737 primitive gaussians,   461 cartesian basis functions
    81 alpha electrons       81 beta electrons
       nuclear repulsion energy      1691.0214508928 Hartrees.
 NAtoms=   22 NActive=   22 NUniq=   22 SFac= 1.00D+00 NAtFMM=   60 NAOKFM=F Big=F
 Integral buffers will be    131072 words long.
 Raffenetti 2 integral format.
 Two-electron integral symmetry is turned on.
 One-electron integrals computed using PRISM.
 NBasis=   444 RedAO= T EigKep=  2.04D-06  NBF=   444
 NBsUse=   437 1.00D-06 EigRej=  8.86D-07 NBFU=   437
 ExpMin= 4.38D-02 ExpMax= 1.06D+05 ExpMxC= 3.62D+03 IAcc=3 IRadAn=         5 AccDes= 0.00D+00
 Harris functional with IExCor=  402 and IRadAn=       5 diagonalized for initial guess.
 HarFok:  IExCor=  402 AccDes= 0.00D+00 IRadAn=         5 IDoV= 1 UseB2=F ITyADJ=14
 ICtDFT=  3500011 ScaDFX=  1.000000  1.000000  1.000000  1.000000
 FoFCou: FMM=F IPFlag=           0 FMFlag=      100000 FMFlg1=           0
         NFxFlg=           0 DoJE=T BraDBF=F KetDBF=T FulRan=T
         wScrn=  0.000000 ICntrl=       500 IOpCl=  0 I1Cent=   200000004 NGrid=           0
         NMat0=    1 NMatS0=      1 NMatT0=    0 NMatD0=    1 NMtDS0=    0 NMtDT0=    0
 Petite list used in FoFCou.
 Requested convergence on RMS density matrix=1.00D-08 within  32 cycles.
 Requested convergence on MAX density matrix=1.00D-06.
 Requested convergence on             energy=1.00D-06.
 No special actions if energy rises.
 EnCoef did     4 forward-backward iterations
 SCF Done:  E(RB3LYP) =  -2761.45086056     A.U. after   16 cycles
            NFock= 16  Conv=0.49D-08     -V/T= 2.0026
 QCSCF skips out because SCF is already converged.

 **********************************************************************

            Population analysis using the SCF Density.

 **********************************************************************

 Orbital symmetries:
       Occupied  (A) (A) (A) (A) (A) (A) (A) (A) (A) (A) (A) (A)
                 (A) (A) (A) (A) (A) (A) (A) (A) (A) (A) (A) (A)
                 (A) (A) (A) (A) (A) (A) (A) (A) (A) (A) (A) (A)
                 (A) (A) (A) (A) (A) (A) (A) (A) (A) (A) (A) (A)
                 (A) (A) (A) (A) (A) (A) (A) (A) (A) (A) (A) (A)
                 (A) (A) (A) (A) (A) (A) (A) (A) (A) (A) (A) (A)
                 (A) (A) (A) (A) (A) (A) (A) (A) (A)
       Virtual   (A) (A) (A) (A) (A) (A) (A) (A) (A) (A) (A) (A)
                 (A) (A) (A) (A) (A) (A) (A) (A) (A) (A) (A) (A)
                 (A) (A) (A) (A) (A) (A) (A) (A) (A) (A) (A) (A)
                 (A) (A) (A) (A) (A) (A) (A) (A) (A) (A) (A) (A)
                 (A) (A) (A) (A) (A) (A) (A) (A) (A) (A) (A) (A)
                 (A) (A) (A) (A) (A) (A) (A) (A) (A) (A) (A) (A)
                 (A) (A) (A) (A) (A) (A) (A) (A) (A) (A) (A) (A)
                 (A) (A) (A) (A) (A) (A) (A) (A) (A) (A) (A) (A)
                 (A) (A) (A) (A) (A) (A) (A) (A) (A) (A) (A) (A)
                 (A) (A) (A) (A) (A) (A) (A) (A) (A) (A) (A) (A)
                 (A) (A) (A) (A) (A) (A) (A) (A) (A) (A) (A) (A)
                 (A) (A) (A) (A) (A) (A) (A) (A) (A) (A) (A) (A)
                 (A) (A) (A) (A) (A) (A) (A) (A) (A) (A) (A) (A)
                 (A) (A) (A) (A) (A) (A) (A) (A) (A) (A) (A) (A)
                 (A) (A) (A) (A) (A) (A) (A) (A) (A) (A) (A) (A)
                 (A) (A) (A) (A) (A) (A) (A) (A) (A) (A) (A) (A)
                 (A) (A) (A) (A) (A) (A) (A) (A) (A) (A) (A) (A)
                 (A) (A) (A) (A) (A) (A) (A) (A) (A) (A) (A) (A)
                 (A) (A) (A) (A) (A) (A) (A) (A) (A) (A) (A) (A)
                 (A) (A) (A) (A) (A) (A) (A) (A) (A) (A) (A) (A)
                 (A) (A) (A) (A) (A) (A) (A) (A) (A) (A) (A) (A)
                 (A) (A) (A) (A) (A) (A) (A) (A) (A) (A) (A) (A)
                 (A) (A) (A) (A) (A) (A) (A) (A) (A) (A) (A) (A)
                 (A) (A) (A) (A) (A) (A) (A) (A) (A) (A) (A) (A)
                 (A) (A) (A) (A) (A) (A) (A) (A) (A) (A) (A) (A)
                 (A) (A) (A) (A) (A) (A) (A) (A) (A) (A) (A) (A)
                 (A) (A) (A) (A) (A) (A) (A) (A) (A) (A) (A) (A)
                 (A) (A) (A) (A) (A) (A) (A) (A) (A) (A) (A) (A)
                 (A) (A) (A) (A) (A) (A) (A) (A) (A) (A) (A) (A)
                 (A) (A) (A) (A) (A) (A) (A) (A)
 The electronic state is 1-A.
 Alpha  occ. eigenvalues -- -101.58441-101.58182-101.58108-101.57971-101.56405
 Alpha  occ. eigenvalues --  -10.28793 -10.28347 -10.28275 -10.28210 -10.25457
 Alpha  occ. eigenvalues --  -10.24273 -10.22601 -10.21918 -10.20598 -10.20453
 Alpha  occ. eigenvalues --  -10.19948 -10.18087  -9.50228  -9.49599  -9.49527
 Alpha  occ. eigenvalues --   -9.49390  -9.47845  -7.26654  -7.26117  -7.26027
 Alpha  occ. eigenvalues --   -7.25907  -7.25679  -7.25637  -7.25079  -7.25004
 Alpha  occ. eigenvalues --   -7.24992  -7.24945  -7.24867  -7.24788  -7.24305
 Alpha  occ. eigenvalues --   -7.23334  -7.23293  -0.96292  -0.92443  -0.90583
 Alpha  occ. eigenvalues --   -0.89595  -0.86841  -0.86318  -0.84707  -0.78554
 Alpha  occ. eigenvalues --   -0.77550  -0.76096  -0.73919  -0.66258  -0.64183
 Alpha  occ. eigenvalues --   -0.63703  -0.61111  -0.55216  -0.54565  -0.53141
 Alpha  occ. eigenvalues --   -0.50532  -0.49248  -0.48269  -0.47154  -0.46569
 Alpha  occ. eigenvalues --   -0.46066  -0.45951  -0.43013  -0.42256  -0.41718
 Alpha  occ. eigenvalues --   -0.40465  -0.40285  -0.38515  -0.38394  -0.35880
 Alpha  occ. eigenvalues --   -0.35819  -0.35615  -0.34634  -0.33848  -0.32965
 Alpha  occ. eigenvalues --   -0.32244  -0.29228  -0.28966  -0.28023  -0.27701
 Alpha  occ. eigenvalues --   -0.25089
 Alpha virt. eigenvalues --   -0.07843  -0.06567  -0.06007  -0.03800  -0.01731
 Alpha virt. eigenvalues --   -0.01566  -0.00776   0.00465   0.00778   0.01042
 Alpha virt. eigenvalues --    0.01746   0.01900   0.03349   0.03647   0.04064
 Alpha virt. eigenvalues --    0.04197   0.05414   0.05772   0.06066   0.06311
 Alpha virt. eigenvalues --    0.06843   0.07177   0.08085   0.08212   0.08262
 Alpha virt. eigenvalues --    0.08798   0.09096   0.09315   0.10011   0.10093
 Alpha virt. eigenvalues --    0.10382   0.11279   0.12039   0.12237   0.12418
 Alpha virt. eigenvalues --    0.12645   0.13441   0.13510   0.14033   0.14045
 Alpha virt. eigenvalues --    0.14498   0.14848   0.15190   0.15564   0.16031
 Alpha virt. eigenvalues --    0.16629   0.16935   0.17484   0.17882   0.17970
 Alpha virt. eigenvalues --    0.18229   0.18598   0.19049   0.19252   0.19441
 Alpha virt. eigenvalues --    0.20176   0.20827   0.21091   0.21156   0.21705
 Alpha virt. eigenvalues --    0.21834   0.22282   0.22594   0.23811   0.24078
 Alpha virt. eigenvalues --    0.24619   0.24992   0.25156   0.25416   0.26093
 Alpha virt. eigenvalues --    0.26522   0.26868   0.27553   0.28734   0.28993
 Alpha virt. eigenvalues --    0.29712   0.30503   0.31056   0.31533   0.31901
 Alpha virt. eigenvalues --    0.32835   0.33944   0.34618   0.35539   0.36167
 Alpha virt. eigenvalues --    0.38124   0.39398   0.41094   0.41871   0.42192
 Alpha virt. eigenvalues --    0.42745   0.43805   0.44120   0.44542   0.45368
 Alpha virt. eigenvalues --    0.45872   0.46190   0.46333   0.46848   0.48008
 Alpha virt. eigenvalues --    0.48227   0.48549   0.49342   0.50188   0.50646
 Alpha virt. eigenvalues --    0.50950   0.52032   0.53189   0.53849   0.55499
 Alpha virt. eigenvalues --    0.56380   0.56961   0.57546   0.57999   0.58306
 Alpha virt. eigenvalues --    0.59103   0.59614   0.60487   0.61066   0.61394
 Alpha virt. eigenvalues --    0.62710   0.63290   0.63534   0.64402   0.64761
 Alpha virt. eigenvalues --    0.66040   0.66653   0.67062   0.68016   0.68580
 Alpha virt. eigenvalues --    0.70663   0.72817   0.74248   0.75014   0.79144
 Alpha virt. eigenvalues --    0.80443   0.81248   0.81751   0.82237   0.82655
 Alpha virt. eigenvalues --    0.83083   0.83359   0.83954   0.83992   0.84114
 Alpha virt. eigenvalues --    0.84646   0.85142   0.85162   0.85397   0.85755
 Alpha virt. eigenvalues --    0.86334   0.86963   0.87497   0.88086   0.88734
 Alpha virt. eigenvalues --    0.89160   0.90269   0.90793   0.91735   0.92940
 Alpha virt. eigenvalues --    0.93041   0.93584   0.94073   0.94163   0.94878
 Alpha virt. eigenvalues --    0.95692   0.95933   0.96137   0.97602   0.97889
 Alpha virt. eigenvalues --    0.98163   0.99680   1.00992   1.02139   1.03749
 Alpha virt. eigenvalues --    1.05573   1.06410   1.06839   1.09087   1.09984
 Alpha virt. eigenvalues --    1.11750   1.12371   1.14964   1.17720   1.18196
 Alpha virt. eigenvalues --    1.19292   1.23365   1.23685   1.24093   1.25873
 Alpha virt. eigenvalues --    1.26544   1.27381   1.27827   1.28037   1.29402
 Alpha virt. eigenvalues --    1.31362   1.33496   1.35770   1.36568   1.42597
 Alpha virt. eigenvalues --    1.43499   1.46138   1.47553   1.48721   1.51750
 Alpha virt. eigenvalues --    1.54087   1.54987   1.55358   1.56631   1.59740
 Alpha virt. eigenvalues --    1.60953   1.63865   1.64036   1.66081   1.67988
 Alpha virt. eigenvalues --    1.69561   1.71399   1.72762   1.76336   1.77749
 Alpha virt. eigenvalues --    1.79526   1.81435   1.81861   1.83324   1.84189
 Alpha virt. eigenvalues --    1.85330   1.86485   1.89900   1.90694   1.91958
 Alpha virt. eigenvalues --    1.92643   1.94173   1.95118   1.96338   1.98307
 Alpha virt. eigenvalues --    2.00199   2.05611   2.05699   2.07704   2.07885
 Alpha virt. eigenvalues --    2.10559   2.17600   2.20766   2.21665   2.22045
 Alpha virt. eigenvalues --    2.23200   2.24131   2.24954   2.26340   2.26418
 Alpha virt. eigenvalues --    2.26617   2.29053   2.31231   2.33812   2.33906
 Alpha virt. eigenvalues --    2.34618   2.37229   2.39962   2.41327   2.41972
 Alpha virt. eigenvalues --    2.43258   2.44662   2.48165   2.49436   2.50888
 Alpha virt. eigenvalues --    2.52477   2.55375   2.57961   2.58808   2.61226
 Alpha virt. eigenvalues --    2.62885   2.63241   2.65314   2.66590   2.68229
 Alpha virt. eigenvalues --    2.70569   2.72271   2.72579   2.73679   2.74297
 Alpha virt. eigenvalues --    2.78064   2.78950   2.79718   2.80639   2.82998
 Alpha virt. eigenvalues --    2.85057   2.90681   2.92563   2.92825   2.95515
 Alpha virt. eigenvalues --    3.00684   3.04840   3.06311   3.07363   3.11099
 Alpha virt. eigenvalues --    3.11640   3.13842   3.17144   3.18930   3.21040
 Alpha virt. eigenvalues --    3.24372   3.34062   3.37268   3.40585   3.47470
 Alpha virt. eigenvalues --    3.50428   3.58837   3.61519   3.66824   3.71625
 Alpha virt. eigenvalues --    3.79526   3.88528   4.00216   4.05579   4.15876
 Alpha virt. eigenvalues --    4.19926   4.44334   4.79131   4.83051   9.72268
 Alpha virt. eigenvalues --    9.77117   9.77963   9.79866   9.86217  23.31130
 Alpha virt. eigenvalues --   23.58445  23.78434  23.82507  23.86479  23.93530
 Alpha virt. eigenvalues --   23.94894  23.95709  24.00937  24.05804  24.06963
 Alpha virt. eigenvalues --   24.14319  25.75115  25.79210  25.82160  25.83640
 Alpha virt. eigenvalues --   25.90467  26.09960  26.10475  26.13191  26.18038
 Alpha virt. eigenvalues --   26.44139  26.54795  26.59530  26.70436  26.77722
 Alpha virt. eigenvalues --   26.94746 215.71022 215.76164 215.77473 215.79614
 Alpha virt. eigenvalues --  215.88536
          Condensed to atoms (all electrons):
               1          2          3          4          5          6
     1  C   11.308492   0.669054  -0.418359  -1.116537  -1.023998   1.496941
     2  C    0.669054  10.369570   0.788726  -1.469179  -1.375523  -1.220367
     3  C   -0.418359   0.788726  12.266830   0.342766  -2.517868  -1.866590
     4  C   -1.116537  -1.469179   0.342766  11.018954   1.226835  -1.642729
     5  C   -1.023998  -1.375523  -2.517868   1.226835   9.744072   1.420811
     6  C    1.496941  -1.220367  -1.866590  -1.642729   1.420811  11.556689
     7  C    3.551452  -0.028646  -0.642906  -0.888986  -0.834408   0.134777
     8  C   -1.911377  -0.451895  -0.895715  -0.641848  -0.398604  -1.404208
     9  C   -2.085883   0.248114   0.082393  -0.070923  -0.280177  -1.109407
    10  C   -1.173934   0.196598  -0.329434   0.002811  -0.208782  -0.118193
    11  C   -1.625164  -0.565185  -0.236121  -0.040205   0.042014  -0.072765
    12  C   -0.971706  -1.103740  -0.686284  -0.391368   0.181880   0.172038
    13  H    0.030120   0.368278  -0.138418  -0.025195  -0.019671  -0.032247
    14  H    0.050622  -0.070729   0.294803   0.030937   0.022406   0.013047
    15  H    0.093582   0.005522   0.023133  -0.023821   0.298134  -0.054022
    16  H   -0.214884  -0.004680  -0.064779   0.018526   0.048720   0.568397
    17  H    0.070440   0.068468   0.025849   0.005352   0.002254   0.024662
    18  Cl  -0.020891   0.058808   0.141732  -0.084435  -0.408753  -0.918006
    19  Cl   0.052397  -0.054500  -0.002513  -0.001564   0.044452   0.027329
    20  Cl  -0.105335  -0.041225  -0.009375  -0.001430  -0.003142  -0.025131
    21  Cl  -0.275665  -0.035083   0.284354  -0.916958   0.298515  -0.048146
    22  Cl  -0.182238  -0.007481   0.025863  -0.002557  -0.010103  -0.074769
               7          8          9         10         11         12
     1  C    3.551452  -1.911377  -2.085883  -1.173934  -1.625164  -0.971706
     2  C   -0.028646  -0.451895   0.248114   0.196598  -0.565185  -1.103740
     3  C   -0.642906  -0.895715   0.082393  -0.329434  -0.236121  -0.686284
     4  C   -0.888986  -0.641848  -0.070923   0.002811  -0.040205  -0.391368
     5  C   -0.834408  -0.398604  -0.280177  -0.208782   0.042014   0.181880
     6  C    0.134777  -1.404208  -1.109407  -0.118193  -0.072765   0.172038
     7  C   16.770367  -2.005919  -4.233001   3.156178  -3.362468  -3.519432
     8  C   -2.005919  10.880767   2.610306  -5.362003   2.489373   2.670439
     9  C   -4.233001   2.610306  11.947020  -4.160775   0.686746   2.917714
    10  C    3.156178  -5.362003  -4.160775  23.813932  -3.462390  -5.483446
    11  C   -3.362468   2.489373   0.686746  -3.462390  11.963418   0.535028
    12  C   -3.519432   2.670439   2.917714  -5.483446   0.535028  12.457127
    13  H    0.045910   0.071189  -0.002621  -0.000508   0.001332   0.023173
    14  H    0.005082   0.006395   0.001347   0.000549   0.000001   0.003884
    15  H    0.016756   0.003576   0.000140   0.000017   0.000192  -0.002744
    16  H   -0.061527  -0.005935  -0.023610   0.018773   0.013255   0.179381
    17  H    0.094637   0.291849  -0.134022  -0.026896  -0.013095  -0.069527
    18  Cl  -0.294945   0.319249   0.507804  -0.349426   0.450185  -0.996299
    19  Cl  -0.415795   0.233572  -0.036311  -0.661135  -0.659107   0.808968
    20  Cl   0.031193  -0.452687  -0.371900   0.420755   0.424284  -0.661725
    21  Cl  -0.063533  -0.035849  -0.002345  -0.002447   0.000039  -0.022501
    22  Cl  -0.920856   0.447586  -0.154763  -0.231545  -0.031624   0.369135
              13         14         15         16         17         18
     1  C    0.030120   0.050622   0.093582  -0.214884   0.070440  -0.020891
     2  C    0.368278  -0.070729   0.005522  -0.004680   0.068468   0.058808
     3  C   -0.138418   0.294803   0.023133  -0.064779   0.025849   0.141732
     4  C   -0.025195   0.030937  -0.023821   0.018526   0.005352  -0.084435
     5  C   -0.019671   0.022406   0.298134   0.048720   0.002254  -0.408753
     6  C   -0.032247   0.013047  -0.054022   0.568397   0.024662  -0.918006
     7  C    0.045910   0.005082   0.016756  -0.061527   0.094637  -0.294945
     8  C    0.071189   0.006395   0.003576  -0.005935   0.291849   0.319249
     9  C   -0.002621   0.001347   0.000140  -0.023610  -0.134022   0.507804
    10  C   -0.000508   0.000549   0.000017   0.018773  -0.026896  -0.349426
    11  C    0.001332   0.000001   0.000192   0.013255  -0.013095   0.450185
    12  C    0.023173   0.003884  -0.002744   0.179381  -0.069527  -0.996299
    13  H    0.561683  -0.007520   0.000099  -0.000279   0.002453   0.000642
    14  H   -0.007520   0.514382  -0.000350   0.000123   0.000028  -0.000247
    15  H    0.000099  -0.000350   0.525517  -0.014890  -0.000001   0.002867
    16  H   -0.000279   0.000123  -0.014890   0.713692  -0.000070  -0.303731
    17  H    0.002453   0.000028  -0.000001  -0.000070   0.526706  -0.002094
    18  Cl   0.000642  -0.000247   0.002867  -0.303731  -0.002094  18.502824
    19  Cl  -0.000016  -0.000002  -0.000011   0.004763   0.001795  -0.319474
    20  Cl   0.000112   0.000000  -0.000001   0.000605  -0.001893  -0.008985
    21  Cl  -0.000597  -0.011984  -0.013214   0.000739   0.000070  -0.001222
    22  Cl  -0.000125  -0.000001   0.000002  -0.000233  -0.016091   0.015224
              19         20         21         22
     1  C    0.052397  -0.105335  -0.275665  -0.182238
     2  C   -0.054500  -0.041225  -0.035083  -0.007481
     3  C   -0.002513  -0.009375   0.284354   0.025863
     4  C   -0.001564  -0.001430  -0.916958  -0.002557
     5  C    0.044452  -0.003142   0.298515  -0.010103
     6  C    0.027329  -0.025131  -0.048146  -0.074769
     7  C   -0.415795   0.031193  -0.063533  -0.920856
     8  C    0.233572  -0.452687  -0.035849   0.447586
     9  C   -0.036311  -0.371900  -0.002345  -0.154763
    10  C   -0.661135   0.420755  -0.002447  -0.231545
    11  C   -0.659107   0.424284   0.000039  -0.031624
    12  C    0.808968  -0.661725  -0.022501   0.369135
    13  H   -0.000016   0.000112  -0.000597  -0.000125
    14  H   -0.000002   0.000000  -0.011984  -0.000001
    15  H   -0.000011  -0.000001  -0.013214   0.000002
    16  H    0.004763   0.000605   0.000739  -0.000233
    17  H    0.001795  -0.001893   0.000070  -0.016091
    18  Cl  -0.319474  -0.008985  -0.001222   0.015224
    19  Cl  17.587193  -0.288200   0.000034  -0.003789
    20  Cl  -0.288200  17.619571  -0.000007  -0.200876
    21  Cl   0.000034  -0.000007  17.413490  -0.000010
    22  Cl  -0.003789  -0.200876  -0.000010  17.433543
 Mulliken charges:
               1
     1  C   -0.197131
     2  C   -0.344906
     3  C   -0.468089
     4  C    0.671553
     5  C   -0.249065
     6  C   -0.828112
     7  C   -0.533930
     8  C   -0.458261
     9  C   -0.335845
    10  C   -0.038699
    11  C   -0.537745
    12  C   -0.409994
    13  H    0.122206
    14  H    0.147226
    15  H    0.139517
    16  H    0.127643
    17  H    0.149125
    18  Cl   0.709173
    19  Cl   0.681913
    20  Cl   0.675393
    21  Cl   0.432322
    22  Cl   0.545705
 Sum of Mulliken charges =  -0.00000
 Mulliken charges with hydrogens summed into heavy atoms:
               1
     1  C   -0.197131
     2  C   -0.222699
     3  C   -0.320863
     4  C    0.671553
     5  C   -0.109548
     6  C   -0.700469
     7  C   -0.533930
     8  C   -0.309136
     9  C   -0.335845
    10  C   -0.038699
    11  C   -0.537745
    12  C   -0.409994
    18  Cl   0.709173
    19  Cl   0.681913
    20  Cl   0.675393
    21  Cl   0.432322
    22  Cl   0.545705
 Electronic spatial extent (au):  <R**2>=           8327.2415
 Charge=             -0.0000 electrons
 Dipole moment (field-independent basis, Debye):
    X=              0.3189    Y=              0.5656    Z=              0.0000  Tot=              0.6493
 Quadrupole moment (field-independent basis, Debye-Ang):
   XX=           -145.5769   YY=           -125.4830   ZZ=           -135.8265
   XY=             -0.0157   XZ=              0.0000   YZ=             -0.0000
 Traceless Quadrupole moment (field-independent basis, Debye-Ang):
   XX=             -9.9481   YY=             10.1458   ZZ=             -0.1977
   XY=             -0.0157   XZ=              0.0000   YZ=             -0.0000
 Octapole moment (field-independent basis, Debye-Ang**2):
  XXX=            -80.3419  YYY=             -4.8058  ZZZ=             -0.0001  XYY=             15.1304
  XXY=            -11.7841  XXZ=             -0.0000  XZZ=            -14.1230  YZZ=             -4.8206
  YYZ=             -0.0001  XYZ=             -0.0001
 Hexadecapole moment (field-independent basis, Debye-Ang**3):
 XXXX=          -8866.9783 YYYY=          -2164.7883 ZZZZ=           -158.2494 XXXY=            -23.6123
 XXXZ=              0.0004 YYYX=              1.3590 YYYZ=             -0.0001 ZZZX=             -0.0000
 ZZZY=              0.0000 XXYY=          -1724.3057 XXZZ=          -1498.4007 YYZZ=           -419.0163
 XXYZ=             -0.0002 YYXZ=              0.0001 ZZXY=             -4.5753
 N-N= 1.691021450893D+03 E-N=-9.918330689772D+03  KE= 2.754196854915D+03
 Calling FoFJK, ICntrl=      2127 FMM=F ISym2X=0 I1Cent= 0 IOpClX= 0 NMat=1 NMatS=1 NMatT=0.
 ***** Axes restored to original set *****
 -------------------------------------------------------------------
 Center     Atomic                   Forces (Hartrees/Bohr)
 Number     Number              X              Y              Z
 -------------------------------------------------------------------
      1        6          -0.014265955   -0.026606166   -0.000296986
      2        6          -0.004098803    0.021282200    0.005347496
      3        6          -0.010628796   -0.003224451    0.002896242
      4        6          -0.007890132   -0.008232081    0.001053150
      5        6           0.013249916   -0.011864260   -0.006593405
      6        6           0.048019366    0.030277921   -0.010133939
      7        6           0.017818633    0.032389203    0.000212675
      8        6          -0.021157232   -0.009975757    0.005096930
      9        6           0.005358523    0.005535024   -0.000725936
     10        6          -0.005254480   -0.010067624   -0.000159590
     11        6          -0.010140659    0.002555614    0.003821084
     12        6           0.002224094   -0.004857564   -0.001645133
     13        1           0.007351738   -0.003255675   -0.003033573
     14        1           0.008612695    0.000586645   -0.002727308
     15        1          -0.003758423    0.008126732    0.002764537
     16        1           0.041849016    0.028231284   -0.008485649
     17        1           0.004910301   -0.003307092   -0.002238951
     18       17          -0.084708471   -0.061712161    0.016318051
     19       17           0.009466574   -0.000303133   -0.003175872
     20       17           0.004333389    0.008370410    0.000144303
     21       17          -0.000821346   -0.002686431   -0.000233928
     22       17          -0.000469945    0.008737362    0.001795802
 -------------------------------------------------------------------
 Cartesian Forces:  Max     0.084708471 RMS     0.018287373

 GradGradGradGradGradGradGradGradGradGradGradGradGradGradGradGradGradGrad
 Berny optimization.
 FormGI is forming the generalized inverse of G from B-inverse, IUseBI=4.
 Internal  Forces:  Max     0.280502761 RMS     0.050952636
 Search for a local minimum.
 Step number   1 out of a maximum of  121
 All quantities printed in internal units (Hartrees-Bohrs-Radians)
 Mixed Optimization -- RFO/linear search
 Second derivative matrix not updated -- first step.
 ITU=  0
     Eigenvalues ---    0.00237   0.01506   0.01506   0.02070   0.02070
     Eigenvalues ---    0.02070   0.02070   0.02070   0.02070   0.02070
     Eigenvalues ---    0.02070   0.02070   0.02070   0.02070   0.02070
     Eigenvalues ---    0.02070   0.02070   0.02070   0.02070   0.16000
     Eigenvalues ---    0.16000   0.16000   0.16000   0.16000   0.22000
     Eigenvalues ---    0.22981   0.23485   0.24000   0.25000   0.25000
     Eigenvalues ---    0.25000   0.25000   0.25000   0.25000   0.25000
     Eigenvalues ---    0.25000   0.25000   0.28519   0.29539   0.29539
     Eigenvalues ---    0.29539   0.29539   0.29539   0.37230   0.37230
     Eigenvalues ---    0.37230   0.37230   0.37230   0.41268   0.41635
     Eigenvalues ---    0.41640   0.41797   0.45389   0.45389   0.45389
     Eigenvalues ---    0.45389   0.45389   0.45389   0.45389   0.45389
 RFO step:  Lambda=-4.21965743D-01 EMin= 2.36824129D-03
 Linear search not attempted -- first point.
 Maximum step size (   0.300) exceeded in Quadratic search.
    -- Step size scaled by   0.381
 Iteration  1 RMS(Cart)=  0.20604323 RMS(Int)=  0.01006482
 Iteration  2 RMS(Cart)=  0.03720306 RMS(Int)=  0.00029699
 Iteration  3 RMS(Cart)=  0.00056515 RMS(Int)=  0.00004562
 Iteration  4 RMS(Cart)=  0.00000016 RMS(Int)=  0.00004562
 Variable       Old X    -DE/DX   Delta X   Delta X   Delta X     New X
                                 (Linear)    (Quad)   (Total)
    R1        2.64826   0.01748   0.00000   0.00789   0.00793   2.65620
    R2        2.64826   0.01741   0.00000   0.00795   0.00799   2.65625
    R3        2.91018   0.06746   0.00000   0.03634   0.03634   2.94652
    R4        2.64826  -0.01403   0.00000  -0.00620  -0.00619   2.64207
    R5        2.02201   0.00694   0.00000   0.00333   0.00333   2.02534
    R6        2.64826  -0.02748   0.00000  -0.01233  -0.01237   2.63589
    R7        2.02201   0.00904   0.00000   0.00434   0.00434   2.02634
    R8        2.64826  -0.02552   0.00000  -0.01138  -0.01143   2.63683
    R9        3.32592  -0.00273   0.00000  -0.00145  -0.00145   3.32447
   R10        2.64826  -0.00151   0.00000  -0.00056  -0.00056   2.64770
   R11        2.02201   0.00936   0.00000   0.00449   0.00449   2.02650
   R12        2.02201  -0.04301   0.00000  -0.02063  -0.02063   2.00138
   R13        2.64826   0.01623   0.00000   0.00750   0.00760   2.65586
   R14        2.64826   0.12085   0.00000   0.05377   0.05384   2.70210
   R15        2.64826  -0.02623   0.00000  -0.01217  -0.01215   2.63612
   R16        2.02201   0.00529   0.00000   0.00254   0.00254   2.02454
   R17        2.64826  -0.03477   0.00000  -0.01633  -0.01640   2.63186
   R18        3.32592  -0.00811   0.00000  -0.00431  -0.00431   3.32161
   R19        2.64826  -0.02230   0.00000  -0.01014  -0.01024   2.63803
   R20        3.32592  -0.00941   0.00000  -0.00500  -0.00500   3.32092
   R21        2.64826   0.01178   0.00000   0.00589   0.00586   2.65412
   R22        3.32592  -0.00998   0.00000  -0.00530  -0.00530   3.32062
   R23        3.32592  -0.00922   0.00000  -0.00490  -0.00490   3.32102
    A1        2.09440  -0.06236   0.00000  -0.03478  -0.03469   2.05971
    A2        2.09440  -0.13334   0.00000  -0.07588  -0.07593   2.01847
    A3        2.09440   0.19570   0.00000   0.11066   0.11061   2.20501
    A4        2.09440   0.03935   0.00000   0.02330   0.02335   2.11774
    A5        2.09440  -0.01455   0.00000  -0.00829  -0.00832   2.08607
    A6        2.09440  -0.02480   0.00000  -0.01500  -0.01503   2.07937
    A7        2.09440  -0.00128   0.00000  -0.00174  -0.00178   2.09262
    A8        2.09440   0.00104   0.00000   0.00113   0.00115   2.09555
    A9        2.09440   0.00024   0.00000   0.00060   0.00062   2.09502
   A10        2.09440  -0.00791   0.00000  -0.00566  -0.00575   2.08864
   A11        2.09440   0.00280   0.00000   0.00218   0.00222   2.09662
   A12        2.09440   0.00511   0.00000   0.00348   0.00353   2.09793
   A13        2.09440   0.01070   0.00000   0.00578   0.00572   2.10012
   A14        2.09440  -0.00584   0.00000  -0.00321  -0.00319   2.09121
   A15        2.09440  -0.00485   0.00000  -0.00256  -0.00254   2.09186
   A16        2.09440   0.02150   0.00000   0.01310   0.01314   2.10754
   A17        2.09440   0.01731   0.00000   0.01181   0.01179   2.10619
   A18        2.09440  -0.03881   0.00000  -0.02492  -0.02494   2.06946
   A19        2.09440  -0.20571   0.00000  -0.11759  -0.11768   1.97672
   A20        2.09440   0.28050   0.00000   0.15807   0.15798   2.25237
   A21        2.09440  -0.07479   0.00000  -0.04048  -0.04030   2.05410
   A22        2.09440   0.05973   0.00000   0.03472   0.03485   2.12924
   A23        2.09440  -0.02635   0.00000  -0.01506  -0.01512   2.07927
   A24        2.09440  -0.03338   0.00000  -0.01966  -0.01972   2.07467
   A25        2.09440   0.00436   0.00000  -0.00040  -0.00045   2.09395
   A26        2.09440  -0.00840   0.00000  -0.00333  -0.00330   2.09109
   A27        2.09440   0.00404   0.00000   0.00373   0.00375   2.09815
   A28        2.09440  -0.01131   0.00000  -0.00885  -0.00902   2.08537
   A29        2.09440   0.00652   0.00000   0.00492   0.00500   2.09940
   A30        2.09440   0.00479   0.00000   0.00393   0.00402   2.09841
   A31        2.09440   0.03869   0.00000   0.02211   0.02198   2.11638
   A32        2.09440  -0.02022   0.00000  -0.01155  -0.01149   2.08291
   A33        2.09440  -0.01847   0.00000  -0.01056  -0.01050   2.08390
   A34        2.09440  -0.01669   0.00000  -0.00711  -0.00706   2.08733
   A35        2.09440   0.18406   0.00000   0.10317   0.10315   2.19755
   A36        2.09440  -0.16737   0.00000  -0.09607  -0.09609   1.99831
    D1        0.00000   0.00000   0.00000   0.00000   0.00000   0.00000
    D2        3.14159   0.00000   0.00000   0.00000   0.00000   3.14159
    D3       -3.14159   0.00000   0.00000  -0.00000  -0.00000  -3.14159
    D4       -0.00000  -0.00000   0.00000  -0.00000  -0.00000  -0.00000
    D5       -0.00000  -0.00000   0.00000  -0.00000  -0.00000  -0.00000
    D6        3.14159  -0.00000   0.00000  -0.00000  -0.00000   3.14159
    D7        3.14159   0.00000   0.00000   0.00000   0.00000   3.14159
    D8        0.00000  -0.00000   0.00000  -0.00000  -0.00000   0.00000
    D9       -0.00000  -0.00000   0.00000  -0.00000  -0.00000  -0.00000
   D10        3.14159  -0.00000   0.00000  -0.00000  -0.00000   3.14159
   D11        3.14159  -0.00000   0.00000  -0.00000  -0.00000   3.14159
   D12       -0.00000  -0.00000   0.00000  -0.00000  -0.00000  -0.00000
   D13        0.00000  -0.00000   0.00000  -0.00000  -0.00000   0.00000
   D14        3.14159  -0.00000   0.00000  -0.00000  -0.00000   3.14159
   D15       -3.14159  -0.00000   0.00000  -0.00000  -0.00000  -3.14159
   D16        0.00000  -0.00000   0.00000  -0.00000  -0.00000   0.00000
   D17       -0.00000  -0.00000   0.00000   0.00000   0.00000  -0.00000
   D18        3.14159   0.00000   0.00000   0.00000   0.00000   3.14159
   D19        3.14159  -0.00000   0.00000  -0.00000  -0.00000   3.14159
   D20        0.00000  -0.00000   0.00000  -0.00000  -0.00000   0.00000
   D21        0.00000   0.00000   0.00000   0.00000   0.00000   0.00000
   D22       -3.14159   0.00000   0.00000   0.00000   0.00000  -3.14159
   D23       -3.14159  -0.00000   0.00000  -0.00000  -0.00000  -3.14159
   D24        0.00000   0.00000   0.00000   0.00000   0.00000   0.00000
   D25       -0.00000   0.00000   0.00000   0.00000   0.00000  -0.00000
   D26        3.14159   0.00000   0.00000   0.00000   0.00000   3.14159
   D27        3.14159   0.00000   0.00000   0.00000   0.00000   3.14159
   D28       -0.00000   0.00000   0.00000   0.00000   0.00000  -0.00000
   D29        3.14159   0.00000   0.00000   0.00000   0.00000   3.14159
   D30        0.00000   0.00000   0.00000   0.00000   0.00000   0.00000
   D31        0.00000   0.00000   0.00000   0.00000   0.00000   0.00000
   D32       -3.14159  -0.00000   0.00000  -0.00000  -0.00000  -3.14159
   D33       -3.14159   0.00000   0.00000   0.00000   0.00000  -3.14159
   D34        0.00000  -0.00000   0.00000  -0.00000  -0.00000   0.00000
   D35       -0.00000  -0.00000   0.00000  -0.00000  -0.00000  -0.00000
   D36        3.14159  -0.00000   0.00000  -0.00000  -0.00000   3.14159
   D37       -0.00000  -0.00000   0.00000  -0.00000  -0.00000  -0.00000
   D38        3.14159  -0.00000   0.00000  -0.00000  -0.00000   3.14159
   D39        3.14159   0.00000   0.00000   0.00000   0.00000   3.14159
   D40       -0.00000   0.00000   0.00000   0.00000   0.00000  -0.00000
   D41       -0.00000  -0.00000   0.00000  -0.00000  -0.00000  -0.00000
   D42       -3.14159  -0.00000   0.00000  -0.00000  -0.00000  -3.14159
   D43        3.14159   0.00000   0.00000   0.00000   0.00000   3.14159
   D44        0.00000  -0.00000   0.00000  -0.00000  -0.00000   0.00000
   D45        0.00000   0.00000   0.00000   0.00000   0.00000   0.00000
   D46       -3.14159  -0.00000   0.00000  -0.00000  -0.00000  -3.14159
   D47        3.14159   0.00000   0.00000   0.00000   0.00000   3.14159
   D48        0.00000   0.00000   0.00000   0.00000   0.00000   0.00000
   D49        0.00000   0.00000   0.00000   0.00000   0.00000   0.00000
   D50       -3.14159   0.00000   0.00000   0.00000   0.00000  -3.14159
   D51        3.14159   0.00000   0.00000   0.00000   0.00000   3.14159
   D52       -0.00000   0.00000   0.00000   0.00000   0.00000  -0.00000
         Item               Value     Threshold  Converged?
 Maximum Force            0.280503     0.000450     NO 
 RMS     Force            0.050953     0.000300     NO 
 Maximum Displacement     0.982207     0.001800     NO 
 RMS     Displacement     0.238418     0.001200     NO 
 Predicted change in Energy=-1.491177D-01
 GradGradGradGradGradGradGradGradGradGradGradGradGradGradGradGradGradGrad

                          Input orientation:                          
 ---------------------------------------------------------------------
 Center     Atomic      Atomic             Coordinates (Angstroms)
 Number     Number       Type             X           Y           Z
 ---------------------------------------------------------------------
      1          6           0        1.320400   -0.364242    0.654629
      2          6           0        2.644288   -0.479885    0.196749
      3          6           0        3.489329    0.631782    0.127128
      4          6           0        3.021148    1.886531    0.517026
      5          6           0        1.710034    2.022969    0.974601
      6          6           0        0.865051    0.907466    1.043483
      7          6           0        0.496162   -1.687610    0.677638
      8          6           0        1.224141   -2.802695    0.228377
      9          6           0        0.662940   -4.078627    0.173637
     10          6           0       -0.657096   -4.275836    0.571495
     11          6           0       -1.408223   -3.189240    1.023033
     12          6           0       -0.858384   -1.898295    1.084336
     13          1           0        3.016635   -1.438233   -0.105907
     14          1           0        4.495849    0.520237   -0.225424
     15          1           0        1.347642    2.986528    1.274956
     16          1           0       -0.124787    1.042781    1.395002
     17          1           0        2.241081   -2.671141   -0.081951
     18         17           0       -1.959823   -0.664678    1.678900
     19         17           0       -3.073348   -3.442274    1.524103
     20         17           0       -1.372332   -5.879717    0.505914
     21         17           0        4.079272    3.289394    0.431894
     22         17           0        1.626244   -5.433145   -0.398121
 ---------------------------------------------------------------------
                    Distance matrix (angstroms):
                    1          2          3          4          5
     1  C    0.000000
     2  C    1.405598   0.000000
     3  C    2.444294   1.398122   0.000000
     4  C    2.824440   2.417546   1.394851   0.000000
     5  C    2.439872   2.782474   2.412364   1.395353   0.000000
     6  C    1.405629   2.409852   2.793303   2.425794   1.401102
     7  C    1.559231   2.510836   3.826446   4.379023   3.915363
     8  C    2.477298   2.722730   4.115453   5.030049   4.907135
     9  C    3.802665   4.108189   5.493504   6.423564   6.242389
    10  C    4.383831   5.044682   6.440110   7.176853   6.740975
    11  C    3.944834   4.944309   6.276055   6.755651   6.073960
    12  C    2.699086   3.881804   5.120560   5.449543   4.688829
    13  H    2.146878   1.071762   2.136049   3.382621   3.854169
    14  H    3.411784   2.146335   1.072296   2.143067   3.385118
    15  H    3.407816   3.854847   3.383662   2.141279   1.072375
    16  H    2.148588   3.379660   3.852046   3.373376   2.122281
    17  H    2.590749   2.245406   3.537108   4.662580   4.840762
    18  Cl   3.449530   4.840326   5.812234   5.715653   4.602970
    19  Cl   5.434638   6.574875   7.849726   8.158018   7.283651
    20  Cl   6.139494   6.736988   8.135038   8.922859   8.495475
    21  Cl   4.583671   4.040042   2.739310   1.759232   2.740739
    22  Cl   5.186097   5.091666   6.366342   7.507391   7.581888
                    6          7          8          9         10
     6  C    0.000000
     7  C    2.646572   0.000000
     8  C    3.815578   1.405419   0.000000
     9  C    5.065433   2.449244   1.394972   0.000000
    10  C    5.422760   2.835522   2.413904   1.392723   0.000000
    11  C    4.685210   2.449668   2.776731   2.408775   1.395983
    12  C    3.293052   1.429890   2.426420   2.810275   2.440538
    13  H    3.384186   2.651211   2.277397   3.548198   4.691180
    14  H    3.865587   4.656996   4.685284   6.000000   7.084507
    15  H    2.146852   4.788463   5.884359   7.183185   7.566754
    16  H    1.059083   2.890540   4.238903   5.323632   5.408253
    17  H    3.995808   2.142207   1.071343   2.129994   3.376606
    18  Cl   3.294739   2.842671   4.100337   4.560674   3.995486
    19  Cl   5.887463   4.066540   4.533915   4.023500   2.727740
    20  Cl   7.166639   4.592877   4.035687   2.738004   1.757355
    21  Cl   4.047077   6.137560   6.731028   8.125624   8.926667
    22  Cl   6.546830   4.057509   2.733762   1.757721   2.737364
                   11         12         13         14         15
    11  C    0.000000
    12  C    1.404500   0.000000
    13  H    4.890798   4.079719   0.000000
    14  H    7.083568   6.019350   2.457227   0.000000
    15  H    6.767449   5.363243   4.926544   4.271410   0.000000
    16  H    4.437969   3.047064   4.275125   4.924339   2.441437
    17  H    3.847965   3.400617   1.456750   3.910174   5.886310
    18  Cl   2.666053   1.757409   5.343132   6.834192   4.943056
    19  Cl   1.757197   2.735569   6.615211   8.720957   7.806198
    20  Cl   2.739957   4.055914   6.274085   8.713772   9.305912
    21  Cl   8.510861   7.191539   4.875334   2.876427   2.874767
    22  Cl   4.032713   4.567956   4.240036   6.611144   8.588813
                   16         17         18         19         20
    16  H    0.000000
    17  H    4.644559   0.000000
    18  Cl   2.522572   4.977357   0.000000
    19  Cl   5.369021   5.605106   2.996488   0.000000
    20  Cl   7.089980   4.867987   5.377515   3.141861   0.000000
    21  Cl   4.863020   6.258671   7.325324   9.882725  10.667618
    22  Cl   6.943991   2.847219   6.317608   5.453868   3.163568
                   21         22
    21  Cl   0.000000
    22  Cl   9.098844   0.000000
 Stoichiometry    C12H5Cl5
 Framework group  C1[X(C12H5Cl5)]
 Deg. of freedom    60
 Full point group                 C1      NOp   1
 Largest Abelian subgroup         C1      NOp   1
 Largest concise Abelian subgroup C1      NOp   1
                         Standard orientation:                         
 ---------------------------------------------------------------------
 Center     Atomic      Atomic             Coordinates (Angstroms)
 Number     Number       Type             X           Y           Z
 ---------------------------------------------------------------------
      1          6           0        1.644136   -0.023309    0.000003
      2          6           0        2.264254    1.238103   -0.000000
      3          6           0        3.656713    1.363813   -0.000002
      4          6           0        4.457902    0.222014   -0.000001
      5          6           0        3.862188   -1.039784    0.000004
      6          6           0        2.466536   -1.163244    0.000006
      7          6           0        0.084972   -0.008905    0.000003
      8          6           0       -0.458030    1.287379    0.000002
      9          6           0       -1.834791    1.512050    0.000002
     10          6           0       -2.715837    0.433424    0.000001
     11          6           0       -2.209327   -0.867429    0.000002
     12          6           0       -0.826101   -1.110962    0.000002
     13          1           0        1.660324    2.123508   -0.000003
     14          1           0        4.108313    2.336374   -0.000005
     15          1           0        4.475893   -1.919190    0.000008
     16          1           0        2.043958   -2.134369    0.000009
     17          1           0        0.203589    2.130015    0.000000
     18         17           0       -0.385806   -2.812321    0.000000
     19         17           0       -3.324289   -2.225589   -0.000003
     20         17           0       -4.451766    0.707002   -0.000002
     21         17           0        6.210627    0.373185   -0.000004
     22         17           0       -2.451576    3.158002    0.000001
 ---------------------------------------------------------------------
 Rotational constants (GHZ):           0.5116689           0.1392155           0.1094391
 Standard basis: 6-311+G(d,p) (5D, 7F)
 There are   461 symmetry adapted cartesian basis functions of A   symmetry.
 There are   444 symmetry adapted basis functions of A   symmetry.
   444 basis functions,   737 primitive gaussians,   461 cartesian basis functions
    81 alpha electrons       81 beta electrons
       nuclear repulsion energy      1676.0125808750 Hartrees.
 NAtoms=   22 NActive=   22 NUniq=   22 SFac= 1.00D+00 NAtFMM=   60 NAOKFM=F Big=F
 Integral buffers will be    131072 words long.
 Raffenetti 2 integral format.
 Two-electron integral symmetry is turned on.
 One-electron integrals computed using PRISM.
 NBasis=   444 RedAO= T EigKep=  1.98D-06  NBF=   444
 NBsUse=   437 1.00D-06 EigRej=  9.99D-07 NBFU=   437
 Initial guess from the checkpoint file:  "/scratch/pkc/Gau-79424.chk"
 B after Tr=     0.000000   -0.000000    0.000000
         Rot=    0.999448   -0.000000   -0.000000    0.033215 Ang=  -3.81 deg.
 ExpMin= 4.38D-02 ExpMax= 1.06D+05 ExpMxC= 3.62D+03 IAcc=3 IRadAn=         5 AccDes= 0.00D+00
 Harris functional with IExCor=  402 and IRadAn=       5 diagonalized for initial guess.
 HarFok:  IExCor=  402 AccDes= 0.00D+00 IRadAn=         5 IDoV= 1 UseB2=F ITyADJ=14
 ICtDFT=  3500011 ScaDFX=  1.000000  1.000000  1.000000  1.000000
 FoFCou: FMM=F IPFlag=           0 FMFlag=      100000 FMFlg1=           0
         NFxFlg=           0 DoJE=T BraDBF=F KetDBF=T FulRan=T
         wScrn=  0.000000 ICntrl=       500 IOpCl=  0 I1Cent=   200000004 NGrid=           0
         NMat0=    1 NMatS0=      1 NMatT0=    0 NMatD0=    1 NMtDS0=    0 NMtDT0=    0
 Petite list used in FoFCou.
 Requested convergence on RMS density matrix=1.00D-08 within  32 cycles.
 Requested convergence on MAX density matrix=1.00D-06.
 Requested convergence on             energy=1.00D-06.
 No special actions if energy rises.
 SCF Done:  E(RB3LYP) =  -2761.48898511     A.U. after   16 cycles
            NFock= 16  Conv=0.84D-08     -V/T= 2.0027
 QCSCF skips out because SCF is already converged.
 Calling FoFJK, ICntrl=      2127 FMM=F ISym2X=0 I1Cent= 0 IOpClX= 0 NMat=1 NMatS=1 NMatT=0.
 ***** Axes restored to original set *****
 -------------------------------------------------------------------
 Center     Atomic                   Forces (Hartrees/Bohr)
 Number     Number              X              Y              Z
 -------------------------------------------------------------------
      1        6          -0.014076786   -0.022415983    0.000427680
      2        6           0.001910584    0.024267242    0.003928297
      3        6          -0.008238521   -0.003071987    0.002137384
      4        6          -0.006078826   -0.004684144    0.001122736
      5        6           0.002815662   -0.008791482   -0.002578702
      6        6           0.018088949   -0.002835278   -0.006491930
      7        6           0.007382612    0.022740849    0.001838838
      8        6          -0.021907209   -0.015182163    0.004366181
      9        6           0.005704620    0.004014651   -0.001125502
     10        6          -0.006205874   -0.013056849   -0.000407552
     11        6          -0.007212057    0.000783061    0.002523317
     12        6           0.009998922   -0.001142195   -0.003508793
     13        1           0.010806938    0.008475128   -0.001968731
     14        1           0.006943229   -0.000782609   -0.002434451
     15        1          -0.002788894    0.006357083    0.002112773
     16        1          -0.013048069    0.002121242    0.004697095
     17        1          -0.004012997   -0.011556396   -0.000848444
     18       17           0.012322137    0.006404976   -0.002856747
     19       17           0.006869038   -0.003166862   -0.002857923
     20       17           0.003415783    0.007366649    0.000258102
     21       17          -0.002062234   -0.002795394    0.000154423
     22       17          -0.000627004    0.006950462    0.001511950
 -------------------------------------------------------------------
 Cartesian Forces:  Max     0.024267242 RMS     0.008437694

 GradGradGradGradGradGradGradGradGradGradGradGradGradGradGradGradGradGrad
 Berny optimization.
 Using GEDIIS/GDIIS optimizer.
 FormGI is forming the generalized inverse of G from B-inverse, IUseBI=4.
 Internal  Forces:  Max     0.060647469 RMS     0.011749162
 Search for a local minimum.
 Step number   2 out of a maximum of  121
 All quantities printed in internal units (Hartrees-Bohrs-Radians)
 Mixed Optimization -- RFO/linear search
 Update second derivatives using D2CorX and points    1    2
 DE= -3.81D-02 DEPred=-1.49D-01 R= 2.56D-01
 Trust test= 2.56D-01 RLast= 3.00D-01 DXMaxT set to 3.00D-01
 ITU=  0  0
 Use linear search instead of GDIIS.
     Eigenvalues ---    0.00237   0.01479   0.01484   0.02070   0.02070
     Eigenvalues ---    0.02070   0.02070   0.02070   0.02070   0.02070
     Eigenvalues ---    0.02070   0.02070   0.02070   0.02070   0.02070
     Eigenvalues ---    0.02070   0.02070   0.02070   0.02070   0.15965
     Eigenvalues ---    0.16000   0.16000   0.16000   0.16035   0.22003
     Eigenvalues ---    0.22938   0.23450   0.23960   0.24870   0.25000
     Eigenvalues ---    0.25000   0.25000   0.25000   0.25000   0.25000
     Eigenvalues ---    0.25000   0.28452   0.29514   0.29539   0.29539
     Eigenvalues ---    0.29539   0.29539   0.37079   0.37210   0.37230
     Eigenvalues ---    0.37230   0.37230   0.40662   0.41181   0.41560
     Eigenvalues ---    0.41706   0.45041   0.45344   0.45389   0.45389
     Eigenvalues ---    0.45389   0.45389   0.45389   0.45389   2.13780
 RFO step:  Lambda=-1.17769999D-02 EMin= 2.36824129D-03
 Quartic linear search produced a step of -0.33887.
 Iteration  1 RMS(Cart)=  0.13832032 RMS(Int)=  0.00396549
 Iteration  2 RMS(Cart)=  0.00660038 RMS(Int)=  0.00004598
 Iteration  3 RMS(Cart)=  0.00001328 RMS(Int)=  0.00004581
 Iteration  4 RMS(Cart)=  0.00000000 RMS(Int)=  0.00004581
 Variable       Old X    -DE/DX   Delta X   Delta X   Delta X     New X
                                 (Linear)    (Quad)   (Total)
    R1        2.65620   0.01054  -0.00269   0.02287   0.02024   2.67644
    R2        2.65625  -0.00189  -0.00271   0.00486   0.00224   2.65850
    R3        2.94652  -0.00657  -0.01231   0.01667   0.00436   2.95088
    R4        2.64207  -0.00797   0.00210  -0.01651  -0.01445   2.62762
    R5        2.02534  -0.00327  -0.00113  -0.00265  -0.00378   2.02155
    R6        2.63589  -0.00699   0.00419  -0.02145  -0.01735   2.61853
    R7        2.02634   0.00740  -0.00147   0.01659   0.01512   2.04147
    R8        2.63683  -0.01014   0.00387  -0.02549  -0.02167   2.61516
    R9        3.32447  -0.00348   0.00049  -0.00873  -0.00824   3.31622
   R10        2.64770  -0.00868   0.00019  -0.01325  -0.01302   2.63468
   R11        2.02650   0.00725  -0.00152   0.01646   0.01494   2.04144
   R12        2.00138   0.01402   0.00699   0.00574   0.01273   2.01411
   R13        2.65586   0.00474  -0.00257   0.01298   0.01047   2.66633
   R14        2.70210  -0.01824  -0.01824   0.02261   0.00442   2.70652
   R15        2.63612  -0.00934   0.00412  -0.02442  -0.02030   2.61582
   R16        2.02454  -0.00498  -0.00086  -0.00631  -0.00717   2.01737
   R17        2.63186  -0.00150   0.00556  -0.01658  -0.01108   2.62079
   R18        3.32161  -0.00619   0.00146  -0.01704  -0.01559   3.30603
   R19        2.63803  -0.00128   0.00347  -0.01051  -0.00711   2.63092
   R20        3.32092  -0.00812   0.00169  -0.02180  -0.02010   3.30082
   R21        2.65412   0.00588  -0.00199   0.01379   0.01179   2.66591
   R22        3.32062  -0.00687   0.00180  -0.01936  -0.01756   3.30306
   R23        3.32102  -0.00419   0.00166  -0.01326  -0.01160   3.30942
    A1        2.05971  -0.01368   0.01175  -0.06231  -0.05039   2.00932
    A2        2.01847   0.05709   0.02573   0.07931   0.10496   2.12342
    A3        2.20501  -0.04341  -0.03748  -0.01700  -0.05456   2.15044
    A4        2.11774   0.00374  -0.00791   0.03170   0.02381   2.14156
    A5        2.08607   0.01179   0.00282   0.03923   0.04204   2.12811
    A6        2.07937  -0.01552   0.00509  -0.07093  -0.06585   2.01352
    A7        2.09262   0.00037   0.00060  -0.00074  -0.00026   2.09236
    A8        2.09555  -0.00020  -0.00039   0.00052   0.00019   2.09574
    A9        2.09502  -0.00017  -0.00021   0.00022   0.00007   2.09509
   A10        2.08864   0.00165   0.00195  -0.00309  -0.00129   2.08735
   A11        2.09662  -0.00089  -0.00075   0.00083   0.00015   2.09677
   A12        2.09793  -0.00076  -0.00120   0.00226   0.00114   2.09907
   A13        2.10012  -0.00152  -0.00194  -0.00253  -0.00450   2.09562
   A14        2.09121   0.00115   0.00108   0.00251   0.00360   2.09481
   A15        2.09186   0.00037   0.00086   0.00003   0.00090   2.09276
   A16        2.10754   0.00944  -0.00445   0.03696   0.03264   2.14018
   A17        2.10619  -0.00438  -0.00400  -0.00313  -0.00719   2.09900
   A18        2.06946  -0.00506   0.00845  -0.03384  -0.02545   2.04401
   A19        1.97672   0.06065   0.03988   0.05478   0.09459   2.07131
   A20        2.25237  -0.04825  -0.05353   0.01246  -0.04114   2.21123
   A21        2.05410  -0.01240   0.01366  -0.06723  -0.05345   2.00064
   A22        2.12924   0.00667  -0.01181   0.04611   0.03437   2.16361
   A23        2.07927   0.00801   0.00513   0.02233   0.02742   2.10669
   A24        2.07467  -0.01468   0.00668  -0.06843  -0.06179   2.01289
   A25        2.09395   0.00403   0.00015   0.01010   0.01021   2.10415
   A26        2.09109  -0.00792   0.00112  -0.02293  -0.02179   2.06930
   A27        2.09815   0.00389  -0.00127   0.01283   0.01158   2.10973
   A28        2.08537  -0.00713   0.00306  -0.02410  -0.02117   2.06420
   A29        2.09940   0.00336  -0.00170   0.01193   0.01030   2.10970
   A30        2.09841   0.00378  -0.00136   0.01217   0.01087   2.10928
   A31        2.11638  -0.00336  -0.00745   0.01104   0.00352   2.11990
   A32        2.08291  -0.00541   0.00389  -0.02382  -0.01989   2.06302
   A33        2.08390   0.00876   0.00356   0.01278   0.01637   2.10027
   A34        2.08733   0.01219   0.00239   0.02409   0.02653   2.11386
   A35        2.19755  -0.02858  -0.03495   0.01522  -0.01976   2.17779
   A36        1.99831   0.01640   0.03256  -0.03931  -0.00677   1.99153
    D1        0.00000  -0.00000  -0.00000  -0.00000  -0.00000   0.00000
    D2        3.14159  -0.00000  -0.00000  -0.00000  -0.00000   3.14159
    D3       -3.14159  -0.00000   0.00000  -0.00000  -0.00000  -3.14159
    D4       -0.00000  -0.00000   0.00000   0.00000   0.00000  -0.00000
    D5       -0.00000   0.00000   0.00000   0.00000   0.00000  -0.00000
    D6        3.14159   0.00000   0.00000   0.00000   0.00000   3.14159
    D7        3.14159  -0.00000  -0.00000   0.00000   0.00000   3.14159
    D8       -0.00000  -0.00000   0.00000  -0.00000  -0.00000  -0.00000
    D9       -0.00000  -0.00000   0.00000  -0.00000  -0.00000  -0.00000
   D10        3.14159  -0.00000   0.00000  -0.00000  -0.00000   3.14159
   D11        3.14159  -0.00000   0.00000  -0.00000  -0.00000   3.14159
   D12       -0.00000   0.00000   0.00000  -0.00000  -0.00000  -0.00000
   D13        0.00000  -0.00000   0.00000  -0.00000  -0.00000   0.00000
   D14        3.14159   0.00000   0.00000   0.00000   0.00000   3.14159
   D15       -3.14159  -0.00000   0.00000  -0.00000  -0.00000  -3.14159
   D16        0.00000  -0.00000   0.00000  -0.00000  -0.00000   0.00000
   D17       -0.00000   0.00000  -0.00000   0.00000   0.00000  -0.00000
   D18        3.14159  -0.00000  -0.00000  -0.00000  -0.00000   3.14159
   D19        3.14159   0.00000   0.00000   0.00000   0.00000   3.14159
   D20        0.00000  -0.00000   0.00000  -0.00000  -0.00000   0.00000
   D21        0.00000  -0.00000  -0.00000  -0.00000  -0.00000   0.00000
   D22       -3.14159  -0.00000  -0.00000  -0.00000  -0.00000  -3.14159
   D23       -3.14159   0.00000   0.00000   0.00000   0.00000  -3.14159
   D24        0.00000   0.00000  -0.00000   0.00000   0.00000   0.00000
   D25       -0.00000   0.00000  -0.00000   0.00000   0.00000  -0.00000
   D26        3.14159   0.00000  -0.00000   0.00000   0.00000   3.14159
   D27        3.14159   0.00000  -0.00000   0.00000   0.00000   3.14159
   D28       -0.00000   0.00000  -0.00000   0.00000   0.00000  -0.00000
   D29        3.14159  -0.00000  -0.00000   0.00000   0.00000  -3.14159
   D30        0.00000  -0.00000  -0.00000  -0.00000  -0.00000   0.00000
   D31        0.00000  -0.00000  -0.00000  -0.00000  -0.00000   0.00000
   D32       -3.14159  -0.00000   0.00000  -0.00000  -0.00000  -3.14159
   D33       -3.14159  -0.00000  -0.00000  -0.00000  -0.00000   3.14159
   D34        0.00000  -0.00000   0.00000  -0.00000  -0.00000  -0.00000
   D35       -0.00000   0.00000   0.00000   0.00000   0.00000  -0.00000
   D36        3.14159   0.00000   0.00000   0.00000   0.00000   3.14159
   D37       -0.00000  -0.00000   0.00000  -0.00000   0.00000  -0.00000
   D38        3.14159  -0.00000   0.00000  -0.00000  -0.00000   3.14159
   D39        3.14159   0.00000  -0.00000   0.00000   0.00000   3.14159
   D40       -0.00000   0.00000  -0.00000   0.00000   0.00000  -0.00000
   D41       -0.00000   0.00000   0.00000   0.00000   0.00000   0.00000
   D42       -3.14159  -0.00000   0.00000  -0.00000  -0.00000  -3.14159
   D43        3.14159   0.00000  -0.00000   0.00000   0.00000  -3.14159
   D44        0.00000  -0.00000   0.00000  -0.00000  -0.00000   0.00000
   D45        0.00000   0.00000  -0.00000   0.00000   0.00000   0.00000
   D46       -3.14159  -0.00000   0.00000  -0.00000  -0.00000  -3.14159
   D47        3.14159   0.00000  -0.00000   0.00000   0.00000   3.14159
   D48        0.00000  -0.00000  -0.00000  -0.00000  -0.00000   0.00000
   D49        0.00000  -0.00000  -0.00000  -0.00000  -0.00000  -0.00000
   D50       -3.14159  -0.00000  -0.00000  -0.00000  -0.00000  -3.14159
   D51        3.14159   0.00000  -0.00000   0.00000   0.00000   3.14159
   D52       -0.00000   0.00000  -0.00000   0.00000   0.00000  -0.00000
         Item               Value     Threshold  Converged?
 Maximum Force            0.060647     0.000450     NO 
 RMS     Force            0.011749     0.000300     NO 
 Maximum Displacement     0.513257     0.001800     NO 
 RMS     Displacement     0.139133     0.001200     NO 
 Predicted change in Energy=-7.827260D-03
 GradGradGradGradGradGradGradGradGradGradGradGradGradGradGradGradGradGrad

                          Input orientation:                          
 ---------------------------------------------------------------------
 Center     Atomic      Atomic             Coordinates (Angstroms)
 Number     Number       Type             X           Y           Z
 ---------------------------------------------------------------------
      1          6           0        1.419526   -0.423914    0.610765
      2          6           0        2.765821   -0.400742    0.171575
      3          6           0        3.525736    0.763282    0.139831
      4          6           0        2.967441    1.963616    0.549196
      5          6           0        1.654985    1.992843    0.987078
      6          6           0        0.901594    0.820050    1.015026
      7          6           0        0.588315   -1.745592    0.636390
[...]
                 (A) (A) (A) (A) (A) (A) (A) (A) (A) (A) (A) (A)
                 (A) (A) (A) (A) (A) (A) (A) (A) (A) (A) (A) (A)
                 (A) (A) (A) (A) (A) (A) (A) (A) (A)
       Virtual   (A) (A) (A) (A) (A) (A) (A) (A) (A) (A) (A) (A)
                 (A) (A) (A) (A) (A) (A) (A) (A) (A) (A) (A) (A)
                 (A) (A) (A) (A) (A) (A) (A) (A) (A) (A) (A) (A)
                 (A) (A) (A) (A) (A) (A) (A) (A) (A) (A) (A) (A)
                 (A) (A) (A) (A) (A) (A) (A) (A) (A) (A) (A) (A)
                 (A) (A) (A) (A) (A) (A) (A) (A) (A) (A) (A) (A)
                 (A) (A) (A) (A) (A) (A) (A) (A) (A) (A) (A) (A)
                 (A) (A) (A) (A) (A) (A) (A) (A) (A) (A) (A) (A)
                 (A) (A) (A) (A) (A) (A) (A) (A) (A) (A) (A) (A)
                 (A) (A) (A) (A) (A) (A) (A) (A) (A) (A) (A) (A)
                 (A) (A) (A) (A) (A) (A) (A) (A) (A) (A) (A) (A)
                 (A) (A) (A) (A) (A) (A) (A) (A) (A) (A) (A) (A)
                 (A) (A) (A) (A) (A) (A) (A) (A) (A) (A) (A) (A)
                 (A) (A) (A) (A) (A) (A) (A) (A) (A) (A) (A) (A)
                 (A) (A) (A) (A) (A) (A) (A) (A) (A) (A) (A) (A)
                 (A) (A) (A) (A) (A) (A) (A) (A) (A) (A) (A) (A)
                 (A) (A) (A) (A) (A) (A) (A) (A) (A) (A) (A) (A)
                 (A) (A) (A) (A) (A) (A) (A) (A) (A) (A) (A) (A)
                 (A) (A) (A) (A) (A) (A) (A) (A) (A) (A) (A) (A)
                 (A) (A) (A) (A) (A) (A) (A) (A) (A) (A) (A) (A)
                 (A) (A) (A) (A) (A) (A) (A) (A) (A) (A) (A) (A)
                 (A) (A) (A) (A) (A) (A) (A) (A) (A) (A) (A) (A)
                 (A) (A) (A) (A) (A) (A) (A) (A) (A) (A) (A) (A)
                 (A) (A) (A) (A) (A) (A) (A) (A) (A) (A) (A) (A)
                 (A) (A) (A) (A) (A) (A) (A) (A) (A) (A) (A) (A)
                 (A) (A) (A) (A) (A) (A) (A) (A) (A) (A) (A) (A)
                 (A) (A) (A) (A) (A) (A) (A) (A) (A) (A) (A) (A)
                 (A) (A) (A) (A) (A) (A) (A) (A) (A) (A) (A) (A)
                 (A) (A) (A) (A) (A) (A) (A) (A) (A) (A) (A) (A)
                 (A) (A) (A) (A) (A) (A) (A) (A) (A) (A) (A)
 The electronic state is 1-A.
 Alpha  occ. eigenvalues -- -101.57957-101.57903-101.57810-101.57639-101.56544
 Alpha  occ. eigenvalues --  -10.28147 -10.27996 -10.27595 -10.27434 -10.25601
 Alpha  occ. eigenvalues --  -10.23421 -10.21981 -10.21722 -10.20695 -10.20621
 Alpha  occ. eigenvalues --  -10.20568 -10.20528  -9.49420  -9.49371  -9.49267
 Alpha  occ. eigenvalues --   -9.49118  -9.48001  -7.25923  -7.25875  -7.25757
 Alpha  occ. eigenvalues --   -7.25606  -7.24901  -7.24854  -7.24816  -7.24765
 Alpha  occ. eigenvalues --   -7.24745  -7.24685  -7.24603  -7.24523  -7.24460
 Alpha  occ. eigenvalues --   -7.23486  -7.23448  -0.96109  -0.91754  -0.91193
 Alpha  occ. eigenvalues --   -0.89659  -0.86937  -0.86302  -0.84414  -0.78824
 Alpha  occ. eigenvalues --   -0.78183  -0.75316  -0.73632  -0.65544  -0.64721
 Alpha  occ. eigenvalues --   -0.63374  -0.60847  -0.55364  -0.54491  -0.52220
 Alpha  occ. eigenvalues --   -0.49858  -0.49466  -0.48172  -0.46878  -0.46170
 Alpha  occ. eigenvalues --   -0.46076  -0.45416  -0.43229  -0.42572  -0.41371
 Alpha  occ. eigenvalues --   -0.40210  -0.39047  -0.38796  -0.37811  -0.35678
 Alpha  occ. eigenvalues --   -0.35614  -0.35413  -0.34836  -0.33503  -0.33439
 Alpha  occ. eigenvalues --   -0.32849  -0.31694  -0.28624  -0.28257  -0.27027
 Alpha  occ. eigenvalues --   -0.25816
 Alpha virt. eigenvalues --   -0.06691  -0.05980  -0.04900  -0.04077  -0.03282
 Alpha virt. eigenvalues --   -0.01147  -0.00277   0.00460   0.00896   0.01273
 Alpha virt. eigenvalues --    0.02147   0.02392   0.02551   0.03609   0.03908
 Alpha virt. eigenvalues --    0.04112   0.04652   0.05312   0.06104   0.06410
 Alpha virt. eigenvalues --    0.06653   0.07327   0.07885   0.08290   0.08417
 Alpha virt. eigenvalues --    0.08536   0.08804   0.09206   0.09722   0.10330
 Alpha virt. eigenvalues --    0.10493   0.11183   0.11459   0.11734   0.12124
 Alpha virt. eigenvalues --    0.12369   0.12636   0.12795   0.13469   0.14136
 Alpha virt. eigenvalues --    0.14447   0.14597   0.14690   0.15161   0.15317
 Alpha virt. eigenvalues --    0.16130   0.16313   0.17056   0.17473   0.18189
 Alpha virt. eigenvalues --    0.18488   0.18530   0.18786   0.19126   0.19418
 Alpha virt. eigenvalues --    0.19692   0.19880   0.20651   0.21021   0.21186
 Alpha virt. eigenvalues --    0.21518   0.21720   0.22473   0.22640   0.23266
 Alpha virt. eigenvalues --    0.23463   0.24021   0.24528   0.25018   0.25617
 Alpha virt. eigenvalues --    0.25760   0.26111   0.26547   0.27043   0.27281
 Alpha virt. eigenvalues --    0.27717   0.27935   0.28145   0.28654   0.28941
 Alpha virt. eigenvalues --    0.29102   0.29244   0.30816   0.31273   0.31918
 Alpha virt. eigenvalues --    0.32654   0.33867   0.33951   0.34219   0.40105
 Alpha virt. eigenvalues --    0.41607   0.42890   0.42921   0.43764   0.44283
 Alpha virt. eigenvalues --    0.44491   0.44980   0.45368   0.45646   0.46429
 Alpha virt. eigenvalues --    0.47610   0.47862   0.48497   0.48816   0.48948
 Alpha virt. eigenvalues --    0.49529   0.50671   0.51193   0.52278   0.53831
 Alpha virt. eigenvalues --    0.54701   0.56097   0.56314   0.56667   0.57411
 Alpha virt. eigenvalues --    0.57651   0.59048   0.59744   0.60166   0.61052
 Alpha virt. eigenvalues --    0.61225   0.61750   0.62313   0.62805   0.63798
 Alpha virt. eigenvalues --    0.64962   0.65854   0.66845   0.67181   0.68041
 Alpha virt. eigenvalues --    0.68502   0.68778   0.69547   0.70476   0.70817
 Alpha virt. eigenvalues --    0.70981   0.72701   0.74623   0.76896   0.78605
 Alpha virt. eigenvalues --    0.79428   0.81154   0.82090   0.82159   0.83084
 Alpha virt. eigenvalues --    0.83648   0.83800   0.84095   0.84461   0.84506
 Alpha virt. eigenvalues --    0.84762   0.85205   0.85570   0.85673   0.85942
 Alpha virt. eigenvalues --    0.85957   0.87017   0.87517   0.88608   0.89526
 Alpha virt. eigenvalues --    0.89920   0.90314   0.90519   0.91100   0.92644
 Alpha virt. eigenvalues --    0.92946   0.93432   0.94004   0.94280   0.94592
 Alpha virt. eigenvalues --    0.95729   0.96589   0.97570   0.98691   1.00206
 Alpha virt. eigenvalues --    1.00913   1.01609   1.02307   1.03521   1.04655
 Alpha virt. eigenvalues --    1.05964   1.08725   1.10583   1.11431   1.14020
 Alpha virt. eigenvalues --    1.15124   1.17430   1.18542   1.20141   1.22470
 Alpha virt. eigenvalues --    1.23249   1.25979   1.26658   1.27752   1.28149
 Alpha virt. eigenvalues --    1.28696   1.28810   1.29623   1.30613   1.35055
 Alpha virt. eigenvalues --    1.36602   1.39098   1.40594   1.43490   1.47572
 Alpha virt. eigenvalues --    1.49261   1.51196   1.51440   1.52783   1.55678
 Alpha virt. eigenvalues --    1.57162   1.59139   1.60581   1.61489   1.63995
 Alpha virt. eigenvalues --    1.64491   1.66493   1.68182   1.69773   1.71482
 Alpha virt. eigenvalues --    1.72930   1.75493   1.76920   1.79406   1.80048
 Alpha virt. eigenvalues --    1.81698   1.83694   1.85023   1.87161   1.87373
 Alpha virt. eigenvalues --    1.90626   1.90679   1.92099   1.93227   1.94259
 Alpha virt. eigenvalues --    1.94462   1.95497   1.99133   2.01915   2.02660
 Alpha virt. eigenvalues --    2.04103   2.06417   2.09561   2.11426   2.12499
 Alpha virt. eigenvalues --    2.15720   2.21348   2.22523   2.24429   2.25802
 Alpha virt. eigenvalues --    2.26292   2.27143   2.27754   2.28461   2.29443
 Alpha virt. eigenvalues --    2.30979   2.32728   2.35026   2.38109   2.39156
 Alpha virt. eigenvalues --    2.39976   2.40501   2.42447   2.43072   2.44540
 Alpha virt. eigenvalues --    2.47314   2.49401   2.51261   2.53437   2.54608
 Alpha virt. eigenvalues --    2.58947   2.61351   2.62258   2.64285   2.64767
 Alpha virt. eigenvalues --    2.67292   2.67518   2.68724   2.71013   2.73659
 Alpha virt. eigenvalues --    2.74349   2.74546   2.75659   2.76393   2.78152
 Alpha virt. eigenvalues --    2.79114   2.79753   2.82662   2.83944   2.87781
 Alpha virt. eigenvalues --    2.91427   2.91856   2.96880   2.99040   3.05032
 Alpha virt. eigenvalues --    3.06356   3.08289   3.11114   3.11834   3.13812
 Alpha virt. eigenvalues --    3.16552   3.18582   3.22106   3.24794   3.33127
 Alpha virt. eigenvalues --    3.36855   3.41138   3.47405   3.50524   3.57845
 Alpha virt. eigenvalues --    3.64125   3.66014   3.73898   3.81010   3.90942
 Alpha virt. eigenvalues --    3.96361   4.02741   4.12229   4.13279   4.35325
 Alpha virt. eigenvalues --    4.79952   4.82825   9.72824   9.77001   9.78346
 Alpha virt. eigenvalues --    9.80556   9.81695  23.32693  23.58551  23.79446
 Alpha virt. eigenvalues --   23.84823  23.89776  23.93586  23.94131  23.95160
 Alpha virt. eigenvalues --   24.02935  24.07528  24.09539  24.15987  25.76758
 Alpha virt. eigenvalues --   25.80409  25.82248  25.86186  25.92584  26.07973
 Alpha virt. eigenvalues --   26.09924  26.11836  26.16927  26.28235  26.44387
 Alpha virt. eigenvalues --   26.59002  26.59554  26.73262  26.93056 215.71634
 Alpha virt. eigenvalues --  215.76037 215.77777 215.80362 215.81812
          Condensed to atoms (all electrons):
               1          2          3          4          5          6
     1  C   25.676870  -2.661697  -0.827174  -7.648366   1.172614  -7.197706
     2  C   -2.661697  30.682844  -4.340598   0.643593  -0.597187 -16.520858
     3  C   -0.827174  -4.340598  21.387461  -2.172175  -8.802091  -0.032240
     4  C   -7.648366   0.643593  -2.172175  18.200118  -4.400838   2.508344
     5  C    1.172614  -0.597187  -8.802091  -4.400838  24.767102  -7.421258
     6  C   -7.197706 -16.520858  -0.032240   2.508344  -7.421258  36.104448
     7  C    1.585564  -0.740232   0.516910  -0.738050   1.015216  -1.240412
     8  C   -2.072985   1.717937   0.240188   0.020144   0.287514  -1.487015
     9  C   -0.680859  -0.348666   0.068323   0.026145   0.232384  -0.092636
    10  C   -0.747603  -0.344524   0.014746  -0.071907  -0.021594   0.406548
    11  C   -1.202383   0.295131  -0.005913  -0.007544   0.036086  -0.165353
    12  C   -0.260445  -1.506549   0.346170  -0.071147  -0.271181   1.667153
    13  H    0.055887   0.277015  -0.011869  -0.027665  -0.014985   0.020605
    14  H   -0.001554  -0.011611   0.259125   0.076116   0.052033  -0.011752
    15  H   -0.002733  -0.020668   0.069584   0.083268   0.231942  -0.008108
    16  H    0.071042   0.053030  -0.026103  -0.002820  -0.045543   0.317850
    17  H   -0.014406   0.101177  -0.008946   0.003915  -0.005542  -0.045690
    18  Cl  -0.201151  -0.349725  -0.003153  -0.054898   0.351066  -0.052024
    19  Cl   0.017369  -0.007342  -0.006704   0.004128   0.004267   0.049085
    20  Cl  -0.033709   0.000885   0.002615  -0.000040  -0.000817  -0.002636
    21  Cl  -0.215397   0.306091   0.022352  -1.269549   0.207163   0.231699
    22  Cl  -0.047368   0.022346   0.027949   0.001080   0.004249  -0.044762
               7          8          9         10         11         12
     1  C    1.585564  -2.072985  -0.680859  -0.747603  -1.202383  -0.260445
     2  C   -0.740232   1.717937  -0.348666  -0.344524   0.295131  -1.506549
     3  C    0.516910   0.240188   0.068323   0.014746  -0.005913   0.346170
     4  C   -0.738050   0.020144   0.026145  -0.071907  -0.007544  -0.071147
     5  C    1.015216   0.287514   0.232384  -0.021594   0.036086  -0.271181
     6  C   -1.240412  -1.487015  -0.092636   0.406548  -0.165353   1.667153
     7  C   16.921191  -1.820206  -7.088921   4.234816  -1.946451  -3.054327
     8  C   -1.820206   9.248732   1.415938  -4.209378   1.629996   1.118409
     9  C   -7.088921   1.415938  17.953596  -6.589712  -2.033566   3.509045
    10  C    4.234816  -4.209378  -6.589712  21.192973  -0.463507  -6.224209
    11  C   -1.946451   1.629996  -2.033566  -0.463507  11.242840  -1.055799
    12  C   -3.054327   1.118409   3.509045  -6.224209  -1.055799  13.059263
    13  H    0.008217   0.013818  -0.006847   0.004070   0.002091   0.030021
    14  H   -0.004308  -0.002064  -0.001086   0.000002   0.000070  -0.000237
    15  H   -0.001110  -0.001841  -0.000400   0.000173   0.000045   0.005620
    16  H   -0.013407  -0.007924  -0.010960  -0.002405   0.001741   0.020428
    17  H    0.041806   0.420628  -0.105208  -0.017185   0.001290  -0.023079
    18  Cl  -0.595016   0.151085   0.618003  -0.679072   0.232774  -0.583525
    19  Cl  -0.379920   0.123856  -0.000908  -0.304922  -0.587791   0.551121
    20  Cl   0.282360  -0.202168  -0.924048   0.486514   0.551047  -0.774207
    21  Cl  -0.011533   0.011036   0.006171  -0.002082  -0.000196  -0.021261
    22  Cl  -0.835151   0.205249   0.349610  -0.554425  -0.213415   0.337765
              13         14         15         16         17         18
     1  C    0.055887  -0.001554  -0.002733   0.071042  -0.014406  -0.201151
     2  C    0.277015  -0.011611  -0.020668   0.053030   0.101177  -0.349725
     3  C   -0.011869   0.259125   0.069584  -0.026103  -0.008946  -0.003153
     4  C   -0.027665   0.076116   0.083268  -0.002820   0.003915  -0.054898
     5  C   -0.014985   0.052033   0.231942  -0.045543  -0.005542   0.351066
     6  C    0.020605  -0.011752  -0.008108   0.317850  -0.045690  -0.052024
     7  C    0.008217  -0.004308  -0.001110  -0.013407   0.041806  -0.595016
     8  C    0.013818  -0.002064  -0.001841  -0.007924   0.420628   0.151085
     9  C   -0.006847  -0.001086  -0.000400  -0.010960  -0.105208   0.618003
    10  C    0.004070   0.000002   0.000173  -0.002405  -0.017185  -0.679072
    11  C    0.002091   0.000070   0.000045   0.001741   0.001290   0.232774
    12  C    0.030021  -0.000237   0.005620   0.020428  -0.023079  -0.583525
    13  H    0.526075  -0.007652   0.000066  -0.000224  -0.000783  -0.001995
    14  H   -0.007652   0.511162  -0.000308   0.000063   0.000032  -0.000395
    15  H    0.000066  -0.000308   0.511760  -0.007661   0.000003  -0.001546
    16  H   -0.000224   0.000063  -0.007661   0.517874   0.000015  -0.003171
    17  H   -0.000783   0.000032   0.000003   0.000015   0.499626  -0.002373
    18  Cl  -0.001995  -0.000395  -0.001546  -0.003171  -0.002373  17.788181
    19  Cl  -0.000176   0.000000  -0.000002   0.000400   0.001032  -0.189725
    20  Cl   0.000122  -0.000001   0.000000  -0.000106   0.000082  -0.028057
    21  Cl   0.000027  -0.010399  -0.011589  -0.000005  -0.000174   0.004973
    22  Cl   0.000390  -0.000010  -0.000004  -0.000102  -0.003360   0.009183
              19         20         21         22
     1  C    0.017369  -0.033709  -0.215397  -0.047368
     2  C   -0.007342   0.000885   0.306091   0.022346
     3  C   -0.006704   0.002615   0.022352   0.027949
     4  C    0.004128  -0.000040  -1.269549   0.001080
     5  C    0.004267  -0.000817   0.207163   0.004249
     6  C    0.049085  -0.002636   0.231699  -0.044762
     7  C   -0.379920   0.282360  -0.011533  -0.835151
     8  C    0.123856  -0.202168   0.011036   0.205249
     9  C   -0.000908  -0.924048   0.006171   0.349610
    10  C   -0.304922   0.486514  -0.002082  -0.554425
    11  C   -0.587791   0.551047  -0.000196  -0.213415
    12  C    0.551121  -0.774207  -0.021261   0.337765
    13  H   -0.000176   0.000122   0.000027   0.000390
    14  H    0.000000  -0.000001  -0.010399  -0.000010
    15  H   -0.000002   0.000000  -0.011589  -0.000004
    16  H    0.000400  -0.000106  -0.000005  -0.000102
    17  H    0.001032   0.000082  -0.000174  -0.003360
    18  Cl  -0.189725  -0.028057   0.004973   0.009183
    19  Cl  17.369458  -0.230723   0.000039   0.004186
    20  Cl  -0.230723  17.450601   0.000017  -0.202685
    21  Cl   0.000039   0.000017  17.377562   0.000126
    22  Cl   0.004186  -0.202685   0.000126  17.398760
 Mulliken charges:
               1
     1  C    1.236192
     2  C   -0.650393
     3  C   -0.718459
     4  C    0.898147
     5  C   -0.780599
     6  C   -0.983281
     7  C   -0.137034
     8  C   -0.800949
     9  C   -0.295398
    10  C   -0.107316
    11  C   -0.311194
    12  C   -0.799029
    13  H    0.133795
    14  H    0.152774
    15  H    0.153509
    16  H    0.137988
    17  H    0.157139
    18  Cl   0.590564
    19  Cl   0.583273
    20  Cl   0.624955
    21  Cl   0.374928
    22  Cl   0.540389
 Sum of Mulliken charges =  -0.00000
 Mulliken charges with hydrogens summed into heavy atoms:
               1
     1  C    1.236192
     2  C   -0.516598
     3  C   -0.565685
     4  C    0.898147
     5  C   -0.627091
     6  C   -0.845293
     7  C   -0.137034
     8  C   -0.643810
     9  C   -0.295398
    10  C   -0.107316
    11  C   -0.311194
    12  C   -0.799029
    18  Cl   0.590564
    19  Cl   0.583273
    20  Cl   0.624955
    21  Cl   0.374928
    22  Cl   0.540389
 Electronic spatial extent (au):  <R**2>=           8240.5586
 Charge=             -0.0000 electrons
 Dipole moment (field-independent basis, Debye):
    X=              0.6701    Y=              0.7112    Z=             -0.0873  Tot=              0.9811
 Quadrupole moment (field-independent basis, Debye-Ang):
   XX=           -143.3687   YY=           -132.8697   ZZ=           -128.8958
   XY=              0.7040   XZ=             -0.2387   YZ=              4.0286
 Traceless Quadrupole moment (field-independent basis, Debye-Ang):
   XX=             -8.3240   YY=              2.1750   ZZ=              6.1490
   XY=              0.7040   XZ=             -0.2387   YZ=              4.0286
 Octapole moment (field-independent basis, Debye-Ang**2):
  XXX=            -74.3405  YYY=             -7.7139  ZZZ=              0.2942  XYY=             -4.8555
  XXY=            -10.6099  XXZ=             -0.2038  XZZ=              6.4790  YZZ=             -2.2745
  YYZ=              2.0178  XYZ=             12.5419
 Hexadecapole moment (field-independent basis, Debye-Ang**3):
 XXXX=          -8675.4408 YYYY=          -2047.3048 ZZZZ=           -334.1069 XXXY=            -15.5305
 XXXZ=             -2.2929 YYYX=             -6.9316 YYYZ=             -7.8491 ZZZX=             -1.1498
 ZZZY=             14.4803 XXYY=          -1746.3935 XXZZ=          -1430.4561 YYZZ=           -408.9421
 XXYZ=             42.0247 YYXZ=              6.3965 ZZXY=              1.3558
 N-N= 1.690157077200D+03 E-N=-9.916862391555D+03  KE= 2.754121439822D+03
 1\1\GINC-DAMODAR\FOpt\RB3LYP\6-311+G(d,p)\C12H5Cl5\PKC\16-Mar-2022\0\\
 # opt b3lyp/6-311+g(d,p) scf=xqc\\Title Card Required\\0,1\C,1.3831296
 204,-0.4557108593,0.5785584259\C,2.3281138291,-0.2311095001,-0.4283361
 759\C,3.08109364,0.9401604189,-0.4579822367\C,2.8906198043,1.891915582
 5,0.5372350063\C,1.9623504469,1.6902098951,1.5547287533\C,1.2114961506
 ,0.519620445,1.5677558563\C,0.6249746498,-1.7382333231,0.6136606412\C,
 1.3402145676,-2.9316556551,0.7279783567\C,0.7008080406,-4.162928423,0.
 7685126413\C,-0.6934725535,-4.2386785341,0.6968509498\C,-1.4321006059,
 -3.0503232465,0.5730464891\C,-0.7741036761,-1.812075446,0.5285271729\H
 ,2.4695900149,-0.9712508486,-1.2077100758\H,3.8038903494,1.1116502815,
 -1.2452030497\H,1.8308775911,2.4375535374,2.3265992059\H,0.4922090386,
 0.3625491254,2.3623874905\H,2.4187799142,-2.8974244346,0.8054779128\Cl
 ,-1.7073945545,-0.3517851272,0.3138510354\Cl,-3.1645514817,-3.12478951
 58,0.4624312365\Cl,-1.4964956518,-5.7762017436,0.7579239666\Cl,3.83808
 88203,3.3709864494,0.5128840427\Cl,1.6781045355,-5.6004072783,0.922319
 1048\\Version=EM64L-G16RevB.01\State=1-A\HF=-2761.5125406\RMSD=5.204e-
 09\RMSF=9.293e-06\Dipole=0.3742441,0.0861695,0.0386667\Quadrupole=0.15
 72309,-4.4973273,4.3400964,-3.2908378,-2.4575457,1.9418545\PG=C01 [X(C
 12H5Cl5)]\\@


 NATURE REVEALS EVERY SECRET ONCE.
                    - RALPH WALDO EMERSON
 Job cpu time:       0 days 11 hours 34 minutes  9.1 seconds.
 Elapsed time:       0 days  2 hours 54 minutes  2.9 seconds.
 File lengths (MBytes):  RWF=    133 Int=      0 D2E=      0 Chk=     19 Scr=      1
 Normal termination of Gaussian 16 at Wed Mar 16 19:05:40 2022.
