 Entering Gaussian System, Link 0=g16
 Input=2,3,4-Trichlorobiphenyl.gjf
 Output=2,3,4-Trichlorobiphenyl.log
 Initial command:
 /usr/local/g16/l1.exe "/scratch/pkc/Gau-18194.inp" -scrdir="/scratch/pkc/"
 Entering Link 1 = /usr/local/g16/l1.exe PID=     18195.
  
 Copyright (c) 1988-2017, Gaussian, Inc.  All Rights Reserved.
  
 This is part of the Gaussian(R) 16 program.  It is based on
 the Gaussian(R) 09 system (copyright 2009, Gaussian, Inc.),
 the Gaussian(R) 03 system (copyright 2003, Gaussian, Inc.),
 the Gaussian(R) 98 system (copyright 1998, Gaussian, Inc.),
 the Gaussian(R) 94 system (copyright 1995, Gaussian, Inc.),
 the Gaussian 92(TM) system (copyright 1992, Gaussian, Inc.),
 the Gaussian 90(TM) system (copyright 1990, Gaussian, Inc.),
 the Gaussian 88(TM) system (copyright 1988, Gaussian, Inc.),
 the Gaussian 86(TM) system (copyright 1986, Carnegie Mellon
 University), and the Gaussian 82(TM) system (copyright 1983,
 Carnegie Mellon University). Gaussian is a federally registered
 trademark of Gaussian, Inc.
  
 This software contains proprietary and confidential information,
 including trade secrets, belonging to Gaussian, Inc.
  
 This software is provided under written license and may be
 used, copied, transmitted, or stored only in accord with that
 written license.
  
 The following legend is applicable only to US Government
 contracts under FAR:
  
                    RESTRICTED RIGHTS LEGEND
  
 Use, reproduction and disclosure by the US Government is
 subject to restrictions as set forth in subparagraphs (a)
 and (c) of the Commercial Computer Software - Restricted
 Rights clause in FAR 52.227-19.
  
 Gaussian, Inc.
 340 Quinnipiac St., Bldg. 40, Wallingford CT 06492
  
  
 ---------------------------------------------------------------
 Warning -- This program may not be used in any manner that
 competes with the business of Gaussian, Inc. or will provide
 assistance to any competitor of Gaussian, Inc.  The licensee
 of this program is prohibited from giving any competitor of
 Gaussian, Inc. access to this program.  By using this program,
 the user acknowledges that Gaussian, Inc. is engaged in the
 business of creating and licensing software in the field of
 computational chemistry and represents and warrants to the
 licensee that it is not a competitor of Gaussian, Inc. and that
 it will not use this program in any manner prohibited above.
 ---------------------------------------------------------------
  

 Cite this work as:
 Gaussian 16, Revision B.01,
 M. J. Frisch, G. W. Trucks, H. B. Schlegel, G. E. Scuseria, 
 M. A. Robb, J. R. Cheeseman, G. Scalmani, V. Barone, 
 G. A. Petersson, H. Nakatsuji, X. Li, M. Caricato, A. V. Marenich, 
 J. Bloino, B. G. Janesko, R. Gomperts, B. Mennucci, H. P. Hratchian, 
 J. V. Ortiz, A. F. Izmaylov, J. L. Sonnenberg, D. Williams-Young, 
 F. Ding, F. Lipparini, F. Egidi, J. Goings, B. Peng, A. Petrone, 
 T. Henderson, D. Ranasinghe, V. G. Zakrzewski, J. Gao, N. Rega, 
 G. Zheng, W. Liang, M. Hada, M. Ehara, K. Toyota, R. Fukuda, 
 J. Hasegawa, M. Ishida, T. Nakajima, Y. Honda, O. Kitao, H. Nakai, 
 T. Vreven, K. Throssell, J. A. Montgomery, Jr., J. E. Peralta, 
 F. Ogliaro, M. J. Bearpark, J. J. Heyd, E. N. Brothers, K. N. Kudin, 
 V. N. Staroverov, T. A. Keith, R. Kobayashi, J. Normand, 
 K. Raghavachari, A. P. Rendell, J. C. Burant, S. S. Iyengar, 
 J. Tomasi, M. Cossi, J. M. Millam, M. Klene, C. Adamo, R. Cammi, 
 J. W. Ochterski, R. L. Martin, K. Morokuma, O. Farkas, 
 J. B. Foresman, and D. J. Fox, Gaussian, Inc., Wallingford CT, 2016.
 
 ******************************************
 Gaussian 16:  EM64L-G16RevB.01 20-Dec-2017
                15-Mar-2022 
 ******************************************
 %mem=10GB
 %nprocshared=4
 Will use up to    4 processors via shared memory.
 --------------------------------
 # opt b3lyp/6-311+g(d,p) scf=xqc
 --------------------------------
 1/18=20,19=15,26=3,38=1/1,3;
 2/9=110,12=2,17=6,18=5,40=1/2;
 3/5=4,6=6,7=111,11=2,25=1,30=1,71=1,74=-5/1,2,3;
 4//1;
 5/5=2,8=3,13=1,38=5/2,8;
 6/7=2,8=2,9=2,10=2,28=1/1;
 7//1,2,3,16;
 1/18=20,19=15,26=3/3(2);
 2/9=110/2;
 99//99;
 2/9=110/2;
 3/5=4,6=6,7=111,11=2,25=1,30=1,71=1,74=-5/1,2,3;
 4/5=5,16=3,69=1/1;
 5/5=2,8=3,13=1,38=5/2,8;
 7//1,2,3,16;
 1/18=20,19=15,26=3/3(-5);
 2/9=110/2;
 6/7=2,8=2,9=2,10=2,19=2,28=1/1;
 99/9=1/99;
 -------------------
 Title Card Required
 -------------------
 Symbolic Z-matrix:
 Charge =  0 Multiplicity = 1
 C                    -4.19906  -1.6421   -0.37025 
 C                    -2.86668  -1.61222  -0.80359 
 C                    -2.15879  -0.40277  -0.80966 
 C                    -2.78327   0.7768   -0.38239 
 C                    -4.11565   0.74691   0.05096 
 C                    -4.82355  -0.46254   0.05703 
 C                    -4.97696  -2.97117  -0.36357 
 C                    -4.35248  -4.15073  -0.79085 
 C                    -5.06037  -5.36019  -0.78477 
 C                    -6.39275  -5.39007  -0.35142 
 C                    -7.01724  -4.21051   0.07585 
 C                    -6.30934  -3.00106   0.06978 
 H                    -2.38987  -2.51284  -1.12982 
 H                    -1.14148  -0.37995  -1.14053 
 H                    -3.33517  -4.12792  -1.12172 
 H                    -4.58356  -6.26081  -1.11101 
 H                    -6.93324  -6.31352  -0.34678 
 H                    -8.03454  -4.23333   0.40673 
 H                    -6.78615  -2.10043   0.39601 
 Cl                   -6.49687  -0.50007   0.60126 
 Cl                   -4.89994   2.22832   0.58756 
 Cl                   -1.89424   2.29573  -0.39002 
 

 GradGradGradGradGradGradGradGradGradGradGradGradGradGradGradGradGradGrad
 Berny optimization.
 Initialization pass.
                           ----------------------------
                           !    Initial Parameters    !
                           ! (Angstroms and Degrees)  !
 --------------------------                            --------------------------
 ! Name  Definition              Value          Derivative Info.                !
 --------------------------------------------------------------------------------
 ! R1    R(1,2)                  1.4014         estimate D2E/DX2                !
 ! R2    R(1,6)                  1.4014         estimate D2E/DX2                !
 ! R3    R(1,7)                  1.54           estimate D2E/DX2                !
 ! R4    R(2,3)                  1.4014         estimate D2E/DX2                !
 ! R5    R(2,13)                 1.07           estimate D2E/DX2                !
 ! R6    R(3,4)                  1.4014         estimate D2E/DX2                !
 ! R7    R(3,14)                 1.07           estimate D2E/DX2                !
 ! R8    R(4,5)                  1.4014         estimate D2E/DX2                !
 ! R9    R(4,22)                 1.76           estimate D2E/DX2                !
 ! R10   R(5,6)                  1.4014         estimate D2E/DX2                !
 ! R11   R(5,21)                 1.76           estimate D2E/DX2                !
 ! R12   R(6,20)                 1.76           estimate D2E/DX2                !
 ! R13   R(7,8)                  1.4014         estimate D2E/DX2                !
 ! R14   R(7,12)                 1.4014         estimate D2E/DX2                !
 ! R15   R(8,9)                  1.4014         estimate D2E/DX2                !
 ! R16   R(8,15)                 1.07           estimate D2E/DX2                !
 ! R17   R(9,10)                 1.4014         estimate D2E/DX2                !
 ! R18   R(9,16)                 1.07           estimate D2E/DX2                !
 ! R19   R(10,11)                1.4014         estimate D2E/DX2                !
 ! R20   R(10,17)                1.07           estimate D2E/DX2                !
 ! R21   R(11,12)                1.4014         estimate D2E/DX2                !
 ! R22   R(11,18)                1.07           estimate D2E/DX2                !
 ! R23   R(12,19)                1.07           estimate D2E/DX2                !
 ! A1    A(2,1,6)              120.0            estimate D2E/DX2                !
 ! A2    A(2,1,7)              120.0            estimate D2E/DX2                !
 ! A3    A(6,1,7)              120.0            estimate D2E/DX2                !
 ! A4    A(1,2,3)              120.0            estimate D2E/DX2                !
 ! A5    A(1,2,13)             120.0            estimate D2E/DX2                !
 ! A6    A(3,2,13)             120.0            estimate D2E/DX2                !
 ! A7    A(2,3,4)              120.0            estimate D2E/DX2                !
 ! A8    A(2,3,14)             120.0            estimate D2E/DX2                !
 ! A9    A(4,3,14)             120.0            estimate D2E/DX2                !
 ! A10   A(3,4,5)              120.0            estimate D2E/DX2                !
 ! A11   A(3,4,22)             120.0            estimate D2E/DX2                !
 ! A12   A(5,4,22)             120.0            estimate D2E/DX2                !
 ! A13   A(4,5,6)              120.0            estimate D2E/DX2                !
 ! A14   A(4,5,21)             120.0            estimate D2E/DX2                !
 ! A15   A(6,5,21)             120.0            estimate D2E/DX2                !
 ! A16   A(1,6,5)              120.0            estimate D2E/DX2                !
 ! A17   A(1,6,20)             120.0            estimate D2E/DX2                !
 ! A18   A(5,6,20)             120.0            estimate D2E/DX2                !
 ! A19   A(1,7,8)              120.0            estimate D2E/DX2                !
 ! A20   A(1,7,12)             120.0            estimate D2E/DX2                !
 ! A21   A(8,7,12)             120.0            estimate D2E/DX2                !
 ! A22   A(7,8,9)              120.0            estimate D2E/DX2                !
 ! A23   A(7,8,15)             120.0            estimate D2E/DX2                !
 ! A24   A(9,8,15)             120.0            estimate D2E/DX2                !
 ! A25   A(8,9,10)             120.0            estimate D2E/DX2                !
 ! A26   A(8,9,16)             120.0            estimate D2E/DX2                !
 ! A27   A(10,9,16)            120.0            estimate D2E/DX2                !
 ! A28   A(9,10,11)            120.0            estimate D2E/DX2                !
 ! A29   A(9,10,17)            120.0            estimate D2E/DX2                !
 ! A30   A(11,10,17)           120.0            estimate D2E/DX2                !
 ! A31   A(10,11,12)           120.0            estimate D2E/DX2                !
 ! A32   A(10,11,18)           120.0            estimate D2E/DX2                !
 ! A33   A(12,11,18)           120.0            estimate D2E/DX2                !
 ! A34   A(7,12,11)            120.0            estimate D2E/DX2                !
 ! A35   A(7,12,19)            120.0            estimate D2E/DX2                !
 ! A36   A(11,12,19)           120.0            estimate D2E/DX2                !
 ! D1    D(6,1,2,3)              0.0001         estimate D2E/DX2                !
 ! D2    D(6,1,2,13)           180.0            estimate D2E/DX2                !
 ! D3    D(7,1,2,3)           -180.0            estimate D2E/DX2                !
 ! D4    D(7,1,2,13)            -0.0001         estimate D2E/DX2                !
 ! D5    D(2,1,6,5)             -0.0001         estimate D2E/DX2                !
 ! D6    D(2,1,6,20)           180.0            estimate D2E/DX2                !
 ! D7    D(7,1,6,5)            180.0            estimate D2E/DX2                !
 ! D8    D(7,1,6,20)             0.0            estimate D2E/DX2                !
 ! D9    D(2,1,7,8)             -0.0001         estimate D2E/DX2                !
 ! D10   D(2,1,7,12)           179.9998         estimate D2E/DX2                !
 ! D11   D(6,1,7,8)            179.9999         estimate D2E/DX2                !
 ! D12   D(6,1,7,12)            -0.0002         estimate D2E/DX2                !
 ! D13   D(1,2,3,4)              0.0            estimate D2E/DX2                !
 ! D14   D(1,2,3,14)           180.0            estimate D2E/DX2                !
 ! D15   D(13,2,3,4)          -179.9999         estimate D2E/DX2                !
 ! D16   D(13,2,3,14)            0.0001         estimate D2E/DX2                !
 ! D17   D(2,3,4,5)             -0.0001         estimate D2E/DX2                !
 ! D18   D(2,3,4,22)           180.0            estimate D2E/DX2                !
 ! D19   D(14,3,4,5)           179.9999         estimate D2E/DX2                !
 ! D20   D(14,3,4,22)            0.0            estimate D2E/DX2                !
 ! D21   D(3,4,5,6)              0.0001         estimate D2E/DX2                !
 ! D22   D(3,4,5,21)          -179.9999         estimate D2E/DX2                !
 ! D23   D(22,4,5,6)          -180.0            estimate D2E/DX2                !
 ! D24   D(22,4,5,21)            0.0            estimate D2E/DX2                !
 ! D25   D(4,5,6,1)              0.0            estimate D2E/DX2                !
 ! D26   D(4,5,6,20)           179.9999         estimate D2E/DX2                !
 ! D27   D(21,5,6,1)           180.0            estimate D2E/DX2                !
 ! D28   D(21,5,6,20)           -0.0001         estimate D2E/DX2                !
 ! D29   D(1,7,8,9)            179.9999         estimate D2E/DX2                !
 ! D30   D(1,7,8,15)             0.0001         estimate D2E/DX2                !
 ! D31   D(12,7,8,9)             0.0001         estimate D2E/DX2                !
 ! D32   D(12,7,8,15)         -179.9998         estimate D2E/DX2                !
 ! D33   D(1,7,12,11)         -179.9999         estimate D2E/DX2                !
 ! D34   D(1,7,12,19)            0.0            estimate D2E/DX2                !
 ! D35   D(8,7,12,11)           -0.0001         estimate D2E/DX2                !
 ! D36   D(8,7,12,19)          179.9999         estimate D2E/DX2                !
 ! D37   D(7,8,9,10)             0.0            estimate D2E/DX2                !
 ! D38   D(7,8,9,16)           180.0            estimate D2E/DX2                !
 ! D39   D(15,8,9,10)          179.9998         estimate D2E/DX2                !
 ! D40   D(15,8,9,16)           -0.0002         estimate D2E/DX2                !
 ! D41   D(8,9,10,11)            0.0            estimate D2E/DX2                !
 ! D42   D(8,9,10,17)         -179.9999         estimate D2E/DX2                !
 ! D43   D(16,9,10,11)         180.0            estimate D2E/DX2                !
 ! D44   D(16,9,10,17)           0.0001         estimate D2E/DX2                !
 ! D45   D(9,10,11,12)           0.0            estimate D2E/DX2                !
 ! D46   D(9,10,11,18)        -179.9998         estimate D2E/DX2                !
 ! D47   D(17,10,11,12)        179.9999         estimate D2E/DX2                !
 ! D48   D(17,10,11,18)          0.0001         estimate D2E/DX2                !
 ! D49   D(10,11,12,7)           0.0            estimate D2E/DX2                !
 ! D50   D(10,11,12,19)       -179.9999         estimate D2E/DX2                !
 ! D51   D(18,11,12,7)         179.9999         estimate D2E/DX2                !
 ! D52   D(18,11,12,19)         -0.0001         estimate D2E/DX2                !
 --------------------------------------------------------------------------------
 Trust Radius=3.00D-01 FncErr=1.00D-07 GrdErr=1.00D-06 EigMax=2.50D+02 EigMin=1.00D-04
 Number of steps in this run=    121 maximum allowed number of steps=    132.
 GradGradGradGradGradGradGradGradGradGradGradGradGradGradGradGradGradGrad

                          Input orientation:                          
 ---------------------------------------------------------------------
 Center     Atomic      Atomic             Coordinates (Angstroms)
 Number     Number       Type             X           Y           Z
 ---------------------------------------------------------------------
      1          6           0       -4.199060   -1.642102   -0.370245
      2          6           0       -2.866679   -1.612216   -0.803592
      3          6           0       -2.158785   -0.402765   -0.809664
      4          6           0       -2.783273    0.776800   -0.382389
      5          6           0       -4.115654    0.746914    0.050955
      6          6           0       -4.823548   -0.462537    0.057028
      7          6           0       -4.976965   -2.971169   -0.363572
      8          6           0       -4.352477   -4.150734   -0.790846
      9          6           0       -5.060370   -5.360186   -0.784772
     10          6           0       -6.392750   -5.390072   -0.351422
     11          6           0       -7.017238   -4.210507    0.075853
     12          6           0       -6.309345   -3.001056    0.069779
     13          1           0       -2.389868   -2.512841   -1.129824
     14          1           0       -1.141482   -0.379947   -1.140534
     15          1           0       -3.335175   -4.127916   -1.121716
     16          1           0       -4.583560   -6.260810   -1.111006
     17          1           0       -6.933242   -6.313515   -0.346783
     18          1           0       -8.034539   -4.233327    0.406728
     19          1           0       -6.786154   -2.100432    0.396014
     20         17           0       -6.496868   -0.500070    0.601261
     21         17           0       -4.899941    2.228315    0.587561
     22         17           0       -1.894238    2.295734   -0.390015
 ---------------------------------------------------------------------
                    Distance matrix (angstroms):
                    1          2          3          4          5
     1  C    0.000000
     2  C    1.401400   0.000000
     3  C    2.427296   1.401400   0.000000
     4  C    2.802800   2.427296   1.401400   0.000000
     5  C    2.427296   2.802800   2.427296   1.401400   0.000000
     6  C    1.401400   2.427296   2.802800   2.427296   1.401400
     7  C    1.540000   2.548270   3.838989   4.342800   3.838989
     8  C    2.548270   2.941400   4.342800   5.187469   4.975106
     9  C    3.838989   4.342800   5.744200   6.558176   6.235992
    10  C    4.342800   5.187469   6.558176   7.145600   6.558176
    11  C    3.838989   4.975106   6.235992   6.558176   5.744200
    12  C    2.548270   3.813607   4.975106   5.187469   4.342800
    13  H    2.146700   1.070000   2.146700   3.396345   3.872800
    14  H    3.396345   2.146700   1.070000   2.146700   3.396345
    15  H    2.736837   2.578650   3.918930   4.990735   5.074276
    16  H    4.693509   4.965039   6.347206   7.300676   7.118798
    17  H    5.412800   6.232802   7.612271   8.215600   7.612271
    18  H    4.693509   5.919617   7.118798   7.300676   6.347206
    19  H    2.736837   4.127917   5.074276   4.990735   3.918930
    20  Cl   2.743718   4.048303   4.562800   4.048303   2.743718
    21  Cl   4.048303   4.562800   4.048303   2.743718   1.760000
    22  Cl   4.562800   4.048303   2.743718   1.760000   2.743718
                    6          7          8          9         10
     6  C    0.000000
     7  C    2.548270   0.000000
     8  C    3.813607   1.401400   0.000000
     9  C    4.975106   2.427296   1.401400   0.000000
    10  C    5.187469   2.802800   2.427296   1.401400   0.000000
    11  C    4.342800   2.427296   2.802800   2.427296   1.401400
    12  C    2.941400   1.401400   2.427296   2.802800   2.427296
    13  H    3.396345   2.736837   2.578650   3.918930   4.990735
    14  H    3.872800   4.693509   4.965039   6.347206   7.300676
    15  H    4.127917   2.146700   1.070000   2.146700   3.396345
    16  H    5.919617   3.396345   2.146700   1.070000   2.146700
    17  H    6.232802   3.872800   3.396345   2.146700   1.070000
    18  H    4.965039   3.396345   3.872800   3.396345   2.146700
    19  H    2.578650   2.146700   3.396345   3.872800   3.396345
    20  Cl   1.760000   3.057342   4.456874   5.254079   4.983028
    21  Cl   2.743718   5.286324   6.549198   7.713260   7.819846
    22  Cl   4.048303   6.102800   6.910901   8.294174   8.905600
                   11         12         13         14         15
    11  C    0.000000
    12  C    1.401400   0.000000
    13  H    5.074276   4.127917   0.000000
    14  H    7.118798   5.919617   2.471400   0.000000
    15  H    3.872800   3.396345   1.871400   4.342800   0.000000
    16  H    3.396345   3.872800   4.342800   6.814200   2.471400
    17  H    2.146700   3.396345   5.974992   8.329571   4.280590
    18  H    1.070000   2.146700   6.097816   8.047159   4.942800
    19  H    2.146700   1.070000   4.671787   6.097816   4.280590
    20  Cl   3.783409   2.563702   4.890332   5.632800   5.111382
    21  Cl   6.797295   5.440665   5.632800   4.890332   6.765486
    22  Cl   8.294174   6.910901   4.890332   2.879094   6.623817
                   16         17         18         19         20
    16  H    0.000000
    17  H    2.471400   0.000000
    18  H    4.280590   2.471400   0.000000
    19  H    4.942800   4.280590   2.471400   0.000000
    20  Cl   6.307038   5.906383   4.042212   1.639199   0.000000
    21  Cl   8.663168   8.830073   7.184095   4.725732   3.161400
    22  Cl   8.998151   9.975600   8.998151   6.623817   5.475705
                   21         22
    21  Cl   0.000000
    22  Cl   3.161400   0.000000
 Stoichiometry    C12H7Cl3
 Framework group  C1[X(C12H7Cl3)]
 Deg. of freedom    60
 Full point group                 C1      NOp   1
 Largest Abelian subgroup         C1      NOp   1
 Largest concise Abelian subgroup C1      NOp   1
                         Standard orientation:                         
 ---------------------------------------------------------------------
 Center     Atomic      Atomic             Coordinates (Angstroms)
 Number     Number       Type             X           Y           Z
 ---------------------------------------------------------------------
      1          6           0       -0.503685   -0.628146   -0.000001
      2          6           0        0.049108   -1.915912   -0.000002
      3          6           0        1.440743   -2.081061   -0.000001
      4          6           0        2.279585   -0.958445    0.000001
      5          6           0        1.726791    0.329321   -0.000000
      6          6           0        0.335156    0.494470   -0.000001
      7          6           0       -2.032954   -0.446663   -0.000001
      8          6           0       -2.871795   -1.569279   -0.000003
      9          6           0       -4.263430   -1.404129   -0.000002
     10          6           0       -4.816224   -0.116363    0.000002
     11          6           0       -3.977383    1.006253    0.000004
     12          6           0       -2.585748    0.841103    0.000003
     13          1           0       -0.591365   -2.773054   -0.000001
     14          1           0        1.862813   -3.064299   -0.000000
     15          1           0       -2.449725   -2.552517   -0.000003
     16          1           0       -4.903904   -2.261272   -0.000004
     17          1           0       -5.878768    0.009732    0.000004
     18          1           0       -4.399453    1.989491    0.000010
     19          1           0       -1.945274    1.698246    0.000006
     20         17           0       -0.359090    2.111759   -0.000002
     21         17           0        2.780281    1.739200   -0.000002
     22         17           0        4.027321   -1.165855    0.000003
 ---------------------------------------------------------------------
 Rotational constants (GHZ):           0.9408708           0.2559499           0.2012129
 Standard basis: 6-311+G(d,p) (5D, 7F)
 There are   411 symmetry adapted cartesian basis functions of A   symmetry.
 There are   396 symmetry adapted basis functions of A   symmetry.
   396 basis functions,   647 primitive gaussians,   411 cartesian basis functions
    65 alpha electrons       65 beta electrons
       nuclear repulsion energy      1224.4997158598 Hartrees.
 NAtoms=   22 NActive=   22 NUniq=   22 SFac= 1.00D+00 NAtFMM=   60 NAOKFM=F Big=F
 Integral buffers will be    131072 words long.
 Raffenetti 2 integral format.
 Two-electron integral symmetry is turned on.
 One-electron integrals computed using PRISM.
 NBasis=   396 RedAO= T EigKep=  1.08D-06  NBF=   396
 NBsUse=   391 1.00D-06 EigRej=  7.49D-07 NBFU=   391
 ExpMin= 4.38D-02 ExpMax= 1.06D+05 ExpMxC= 3.62D+03 IAcc=3 IRadAn=         5 AccDes= 0.00D+00
 Harris functional with IExCor=  402 and IRadAn=       5 diagonalized for initial guess.
 HarFok:  IExCor=  402 AccDes= 0.00D+00 IRadAn=         5 IDoV= 1 UseB2=F ITyADJ=14
 ICtDFT=  3500011 ScaDFX=  1.000000  1.000000  1.000000  1.000000
 FoFCou: FMM=F IPFlag=           0 FMFlag=      100000 FMFlg1=           0
         NFxFlg=           0 DoJE=T BraDBF=F KetDBF=T FulRan=T
         wScrn=  0.000000 ICntrl=       500 IOpCl=  0 I1Cent=   200000004 NGrid=           0
         NMat0=    1 NMatS0=      1 NMatT0=    0 NMatD0=    1 NMtDS0=    0 NMtDT0=    0
 Petite list used in FoFCou.
 Requested convergence on RMS density matrix=1.00D-08 within  32 cycles.
 Requested convergence on MAX density matrix=1.00D-06.
 Requested convergence on             energy=1.00D-06.
 No special actions if energy rises.
 EnCoef did     4 forward-backward iterations
 SCF Done:  E(RB3LYP) =  -1842.21206093     A.U. after   16 cycles
            NFock= 16  Conv=0.58D-08     -V/T= 2.0027
 QCSCF skips out because SCF is already converged.

 **********************************************************************

            Population analysis using the SCF Density.

 **********************************************************************

 Orbital symmetries:
       Occupied  (A) (A) (A) (A) (A) (A) (A) (A) (A) (A) (A) (A)
                 (A) (A) (A) (A) (A) (A) (A) (A) (A) (A) (A) (A)
                 (A) (A) (A) (A) (A) (A) (A) (A) (A) (A) (A) (A)
                 (A) (A) (A) (A) (A) (A) (A) (A) (A) (A) (A) (A)
                 (A) (A) (A) (A) (A) (A) (A) (A) (A) (A) (A) (A)
                 (A) (A) (A) (A) (A)
       Virtual   (A) (A) (A) (A) (A) (A) (A) (A) (A) (A) (A) (A)
                 (A) (A) (A) (A) (A) (A) (A) (A) (A) (A) (A) (A)
                 (A) (A) (A) (A) (A) (A) (A) (A) (A) (A) (A) (A)
                 (A) (A) (A) (A) (A) (A) (A) (A) (A) (A) (A) (A)
                 (A) (A) (A) (A) (A) (A) (A) (A) (A) (A) (A) (A)
                 (A) (A) (A) (A) (A) (A) (A) (A) (A) (A) (A) (A)
                 (A) (A) (A) (A) (A) (A) (A) (A) (A) (A) (A) (A)
                 (A) (A) (A) (A) (A) (A) (A) (A) (A) (A) (A) (A)
                 (A) (A) (A) (A) (A) (A) (A) (A) (A) (A) (A) (A)
                 (A) (A) (A) (A) (A) (A) (A) (A) (A) (A) (A) (A)
                 (A) (A) (A) (A) (A) (A) (A) (A) (A) (A) (A) (A)
                 (A) (A) (A) (A) (A) (A) (A) (A) (A) (A) (A) (A)
                 (A) (A) (A) (A) (A) (A) (A) (A) (A) (A) (A) (A)
                 (A) (A) (A) (A) (A) (A) (A) (A) (A) (A) (A) (A)
                 (A) (A) (A) (A) (A) (A) (A) (A) (A) (A) (A) (A)
                 (A) (A) (A) (A) (A) (A) (A) (A) (A) (A) (A) (A)
                 (A) (A) (A) (A) (A) (A) (A) (A) (A) (A) (A) (A)
                 (A) (A) (A) (A) (A) (A) (A) (A) (A) (A) (A) (A)
                 (A) (A) (A) (A) (A) (A) (A) (A) (A) (A) (A) (A)
                 (A) (A) (A) (A) (A) (A) (A) (A) (A) (A) (A) (A)
                 (A) (A) (A) (A) (A) (A) (A) (A) (A) (A) (A) (A)
                 (A) (A) (A) (A) (A) (A) (A) (A) (A) (A) (A) (A)
                 (A) (A) (A) (A) (A) (A) (A) (A) (A) (A) (A) (A)
                 (A) (A) (A) (A) (A) (A) (A) (A) (A) (A) (A) (A)
                 (A) (A) (A) (A) (A) (A) (A) (A) (A) (A) (A) (A)
                 (A) (A) (A) (A) (A) (A) (A) (A) (A) (A) (A) (A)
                 (A) (A) (A) (A) (A) (A) (A) (A) (A) (A) (A) (A)
                 (A) (A)
 The electronic state is 1-A.
 Alpha  occ. eigenvalues -- -101.57341-101.57107-101.57086 -10.27394 -10.27169
 Alpha  occ. eigenvalues --  -10.26833 -10.22714 -10.21439 -10.21018 -10.20471
 Alpha  occ. eigenvalues --  -10.18851 -10.18611 -10.18358 -10.18094 -10.16317
 Alpha  occ. eigenvalues --   -9.49132  -9.48532  -9.48515  -7.25555  -7.25027
 Alpha  occ. eigenvalues --   -7.25022  -7.24587  -7.24538  -7.24010  -7.23999
 Alpha  occ. eigenvalues --   -7.23954  -7.23915  -0.94636  -0.90418  -0.87400
 Alpha  occ. eigenvalues --   -0.86044  -0.85158  -0.78335  -0.76307  -0.75688
 Alpha  occ. eigenvalues --   -0.73563  -0.64714  -0.63948  -0.62115  -0.59914
 Alpha  occ. eigenvalues --   -0.54693  -0.52631  -0.52126  -0.49225  -0.48421
 Alpha  occ. eigenvalues --   -0.46200  -0.45390  -0.44846  -0.44792  -0.44351
 Alpha  occ. eigenvalues --   -0.40896  -0.40355  -0.39480  -0.38332  -0.37672
 Alpha  occ. eigenvalues --   -0.35951  -0.35570  -0.34499  -0.34468  -0.32098
 Alpha  occ. eigenvalues --   -0.29157  -0.27656  -0.27359  -0.26350  -0.24396
 Alpha virt. eigenvalues --   -0.06499  -0.05309  -0.04328  -0.02211  -0.00517
 Alpha virt. eigenvalues --   -0.00130   0.00464   0.01093   0.01714   0.02222
 Alpha virt. eigenvalues --    0.03098   0.03544   0.04559   0.04623   0.05922
 Alpha virt. eigenvalues --    0.05926   0.06329   0.06866   0.07026   0.07938
 Alpha virt. eigenvalues --    0.08070   0.08724   0.08745   0.09234   0.10254
 Alpha virt. eigenvalues --    0.10441   0.11285   0.11617   0.11741   0.11754
 Alpha virt. eigenvalues --    0.12903   0.12981   0.13862   0.14596   0.14759
 Alpha virt. eigenvalues --    0.15297   0.15612   0.15748   0.16122   0.16133
 Alpha virt. eigenvalues --    0.16748   0.17103   0.17922   0.18010   0.18651
 Alpha virt. eigenvalues --    0.19032   0.19565   0.19705   0.19783   0.20157
 Alpha virt. eigenvalues --    0.20328   0.21254   0.21707   0.21743   0.21743
 Alpha virt. eigenvalues --    0.21983   0.23146   0.23488   0.23647   0.24147
 Alpha virt. eigenvalues --    0.24928   0.25880   0.25999   0.26902   0.27170
 Alpha virt. eigenvalues --    0.27366   0.28565   0.28701   0.29558   0.29600
 Alpha virt. eigenvalues --    0.30798   0.32008   0.32271   0.32773   0.33319
 Alpha virt. eigenvalues --    0.33923   0.35814   0.36226   0.37999   0.38601
 Alpha virt. eigenvalues --    0.41381   0.42872   0.42907   0.43914   0.45214
 Alpha virt. eigenvalues --    0.45668   0.45769   0.46163   0.48496   0.48529
 Alpha virt. eigenvalues --    0.49255   0.50621   0.51187   0.51500   0.52945
 Alpha virt. eigenvalues --    0.54023   0.54268   0.54827   0.55139   0.56024
 Alpha virt. eigenvalues --    0.56752   0.56823   0.57975   0.58760   0.59181
 Alpha virt. eigenvalues --    0.59735   0.61290   0.61444   0.61940   0.63388
 Alpha virt. eigenvalues --    0.64197   0.64376   0.65566   0.66018   0.66750
 Alpha virt. eigenvalues --    0.67571   0.67602   0.68840   0.70030   0.71560
 Alpha virt. eigenvalues --    0.73350   0.75587   0.76561   0.76992   0.80184
 Alpha virt. eigenvalues --    0.81434   0.81921   0.82084   0.82865   0.83249
 Alpha virt. eigenvalues --    0.83746   0.84652   0.84966   0.85235   0.85313
 Alpha virt. eigenvalues --    0.86224   0.86306   0.87879   0.88595   0.89720
 Alpha virt. eigenvalues --    0.90204   0.91548   0.92444   0.92512   0.93417
 Alpha virt. eigenvalues --    0.93803   0.94323   0.94831   0.95789   0.95798
 Alpha virt. eigenvalues --    0.97172   0.97689   0.98585   1.01173   1.01559
 Alpha virt. eigenvalues --    1.02363   1.02477   1.05067   1.06420   1.07600
 Alpha virt. eigenvalues --    1.07737   1.10459   1.12212   1.12283   1.13653
 Alpha virt. eigenvalues --    1.14681   1.19969   1.21290   1.22157   1.23900
 Alpha virt. eigenvalues --    1.26575   1.27055   1.29070   1.30671   1.32688
 Alpha virt. eigenvalues --    1.34173   1.35850   1.40444   1.44821   1.45989
 Alpha virt. eigenvalues --    1.46967   1.50743   1.51449   1.52867   1.53987
 Alpha virt. eigenvalues --    1.54532   1.55921   1.56200   1.57463   1.59996
 Alpha virt. eigenvalues --    1.62309   1.64322   1.65277   1.67056   1.68355
 Alpha virt. eigenvalues --    1.70001   1.70915   1.74344   1.77893   1.78294
 Alpha virt. eigenvalues --    1.78965   1.80117   1.83179   1.84757   1.85497
 Alpha virt. eigenvalues --    1.86562   1.87282   1.87354   1.88991   1.91538
 Alpha virt. eigenvalues --    1.94584   1.94679   1.95263   1.96115   1.96683
 Alpha virt. eigenvalues --    1.97416   1.99249   2.03717   2.04321   2.05826
 Alpha virt. eigenvalues --    2.07859   2.08867   2.17166   2.17591   2.21548
 Alpha virt. eigenvalues --    2.22989   2.25454   2.25489   2.26190   2.29195
 Alpha virt. eigenvalues --    2.29379   2.31457   2.35403   2.35952   2.36519
 Alpha virt. eigenvalues --    2.38881   2.39861   2.43011   2.43295   2.43862
 Alpha virt. eigenvalues --    2.45052   2.49857   2.51613   2.53880   2.58549
 Alpha virt. eigenvalues --    2.60401   2.60560   2.62283   2.65183   2.66440
 Alpha virt. eigenvalues --    2.69018   2.70322   2.71153   2.73007   2.73720
 Alpha virt. eigenvalues --    2.73812   2.75088   2.75221   2.77012   2.77489
 Alpha virt. eigenvalues --    2.79844   2.81550   2.82626   2.84221   2.84804
 Alpha virt. eigenvalues --    2.86187   2.92222   2.93709   2.93718   2.96665
 Alpha virt. eigenvalues --    3.05778   3.07798   3.08869   3.11909   3.13694
 Alpha virt. eigenvalues --    3.15758   3.20165   3.21540   3.23485   3.35658
 Alpha virt. eigenvalues --    3.36281   3.38403   3.40568   3.52488   3.53077
 Alpha virt. eigenvalues --    3.56157   3.62919   3.67465   3.70124   3.80774
 Alpha virt. eigenvalues --    4.00735   4.03803   4.05590   4.09132   4.18027
 Alpha virt. eigenvalues --    4.21833   4.46913   4.80044   4.84617   9.74990
 Alpha virt. eigenvalues --    9.80060   9.87172  23.37835  23.65541  23.82372
 Alpha virt. eigenvalues --   23.87090  23.92657  23.96244  23.97724  23.99363
 Alpha virt. eigenvalues --   24.06166  24.08490  24.10127  24.17726  25.76944
 Alpha virt. eigenvalues --   25.82489  25.90041  26.12185  26.15287  26.47336
 Alpha virt. eigenvalues --   26.62713  26.76046  26.90876 215.73974 215.79730
 Alpha virt. eigenvalues --  215.89496
          Condensed to atoms (all electrons):
               1          2          3          4          5          6
     1  C   11.615008  -2.125988   0.015973  -0.214256  -2.091044  -0.768809
     2  C   -2.125988  13.038908   0.307629  -1.018263  -1.146989  -1.773355
     3  C    0.015973   0.307629  10.464675  -1.691779  -1.716873   0.275257
     4  C   -0.214256  -1.018263  -1.691779  14.836482  -3.025154  -1.055740
     5  C   -2.091044  -1.146989  -1.716873  -3.025154  14.518529   1.844173
     6  C   -0.768809  -1.773355   0.275257  -1.055740   1.844173  11.553063
     7  C    2.685304  -1.551929  -0.363366  -0.388291  -1.604666  -2.292796
     8  C   -1.538948   4.036718  -0.974421   0.816242  -1.457186  -2.898239
     9  C   -0.444996  -1.004159  -0.159988  -0.235177  -0.195955  -0.274360
    10  C   -0.402112   0.087406  -0.042129   0.046887  -0.064664   0.000304
    11  C   -0.561519  -0.525883   0.189421  -0.243115   0.313143  -0.311530
    12  C    0.624166  -2.970535   0.128685  -0.898405   0.589096   3.223942
    13  H    0.049940   0.354709  -0.108329  -0.042819  -0.020447  -0.036890
    14  H    0.025311  -0.026599   0.351537   0.020717  -0.031360   0.002849
    15  H    0.059753   0.018463   0.024054   0.000033   0.005889   0.023266
    16  H   -0.002243   0.006181  -0.000005   0.000369  -0.000270   0.001689
    17  H    0.007821   0.002697   0.000321   0.000016   0.000056   0.000009
    18  H    0.008204  -0.000006  -0.000129  -0.000140  -0.000097   0.001782
    19  H   -0.043501  -0.017856  -0.001304  -0.001206   0.015764   0.195582
    20  Cl  -0.057878   0.582516   0.062854   0.211517  -0.014119  -1.694846
    21  Cl  -0.520217   0.118710   0.392049  -0.688193  -0.506942   0.635616
    22  Cl  -0.260058  -0.087079  -0.449595  -0.431715   0.833226  -0.194845
               7          8          9         10         11         12
     1  C    2.685304  -1.538948  -0.444996  -0.402112  -0.561519   0.624166
     2  C   -1.551929   4.036718  -1.004159   0.087406  -0.525883  -2.970535
     3  C   -0.363366  -0.974421  -0.159988  -0.042129   0.189421   0.128685
     4  C   -0.388291   0.816242  -0.235177   0.046887  -0.243115  -0.898405
     5  C   -1.604666  -1.457186  -0.195955  -0.064664   0.313143   0.589096
     6  C   -2.292796  -2.898239  -0.274360   0.000304  -0.311530   3.223942
     7  C   11.938051  -1.959887   0.177907  -1.001771   0.122233  -0.641428
     8  C   -1.959887  16.150980  -1.688606   0.689721  -1.831041  -3.866770
     9  C    0.177907  -1.688606   8.757218   0.439893   0.123617   0.671692
    10  C   -1.001771   0.689721   0.439893   5.936595   0.091735  -0.012587
    11  C    0.122233  -1.831041   0.123617   0.091735  12.692121  -3.330878
    12  C   -0.641428  -3.866770   0.671692  -0.012587  -3.330878  13.537927
    13  H    0.059177   0.030502   0.025764  -0.002076   0.002798   0.013874
    14  H   -0.000569   0.010556  -0.000101   0.000183  -0.000178  -0.000378
    15  H    0.084802   0.282107  -0.145945  -0.024151   0.005673  -0.016191
    16  H    0.014802  -0.036120   0.357146   0.021318  -0.020409   0.006883
    17  H    0.034541  -0.005398  -0.022017   0.379021  -0.048765  -0.001362
    18  H    0.053661  -0.008486  -0.009727  -0.026167   0.319738   0.008953
    19  H   -0.257773  -0.076565  -0.025760   0.005257   0.180011   0.525114
    20  Cl   0.632372   0.620233   0.012061   0.003271  -0.672367  -1.332863
    21  Cl  -0.141426  -0.120505   0.000080  -0.004717   0.051388   0.103988
    22  Cl  -0.085707  -0.007667  -0.006137   0.000113  -0.007922  -0.037485
              13         14         15         16         17         18
     1  C    0.049940   0.025311   0.059753  -0.002243   0.007821   0.008204
     2  C    0.354709  -0.026599   0.018463   0.006181   0.002697  -0.000006
     3  C   -0.108329   0.351537   0.024054  -0.000005   0.000321  -0.000129
     4  C   -0.042819   0.020717   0.000033   0.000369   0.000016  -0.000140
     5  C   -0.020447  -0.031360   0.005889  -0.000270   0.000056  -0.000097
     6  C   -0.036890   0.002849   0.023266   0.001689   0.000009   0.001782
     7  C    0.059177  -0.000569   0.084802   0.014802   0.034541   0.053661
     8  C    0.030502   0.010556   0.282107  -0.036120  -0.005398  -0.008486
     9  C    0.025764  -0.000101  -0.145945   0.357146  -0.022017  -0.009727
    10  C   -0.002076   0.000183  -0.024151   0.021318   0.379021  -0.026167
    11  C    0.002798  -0.000178   0.005673  -0.020409  -0.048765   0.319738
    12  C    0.013874  -0.000378  -0.016191   0.006883  -0.001362   0.008953
    13  H    0.545765  -0.006959   0.001699  -0.000013  -0.000002   0.000001
    14  H   -0.006959   0.507372   0.000046   0.000000  -0.000000   0.000000
    15  H    0.001699   0.000046   0.575599  -0.007588  -0.000270   0.000107
    16  H   -0.000013   0.000000  -0.007588   0.540106  -0.007534  -0.000316
    17  H   -0.000002  -0.000000  -0.000270  -0.007534   0.542039  -0.006868
    18  H    0.000001   0.000000   0.000107  -0.000316  -0.006868   0.548980
    19  H   -0.000095  -0.000003  -0.000221   0.000147  -0.000563  -0.014353
    20  Cl  -0.000766   0.001361  -0.000460  -0.000230   0.000673   0.003357
    21  Cl   0.001052  -0.000710   0.000056  -0.000002  -0.000000  -0.000002
    22  Cl  -0.001279  -0.006217   0.000000   0.000000   0.000000  -0.000001
              19         20         21         22
     1  C   -0.043501  -0.057878  -0.520217  -0.260058
     2  C   -0.017856   0.582516   0.118710  -0.087079
     3  C   -0.001304   0.062854   0.392049  -0.449595
     4  C   -0.001206   0.211517  -0.688193  -0.431715
     5  C    0.015764  -0.014119  -0.506942   0.833226
     6  C    0.195582  -1.694846   0.635616  -0.194845
     7  C   -0.257773   0.632372  -0.141426  -0.085707
     8  C   -0.076565   0.620233  -0.120505  -0.007667
     9  C   -0.025760   0.012061   0.000080  -0.006137
    10  C    0.005257   0.003271  -0.004717   0.000113
    11  C    0.180011  -0.672367   0.051388  -0.007922
    12  C    0.525114  -1.332863   0.103988  -0.037485
    13  H   -0.000095  -0.000766   0.001052  -0.001279
    14  H   -0.000003   0.001361  -0.000710  -0.006217
    15  H   -0.000221  -0.000460   0.000056   0.000000
    16  H    0.000147  -0.000230  -0.000002   0.000000
    17  H   -0.000563   0.000673  -0.000000   0.000000
    18  H   -0.014353   0.003357  -0.000002  -0.000001
    19  H    0.732382  -0.338371   0.005853   0.000396
    20  Cl  -0.338371  18.592109  -0.312017   0.001769
    21  Cl   0.005853  -0.312017  17.548115  -0.230503
    22  Cl   0.000396   0.001769  -0.230503  17.443977
 Mulliken charges:
               1
     1  C   -0.059913
     2  C   -0.305295
     3  C   -0.704538
     4  C    0.001989
     5  C   -0.244108
     6  C   -0.456122
     7  C    0.486757
     8  C   -0.167221
     9  C   -0.352452
    10  C   -0.121329
    11  C   -0.538269
    12  C   -0.325440
    13  H    0.134394
    14  H    0.153141
    15  H    0.113279
    16  H    0.126088
    17  H    0.125584
    18  H    0.121509
    19  H    0.117064
    20  Cl   0.699824
    21  Cl   0.668329
    22  Cl   0.526730
 Sum of Mulliken charges =  -0.00000
 Mulliken charges with hydrogens summed into heavy atoms:
               1
     1  C   -0.059913
     2  C   -0.170902
     3  C   -0.551397
     4  C    0.001989
     5  C   -0.244108
     6  C   -0.456122
     7  C    0.486757
     8  C   -0.053942
     9  C   -0.226364
    10  C    0.004255
    11  C   -0.416760
    12  C   -0.208376
    20  Cl   0.699824
    21  Cl   0.668329
    22  Cl   0.526730
 Electronic spatial extent (au):  <R**2>=           4892.9432
 Charge=             -0.0000 electrons
 Dipole moment (field-independent basis, Debye):
    X=             -1.9526    Y=             -1.6989    Z=              0.0000  Tot=              2.5882
 Quadrupole moment (field-independent basis, Debye-Ang):
   XX=           -105.7393   YY=            -97.9812   ZZ=           -112.7052
   XY=             -1.0436   XZ=             -0.0000   YZ=              0.0000
 Traceless Quadrupole moment (field-independent basis, Debye-Ang):
   XX=             -0.2641   YY=              7.4940   ZZ=             -7.2299
   XY=             -1.0436   XZ=             -0.0000   YZ=              0.0000
 Octapole moment (field-independent basis, Debye-Ang**2):
  XXX=            -23.8779  YYY=             -1.6926  ZZZ=              0.0000  XYY=             -3.7378
  XXY=              5.9179  XXZ=              0.0001  XZZ=             21.5152  YZZ=              8.5073
  YYZ=              0.0000  XYZ=             -0.0001
 Hexadecapole moment (field-independent basis, Debye-Ang**3):
 XXXX=          -4775.7906 YYYY=          -1325.9459 ZZZZ=           -133.2036 XXXY=             20.3235
 XXXZ=             -0.0007 YYYX=             -4.2507 YYYZ=              0.0001 ZZZX=              0.0000
 ZZZY=             -0.0001 XXYY=          -1013.5823 XXZZ=           -937.2335 YYZZ=           -278.6744
 XXYZ=              0.0003 YYXZ=             -0.0001 ZZXY=             -3.1972
 N-N= 1.224499715860D+03 E-N=-6.801009851715D+03  KE= 1.837167629260D+03
 Calling FoFJK, ICntrl=      2127 FMM=F ISym2X=0 I1Cent= 0 IOpClX= 0 NMat=1 NMatS=1 NMatT=0.
 ***** Axes restored to original set *****
 -------------------------------------------------------------------
 Center     Atomic                   Forces (Hartrees/Bohr)
 Number     Number              X              Y              Z
 -------------------------------------------------------------------
      1        6          -0.021430449   -0.034556942    0.000570153
      2        6          -0.002900258    0.028368984    0.006283578
      3        6          -0.014724832   -0.005222149    0.003870505
      4        6           0.001192582   -0.002427971   -0.000849114
      5        6          -0.005774104    0.010873937    0.003944559
      6        6           0.007164841   -0.000993654   -0.002547034
      7        6           0.014347203    0.024492144   -0.000126781
      8        6          -0.016685377   -0.008070494    0.003981459
      9        6          -0.004650138    0.016134842    0.004562233
     10        6           0.004496131    0.012392592    0.000846187
     11        6           0.022577736   -0.005187540   -0.008412521
     12        6          -0.006461539   -0.052922515   -0.007810419
     13        1           0.004759757   -0.003484465   -0.002222595
     14        1           0.008272249    0.001862531   -0.002375521
     15        1           0.006832244   -0.003657205   -0.002937898
     16        1           0.004700016   -0.008051497   -0.003060561
     17        1          -0.004636519   -0.009264753   -0.000212525
     18        1          -0.009610197    0.000069690    0.003179172
     19        1          -0.002973828   -0.051515358   -0.008695068
     20       17           0.012286095    0.105472071    0.015760427
     21       17           0.003719636   -0.006736801   -0.002490644
     22       17          -0.000501248   -0.007575447   -0.001257591
 -------------------------------------------------------------------
 Cartesian Forces:  Max     0.105472071 RMS     0.018680574

 GradGradGradGradGradGradGradGradGradGradGradGradGradGradGradGradGradGrad
 Berny optimization.
 FormGI is forming the generalized inverse of G from B-inverse, IUseBI=4.
 Internal  Forces:  Max     0.283904125 RMS     0.051600921
 Search for a local minimum.
 Step number   1 out of a maximum of  121
 All quantities printed in internal units (Hartrees-Bohrs-Radians)
 Mixed Optimization -- RFO/linear search
 Second derivative matrix not updated -- first step.
 ITU=  0
     Eigenvalues ---    0.00237   0.01506   0.01506   0.02070   0.02070
     Eigenvalues ---    0.02070   0.02070   0.02070   0.02070   0.02070
     Eigenvalues ---    0.02070   0.02070   0.02070   0.02070   0.02070
     Eigenvalues ---    0.02070   0.02070   0.02070   0.02070   0.16000
     Eigenvalues ---    0.16000   0.16000   0.16000   0.16000   0.16000
     Eigenvalues ---    0.16000   0.22000   0.22000   0.22489   0.23485
     Eigenvalues ---    0.24492   0.25000   0.25000   0.25000   0.25000
     Eigenvalues ---    0.25000   0.25000   0.28519   0.29539   0.29539
     Eigenvalues ---    0.29539   0.37230   0.37230   0.37230   0.37230
     Eigenvalues ---    0.37230   0.37230   0.37230   0.41268   0.41459
     Eigenvalues ---    0.41540   0.41720   0.45389   0.45389   0.45389
     Eigenvalues ---    0.45389   0.45389   0.45389   0.45389   0.45389
 RFO step:  Lambda=-4.28428256D-01 EMin= 2.36824176D-03
 Linear search not attempted -- first point.
 Maximum step size (   0.300) exceeded in Quadratic search.
    -- Step size scaled by   0.380
 Iteration  1 RMS(Cart)=  0.20085197 RMS(Int)=  0.00983097
 Iteration  2 RMS(Cart)=  0.03490535 RMS(Int)=  0.00027393
 Iteration  3 RMS(Cart)=  0.00052772 RMS(Int)=  0.00004774
 Iteration  4 RMS(Cart)=  0.00000014 RMS(Int)=  0.00004774
 Variable       Old X    -DE/DX   Delta X   Delta X   Delta X     New X
                                 (Linear)    (Quad)   (Total)
    R1        2.64826   0.01893   0.00000   0.00863   0.00874   2.65700
    R2        2.64826   0.12261   0.00000   0.05406   0.05413   2.70240
    R3        2.91018   0.06977   0.00000   0.03715   0.03715   2.94733
    R4        2.64826  -0.02545   0.00000  -0.01174  -0.01171   2.63656
    R5        2.02201   0.00573   0.00000   0.00272   0.00272   2.02473
    R6        2.64826  -0.04384   0.00000  -0.02013  -0.02021   2.62805
    R7        2.02201   0.00864   0.00000   0.00410   0.00410   2.02611
    R8        2.64826  -0.02346   0.00000  -0.01058  -0.01069   2.63757
    R9        3.32592  -0.00679   0.00000  -0.00356  -0.00356   3.32236
   R10        2.64826   0.01353   0.00000   0.00660   0.00657   2.65484
   R11        3.32592  -0.00809   0.00000  -0.00425  -0.00425   3.32167
   R12        3.32592  -0.00906   0.00000  -0.00475  -0.00475   3.32116
   R13        2.64826   0.01814   0.00000   0.00805   0.00809   2.65635
   R14        2.64826   0.01796   0.00000   0.00806   0.00810   2.65637
   R15        2.64826  -0.01221   0.00000  -0.00536  -0.00535   2.64291
   R16        2.02201   0.00733   0.00000   0.00348   0.00348   2.02548
   R17        2.64826  -0.02544   0.00000  -0.01128  -0.01133   2.63694
   R18        2.02201   0.00980   0.00000   0.00465   0.00465   2.02666
   R19        2.64826  -0.02311   0.00000  -0.01018  -0.01023   2.63803
   R20        2.02201   0.01034   0.00000   0.00491   0.00491   2.02691
   R21        2.64826   0.00044   0.00000   0.00028   0.00028   2.64854
   R22        2.02201   0.01012   0.00000   0.00480   0.00480   2.02681
   R23        2.02201  -0.04469   0.00000  -0.02121  -0.02121   2.00080
    A1        2.09440  -0.07785   0.00000  -0.04156  -0.04137   2.05303
    A2        2.09440  -0.20605   0.00000  -0.11643  -0.11652   1.97787
    A3        2.09440   0.28390   0.00000   0.15799   0.15789   2.25229
    A4        2.09440   0.06172   0.00000   0.03549   0.03563   2.13003
    A5        2.09440  -0.02821   0.00000  -0.01603  -0.01610   2.07829
    A6        2.09440  -0.03351   0.00000  -0.01946  -0.01953   2.07487
    A7        2.09440   0.00223   0.00000  -0.00177  -0.00182   2.09258
    A8        2.09440   0.00061   0.00000   0.00200   0.00202   2.09642
    A9        2.09440  -0.00284   0.00000  -0.00023  -0.00020   2.09419
   A10        2.09440  -0.00602   0.00000  -0.00591  -0.00610   2.08829
   A11        2.09440  -0.00303   0.00000  -0.00042  -0.00033   2.09407
   A12        2.09440   0.00905   0.00000   0.00634   0.00643   2.10083
   A13        2.09440   0.03616   0.00000   0.02040   0.02026   2.11466
   A14        2.09440  -0.01831   0.00000  -0.01033  -0.01026   2.08414
   A15        2.09440  -0.01785   0.00000  -0.01007  -0.01000   2.08439
   A16        2.09440  -0.01624   0.00000  -0.00665  -0.00660   2.08779
   A17        2.09440   0.18600   0.00000   0.10295   0.10293   2.19733
   A18        2.09440  -0.16976   0.00000  -0.09630  -0.09633   1.99807
   A19        2.09440  -0.13578   0.00000  -0.07630  -0.07634   2.01805
   A20        2.09440   0.19831   0.00000   0.11082   0.11078   2.20517
   A21        2.09440  -0.06252   0.00000  -0.03453  -0.03444   2.05996
   A22        2.09440   0.03885   0.00000   0.02269   0.02274   2.11713
   A23        2.09440  -0.01551   0.00000  -0.00881  -0.00884   2.08556
   A24        2.09440  -0.02334   0.00000  -0.01387  -0.01390   2.08050
   A25        2.09440   0.00228   0.00000   0.00048   0.00044   2.09484
   A26        2.09440  -0.00154   0.00000  -0.00050  -0.00048   2.09392
   A27        2.09440  -0.00074   0.00000   0.00002   0.00004   2.09443
   A28        2.09440  -0.01376   0.00000  -0.00911  -0.00920   2.08520
   A29        2.09440   0.00615   0.00000   0.00408   0.00413   2.09852
   A30        2.09440   0.00762   0.00000   0.00503   0.00507   2.09947
   A31        2.09440   0.01478   0.00000   0.00821   0.00816   2.10255
   A32        2.09440  -0.00710   0.00000  -0.00391  -0.00389   2.09050
   A33        2.09440  -0.00768   0.00000  -0.00429  -0.00427   2.09013
   A34        2.09440   0.02037   0.00000   0.01226   0.01230   2.10669
   A35        2.09440   0.01734   0.00000   0.01165   0.01163   2.10602
   A36        2.09440  -0.03771   0.00000  -0.02391  -0.02393   2.07047
    D1        0.00000   0.00000   0.00000   0.00000   0.00000   0.00000
    D2        3.14159   0.00000   0.00000   0.00000   0.00000   3.14159
    D3       -3.14159   0.00000   0.00000   0.00000   0.00000  -3.14159
    D4       -0.00000   0.00000   0.00000   0.00000   0.00000  -0.00000
    D5       -0.00000  -0.00000   0.00000  -0.00000  -0.00000  -0.00000
    D6        3.14159  -0.00000   0.00000  -0.00000  -0.00000   3.14159
    D7        3.14159   0.00000   0.00000   0.00000   0.00000   3.14159
    D8        0.00000  -0.00000   0.00000  -0.00000  -0.00000  -0.00000
    D9       -0.00000  -0.00000   0.00000  -0.00000  -0.00000  -0.00000
   D10        3.14159  -0.00000   0.00000  -0.00000  -0.00000   3.14159
   D11        3.14159  -0.00000   0.00000  -0.00000  -0.00000   3.14159
   D12       -0.00000  -0.00000   0.00000  -0.00000  -0.00000  -0.00000
   D13        0.00000  -0.00000   0.00000  -0.00000  -0.00000   0.00000
   D14        3.14159  -0.00000   0.00000  -0.00000  -0.00000   3.14159
   D15       -3.14159  -0.00000   0.00000  -0.00000  -0.00000  -3.14159
   D16        0.00000  -0.00000   0.00000  -0.00000  -0.00000   0.00000
   D17       -0.00000  -0.00000   0.00000  -0.00000  -0.00000  -0.00000
   D18        3.14159   0.00000   0.00000   0.00000   0.00000   3.14159
   D19        3.14159  -0.00000   0.00000  -0.00000  -0.00000   3.14159
   D20        0.00000   0.00000   0.00000   0.00000   0.00000   0.00000
   D21        0.00000   0.00000   0.00000   0.00000   0.00000   0.00000
   D22       -3.14159   0.00000   0.00000   0.00000   0.00000  -3.14159
   D23       -3.14159  -0.00000   0.00000  -0.00000  -0.00000  -3.14159
   D24        0.00000   0.00000   0.00000   0.00000   0.00000   0.00000
   D25       -0.00000   0.00000   0.00000   0.00000   0.00000  -0.00000
   D26        3.14159   0.00000   0.00000   0.00000   0.00000   3.14159
   D27        3.14159  -0.00000   0.00000  -0.00000  -0.00000   3.14159
   D28       -0.00000   0.00000   0.00000   0.00000   0.00000  -0.00000
   D29        3.14159   0.00000   0.00000   0.00000   0.00000   3.14159
   D30        0.00000   0.00000   0.00000   0.00000   0.00000   0.00000
   D31        0.00000   0.00000   0.00000   0.00000   0.00000   0.00000
   D32       -3.14159  -0.00000   0.00000  -0.00000  -0.00000  -3.14159
   D33       -3.14159   0.00000   0.00000   0.00000   0.00000  -3.14159
   D34        0.00000   0.00000   0.00000  -0.00000  -0.00000   0.00000
   D35       -0.00000  -0.00000   0.00000  -0.00000  -0.00000  -0.00000
   D36        3.14159  -0.00000   0.00000  -0.00000  -0.00000   3.14159
   D37       -0.00000  -0.00000   0.00000  -0.00000  -0.00000  -0.00000
   D38        3.14159  -0.00000   0.00000  -0.00000  -0.00000   3.14159
   D39        3.14159   0.00000   0.00000   0.00000   0.00000   3.14159
   D40       -0.00000   0.00000   0.00000   0.00000   0.00000  -0.00000
   D41       -0.00000  -0.00000   0.00000  -0.00000  -0.00000  -0.00000
   D42       -3.14159  -0.00000   0.00000  -0.00000  -0.00000  -3.14159
   D43        3.14159  -0.00000   0.00000  -0.00000  -0.00000   3.14159
   D44        0.00000  -0.00000   0.00000  -0.00000  -0.00000   0.00000
   D45        0.00000   0.00000   0.00000   0.00000   0.00000   0.00000
   D46       -3.14159   0.00000   0.00000   0.00000   0.00000  -3.14159
   D47        3.14159   0.00000   0.00000   0.00000   0.00000   3.14159
   D48        0.00000   0.00000   0.00000   0.00000   0.00000   0.00000
   D49        0.00000   0.00000   0.00000   0.00000   0.00000   0.00000
   D50       -3.14159   0.00000   0.00000   0.00000   0.00000  -3.14159
   D51        3.14159   0.00000   0.00000   0.00000   0.00000   3.14159
   D52       -0.00000   0.00000   0.00000   0.00000   0.00000  -0.00000
         Item               Value     Threshold  Converged?
 Maximum Force            0.283904     0.000450     NO 
 RMS     Force            0.051601     0.000300     NO 
 Maximum Displacement     1.136925     0.001800     NO 
 RMS     Displacement     0.230853     0.001200     NO 
 Predicted change in Energy=-1.511412D-01
 GradGradGradGradGradGradGradGradGradGradGradGradGradGradGradGradGradGrad

                          Input orientation:                          
 ---------------------------------------------------------------------
 Center     Atomic      Atomic             Coordinates (Angstroms)
 Number     Number       Type             X           Y           Z
 ---------------------------------------------------------------------
      1          6           0       -4.383808   -1.545029   -0.291148
      2          6           0       -3.056235   -1.634973   -0.745415
      3          6           0       -2.219492   -0.520497   -0.811775
      4          6           0       -2.694197    0.726937   -0.421101
      5          6           0       -4.007053    0.854180    0.035321
      6          6           0       -4.862336   -0.257961    0.108227
      7          6           0       -5.133785   -2.912499   -0.300887
      8          6           0       -4.385701   -4.012945   -0.754022
      9          6           0       -4.941353   -5.295095   -0.811758
     10          6           0       -6.263136   -5.501766   -0.415101
     11          6           0       -7.021379   -4.420667    0.037748
     12          6           0       -6.463820   -3.136084    0.095313
     13          1           0       -2.673715   -2.588183   -1.050459
     14          1           0       -1.211915   -0.624438   -1.163246
     15          1           0       -3.369156   -3.869173   -1.061927
     16          1           0       -4.351126   -6.119591   -1.161061
     17          1           0       -6.692691   -6.483654   -0.457987
     18          1           0       -8.037820   -4.573976    0.343832
     19          1           0       -7.065138   -2.337196    0.443461
     20         17           0       -6.475061    0.101565    0.707068
     21         17           0       -4.600554    2.433799    0.527517
     22         17           0       -1.641740    2.132805   -0.503802
 ---------------------------------------------------------------------
                    Distance matrix (angstroms):
                    1          2          3          4          5
     1  C    0.000000
     2  C    1.406023   0.000000
     3  C    2.450506   1.395206   0.000000
     4  C    2.834343   2.411404   1.390705   0.000000
     5  C    2.450455   2.776596   2.408875   1.395744   0.000000
     6  C    1.430046   2.426287   2.810685   2.439475   1.404879
     7  C    1.559659   2.479091   3.804705   4.383097   3.945939
     8  C    2.510949   2.724391   4.110108   5.043659   4.945234
     9  C    3.826864   4.117592   5.495936   6.439502   6.277264
    10  C    4.382123   5.034423   6.428176   7.178726   6.759500
    11  C    3.915896   4.908748   6.244288   6.740391   6.075375
    12  C    2.647123   3.817302   5.067388   5.422147   4.686311
    13  H    2.142228   1.071439   2.130403   3.374393   3.847931
    14  H    3.415984   2.144126   1.072169   2.138727   3.381666
    15  H    2.650522   2.278102   3.549357   4.689398   4.890903
    16  H    4.656655   4.686289   6.001310   7.082930   7.084010
    17  H    5.454246   6.067630   7.462836   8.245116   7.829420
    18  H    4.788478   5.885609   7.184641   7.565653   6.768098
    19  H    2.890797   4.240030   5.325063   5.407542   4.438846
    20  Cl   2.842717   4.100444   4.561108   3.994845   2.666222
    21  Cl   4.067956   4.534334   4.023807   2.729002   1.757753
    22  Cl   4.592452   4.031789   2.732883   1.758115   2.742305
                    6          7          8          9         10
     6  C    0.000000
     7  C    2.699561   0.000000
     8  C    3.882081   1.405681   0.000000
     9  C    5.121067   2.444336   1.398568   0.000000
    10  C    5.452852   2.827151   2.419962   1.395407   0.000000
    11  C    4.689835   2.439724   2.782074   2.410973   1.395987
    12  C    3.293707   1.405688   2.410152   2.793208   2.428425
    13  H    3.400375   2.592100   2.246935   3.539284   4.666539
    14  H    3.882849   4.621682   4.660725   5.987260   7.061365
    15  H    4.079178   2.146700   1.071840   2.137204   3.385095
    16  H    6.019230   3.411435   2.145888   1.072462   2.143350
    17  H    6.513835   3.899746   3.393264   2.145929   1.072596
    18  H    5.363506   3.407285   3.854609   3.382825   2.141559
    19  H    3.047612   2.148291   3.379568   3.851649   3.375624
    20  Cl   1.757484   3.449577   4.840392   5.812317   5.718522
    21  Cl   2.736770   5.436313   6.576398   7.851471   8.162469
    22  Cl   4.057410   6.139270   6.735144   8.133632   8.924787
                   11         12         13         14         15
    11  C    0.000000
    12  C    1.401549   0.000000
    13  H    4.841939   3.997235   0.000000
    14  H    7.042983   5.956076   2.450689   0.000000
    15  H    3.853851   3.384313   1.457636   3.897725   0.000000
    16  H    3.384337   3.865652   3.911110   6.328614   2.457331
    17  H    2.147023   3.400699   5.628311   8.053987   4.271550
    18  H    1.072541   2.146339   5.887363   8.028892   4.926392
    19  H    2.123056   1.058779   4.645362   6.306764   4.274743
    20  Cl   4.604023   3.294957   4.977336   5.632571   5.342541
    21  Cl   7.285875   5.889156   5.605624   4.867686   6.615900
    22  Cl   8.495986   7.167467   4.863284   2.867403   6.270502
                   16         17         18         19         20
    16  H    0.000000
    17  H    2.471797   0.000000
    18  H    4.271457   2.469648   0.000000
    19  H    4.924110   4.259629   2.441151   0.000000
    20  Cl   6.834017   6.691026   4.943161   2.522942   0.000000
    21  Cl   8.722040   9.212450   7.807525   5.370627   2.997554
    22  Cl   8.710614   9.987871   9.306408   7.091647   5.380811
                   21         22
    21  Cl   0.000000
    22  Cl   3.147824   0.000000
 Stoichiometry    C12H7Cl3
 Framework group  C1[X(C12H7Cl3)]
 Deg. of freedom    60
 Full point group                 C1      NOp   1
 Largest Abelian subgroup         C1      NOp   1
 Largest concise Abelian subgroup C1      NOp   1
                         Standard orientation:                         
 ---------------------------------------------------------------------
 Center     Atomic      Atomic             Coordinates (Angstroms)
 Number     Number       Type             X           Y           Z
 ---------------------------------------------------------------------
      1          6           0       -0.584107   -0.384123   -0.000001
      2          6           0       -0.146877   -1.720435   -0.000002
      3          6           0        1.207333   -2.056165   -0.000001
      4          6           0        2.170245   -1.052739    0.000001
      5          6           0        1.773132    0.285320   -0.000000
      6          6           0        0.413809    0.640179   -0.000001
      7          6           0       -2.137333   -0.242607   -0.000001
      8          6           0       -2.857775   -1.449629   -0.000004
      9          6           0       -4.256295   -1.461121   -0.000003
     10          6           0       -4.964437   -0.258750    0.000001
     11          6           0       -4.265792    0.949834    0.000004
     12          6           0       -2.864284    0.960514    0.000004
     13          1           0       -0.874924   -2.506520   -0.000001
     14          1           0        1.506316   -3.085804   -0.000001
     15          1           0       -2.327137   -2.380899   -0.000004
     16          1           0       -4.784430   -2.394528   -0.000005
     17          1           0       -6.037022   -0.263613    0.000003
     18          1           0       -4.805173    1.876879    0.000010
     19          1           0       -2.364079    1.893685    0.000008
     20         17           0        0.113154    2.371755   -0.000002
     21         17           0        2.995444    1.548510   -0.000002
     22         17           0        3.877328   -1.473257    0.000003
 ---------------------------------------------------------------------
 Rotational constants (GHZ):           0.8831738           0.2482978           0.1938097
 Standard basis: 6-311+G(d,p) (5D, 7F)
 There are   411 symmetry adapted cartesian basis functions of A   symmetry.
 There are   396 symmetry adapted basis functions of A   symmetry.
   396 basis functions,   647 primitive gaussians,   411 cartesian basis functions
    65 alpha electrons       65 beta electrons
       nuclear repulsion energy      1209.2674519925 Hartrees.
 NAtoms=   22 NActive=   22 NUniq=   22 SFac= 1.00D+00 NAtFMM=   60 NAOKFM=F Big=F
 Integral buffers will be    131072 words long.
 Raffenetti 2 integral format.
 Two-electron integral symmetry is turned on.
 One-electron integrals computed using PRISM.
 NBasis=   396 RedAO= T EigKep=  1.36D-06  NBF=   396
 NBsUse=   391 1.00D-06 EigRej=  7.45D-07 NBFU=   391
 Initial guess from the checkpoint file:  "/scratch/pkc/Gau-18195.chk"
 B after Tr=    -0.000000    0.000000   -0.000000
         Rot=    0.999736   -0.000000    0.000000    0.022972 Ang=  -2.63 deg.
 ExpMin= 4.38D-02 ExpMax= 1.06D+05 ExpMxC= 3.62D+03 IAcc=3 IRadAn=         5 AccDes= 0.00D+00
 Harris functional with IExCor=  402 and IRadAn=       5 diagonalized for initial guess.
 HarFok:  IExCor=  402 AccDes= 0.00D+00 IRadAn=         5 IDoV= 1 UseB2=F ITyADJ=14
 ICtDFT=  3500011 ScaDFX=  1.000000  1.000000  1.000000  1.000000
 FoFCou: FMM=F IPFlag=           0 FMFlag=      100000 FMFlg1=           0
         NFxFlg=           0 DoJE=T BraDBF=F KetDBF=T FulRan=T
         wScrn=  0.000000 ICntrl=       500 IOpCl=  0 I1Cent=   200000004 NGrid=           0
         NMat0=    1 NMatS0=      1 NMatT0=    0 NMatD0=    1 NMtDS0=    0 NMtDT0=    0
 Petite list used in FoFCou.
 Requested convergence on RMS density matrix=1.00D-08 within  32 cycles.
 Requested convergence on MAX density matrix=1.00D-06.
 Requested convergence on             energy=1.00D-06.
 No special actions if energy rises.
 SCF Done:  E(RB3LYP) =  -1842.25088902     A.U. after   16 cycles
            NFock= 16  Conv=0.38D-08     -V/T= 2.0029
 QCSCF skips out because SCF is already converged.
 Calling FoFJK, ICntrl=      2127 FMM=F ISym2X=0 I1Cent= 0 IOpClX= 0 NMat=1 NMatS=1 NMatT=0.
 ***** Axes restored to original set *****
 -------------------------------------------------------------------
 Center     Atomic                   Forces (Hartrees/Bohr)
 Number     Number              X              Y              Z
 -------------------------------------------------------------------
      1        6          -0.017740040   -0.020067494    0.002075592
      2        6           0.001943175    0.030855128    0.005154816
      3        6          -0.009884330   -0.004412467    0.002427841
      4        6           0.002138956    0.002372779   -0.000259270
      5        6          -0.002798948    0.008856432    0.002585470
      6        6           0.007864978   -0.009621096   -0.004398025
      7        6           0.011201804    0.022368214    0.000510578
      8        6          -0.016509324   -0.014557613    0.002705103
      9        6          -0.004103380    0.013117641    0.003815437
     10        6           0.002075416    0.009634675    0.001125760
     11        6           0.014038157    0.002841146   -0.004091218
     12        6           0.008429161   -0.012825327   -0.005185842
     13        1           0.007476320    0.008624142   -0.000843456
     14        1           0.006839966    0.000327371   -0.002191965
     15        1          -0.002128456   -0.012560954   -0.001657984
     16        1           0.005028138   -0.005739371   -0.002734425
     17        1          -0.003281130   -0.007291159   -0.000288409
     18        1          -0.007560570   -0.000032273    0.002484745
     19        1          -0.007728210    0.011273898    0.004663442
     20       17           0.000060082   -0.013540215   -0.002562786
     21       17           0.005319708   -0.003155437   -0.002345182
     22       17          -0.000681475   -0.006468018   -0.000990223
 -------------------------------------------------------------------
 Cartesian Forces:  Max     0.030855128 RMS     0.008733884

 GradGradGradGradGradGradGradGradGradGradGradGradGradGradGradGradGradGrad
 Berny optimization.
 Using GEDIIS/GDIIS optimizer.
 FormGI is forming the generalized inverse of G from B-inverse, IUseBI=4.
 Internal  Forces:  Max     0.062972124 RMS     0.011841454
 Search for a local minimum.
 Step number   2 out of a maximum of  121
 All quantities printed in internal units (Hartrees-Bohrs-Radians)
 Mixed Optimization -- RFO/linear search
 Update second derivatives using D2CorX and points    1    2
 DE= -3.88D-02 DEPred=-1.51D-01 R= 2.57D-01
 Trust test= 2.57D-01 RLast= 3.00D-01 DXMaxT set to 3.00D-01
 ITU=  0  0
 Use linear search instead of GDIIS.
     Eigenvalues ---    0.00237   0.01479   0.01484   0.02070   0.02070
     Eigenvalues ---    0.02070   0.02070   0.02070   0.02070   0.02070
     Eigenvalues ---    0.02070   0.02070   0.02070   0.02070   0.02070
     Eigenvalues ---    0.02070   0.02070   0.02070   0.02070   0.15971
     Eigenvalues ---    0.16000   0.16000   0.16000   0.16000   0.16000
     Eigenvalues ---    0.16035   0.21998   0.22004   0.22494   0.23404
     Eigenvalues ---    0.24395   0.24925   0.25000   0.25000   0.25000
     Eigenvalues ---    0.25000   0.28448   0.29528   0.29539   0.29539
     Eigenvalues ---    0.37063   0.37187   0.37230   0.37230   0.37230
     Eigenvalues ---    0.37230   0.37230   0.40458   0.41172   0.41488
     Eigenvalues ---    0.41579   0.45054   0.45362   0.45389   0.45389
     Eigenvalues ---    0.45389   0.45389   0.45389   0.45389   2.16080
 RFO step:  Lambda=-1.20960087D-02 EMin= 2.36824176D-03
 Quartic linear search produced a step of -0.33662.
 Iteration  1 RMS(Cart)=  0.13529964 RMS(Int)=  0.00386039
 Iteration  2 RMS(Cart)=  0.00673644 RMS(Int)=  0.00005344
 Iteration  3 RMS(Cart)=  0.00001997 RMS(Int)=  0.00005310
 Iteration  4 RMS(Cart)=  0.00000000 RMS(Int)=  0.00005310
 Variable       Old X    -DE/DX   Delta X   Delta X   Delta X     New X
                                 (Linear)    (Quad)   (Total)
    R1        2.65700   0.00682  -0.00294   0.01726   0.01441   2.67141
    R2        2.70240  -0.01754  -0.01822   0.02440   0.00626   2.70866
    R3        2.94733  -0.00521  -0.01251   0.02059   0.00808   2.95541
    R4        2.63656  -0.00840   0.00394  -0.02293  -0.01898   2.61758
    R5        2.02473  -0.00476  -0.00092  -0.00578  -0.00669   2.01803
    R6        2.62805  -0.00808   0.00680  -0.02989  -0.02317   2.60489
    R7        2.02611   0.00711  -0.00138   0.01594   0.01456   2.04067
    R8        2.63757  -0.00257   0.00360  -0.01305  -0.00954   2.62803
    R9        3.32236  -0.00553   0.00120  -0.01503  -0.01383   3.30852
   R10        2.65484   0.00696  -0.00221   0.01617   0.01395   2.66878
   R11        3.32167  -0.00529   0.00143  -0.01510  -0.01367   3.30800
   R12        3.32116  -0.00370   0.00160  -0.01211  -0.01051   3.31065
   R13        2.65635   0.01095  -0.00272   0.02361   0.02094   2.67729
   R14        2.65637  -0.00154  -0.00273   0.00542   0.00278   2.65915
   R15        2.64291  -0.00660   0.00180  -0.01384  -0.01207   2.63084
   R16        2.02548  -0.00323  -0.00117  -0.00245  -0.00362   2.02186
   R17        2.63694  -0.00509   0.00381  -0.01780  -0.01408   2.62286
   R18        2.02666   0.00807  -0.00157   0.01808   0.01652   2.04318
   R19        2.63803  -0.00839   0.00344  -0.02192  -0.01853   2.61950
   R20        2.02691   0.00800  -0.00165   0.01819   0.01654   2.04345
   R21        2.64854  -0.00736  -0.00009  -0.01064  -0.01071   2.63784
   R22        2.02681   0.00788  -0.00162   0.01789   0.01627   2.04308
   R23        2.00080   0.01443   0.00714   0.00589   0.01303   2.01383
    A1        2.05303  -0.01440   0.01392  -0.07250  -0.05839   1.99464
    A2        1.97787   0.06297   0.03922   0.06066   0.09980   2.07767
    A3        2.25229  -0.04857  -0.05315   0.01184  -0.04140   2.21088
    A4        2.13003   0.00759  -0.01199   0.04967   0.03777   2.16780
    A5        2.07829   0.00674   0.00542   0.01707   0.02245   2.10074
    A6        2.07487  -0.01433   0.00657  -0.06674  -0.06022   2.01465
    A7        2.09258   0.00224   0.00061   0.00388   0.00442   2.09700
    A8        2.09642  -0.00007  -0.00068   0.00297   0.00233   2.09875
    A9        2.09419  -0.00217   0.00007  -0.00686  -0.00675   2.08744
   A10        2.08829  -0.00246   0.00205  -0.01124  -0.00937   2.07892
   A11        2.09407  -0.00468   0.00011  -0.01220  -0.01200   2.08206
   A12        2.10083   0.00714  -0.00217   0.02345   0.02137   2.12220
   A13        2.11466  -0.00618  -0.00682   0.00224  -0.00468   2.10998
   A14        2.08414  -0.00351   0.00345  -0.01792  -0.01442   2.06972
   A15        2.08439   0.00969   0.00337   0.01568   0.01910   2.10349
   A16        2.08779   0.01321   0.00222   0.02795   0.03025   2.11804
   A17        2.19733  -0.02865  -0.03465   0.01496  -0.01972   2.17760
   A18        1.99807   0.01544   0.03242  -0.04291  -0.01053   1.98754
   A19        2.01805   0.05702   0.02570   0.07872   0.10434   2.12240
   A20        2.20517  -0.04359  -0.03729  -0.01667  -0.05404   2.15114
   A21        2.05996  -0.01342   0.01159  -0.06205  -0.05031   2.00965
   A22        2.11713   0.00275  -0.00765   0.02840   0.02077   2.13790
   A23        2.08556   0.01122   0.00298   0.03627   0.03924   2.12479
   A24        2.08050  -0.01397   0.00468  -0.06467  -0.06000   2.02049
   A25        2.09484   0.00361  -0.00015   0.01045   0.01018   2.10502
   A26        2.09392  -0.00257   0.00016  -0.00838  -0.00815   2.08576
   A27        2.09443  -0.00104  -0.00001  -0.00208  -0.00203   2.09240
   A28        2.08520  -0.00318   0.00310  -0.01922  -0.01628   2.06892
   A29        2.09852   0.00168  -0.00139   0.00959   0.00828   2.10680
   A30        2.09947   0.00150  -0.00171   0.00963   0.00800   2.10746
   A31        2.10255   0.00168  -0.00275   0.00872   0.00595   2.10850
   A32        2.09050   0.00030   0.00131   0.00017   0.00149   2.09200
   A33        2.09013  -0.00198   0.00144  -0.00889  -0.00744   2.08268
   A34        2.10669   0.00856  -0.00414   0.03371   0.02969   2.13638
   A35        2.10602  -0.00489  -0.00391  -0.00542  -0.00940   2.09662
   A36        2.07047  -0.00367   0.00805  -0.02828  -0.02029   2.05018
    D1        0.00000  -0.00000  -0.00000  -0.00000  -0.00000   0.00000
    D2        3.14159  -0.00000  -0.00000  -0.00000  -0.00000   3.14159
    D3       -3.14159  -0.00000  -0.00000  -0.00000  -0.00000  -3.14159
    D4       -0.00000  -0.00000  -0.00000   0.00000   0.00000  -0.00000
    D5       -0.00000   0.00000   0.00000   0.00000   0.00000  -0.00000
    D6        3.14159   0.00000   0.00000   0.00000   0.00000   3.14159
    D7        3.14159  -0.00000  -0.00000   0.00000   0.00000   3.14159
    D8       -0.00000  -0.00000   0.00000  -0.00000  -0.00000  -0.00000
    D9       -0.00000  -0.00000   0.00000  -0.00000  -0.00000  -0.00000
   D10        3.14159  -0.00000   0.00000  -0.00000  -0.00000   3.14159
   D11        3.14159  -0.00000   0.00000  -0.00000  -0.00000   3.14159
   D12       -0.00000  -0.00000   0.00000  -0.00000  -0.00000  -0.00000
   D13        0.00000  -0.00000   0.00000  -0.00000  -0.00000   0.00000
   D14        3.14159   0.00000   0.00000   0.00000   0.00000   3.14159
   D15       -3.14159  -0.00000   0.00000  -0.00000  -0.00000  -3.14159
   D16        0.00000  -0.00000   0.00000  -0.00000  -0.00000   0.00000
   D17       -0.00000   0.00000   0.00000   0.00000   0.00000  -0.00000
   D18        3.14159  -0.00000  -0.00000  -0.00000  -0.00000   3.14159
   D19        3.14159   0.00000   0.00000   0.00000   0.00000   3.14159
   D20        0.00000  -0.00000  -0.00000  -0.00000  -0.00000   0.00000
   D21        0.00000  -0.00000  -0.00000  -0.00000  -0.00000   0.00000
   D22       -3.14159  -0.00000  -0.00000  -0.00000  -0.00000  -3.14159
   D23       -3.14159  -0.00000   0.00000   0.00000   0.00000  -3.14159
   D24        0.00000  -0.00000  -0.00000   0.00000   0.00000   0.00000
   D25       -0.00000   0.00000  -0.00000   0.00000   0.00000  -0.00000
   D26        3.14159   0.00000  -0.00000   0.00000   0.00000   3.14159
   D27        3.14159   0.00000   0.00000   0.00000   0.00000   3.14159
   D28       -0.00000   0.00000  -0.00000   0.00000   0.00000  -0.00000
   D29        3.14159  -0.00000  -0.00000   0.00000   0.00000  -3.14159
   D30        0.00000  -0.00000  -0.00000  -0.00000  -0.00000   0.00000
   D31        0.00000  -0.00000  -0.00000  -0.00000  -0.00000   0.00000
   D32       -3.14159  -0.00000   0.00000  -0.00000  -0.00000  -3.14159
   D33       -3.14159  -0.00000  -0.00000  -0.00000  -0.00000  -3.14159
   D34        0.00000  -0.00000   0.00000  -0.00000  -0.00000  -0.00000
   D35       -0.00000   0.00000   0.00000   0.00000   0.00000  -0.00000
   D36        3.14159   0.00000   0.00000   0.00000   0.00000   3.14159
   D37       -0.00000  -0.00000   0.00000   0.00000   0.00000  -0.00000
   D38        3.14159  -0.00000   0.00000  -0.00000  -0.00000   3.14159
   D39        3.14159   0.00000  -0.00000   0.00000   0.00000   3.14159
   D40       -0.00000   0.00000  -0.00000   0.00000   0.00000  -0.00000
   D41       -0.00000   0.00000   0.00000   0.00000   0.00000   0.00000
   D42       -3.14159  -0.00000   0.00000  -0.00000  -0.00000  -3.14159
   D43        3.14159   0.00000   0.00000   0.00000   0.00000  -3.14159
   D44        0.00000  -0.00000   0.00000  -0.00000  -0.00000   0.00000
   D45        0.00000   0.00000  -0.00000   0.00000   0.00000   0.00000
   D46       -3.14159  -0.00000  -0.00000  -0.00000  -0.00000  -3.14159
   D47        3.14159   0.00000  -0.00000   0.00000   0.00000   3.14159
   D48        0.00000  -0.00000  -0.00000  -0.00000  -0.00000   0.00000
   D49        0.00000  -0.00000  -0.00000  -0.00000  -0.00000  -0.00000
   D50       -3.14159  -0.00000  -0.00000  -0.00000  -0.00000  -3.14159
   D51        3.14159   0.00000  -0.00000   0.00000   0.00000   3.14159
   D52       -0.00000   0.00000  -0.00000   0.00000   0.00000  -0.00000
         Item               Value     Threshold  Converged?
 Maximum Force            0.062972     0.000450     NO 
 RMS     Force            0.011841     0.000300     NO 
 Maximum Displacement     0.553339     0.001800     NO 
 RMS     Displacement     0.137247     0.001200     NO 
 Predicted change in Energy=-7.969345D-03
 GradGradGradGradGradGradGradGradGradGradGradGradGradGradGradGradGradGrad

                          Input orientation:                          
 ---------------------------------------------------------------------
 Center     Atomic      Atomic             Coordinates (Angstroms)
 Number     Number       Type             X           Y           Z
 ---------------------------------------------------------------------
      1          6           0       -4.289427   -1.595877   -0.331791
      2          6           0       -2.944786   -1.542943   -0.764847
      3          6           0       -2.182591   -0.386839   -0.798829
      4          6           0       -2.726719    0.813282   -0.394171
      5          6           0       -4.045526    0.844066    0.046096
      6          6           0       -4.825601   -0.332652    0.082097
      7          6           0       -5.037250   -2.969384   -0.343373
      8          6           0       -4.399845   -4.158168   -0.776637
      9          6           0       -5.047711   -5.390283   -0.794596
     10          6           0       -6.367819   -5.500700   -0.380413
     11          6           0       -7.024500   -4.358499    0.050453
     12          6           0       -6.374048   -3.123552    0.068092
     13          1           0       -2.448638   -2.429176   -1.094745
     14          1           0       -1.159277   -0.419794   -1.142153
     15          1           0       -3.383871   -4.161987   -1.112074
     16          1           0       -4.514704   -6.267262   -1.134906
     17          1           0       -6.872635   -6.456888   -0.393678
     18          1           0       -8.053073   -4.420007    0.377775
     19          1           0       -6.929288   -2.280403    0.409373
     20         17           0       -6.458200   -0.083581    0.666740
     21         17           0       -4.722550    2.375466    0.556752
     22         17           0       -1.743152    2.260746   -0.446364
[...]
     22         17           0        3.964810   -1.254828   -0.135340
 ---------------------------------------------------------------------
 Rotational constants (GHZ):           0.9276581           0.2490578           0.2070941

 **********************************************************************

            Population analysis using the SCF Density.

 **********************************************************************

 Orbital symmetries:
       Occupied  (A) (A) (A) (A) (A) (A) (A) (A) (A) (A) (A) (A)
                 (A) (A) (A) (A) (A) (A) (A) (A) (A) (A) (A) (A)
                 (A) (A) (A) (A) (A) (A) (A) (A) (A) (A) (A) (A)
                 (A) (A) (A) (A) (A) (A) (A) (A) (A) (A) (A) (A)
                 (A) (A) (A) (A) (A) (A) (A) (A) (A) (A) (A) (A)
                 (A) (A) (A) (A) (A)
       Virtual   (A) (A) (A) (A) (A) (A) (A) (A) (A) (A) (A) (A)
                 (A) (A) (A) (A) (A) (A) (A) (A) (A) (A) (A) (A)
                 (A) (A) (A) (A) (A) (A) (A) (A) (A) (A) (A) (A)
                 (A) (A) (A) (A) (A) (A) (A) (A) (A) (A) (A) (A)
                 (A) (A) (A) (A) (A) (A) (A) (A) (A) (A) (A) (A)
                 (A) (A) (A) (A) (A) (A) (A) (A) (A) (A) (A) (A)
                 (A) (A) (A) (A) (A) (A) (A) (A) (A) (A) (A) (A)
                 (A) (A) (A) (A) (A) (A) (A) (A) (A) (A) (A) (A)
                 (A) (A) (A) (A) (A) (A) (A) (A) (A) (A) (A) (A)
                 (A) (A) (A) (A) (A) (A) (A) (A) (A) (A) (A) (A)
                 (A) (A) (A) (A) (A) (A) (A) (A) (A) (A) (A) (A)
                 (A) (A) (A) (A) (A) (A) (A) (A) (A) (A) (A) (A)
                 (A) (A) (A) (A) (A) (A) (A) (A) (A) (A) (A) (A)
                 (A) (A) (A) (A) (A) (A) (A) (A) (A) (A) (A) (A)
                 (A) (A) (A) (A) (A) (A) (A) (A) (A) (A) (A) (A)
                 (A) (A) (A) (A) (A) (A) (A) (A) (A) (A) (A) (A)
                 (A) (A) (A) (A) (A) (A) (A) (A) (A) (A) (A) (A)
                 (A) (A) (A) (A) (A) (A) (A) (A) (A) (A) (A) (A)
                 (A) (A) (A) (A) (A) (A) (A) (A) (A) (A) (A) (A)
                 (A) (A) (A) (A) (A) (A) (A) (A) (A) (A) (A) (A)
                 (A) (A) (A) (A) (A) (A) (A) (A) (A) (A) (A) (A)
                 (A) (A) (A) (A) (A) (A) (A) (A) (A) (A) (A) (A)
                 (A) (A) (A) (A) (A) (A) (A) (A) (A) (A) (A) (A)
                 (A) (A) (A) (A) (A) (A) (A) (A) (A) (A) (A) (A)
                 (A) (A) (A) (A) (A) (A) (A) (A) (A) (A) (A) (A)
                 (A) (A) (A) (A) (A) (A) (A) (A) (A) (A) (A) (A)
                 (A) (A) (A) (A) (A) (A) (A) (A) (A) (A) (A) (A)
                 (A) (A) (A) (A)
 The electronic state is 1-A.
 Alpha  occ. eigenvalues -- -101.56973-101.56936-101.56669 -10.26870 -10.26647
 Alpha  occ. eigenvalues --  -10.26423 -10.22006 -10.20806 -10.20586 -10.20379
 Alpha  occ. eigenvalues --  -10.19029 -10.18939 -10.18863 -10.18815 -10.18766
 Alpha  occ. eigenvalues --   -9.48441  -9.48395  -9.48151  -7.24938  -7.24879
 Alpha  occ. eigenvalues --   -7.24634  -7.23925  -7.23876  -7.23840  -7.23817
 Alpha  occ. eigenvalues --   -7.23639  -7.23557  -0.94332  -0.89550  -0.87973
 Alpha  occ. eigenvalues --   -0.86427  -0.84526  -0.78886  -0.76290  -0.75392
 Alpha  occ. eigenvalues --   -0.73484  -0.64397  -0.63558  -0.61915  -0.60042
 Alpha  occ. eigenvalues --   -0.54662  -0.52358  -0.51580  -0.48590  -0.47226
 Alpha  occ. eigenvalues --   -0.46891  -0.45835  -0.44664  -0.44203  -0.43612
 Alpha  occ. eigenvalues --   -0.41210  -0.40575  -0.38310  -0.37789  -0.36632
 Alpha  occ. eigenvalues --   -0.36347  -0.35518  -0.34487  -0.33643  -0.33338
 Alpha  occ. eigenvalues --   -0.31201  -0.27924  -0.26992  -0.26685  -0.25340
 Alpha virt. eigenvalues --   -0.05400  -0.04752  -0.03274  -0.02530  -0.01996
 Alpha virt. eigenvalues --   -0.00512   0.00767   0.01635   0.01971   0.02492
 Alpha virt. eigenvalues --    0.02942   0.03107   0.04009   0.04456   0.04862
 Alpha virt. eigenvalues --    0.05574   0.06074   0.06494   0.07319   0.07533
 Alpha virt. eigenvalues --    0.08199   0.08414   0.08962   0.09569   0.09916
 Alpha virt. eigenvalues --    0.10384   0.10751   0.11096   0.11512   0.11852
 Alpha virt. eigenvalues --    0.12507   0.12970   0.13389   0.13761   0.13807
 Alpha virt. eigenvalues --    0.14577   0.14856   0.15514   0.15891   0.16103
 Alpha virt. eigenvalues --    0.16385   0.16927   0.17267   0.17811   0.18048
 Alpha virt. eigenvalues --    0.18447   0.18627   0.19253   0.19601   0.19794
 Alpha virt. eigenvalues --    0.20359   0.20804   0.21394   0.21522   0.21756
 Alpha virt. eigenvalues --    0.22299   0.22396   0.22772   0.23349   0.23501
 Alpha virt. eigenvalues --    0.24197   0.24415   0.24635   0.24844   0.25709
 Alpha virt. eigenvalues --    0.26266   0.26885   0.27285   0.27670   0.28147
 Alpha virt. eigenvalues --    0.28745   0.29020   0.29368   0.29763   0.30279
 Alpha virt. eigenvalues --    0.30791   0.31341   0.32172   0.33698   0.34169
 Alpha virt. eigenvalues --    0.35115   0.35408   0.41599   0.42290   0.44098
 Alpha virt. eigenvalues --    0.44214   0.45317   0.46091   0.47005   0.47586
 Alpha virt. eigenvalues --    0.48558   0.49695   0.49892   0.50810   0.51490
 Alpha virt. eigenvalues --    0.52453   0.52691   0.53564   0.54027   0.55340
 Alpha virt. eigenvalues --    0.56174   0.56976   0.57268   0.58064   0.58418
 Alpha virt. eigenvalues --    0.60005   0.60773   0.61339   0.62096   0.62934
 Alpha virt. eigenvalues --    0.63542   0.63989   0.64454   0.65474   0.65942
 Alpha virt. eigenvalues --    0.67866   0.68336   0.68743   0.69002   0.69442
 Alpha virt. eigenvalues --    0.70401   0.71218   0.72013   0.72285   0.73318
 Alpha virt. eigenvalues --    0.73764   0.76412   0.78761   0.79443   0.79742
 Alpha virt. eigenvalues --    0.81809   0.82110   0.82553   0.83354   0.83875
 Alpha virt. eigenvalues --    0.84775   0.85057   0.85165   0.85552   0.85846
 Alpha virt. eigenvalues --    0.86208   0.87166   0.87728   0.88830   0.90165
 Alpha virt. eigenvalues --    0.91003   0.91765   0.92419   0.92577   0.93795
 Alpha virt. eigenvalues --    0.94633   0.95812   0.96755   0.97318   0.98078
 Alpha virt. eigenvalues --    0.99695   0.99970   1.01097   1.02385   1.04063
 Alpha virt. eigenvalues --    1.05687   1.06275   1.07283   1.09360   1.11999
 Alpha virt. eigenvalues --    1.13074   1.14251   1.16007   1.17366   1.23131
 Alpha virt. eigenvalues --    1.24073   1.25349   1.27764   1.28119   1.30123
 Alpha virt. eigenvalues --    1.30526   1.34594   1.35373   1.37594   1.38426
 Alpha virt. eigenvalues --    1.43712   1.48215   1.48933   1.50017   1.51117
 Alpha virt. eigenvalues --    1.52104   1.53748   1.55910   1.56539   1.57279
 Alpha virt. eigenvalues --    1.58586   1.61422   1.63420   1.64587   1.65687
 Alpha virt. eigenvalues --    1.66259   1.68008   1.71573   1.72825   1.73855
 Alpha virt. eigenvalues --    1.75525   1.76811   1.77773   1.80182   1.81764
 Alpha virt. eigenvalues --    1.83142   1.85519   1.86068   1.87819   1.88818
 Alpha virt. eigenvalues --    1.89792   1.91716   1.93540   1.94409   1.94530
 Alpha virt. eigenvalues --    1.95709   1.96192   1.97450   1.99545   2.01031
 Alpha virt. eigenvalues --    2.03428   2.06385   2.06912   2.07847   2.14150
 Alpha virt. eigenvalues --    2.15350   2.21861   2.22953   2.24002   2.27183
 Alpha virt. eigenvalues --    2.27975   2.28828   2.31289   2.32368   2.35815
 Alpha virt. eigenvalues --    2.36581   2.38565   2.39311   2.40767   2.41578
 Alpha virt. eigenvalues --    2.42470   2.44916   2.45786   2.48011   2.51175
 Alpha virt. eigenvalues --    2.54271   2.59119   2.60961   2.62697   2.63810
 Alpha virt. eigenvalues --    2.65674   2.66412   2.68087   2.68895   2.70806
 Alpha virt. eigenvalues --    2.72368   2.73238   2.75010   2.75459   2.76795
 Alpha virt. eigenvalues --    2.77595   2.79135   2.79986   2.80444   2.81458
 Alpha virt. eigenvalues --    2.84141   2.84671   2.85802   2.88937   2.92339
 Alpha virt. eigenvalues --    2.92844   2.98637   3.00732   3.07769   3.09277
 Alpha virt. eigenvalues --    3.11776   3.12980   3.16291   3.18013   3.21980
 Alpha virt. eigenvalues --    3.23274   3.34281   3.36993   3.37315   3.42688
 Alpha virt. eigenvalues --    3.48994   3.51649   3.57951   3.61650   3.69003
 Alpha virt. eigenvalues --    3.70916   3.84147   3.97593   4.00919   4.03141
 Alpha virt. eigenvalues --    4.07403   4.13918   4.14532   4.37747   4.80976
 Alpha virt. eigenvalues --    4.84406   9.74939   9.79904   9.82341  23.38873
 Alpha virt. eigenvalues --   23.65182  23.84191  23.88073  23.93060  23.95019
 Alpha virt. eigenvalues --   23.96393  24.00691  24.07926  24.08665  24.13629
 Alpha virt. eigenvalues --   24.18653  25.78323  25.84542  25.92653  26.10259
 Alpha virt. eigenvalues --   26.14980  26.27381  26.48608  26.65882  26.87507
 Alpha virt. eigenvalues --  215.73859 215.79477 215.82404
          Condensed to atoms (all electrons):
               1          2          3          4          5          6
     1  C   13.526342  -4.076287  -0.273925   0.230252  -1.883059  -0.006513
     2  C   -4.076287  17.177794  -0.219271   0.669347  -0.022731  -6.792196
     3  C   -0.273925  -0.219271  10.893401  -2.439366  -3.077024   1.448649
     4  C    0.230252   0.669347  -2.439366  14.749062  -0.816349  -4.990027
     5  C   -1.883059  -0.022731  -3.077024  -0.816349  13.378523  -0.178135
     6  C   -0.006513  -6.792196   1.448649  -4.990027  -0.178135  17.705353
     7  C    0.795513  -0.553841  -0.139221  -0.140796  -1.432077  -1.174649
     8  C   -1.625510   0.617051  -0.100245   0.309995  -0.122373   0.184987
     9  C    0.828976   0.159141   0.103961   0.011084   0.055862  -0.013879
    10  C   -0.880715  -0.114776  -0.027367  -0.003292  -0.029641   0.129962
    11  C    1.448779   0.266703   0.059227  -0.029397   0.140748  -0.409936
    12  C   -1.941677  -1.011670   0.054395  -0.411823  -0.050558   1.055287
    13  H   -0.010619   0.393468  -0.067054  -0.000410  -0.007657  -0.013937
    14  H    0.007235  -0.037796   0.361190   0.014336  -0.000969   0.004218
    15  H    0.005558   0.033756  -0.010017   0.005941   0.005161   0.013794
    16  H   -0.002080  -0.005340  -0.000183  -0.000121  -0.000192   0.002362
    17  H    0.008879  -0.001099  -0.000103   0.000023   0.000015   0.000086
    18  H   -0.003479  -0.000435  -0.000550   0.000056   0.000447   0.002910
    19  H   -0.002203  -0.029431   0.000063  -0.009026  -0.008076   0.059349
    20  Cl  -0.126030  -0.037691   0.297182  -0.379790   0.269990  -0.571410
    21  Cl  -0.451367   0.161857   0.207989  -0.459062  -0.780358   0.760764
    22  Cl  -0.098090   0.001499  -0.282211  -0.366789   0.585086  -0.375956
               7          8          9         10         11         12
     1  C    0.795513  -1.625510   0.828976  -0.880715   1.448779  -1.941677
     2  C   -0.553841   0.617051   0.159141  -0.114776   0.266703  -1.011670
     3  C   -0.139221  -0.100245   0.103961  -0.027367   0.059227   0.054395
     4  C   -0.140796   0.309995   0.011084  -0.003292  -0.029397  -0.411823
     5  C   -1.432077  -0.122373   0.055862  -0.029641   0.140748  -0.050558
     6  C   -1.174649   0.184987  -0.013879   0.129962  -0.409936   1.055287
     7  C   15.590813  -1.533579  -1.557507  -1.851162  -1.050759  -1.806186
     8  C   -1.533579  17.313732  -0.236435   1.002202  -2.683665  -6.578675
     9  C   -1.557507  -0.236435   7.889940  -0.336832   1.130514  -2.292955
    10  C   -1.851162   1.002202  -0.336832   7.277369  -1.086878   1.905070
    11  C   -1.050759  -2.683665   1.130514  -1.086878   9.854408  -2.027958
    12  C   -1.806186  -6.578675  -2.292955   1.905070  -2.027958  19.773148
    13  H    0.005396   0.090101  -0.008107   0.007265  -0.014612  -0.024419
    14  H    0.000498  -0.000270  -0.000400   0.000064  -0.000210   0.000310
    15  H    0.007315   0.351076  -0.043362  -0.007892  -0.006571  -0.003274
    16  H    0.024758  -0.033474   0.377030  -0.001424  -0.013592   0.001605
    17  H    0.037531  -0.047864   0.029529   0.336203   0.034126  -0.047123
    18  H    0.037995  -0.003697  -0.006592  -0.013224   0.373308  -0.037200
    19  H    0.018501   0.023773  -0.010855   0.000856  -0.047841   0.354957
    20  Cl  -0.295920  -0.368714   0.067777  -0.123902   0.346172  -0.084201
    21  Cl  -0.053121  -0.022586   0.004380  -0.001603   0.011787   0.033657
    22  Cl  -0.039372   0.012659   0.004793  -0.001054   0.001099  -0.022460
              13         14         15         16         17         18
     1  C   -0.010619   0.007235   0.005558  -0.002080   0.008879  -0.003479
     2  C    0.393468  -0.037796   0.033756  -0.005340  -0.001099  -0.000435
     3  C   -0.067054   0.361190  -0.010017  -0.000183  -0.000103  -0.000550
     4  C   -0.000410   0.014336   0.005941  -0.000121   0.000023   0.000056
     5  C   -0.007657  -0.000969   0.005161  -0.000192   0.000015   0.000447
     6  C   -0.013937   0.004218   0.013794   0.002362   0.000086   0.002910
     7  C    0.005396   0.000498   0.007315   0.024758   0.037531   0.037995
     8  C    0.090101  -0.000270   0.351076  -0.033474  -0.047864  -0.003697
     9  C   -0.008107  -0.000400  -0.043362   0.377030   0.029529  -0.006592
    10  C    0.007265   0.000064  -0.007892  -0.001424   0.336203  -0.013224
    11  C   -0.014612  -0.000210  -0.006571  -0.013592   0.034126   0.373308
    12  C   -0.024419   0.000310  -0.003274   0.001605  -0.047123  -0.037200
    13  H    0.520240  -0.007184  -0.000417   0.000016  -0.000002   0.000004
    14  H   -0.007184   0.508002   0.000017   0.000000  -0.000000   0.000000
    15  H   -0.000417   0.000017   0.535282  -0.007616  -0.000241   0.000084
    16  H    0.000016   0.000000  -0.007616   0.537837  -0.007984  -0.000264
    17  H   -0.000002  -0.000000  -0.000241  -0.007984   0.536609  -0.007889
    18  H    0.000004   0.000000   0.000084  -0.000264  -0.007889   0.537488
    19  H   -0.000014   0.000004  -0.000231   0.000080  -0.000241  -0.007624
    20  Cl  -0.002021   0.001741  -0.001885  -0.000344   0.000069  -0.001247
    21  Cl   0.000596  -0.000671  -0.000131   0.000001  -0.000000  -0.000003
    22  Cl  -0.000020  -0.005389   0.000059  -0.000001   0.000000  -0.000000
              19         20         21         22
     1  C   -0.002203  -0.126030  -0.451367  -0.098090
     2  C   -0.029431  -0.037691   0.161857   0.001499
     3  C    0.000063   0.297182   0.207989  -0.282211
     4  C   -0.009026  -0.379790  -0.459062  -0.366789
     5  C   -0.008076   0.269990  -0.780358   0.585086
     6  C    0.059349  -0.571410   0.760764  -0.375956
     7  C    0.018501  -0.295920  -0.053121  -0.039372
     8  C    0.023773  -0.368714  -0.022586   0.012659
     9  C   -0.010855   0.067777   0.004380   0.004793
    10  C    0.000856  -0.123902  -0.001603  -0.001054
    11  C   -0.047841   0.346172   0.011787   0.001099
    12  C    0.354957  -0.084201   0.033657  -0.022460
    13  H   -0.000014  -0.002021   0.000596  -0.000020
    14  H    0.000004   0.001741  -0.000671  -0.005389
    15  H   -0.000231  -0.001885  -0.000131   0.000059
    16  H    0.000080  -0.000344   0.000001  -0.000001
    17  H   -0.000241   0.000069  -0.000000   0.000000
    18  H   -0.007624  -0.001247  -0.000003  -0.000000
    19  H    0.527698   0.000919   0.000629  -0.000129
    20  Cl   0.000919  17.628707  -0.170008  -0.015580
    21  Cl   0.000629  -0.170008  17.362714  -0.173547
    22  Cl  -0.000129  -0.015580  -0.173547  17.288345
 Mulliken charges:
               1
     1  C    0.530020
     2  C   -0.578052
     3  C   -0.789521
     4  C    0.056153
     5  C   -0.026633
     6  C   -0.841084
     7  C    1.109870
     8  C   -0.548490
     9  C   -0.156064
    10  C   -0.179230
    11  C   -0.295453
    12  C   -0.838250
    13  H    0.139385
    14  H    0.155273
    15  H    0.123592
    16  H    0.128927
    17  H    0.129477
    18  H    0.129911
    19  H    0.128844
    20  Cl   0.566184
    21  Cl   0.568083
    22  Cl   0.487058
 Sum of Mulliken charges =  -0.00000
 Mulliken charges with hydrogens summed into heavy atoms:
               1
     1  C    0.530020
     2  C   -0.438667
     3  C   -0.634248
     4  C    0.056153
     5  C   -0.026633
     6  C   -0.841084
     7  C    1.109870
     8  C   -0.424897
     9  C   -0.027137
    10  C   -0.049753
    11  C   -0.165541
    12  C   -0.709406
    20  Cl   0.566184
    21  Cl   0.568083
    22  Cl   0.487058
 Electronic spatial extent (au):  <R**2>=           4883.0940
 Charge=              0.0000 electrons
 Dipole moment (field-independent basis, Debye):
    X=             -2.3578    Y=             -1.8801    Z=             -0.2465  Tot=              3.0257
 Quadrupole moment (field-independent basis, Debye-Ang):
   XX=           -103.7725   YY=           -104.4643   ZZ=           -106.7532
   XY=             -0.5306   XZ=             -0.0774   YZ=             -3.1648
 Traceless Quadrupole moment (field-independent basis, Debye-Ang):
   XX=              1.2242   YY=              0.5324   ZZ=             -1.7565
   XY=             -0.5306   XZ=             -0.0774   YZ=             -3.1648
 Octapole moment (field-independent basis, Debye-Ang**2):
  XXX=            -32.5201  YYY=              2.4007  ZZZ=              1.7329  XYY=             17.0131
  XXY=              7.9261  XXZ=              1.8700  XZZ=              1.1682  YZZ=              6.4555
  YYZ=              1.0924  XYZ=             13.6687
 Hexadecapole moment (field-independent basis, Debye-Ang**3):
 XXXX=          -4706.9819 YYYY=          -1198.5889 ZZZZ=           -315.3144 XXXY=              1.9309
 XXXZ=             -7.2161 YYYX=            -15.3875 YYYZ=             12.0140 ZZZX=              0.0104
 ZZZY=            -13.8232 XXYY=          -1060.3532 XXZZ=           -880.2428 YYZZ=           -266.0149
 XXYZ=            -50.0859 YYXZ=             -7.9862 ZZXY=              1.3684
 N-N= 1.219555703852D+03 E-N=-6.791233370887D+03  KE= 1.836981411717D+03
 1\1\GINC-DAMODAR\FOpt\RB3LYP\6-311+G(d,p)\C12H7Cl3\PKC\15-Mar-2022\0\\
 # opt b3lyp/6-311+g(d,p) scf=xqc\\Title Card Required\\0,1\C,-4.278603
 1444,-1.6335231954,-0.3464208417\C,-3.2442590248,-1.4631317786,-1.2737
 625959\C,-2.5296537903,-0.2781254003,-1.3623110363\C,-2.8358796021,0.7
 78527199,-0.5125551544\C,-3.8565507014,0.6474356408,0.4366477679\C,-4.
 5681569111,-0.5622846533,0.5135119718\C,-5.0086008524,-2.9331580629,-0
 .3124462155\C,-4.3107530901,-4.1159506715,-0.0412855664\C,-4.966721362
 9,-5.3455645149,-0.0532263088\C,-6.3272553746,-5.4089675439,-0.3449584
 318\C,-7.0288465096,-4.2362563949,-0.6228874602\C,-6.3760619601,-3.007
 0716652,-0.6043824198\H,-3.0124858554,-2.2775364898,-1.9493104613\H,-1
 .7388907767,-0.1609589877,-2.0915419998\H,-3.2530688437,-4.0700717834,
 0.1935976331\H,-4.4139505345,-6.2516714704,0.1678342453\H,-6.838313466
 7,-6.3649457952,-0.3563195929\H,-8.0866605419,-4.2781834683,-0.8567618
 679\H,-6.92755586,-2.1006956629,-0.824853167\Cl,-5.803135641,-0.745398
 3274,1.737681567\Cl,-4.2249058543,1.9637029045,1.5116969854\Cl,-1.9209
 02142,2.2593922416,-0.6591492707\\Version=EM64L-G16RevB.01\State=1-A\H
 F=-1842.2746276\RMSD=4.145e-09\RMSF=1.211e-05\Dipole=0.0463029,-1.0129
 227,-0.6235914\Quadrupole=1.9851749,0.8981871,-2.883362,-0.2125345,-0.
 6555322,0.1866388\PG=C01 [X(C12H7Cl3)]\\@


 I DO NOT KNOW WHAT I MAY APPEAR TO THE WORLD; BUT TO MYSELF
 I SEEM TO HAVE BEEN ONLY LIKE A BOY PLAYING ON THE SEASHORE,
 AND DIVERTING MYSELF IN NOW AND THEN FINDING A SMOOTHER PEBBLE
 OR A PRETTIER SHELL THAN ORDINARY, WHILST THE GREAT OCEAN OF
 TRUTH LAY ALL UNDISCOVERED BEFORE ME.
                                          -- NEWTON (1642-1726)
 Job cpu time:       0 days 10 hours 12 minutes 58.2 seconds.
 Elapsed time:       0 days  3 hours  5 minutes 21.0 seconds.
 File lengths (MBytes):  RWF=    107 Int=      0 D2E=      0 Chk=     17 Scr=      1
 Normal termination of Gaussian 16 at Tue Mar 15 03:15:25 2022.
