 Entering Gaussian System, Link 0=g16
 Input=2,3,3prime,5prime,6-Pentachlorobiphenyl.gjf
 Output=2,3,3prime,5prime,6-Pentachlorobiphenyl.log
 Initial command:
 /usr/local/g16/l1.exe "/scratch/pkc/Gau-79318.inp" -scrdir="/scratch/pkc/"
 Entering Link 1 = /usr/local/g16/l1.exe PID=     79319.
  
 Copyright (c) 1988-2017, Gaussian, Inc.  All Rights Reserved.
  
 This is part of the Gaussian(R) 16 program.  It is based on
 the Gaussian(R) 09 system (copyright 2009, Gaussian, Inc.),
 the Gaussian(R) 03 system (copyright 2003, Gaussian, Inc.),
 the Gaussian(R) 98 system (copyright 1998, Gaussian, Inc.),
 the Gaussian(R) 94 system (copyright 1995, Gaussian, Inc.),
 the Gaussian 92(TM) system (copyright 1992, Gaussian, Inc.),
 the Gaussian 90(TM) system (copyright 1990, Gaussian, Inc.),
 the Gaussian 88(TM) system (copyright 1988, Gaussian, Inc.),
 the Gaussian 86(TM) system (copyright 1986, Carnegie Mellon
 University), and the Gaussian 82(TM) system (copyright 1983,
 Carnegie Mellon University). Gaussian is a federally registered
 trademark of Gaussian, Inc.
  
 This software contains proprietary and confidential information,
 including trade secrets, belonging to Gaussian, Inc.
  
 This software is provided under written license and may be
 used, copied, transmitted, or stored only in accord with that
 written license.
  
 The following legend is applicable only to US Government
 contracts under FAR:
  
                    RESTRICTED RIGHTS LEGEND
  
 Use, reproduction and disclosure by the US Government is
 subject to restrictions as set forth in subparagraphs (a)
 and (c) of the Commercial Computer Software - Restricted
 Rights clause in FAR 52.227-19.
  
 Gaussian, Inc.
 340 Quinnipiac St., Bldg. 40, Wallingford CT 06492
  
  
 ---------------------------------------------------------------
 Warning -- This program may not be used in any manner that
 competes with the business of Gaussian, Inc. or will provide
 assistance to any competitor of Gaussian, Inc.  The licensee
 of this program is prohibited from giving any competitor of
 Gaussian, Inc. access to this program.  By using this program,
 the user acknowledges that Gaussian, Inc. is engaged in the
 business of creating and licensing software in the field of
 computational chemistry and represents and warrants to the
 licensee that it is not a competitor of Gaussian, Inc. and that
 it will not use this program in any manner prohibited above.
 ---------------------------------------------------------------
  

 Cite this work as:
 Gaussian 16, Revision B.01,
 M. J. Frisch, G. W. Trucks, H. B. Schlegel, G. E. Scuseria, 
 M. A. Robb, J. R. Cheeseman, G. Scalmani, V. Barone, 
 G. A. Petersson, H. Nakatsuji, X. Li, M. Caricato, A. V. Marenich, 
 J. Bloino, B. G. Janesko, R. Gomperts, B. Mennucci, H. P. Hratchian, 
 J. V. Ortiz, A. F. Izmaylov, J. L. Sonnenberg, D. Williams-Young, 
 F. Ding, F. Lipparini, F. Egidi, J. Goings, B. Peng, A. Petrone, 
 T. Henderson, D. Ranasinghe, V. G. Zakrzewski, J. Gao, N. Rega, 
 G. Zheng, W. Liang, M. Hada, M. Ehara, K. Toyota, R. Fukuda, 
 J. Hasegawa, M. Ishida, T. Nakajima, Y. Honda, O. Kitao, H. Nakai, 
 T. Vreven, K. Throssell, J. A. Montgomery, Jr., J. E. Peralta, 
 F. Ogliaro, M. J. Bearpark, J. J. Heyd, E. N. Brothers, K. N. Kudin, 
 V. N. Staroverov, T. A. Keith, R. Kobayashi, J. Normand, 
 K. Raghavachari, A. P. Rendell, J. C. Burant, S. S. Iyengar, 
 J. Tomasi, M. Cossi, J. M. Millam, M. Klene, C. Adamo, R. Cammi, 
 J. W. Ochterski, R. L. Martin, K. Morokuma, O. Farkas, 
 J. B. Foresman, and D. J. Fox, Gaussian, Inc., Wallingford CT, 2016.
 
 ******************************************
 Gaussian 16:  EM64L-G16RevB.01 20-Dec-2017
                16-Mar-2022 
 ******************************************
 %mem=10GB
 %nprocshared=4
 Will use up to    4 processors via shared memory.
 --------------------------------
 # opt b3lyp/6-311+g(d,p) scf=xqc
 --------------------------------
 1/18=20,19=15,26=3,38=1/1,3;
 2/9=110,12=2,17=6,18=5,40=1/2;
 3/5=4,6=6,7=111,11=2,25=1,30=1,71=1,74=-5/1,2,3;
 4//1;
 5/5=2,8=3,13=1,38=5/2,8;
 6/7=2,8=2,9=2,10=2,28=1/1;
 7//1,2,3,16;
 1/18=20,19=15,26=3/3(2);
 2/9=110/2;
 99//99;
 2/9=110/2;
 3/5=4,6=6,7=111,11=2,25=1,30=1,71=1,74=-5/1,2,3;
 4/5=5,16=3,69=1/1;
 5/5=2,8=3,13=1,38=5/2,8;
 7//1,2,3,16;
 1/18=20,19=15,26=3/3(-5);
 2/9=110/2;
 6/7=2,8=2,9=2,10=2,19=2,28=1/1;
 99/9=1/99;
 -------------------
 Title Card Required
 -------------------
 Symbolic Z-matrix:
 Charge =  0 Multiplicity = 1
 C                    -0.16234  -0.9821   -0.00285 
 C                     1.17004  -0.95221  -0.4362 
 C                     1.87794   0.25724  -0.44227 
 C                     1.25345   1.4368   -0.015 
 C                    -0.07893   1.40692   0.41835 
 C                    -0.78683   0.19747   0.42442 
 C                    -0.94024  -2.31117   0.00382 
 C                    -0.31576  -3.49073  -0.42345 
 C                    -1.02365  -4.70018  -0.41738 
 C                    -2.35603  -4.73007   0.01597 
 C                    -2.98052  -3.5505    0.44325 
 C                    -2.27262  -2.34105   0.43717 
 H                     1.64685  -1.85284  -0.76243 
 H                     1.79394   2.36025  -0.01963 
 H                    -1.80413   0.17465   0.75529 
 H                    -0.54684  -5.60081  -0.74361 
 H                    -2.89652  -5.65351   0.02061 
 Cl                   -3.05691  -0.85965   0.97378 
 Cl                   -4.65383  -3.58804   0.98749 
 Cl                   -0.86322   2.88832   0.95495 
 Cl                    3.55126   0.29477  -0.9865 
 Cl                    1.35756  -3.4532   -0.96769 
 

 GradGradGradGradGradGradGradGradGradGradGradGradGradGradGradGradGradGrad
 Berny optimization.
 Initialization pass.
                           ----------------------------
                           !    Initial Parameters    !
                           ! (Angstroms and Degrees)  !
 --------------------------                            --------------------------
 ! Name  Definition              Value          Derivative Info.                !
 --------------------------------------------------------------------------------
 ! R1    R(1,2)                  1.4014         estimate D2E/DX2                !
 ! R2    R(1,6)                  1.4014         estimate D2E/DX2                !
 ! R3    R(1,7)                  1.54           estimate D2E/DX2                !
 ! R4    R(2,3)                  1.4014         estimate D2E/DX2                !
 ! R5    R(2,13)                 1.07           estimate D2E/DX2                !
 ! R6    R(3,4)                  1.4014         estimate D2E/DX2                !
 ! R7    R(3,21)                 1.76           estimate D2E/DX2                !
 ! R8    R(4,5)                  1.4014         estimate D2E/DX2                !
 ! R9    R(4,14)                 1.07           estimate D2E/DX2                !
 ! R10   R(5,6)                  1.4014         estimate D2E/DX2                !
 ! R11   R(5,20)                 1.76           estimate D2E/DX2                !
 ! R12   R(6,15)                 1.07           estimate D2E/DX2                !
 ! R13   R(7,8)                  1.4014         estimate D2E/DX2                !
 ! R14   R(7,12)                 1.4014         estimate D2E/DX2                !
 ! R15   R(8,9)                  1.4014         estimate D2E/DX2                !
 ! R16   R(8,22)                 1.76           estimate D2E/DX2                !
 ! R17   R(9,10)                 1.4014         estimate D2E/DX2                !
 ! R18   R(9,16)                 1.07           estimate D2E/DX2                !
 ! R19   R(10,11)                1.4014         estimate D2E/DX2                !
 ! R20   R(10,17)                1.07           estimate D2E/DX2                !
 ! R21   R(11,12)                1.4014         estimate D2E/DX2                !
 ! R22   R(11,19)                1.76           estimate D2E/DX2                !
 ! R23   R(12,18)                1.76           estimate D2E/DX2                !
 ! A1    A(2,1,6)              120.0            estimate D2E/DX2                !
 ! A2    A(2,1,7)              120.0            estimate D2E/DX2                !
 ! A3    A(6,1,7)              120.0            estimate D2E/DX2                !
 ! A4    A(1,2,3)              120.0            estimate D2E/DX2                !
 ! A5    A(1,2,13)             120.0            estimate D2E/DX2                !
 ! A6    A(3,2,13)             120.0            estimate D2E/DX2                !
 ! A7    A(2,3,4)              120.0            estimate D2E/DX2                !
 ! A8    A(2,3,21)             120.0            estimate D2E/DX2                !
 ! A9    A(4,3,21)             120.0            estimate D2E/DX2                !
 ! A10   A(3,4,5)              120.0            estimate D2E/DX2                !
 ! A11   A(3,4,14)             120.0            estimate D2E/DX2                !
 ! A12   A(5,4,14)             120.0            estimate D2E/DX2                !
 ! A13   A(4,5,6)              120.0            estimate D2E/DX2                !
 ! A14   A(4,5,20)             120.0            estimate D2E/DX2                !
 ! A15   A(6,5,20)             120.0            estimate D2E/DX2                !
 ! A16   A(1,6,5)              120.0            estimate D2E/DX2                !
 ! A17   A(1,6,15)             120.0            estimate D2E/DX2                !
 ! A18   A(5,6,15)             120.0            estimate D2E/DX2                !
 ! A19   A(1,7,8)              120.0            estimate D2E/DX2                !
 ! A20   A(1,7,12)             120.0            estimate D2E/DX2                !
 ! A21   A(8,7,12)             120.0            estimate D2E/DX2                !
 ! A22   A(7,8,9)              120.0            estimate D2E/DX2                !
 ! A23   A(7,8,22)             120.0            estimate D2E/DX2                !
 ! A24   A(9,8,22)             120.0            estimate D2E/DX2                !
 ! A25   A(8,9,10)             120.0            estimate D2E/DX2                !
 ! A26   A(8,9,16)             120.0            estimate D2E/DX2                !
 ! A27   A(10,9,16)            120.0            estimate D2E/DX2                !
 ! A28   A(9,10,11)            120.0            estimate D2E/DX2                !
 ! A29   A(9,10,17)            120.0            estimate D2E/DX2                !
 ! A30   A(11,10,17)           120.0            estimate D2E/DX2                !
 ! A31   A(10,11,12)           120.0            estimate D2E/DX2                !
 ! A32   A(10,11,19)           120.0            estimate D2E/DX2                !
 ! A33   A(12,11,19)           120.0            estimate D2E/DX2                !
 ! A34   A(7,12,11)            120.0            estimate D2E/DX2                !
 ! A35   A(7,12,18)            120.0            estimate D2E/DX2                !
 ! A36   A(11,12,18)           120.0            estimate D2E/DX2                !
 ! D1    D(6,1,2,3)              0.0001         estimate D2E/DX2                !
 ! D2    D(6,1,2,13)           180.0            estimate D2E/DX2                !
 ! D3    D(7,1,2,3)           -180.0            estimate D2E/DX2                !
 ! D4    D(7,1,2,13)            -0.0001         estimate D2E/DX2                !
 ! D5    D(2,1,6,5)             -0.0001         estimate D2E/DX2                !
 ! D6    D(2,1,6,15)           180.0            estimate D2E/DX2                !
 ! D7    D(7,1,6,5)            180.0            estimate D2E/DX2                !
 ! D8    D(7,1,6,15)             0.0            estimate D2E/DX2                !
 ! D9    D(2,1,7,8)             -0.0001         estimate D2E/DX2                !
 ! D10   D(2,1,7,12)           179.9998         estimate D2E/DX2                !
 ! D11   D(6,1,7,8)            179.9999         estimate D2E/DX2                !
 ! D12   D(6,1,7,12)            -0.0002         estimate D2E/DX2                !
 ! D13   D(1,2,3,4)              0.0            estimate D2E/DX2                !
 ! D14   D(1,2,3,21)           180.0            estimate D2E/DX2                !
 ! D15   D(13,2,3,4)          -179.9999         estimate D2E/DX2                !
 ! D16   D(13,2,3,21)            0.0001         estimate D2E/DX2                !
 ! D17   D(2,3,4,5)             -0.0001         estimate D2E/DX2                !
 ! D18   D(2,3,4,14)           180.0            estimate D2E/DX2                !
 ! D19   D(21,3,4,5)           179.9999         estimate D2E/DX2                !
 ! D20   D(21,3,4,14)            0.0            estimate D2E/DX2                !
 ! D21   D(3,4,5,6)              0.0001         estimate D2E/DX2                !
 ! D22   D(3,4,5,20)          -179.9999         estimate D2E/DX2                !
 ! D23   D(14,4,5,6)          -180.0            estimate D2E/DX2                !
 ! D24   D(14,4,5,20)            0.0            estimate D2E/DX2                !
 ! D25   D(4,5,6,1)              0.0            estimate D2E/DX2                !
 ! D26   D(4,5,6,15)           179.9999         estimate D2E/DX2                !
 ! D27   D(20,5,6,1)           180.0            estimate D2E/DX2                !
 ! D28   D(20,5,6,15)           -0.0001         estimate D2E/DX2                !
 ! D29   D(1,7,8,9)            179.9999         estimate D2E/DX2                !
 ! D30   D(1,7,8,22)             0.0001         estimate D2E/DX2                !
 ! D31   D(12,7,8,9)             0.0001         estimate D2E/DX2                !
 ! D32   D(12,7,8,22)         -179.9998         estimate D2E/DX2                !
 ! D33   D(1,7,12,11)         -179.9999         estimate D2E/DX2                !
 ! D34   D(1,7,12,18)            0.0            estimate D2E/DX2                !
 ! D35   D(8,7,12,11)           -0.0001         estimate D2E/DX2                !
 ! D36   D(8,7,12,18)          179.9999         estimate D2E/DX2                !
 ! D37   D(7,8,9,10)             0.0            estimate D2E/DX2                !
 ! D38   D(7,8,9,16)           180.0            estimate D2E/DX2                !
 ! D39   D(22,8,9,10)          179.9998         estimate D2E/DX2                !
 ! D40   D(22,8,9,16)           -0.0002         estimate D2E/DX2                !
 ! D41   D(8,9,10,11)            0.0            estimate D2E/DX2                !
 ! D42   D(8,9,10,17)         -179.9999         estimate D2E/DX2                !
 ! D43   D(16,9,10,11)         180.0            estimate D2E/DX2                !
 ! D44   D(16,9,10,17)           0.0001         estimate D2E/DX2                !
 ! D45   D(9,10,11,12)           0.0            estimate D2E/DX2                !
 ! D46   D(9,10,11,19)        -179.9998         estimate D2E/DX2                !
 ! D47   D(17,10,11,12)        179.9999         estimate D2E/DX2                !
 ! D48   D(17,10,11,19)          0.0001         estimate D2E/DX2                !
 ! D49   D(10,11,12,7)           0.0            estimate D2E/DX2                !
 ! D50   D(10,11,12,18)       -179.9999         estimate D2E/DX2                !
 ! D51   D(19,11,12,7)         179.9999         estimate D2E/DX2                !
 ! D52   D(19,11,12,18)         -0.0001         estimate D2E/DX2                !
 --------------------------------------------------------------------------------
 Trust Radius=3.00D-01 FncErr=1.00D-07 GrdErr=1.00D-06 EigMax=2.50D+02 EigMin=1.00D-04
 Number of steps in this run=    121 maximum allowed number of steps=    132.
 GradGradGradGradGradGradGradGradGradGradGradGradGradGradGradGradGradGrad

                          Input orientation:                          
 ---------------------------------------------------------------------
 Center     Atomic      Atomic             Coordinates (Angstroms)
 Number     Number       Type             X           Y           Z
 ---------------------------------------------------------------------
      1          6           0       -0.162338   -0.982099   -0.002851
      2          6           0        1.170043   -0.952213   -0.436198
      3          6           0        1.877937    0.257238   -0.442270
      4          6           0        1.253449    1.436803   -0.014995
      5          6           0       -0.078932    1.406918    0.418349
      6          6           0       -0.786826    0.197467    0.424422
      7          6           0       -0.940243   -2.311166    0.003823
      8          6           0       -0.315755   -3.490731   -0.423452
      9          6           0       -1.023648   -4.700182   -0.417378
     10          6           0       -2.356029   -4.730069    0.015972
     11          6           0       -2.980516   -3.550504    0.443247
     12          6           0       -2.272623   -2.341052    0.437173
     13          1           0        1.646854   -1.852837   -0.762430
     14          1           0        1.793942    2.360246   -0.019631
     15          1           0       -1.804129    0.174648    0.755291
     16          1           0       -0.546839   -5.600806   -0.743612
     17          1           0       -2.896520   -5.653512    0.020612
     18         17           0       -3.056907   -0.859652    0.973785
     19         17           0       -4.653833   -3.588038    0.987490
     20         17           0       -0.863219    2.888319    0.954955
     21         17           0        3.551257    0.294771   -0.986503
     22         17           0        1.357565   -3.453198   -0.967686
 ---------------------------------------------------------------------
                    Distance matrix (angstroms):
                    1          2          3          4          5
     1  C    0.000000
     2  C    1.401400   0.000000
     3  C    2.427296   1.401400   0.000000
     4  C    2.802800   2.427296   1.401400   0.000000
     5  C    2.427296   2.802800   2.427296   1.401400   0.000000
     6  C    1.401400   2.427296   2.802800   2.427296   1.401400
     7  C    1.540000   2.548270   3.838989   4.342800   3.838989
     8  C    2.548270   2.941400   4.342800   5.187469   4.975106
     9  C    3.838989   4.342800   5.744200   6.558176   6.235992
    10  C    4.342800   5.187469   6.558176   7.145600   6.558176
    11  C    3.838989   4.975106   6.235992   6.558176   5.744200
    12  C    2.548270   3.813607   4.975106   5.187469   4.342800
    13  H    2.146700   1.070000   2.146700   3.396345   3.872800
    14  H    3.872800   3.396345   2.146700   1.070000   2.146700
    15  H    2.146700   3.396345   3.872800   3.396345   2.146700
    16  H    4.693509   4.965039   6.347206   7.300676   7.118798
    17  H    5.412800   6.232802   7.612271   8.215600   7.612271
    18  Cl   3.057342   4.456874   5.254079   4.983028   3.783409
    19  Cl   5.286324   6.549198   7.713260   7.819846   6.797295
    20  Cl   4.048303   4.562800   4.048303   2.743718   1.760000
    21  Cl   4.048303   2.743718   1.760000   2.743718   4.048303
    22  Cl   3.057342   2.563702   3.783409   4.983028   5.254079
                    6          7          8          9         10
     6  C    0.000000
     7  C    2.548270   0.000000
     8  C    3.813607   1.401400   0.000000
     9  C    4.975106   2.427296   1.401400   0.000000
    10  C    5.187469   2.802800   2.427296   1.401400   0.000000
    11  C    4.342800   2.427296   2.802800   2.427296   1.401400
    12  C    2.941400   1.401400   2.427296   2.802800   2.427296
    13  H    3.396345   2.736837   2.578650   3.918930   4.990735
    14  H    3.396345   5.412800   6.232802   7.612271   8.215600
    15  H    1.070000   2.736837   4.127917   5.074276   4.990735
    16  H    5.919617   3.396345   2.146700   1.070000   2.146700
    17  H    6.232802   3.872800   3.396345   2.146700   1.070000
    18  Cl   2.563702   2.743718   4.048303   4.562800   4.048303
    19  Cl   5.440665   4.048303   4.562800   4.048303   2.743718
    20  Cl   2.743718   5.286324   6.549198   7.713260   7.819846
    21  Cl   4.562800   5.286324   5.440665   6.797295   7.819846
    22  Cl   4.456874   2.743718   1.760000   2.743718   4.048303
                   11         12         13         14         15
    11  C    0.000000
    12  C    1.401400   0.000000
    13  H    5.074276   4.127917   0.000000
    14  H    7.612271   6.232802   4.280590   0.000000
    15  H    3.918930   2.578650   4.280590   4.280590   0.000000
    16  H    3.396345   3.872800   4.342800   8.329571   6.097816
    17  H    2.146700   3.396345   5.974992   9.285600   5.974992
    18  Cl   2.743718   1.760000   5.111382   5.906383   1.639199
    19  Cl   1.760000   2.743718   6.765486   8.830073   4.725732
    20  Cl   6.797295   5.440665   5.632800   2.879094   2.879094
    21  Cl   7.713260   6.549198   2.879094   2.879094   5.632800
    22  Cl   4.562800   4.048303   1.639199   5.906383   5.111382
                   16         17         18         19         20
    16  H    0.000000
    17  H    2.471400   0.000000
    18  Cl   5.632800   4.890332   0.000000
    19  Cl   4.890332   2.879094   3.161400   0.000000
    20  Cl   8.663168   8.830073   4.342800   7.504200   0.000000
    21  Cl   7.184095   8.830073   6.988795   9.289584   5.475705
    22  Cl   2.879094   4.890332   5.475705   6.322800   6.988795
                   21         22
    21  Cl   0.000000
    22  Cl   4.342800   0.000000
 Stoichiometry    C12H5Cl5
 Framework group  C1[X(C12H5Cl5)]
 Deg. of freedom    60
 Full point group                 C1      NOp   1
 Largest Abelian subgroup         C1      NOp   1
 Largest concise Abelian subgroup C1      NOp   1
                         Standard orientation:                         
 ---------------------------------------------------------------------
 Center     Atomic      Atomic             Coordinates (Angstroms)
 Number     Number       Type             X           Y           Z
 ---------------------------------------------------------------------
      1          6           0       -0.570282   -0.098567    0.000002
      2          6           0       -1.619263   -1.027846    0.000000
      3          6           0       -2.948533   -0.584042   -0.000002
      4          6           0       -3.228823    0.789042   -0.000003
      5          6           0       -2.179842    1.718322    0.000001
      6          6           0       -0.850571    1.274517    0.000003
      7          6           0        0.890455   -0.586264    0.000003
      8          6           0        1.170744   -1.959348    0.000004
      9          6           0        2.500015   -2.403152    0.000004
     10          6           0        3.548996   -1.473872    0.000003
     11          6           0        3.268706   -0.100788    0.000001
     12          6           0        1.939436    0.343016    0.000001
     13          1           0       -1.405255   -2.076227   -0.000001
     14          1           0       -4.243750    1.127896   -0.000005
     15          1           0       -0.049651    1.984043    0.000005
     16          1           0        2.714022   -3.451532    0.000005
     17          1           0        4.563923   -1.812726    0.000001
     18         17           0        1.587424    2.067455   -0.000003
     19         17           0        4.586108    1.066283   -0.000005
     20         17           0       -2.531854    3.442760    0.000004
     21         17           0       -4.265934   -1.751113   -0.000005
     22         17           0       -0.146657   -3.126418    0.000002
 ---------------------------------------------------------------------
 Rotational constants (GHZ):           0.3877637           0.2029653           0.1332296
 Standard basis: 6-311+G(d,p) (5D, 7F)
 There are   461 symmetry adapted cartesian basis functions of A   symmetry.
 There are   444 symmetry adapted basis functions of A   symmetry.
   444 basis functions,   737 primitive gaussians,   461 cartesian basis functions
    81 alpha electrons       81 beta electrons
       nuclear repulsion energy      1730.2340451422 Hartrees.
 NAtoms=   22 NActive=   22 NUniq=   22 SFac= 1.00D+00 NAtFMM=   60 NAOKFM=F Big=F
 Integral buffers will be    131072 words long.
 Raffenetti 2 integral format.
 Two-electron integral symmetry is turned on.
 One-electron integrals computed using PRISM.
 NBasis=   444 RedAO= T EigKep=  1.00D-06  NBF=   444
 NBsUse=   439 1.00D-06 EigRej=  4.39D-07 NBFU=   439
 ExpMin= 4.38D-02 ExpMax= 1.06D+05 ExpMxC= 3.62D+03 IAcc=3 IRadAn=         5 AccDes= 0.00D+00
 Harris functional with IExCor=  402 and IRadAn=       5 diagonalized for initial guess.
 HarFok:  IExCor=  402 AccDes= 0.00D+00 IRadAn=         5 IDoV= 1 UseB2=F ITyADJ=14
 ICtDFT=  3500011 ScaDFX=  1.000000  1.000000  1.000000  1.000000
 FoFCou: FMM=F IPFlag=           0 FMFlag=      100000 FMFlg1=           0
         NFxFlg=           0 DoJE=T BraDBF=F KetDBF=T FulRan=T
         wScrn=  0.000000 ICntrl=       500 IOpCl=  0 I1Cent=   200000004 NGrid=           0
         NMat0=    1 NMatS0=      1 NMatT0=    0 NMatD0=    1 NMtDS0=    0 NMtDT0=    0
 Petite list used in FoFCou.
 Requested convergence on RMS density matrix=1.00D-08 within  32 cycles.
 Requested convergence on MAX density matrix=1.00D-06.
 Requested convergence on             energy=1.00D-06.
 No special actions if energy rises.
 SCF Done:  E(RB3LYP) =  -2761.40327855     A.U. after   17 cycles
            NFock= 17  Conv=0.32D-08     -V/T= 2.0025
 QCSCF skips out because SCF is already converged.

 **********************************************************************

            Population analysis using the SCF Density.

 **********************************************************************

 Orbital symmetries:
       Occupied  (A) (A) (A) (A) (A) (A) (A) (A) (A) (A) (A) (A)
                 (A) (A) (A) (A) (A) (A) (A) (A) (A) (A) (A) (A)
                 (A) (A) (A) (A) (A) (A) (A) (A) (A) (A) (A) (A)
                 (A) (A) (A) (A) (A) (A) (A) (A) (A) (A) (A) (A)
                 (A) (A) (A) (A) (A) (A) (A) (A) (A) (A) (A) (A)
                 (A) (A) (A) (A) (A) (A) (A) (A) (A) (A) (A) (A)
                 (A) (A) (A) (A) (A) (A) (A) (A) (A)
       Virtual   (A) (A) (A) (A) (A) (A) (A) (A) (A) (A) (A) (A)
                 (A) (A) (A) (A) (A) (A) (A) (A) (A) (A) (A) (A)
                 (A) (A) (A) (A) (A) (A) (A) (A) (A) (A) (A) (A)
                 (A) (A) (A) (A) (A) (A) (A) (A) (A) (A) (A) (A)
                 (A) (A) (A) (A) (A) (A) (A) (A) (A) (A) (A) (A)
                 (A) (A) (A) (A) (A) (A) (A) (A) (A) (A) (A) (A)
                 (A) (A) (A) (A) (A) (A) (A) (A) (A) (A) (A) (A)
                 (A) (A) (A) (A) (A) (A) (A) (A) (A) (A) (A) (A)
                 (A) (A) (A) (A) (A) (A) (A) (A) (A) (A) (A) (A)
                 (A) (A) (A) (A) (A) (A) (A) (A) (A) (A) (A) (A)
                 (A) (A) (A) (A) (A) (A) (A) (A) (A) (A) (A) (A)
                 (A) (A) (A) (A) (A) (A) (A) (A) (A) (A) (A) (A)
                 (A) (A) (A) (A) (A) (A) (A) (A) (A) (A) (A) (A)
                 (A) (A) (A) (A) (A) (A) (A) (A) (A) (A) (A) (A)
                 (A) (A) (A) (A) (A) (A) (A) (A) (A) (A) (A) (A)
                 (A) (A) (A) (A) (A) (A) (A) (A) (A) (A) (A) (A)
                 (A) (A) (A) (A) (A) (A) (A) (A) (A) (A) (A) (A)
                 (A) (A) (A) (A) (A) (A) (A) (A) (A) (A) (A) (A)
                 (A) (A) (A) (A) (A) (A) (A) (A) (A) (A) (A) (A)
                 (A) (A) (A) (A) (A) (A) (A) (A) (A) (A) (A) (A)
                 (A) (A) (A) (A) (A) (A) (A) (A) (A) (A) (A) (A)
                 (A) (A) (A) (A) (A) (A) (A) (A) (A) (A) (A) (A)
                 (A) (A) (A) (A) (A) (A) (A) (A) (A) (A) (A) (A)
                 (A) (A) (A) (A) (A) (A) (A) (A) (A) (A) (A) (A)
                 (A) (A) (A) (A) (A) (A) (A) (A) (A) (A) (A) (A)
                 (A) (A) (A) (A) (A) (A) (A) (A) (A) (A) (A) (A)
                 (A) (A) (A) (A) (A) (A) (A) (A) (A) (A) (A) (A)
                 (A) (A) (A) (A) (A) (A) (A) (A) (A) (A) (A) (A)
                 (A) (A) (A) (A) (A) (A) (A) (A) (A) (A) (A) (A)
                 (A) (A) (A) (A) (A) (A) (A) (A) (A) (A)
 The electronic state is 1-A.
 Alpha  occ. eigenvalues -- -101.58470-101.58407-101.58028-101.56361-101.56322
 Alpha  occ. eigenvalues --  -10.28424 -10.28086 -10.27950 -10.25245 -10.25218
 Alpha  occ. eigenvalues --  -10.24780 -10.22766 -10.22693 -10.22365 -10.20373
 Alpha  occ. eigenvalues --  -10.18104 -10.18030  -9.50244  -9.50187  -9.49451
 Alpha  occ. eigenvalues --   -9.47800  -9.47761  -7.26654  -7.26614  -7.25946
 Alpha  occ. eigenvalues --   -7.25690  -7.25676  -7.25636  -7.25596  -7.24931
 Alpha  occ. eigenvalues --   -7.24870  -7.24265  -7.24226  -7.23280  -7.23251
 Alpha  occ. eigenvalues --   -7.23241  -7.23211  -0.95816  -0.92530  -0.91208
 Alpha  occ. eigenvalues --   -0.89315  -0.87911  -0.85812  -0.84010  -0.79747
 Alpha  occ. eigenvalues --   -0.76578  -0.75686  -0.74164  -0.66812  -0.64212
 Alpha  occ. eigenvalues --   -0.62412  -0.61693  -0.55962  -0.54292  -0.53664
 Alpha  occ. eigenvalues --   -0.49712  -0.49010  -0.48865  -0.48591  -0.46218
 Alpha  occ. eigenvalues --   -0.46066  -0.46065  -0.42510  -0.41966  -0.41887
 Alpha  occ. eigenvalues --   -0.41181  -0.40634  -0.40576  -0.37955  -0.36940
 Alpha  occ. eigenvalues --   -0.34885  -0.34374  -0.33837  -0.33046  -0.32322
 Alpha  occ. eigenvalues --   -0.30178  -0.29969  -0.28864  -0.27810  -0.26009
 Alpha  occ. eigenvalues --   -0.25510
 Alpha virt. eigenvalues --   -0.07770  -0.06347  -0.04594  -0.03604  -0.01599
 Alpha virt. eigenvalues --   -0.01448  -0.00773  -0.00600   0.00901   0.01195
 Alpha virt. eigenvalues --    0.01862   0.02157   0.02404   0.03958   0.04717
 Alpha virt. eigenvalues --    0.04951   0.05153   0.05385   0.05803   0.06176
 Alpha virt. eigenvalues --    0.07041   0.07204   0.07674   0.08382   0.08475
 Alpha virt. eigenvalues --    0.08841   0.09272   0.09738   0.10541   0.10555
 Alpha virt. eigenvalues --    0.10996   0.11261   0.11986   0.12036   0.12473
 Alpha virt. eigenvalues --    0.12677   0.13128   0.13531   0.13833   0.14061
 Alpha virt. eigenvalues --    0.14787   0.14796   0.15391   0.15795   0.15946
 Alpha virt. eigenvalues --    0.16237   0.16745   0.17161   0.17908   0.17988
 Alpha virt. eigenvalues --    0.18351   0.19277   0.19453   0.19844   0.20195
 Alpha virt. eigenvalues --    0.20356   0.20428   0.20700   0.21433   0.21824
 Alpha virt. eigenvalues --    0.22317   0.22915   0.23015   0.23284   0.23659
 Alpha virt. eigenvalues --    0.24299   0.25047   0.25164   0.25306   0.25600
 Alpha virt. eigenvalues --    0.26291   0.26789   0.27490   0.28148   0.28459
 Alpha virt. eigenvalues --    0.29816   0.30115   0.30463   0.31314   0.31721
 Alpha virt. eigenvalues --    0.32444   0.32691   0.33360   0.34176   0.34977
 Alpha virt. eigenvalues --    0.35952   0.36208   0.37606   0.39621   0.41193
 Alpha virt. eigenvalues --    0.42265   0.42331   0.43173   0.43373   0.43640
 Alpha virt. eigenvalues --    0.44940   0.45413   0.45692   0.45990   0.46489
 Alpha virt. eigenvalues --    0.46705   0.47745   0.48403   0.49550   0.50204
 Alpha virt. eigenvalues --    0.51173   0.51173   0.52427   0.53186   0.53724
 Alpha virt. eigenvalues --    0.54480   0.55259   0.56373   0.57153   0.57901
 Alpha virt. eigenvalues --    0.58165   0.58856   0.59393   0.59862   0.60282
 Alpha virt. eigenvalues --    0.60762   0.61417   0.63034   0.63099   0.63554
 Alpha virt. eigenvalues --    0.63691   0.66654   0.67473   0.67577   0.68004
 Alpha virt. eigenvalues --    0.68311   0.68966   0.70497   0.73157   0.76066
 Alpha virt. eigenvalues --    0.76835   0.78686   0.80052   0.80619   0.81240
 Alpha virt. eigenvalues --    0.81595   0.83112   0.83169   0.83789   0.84324
 Alpha virt. eigenvalues --    0.84941   0.85237   0.85302   0.85894   0.85971
 Alpha virt. eigenvalues --    0.86772   0.86966   0.87260   0.87441   0.87725
 Alpha virt. eigenvalues --    0.88853   0.89032   0.89389   0.89865   0.90531
 Alpha virt. eigenvalues --    0.90780   0.93462   0.93853   0.94500   0.94981
 Alpha virt. eigenvalues --    0.95241   0.95733   0.96051   0.97470   0.98354
 Alpha virt. eigenvalues --    0.98973   0.98991   0.99153   0.99856   1.01100
 Alpha virt. eigenvalues --    1.02609   1.03318   1.07209   1.08027   1.09698
 Alpha virt. eigenvalues --    1.10132   1.10887   1.12865   1.14810   1.17188
 Alpha virt. eigenvalues --    1.17903   1.20568   1.21876   1.22849   1.23696
 Alpha virt. eigenvalues --    1.24765   1.25810   1.27354   1.27936   1.29430
 Alpha virt. eigenvalues --    1.30775   1.31347   1.33785   1.34306   1.35909
 Alpha virt. eigenvalues --    1.37882   1.42048   1.43760   1.47541   1.48488
 Alpha virt. eigenvalues --    1.49966   1.50905   1.54554   1.56808   1.58418
 Alpha virt. eigenvalues --    1.58992   1.61057   1.61078   1.61623   1.64852
 Alpha virt. eigenvalues --    1.65765   1.66505   1.68198   1.69011   1.71899
 Alpha virt. eigenvalues --    1.75583   1.78552   1.82061   1.83457   1.84167
 Alpha virt. eigenvalues --    1.85150   1.85790   1.86546   1.87555   1.89104
 Alpha virt. eigenvalues --    1.93022   1.93184   1.93222   1.95131   1.96259
 Alpha virt. eigenvalues --    1.96794   2.00009   2.01082   2.02540   2.05208
 Alpha virt. eigenvalues --    2.08367   2.11410   2.11577   2.14089   2.15633
 Alpha virt. eigenvalues --    2.19558   2.20272   2.23834   2.24401   2.26091
 Alpha virt. eigenvalues --    2.26450   2.26694   2.26776   2.28308   2.33527
 Alpha virt. eigenvalues --    2.33968   2.34443   2.35473   2.39274   2.40793
 Alpha virt. eigenvalues --    2.41456   2.43532   2.44030   2.50666   2.52064
 Alpha virt. eigenvalues --    2.52212   2.53319   2.56153   2.58679   2.59609
 Alpha virt. eigenvalues --    2.60280   2.60870   2.63513   2.64705   2.67180
 Alpha virt. eigenvalues --    2.68234   2.70405   2.72508   2.72833   2.73584
 Alpha virt. eigenvalues --    2.73972   2.74805   2.75582   2.78504   2.80595
 Alpha virt. eigenvalues --    2.81049   2.83203   2.83813   2.85551   2.90719
 Alpha virt. eigenvalues --    2.92751   2.95667   3.04353   3.06848   3.06952
 Alpha virt. eigenvalues --    3.09920   3.12411   3.14021   3.18362   3.20095
 Alpha virt. eigenvalues --    3.23162   3.23555   3.25740   3.33047   3.34752
 Alpha virt. eigenvalues --    3.40045   3.41772   3.54626   3.59684   3.62490
 Alpha virt. eigenvalues --    3.69969   3.74806   3.81150   3.85019   3.99333
 Alpha virt. eigenvalues --    4.04802   4.12517   4.19515   4.44990   4.78732
 Alpha virt. eigenvalues --    4.83487   9.75928   9.77172   9.79066   9.87024
 Alpha virt. eigenvalues --    9.88040  23.36008  23.55195  23.80628  23.85623
 Alpha virt. eigenvalues --   23.85937  23.89269  23.95815  23.97965  24.03359
 Alpha virt. eigenvalues --   24.05499  24.07891  24.12447  25.77346  25.80841
 Alpha virt. eigenvalues --   25.82223  25.84467  25.87720  26.09490  26.14106
 Alpha virt. eigenvalues --   26.19859  26.47382  26.60528  26.63026  26.66536
 Alpha virt. eigenvalues --   26.73085  26.79637  26.92366 215.75102 215.76376
 Alpha virt. eigenvalues --  215.78527 215.89521 215.90589
          Condensed to atoms (all electrons):
               1          2          3          4          5          6
     1  C   27.441440  -0.034772  -5.130179  -0.734424  -5.346977   1.804109
     2  C   -0.034772  27.286513   0.878720 -10.134524  -0.250205  -7.352646
     3  C   -5.130179   0.878720  24.725309  -4.279868  -5.337020   1.667919
     4  C   -0.734424 -10.134524  -4.279868  32.255859  -3.585718  -7.824959
     5  C   -5.346977  -0.250205  -5.337020  -3.585718  21.929347   3.128436
     6  C    1.804109  -7.352646   1.667919  -7.824959   3.128436  24.299796
     7  C   11.466542  -2.134297  -2.703588  -1.590904  -2.699995   2.262097
     8  C   -6.036162   6.168446  -1.149441   0.704077  -2.473475  -9.759274
     9  C   -5.260968  -2.931496   1.740370   0.544855  -0.939377   0.201316
    10  C   -0.892524   1.026815  -0.073397   0.107958   0.300028  -0.693848
    11  C   -5.576088  -0.805734  -1.414600   0.129122   1.261150  -2.548480
    12  C   -3.994223  -4.822224  -2.808478   1.033112   0.220186   2.719219
    13  H   -0.159925  -0.033037   0.180276   0.199696  -0.029035   0.069018
    14  H    0.073839   0.091001   0.008154   0.096097  -0.002011   0.057344
    15  H   -0.271380  -0.054703  -0.018327   0.186132   0.145254   0.362906
    16  H    0.009960   0.009087  -0.000727   0.000037   0.000224   0.000007
    17  H    0.000671  -0.000704   0.000108   0.000002  -0.000068   0.001569
    18  Cl   0.793360   0.570837   0.146719  -0.087228  -1.085761  -2.168439
    19  Cl  -0.175011  -0.102315   0.000694  -0.004620   0.010397   0.143636
    20  Cl  -0.518611   0.163643   0.019294  -0.265819  -0.573658   0.750445
    21  Cl  -0.583768   0.610887  -0.403894  -0.293074   0.039691   0.244070
    22  Cl   0.645297  -0.644709  -1.190668  -0.102091   0.223900   0.012259
               7          8          9         10         11         12
     1  C   11.466542  -6.036162  -5.260968  -0.892524  -5.576088  -3.994223
     2  C   -2.134297   6.168446  -2.931496   1.026815  -0.805734  -4.822224
     3  C   -2.703588  -1.149441   1.740370  -0.073397  -1.414600  -2.808478
     4  C   -1.590904   0.704077   0.544855   0.107958   0.129122   1.033112
     5  C   -2.699995  -2.473475  -0.939377   0.300028   1.261150   0.220186
     6  C    2.262097  -9.759274   0.201316  -0.693848  -2.548480   2.719219
     7  C   27.825972 -12.936846  -3.591387  -2.385894  -9.422080   4.013031
     8  C  -12.936846  43.995920 -11.953788   1.786935   4.258827  -7.437877
     9  C   -3.591387 -11.953788  23.350318   1.259029  -1.565785   4.650512
    10  C   -2.385894   1.786935   1.259029  21.105370  -3.889961 -11.256438
    11  C   -9.422080   4.258827  -1.565785  -3.889961  27.479689  -3.318857
    12  C    4.013031  -7.437877   4.650512 -11.256438  -3.318857  28.609953
    13  H   -0.020709  -0.059657   0.267139   0.019706  -0.019139   0.025388
    14  H    0.024933   0.002454  -0.000003  -0.000052   0.000414   0.002696
    15  H   -0.104219   0.000906  -0.007972   0.003044   0.053523   0.152878
    16  H    0.071325   0.055676   0.324069  -0.004025  -0.074056  -0.023529
    17  H    0.027898  -0.026118  -0.066474   0.313780   0.042069   0.057439
    18  Cl  -0.479179   1.305397   0.192812   1.000623   0.971666  -2.768251
    19  Cl  -0.413779  -0.133595   0.269068  -0.845510  -0.867979   1.493964
    20  Cl  -0.183959  -0.125711  -0.015387   0.002858  -0.013794  -0.035337
    21  Cl  -0.200337  -0.060263  -0.032623  -0.002477  -0.023219  -0.126993
    22  Cl   0.117338  -0.496671  -0.402795  -0.182591   0.365811   0.248273
              13         14         15         16         17         18
     1  C   -0.159925   0.073839  -0.271380   0.009960   0.000671   0.793360
     2  C   -0.033037   0.091001  -0.054703   0.009087  -0.000704   0.570837
     3  C    0.180276   0.008154  -0.018327  -0.000727   0.000108   0.146719
     4  C    0.199696   0.096097   0.186132   0.000037   0.000002  -0.087228
     5  C   -0.029035  -0.002011   0.145254   0.000224  -0.000068  -1.085761
     6  C    0.069018   0.057344   0.362906   0.000007   0.001569  -2.168439
     7  C   -0.020709   0.024933  -0.104219   0.071325   0.027898  -0.479179
     8  C   -0.059657   0.002454   0.000906   0.055676  -0.026118   1.305397
     9  C    0.267139  -0.000003  -0.007972   0.324069  -0.066474   0.192812
    10  C    0.019706  -0.000052   0.003044  -0.004025   0.313780   1.000623
    11  C   -0.019139   0.000414   0.053523  -0.074056   0.042069   0.971666
    12  C    0.025388   0.002696   0.152878  -0.023529   0.057439  -2.768251
    13  H    0.693027  -0.000550  -0.000146  -0.000017  -0.000003  -0.000080
    14  H   -0.000550   0.506340  -0.000538  -0.000000   0.000000   0.000080
    15  H   -0.000146  -0.000538   0.691518   0.000001   0.000002  -0.252429
    16  H   -0.000017  -0.000000   0.000001   0.501574  -0.007636   0.000814
    17  H   -0.000003   0.000000   0.000002  -0.007636   0.499531   0.000005
    18  Cl  -0.000080   0.000080  -0.252429   0.000814   0.000005  18.513678
    19  Cl   0.000197   0.000000   0.005261  -0.000216  -0.004030  -0.300861
    20  Cl   0.001014  -0.008647  -0.035961  -0.000000   0.000000  -0.075001
    21  Cl  -0.041286  -0.009531   0.001042   0.000008   0.000001   0.004618
    22  Cl  -0.241261   0.000226   0.000738  -0.020398   0.002476  -0.026904
              19         20         21         22
     1  C   -0.175011  -0.518611  -0.583768   0.645297
     2  C   -0.102315   0.163643   0.610887  -0.644709
     3  C    0.000694   0.019294  -0.403894  -1.190668
     4  C   -0.004620  -0.265819  -0.293074  -0.102091
     5  C    0.010397  -0.573658   0.039691   0.223900
     6  C    0.143636   0.750445   0.244070   0.012259
     7  C   -0.413779  -0.183959  -0.200337   0.117338
     8  C   -0.133595  -0.125711  -0.060263  -0.496671
     9  C    0.269068  -0.015387  -0.032623  -0.402795
    10  C   -0.845510   0.002858  -0.002477  -0.182591
    11  C   -0.867979  -0.013794  -0.023219   0.365811
    12  C    1.493964  -0.035337  -0.126993   0.248273
    13  H    0.000197   0.001014  -0.041286  -0.241261
    14  H    0.000000  -0.008647  -0.009531   0.000226
    15  H    0.005261  -0.035961   0.001042   0.000738
    16  H   -0.000216  -0.000000   0.000008  -0.020398
    17  H   -0.004030   0.000000   0.000001   0.002476
    18  Cl  -0.300861  -0.075001   0.004618  -0.026904
    19  Cl  17.405194   0.000949  -0.000019  -0.005724
    20  Cl   0.000949  17.525578  -0.017570   0.003314
    21  Cl  -0.000019  -0.017570  17.548719  -0.057479
    22  Cl  -0.005724   0.003314  -0.057479  18.085026
 Mulliken charges:
               1
     1  C   -1.520205
     2  C   -1.504585
     3  C    1.142625
     4  C   -0.353719
     5  C    1.064685
     6  C   -1.376500
     7  C   -0.941963
     8  C    0.370240
     9  C   -0.031432
    10  C   -0.699427
    11  C    0.977501
    12  C   -0.634443
    13  H    0.149385
    14  H    0.157754
    15  H    0.142470
    16  H    0.157822
    17  H    0.159483
    18  Cl   0.743522
    19  Cl   0.524297
    20  Cl   0.402362
    21  Cl   0.403498
    22  Cl   0.666632
 Sum of Mulliken charges =  -0.00000
 Mulliken charges with hydrogens summed into heavy atoms:
               1
     1  C   -1.520205
     2  C   -1.355201
     3  C    1.142625
     4  C   -0.195965
     5  C    1.064685
     6  C   -1.234030
     7  C   -0.941963
     8  C    0.370240
     9  C    0.126390
    10  C   -0.539945
    11  C    0.977501
    12  C   -0.634443
    18  Cl   0.743522
    19  Cl   0.524297
    20  Cl   0.402362
    21  Cl   0.403498
    22  Cl   0.666632
 Electronic spatial extent (au):  <R**2>=           7062.4450
 Charge=             -0.0000 electrons
 Dipole moment (field-independent basis, Debye):
    X=              2.6508    Y=             -1.9952    Z=              0.0000  Tot=              3.3178
 Quadrupole moment (field-independent basis, Debye-Ang):
   XX=           -131.5318   YY=           -130.2197   ZZ=           -135.6525
   XY=             -7.0263   XZ=              0.0000   YZ=             -0.0000
 Traceless Quadrupole moment (field-independent basis, Debye-Ang):
   XX=              0.9362   YY=              2.2483   ZZ=             -3.1845
   XY=             -7.0263   XZ=              0.0000   YZ=             -0.0000
 Octapole moment (field-independent basis, Debye-Ang**2):
  XXX=             29.0397  YYY=             -8.0072  ZZZ=             -0.0001  XYY=             25.2701
  XXY=            -19.6550  XXZ=             -0.0001  XZZ=             -0.6589  YZZ=              4.3767
  YYZ=             -0.0000  XYZ=             -0.0000
 Hexadecapole moment (field-independent basis, Debye-Ang**3):
 XXXX=          -5947.2863 YYYY=          -3065.3773 ZZZZ=           -157.7790 XXXY=            -90.6159
 XXXZ=             -0.0001 YYYX=             37.4583 YYYZ=              0.0000 ZZZX=             -0.0002
 ZZZY=              0.0001 XXYY=          -1469.3060 XXZZ=          -1072.0180 YYZZ=           -568.1361
 XXYZ=             -0.0002 YYXZ=              0.0000 ZZXY=             21.0354
 N-N= 1.730234045142D+03 E-N=-9.997172469351D+03  KE= 2.754503684727D+03
 Calling FoFJK, ICntrl=      2127 FMM=F ISym2X=0 I1Cent= 0 IOpClX= 0 NMat=1 NMatS=1 NMatT=0.
 ***** Axes restored to original set *****
 -------------------------------------------------------------------
 Center     Atomic                   Forces (Hartrees/Bohr)
 Number     Number              X              Y              Z
 -------------------------------------------------------------------
      1        6          -0.011339406   -0.017112972    0.000521750
      2        6           0.011775551    0.049347469    0.005388555
      3        6          -0.024763480   -0.000064948    0.008146362
      4        6           0.000269947    0.000489199    0.000002738
      5        6           0.012145218   -0.021655620   -0.008068374
      6        6           0.037917056    0.035321558   -0.005858452
      7        6           0.026736896    0.041490414   -0.001016229
      8        6          -0.016088867   -0.006421428    0.004094683
      9        6          -0.003143379    0.012718061    0.003424106
     10        6           0.010190521    0.015563994   -0.000434248
     11        6          -0.003092466    0.000301659    0.001075688
     12        6          -0.001493534   -0.007411360   -0.000899954
     13        1           0.004579730    0.048936078    0.007681815
     14        1           0.004845805    0.008240223   -0.000048864
     15        1           0.040673029    0.027692960   -0.008199307
     16        1           0.003909769   -0.007305883   -0.002660177
     17        1          -0.004717895   -0.006678554    0.000299999
     18       17          -0.082890923   -0.060937801    0.015864669
     19       17           0.006741563   -0.004028653   -0.002977773
     20       17           0.001793998   -0.002792654   -0.001115492
     21       17          -0.003257048    0.000177082    0.001106307
     22       17          -0.010792085   -0.105868825   -0.016327800
 -------------------------------------------------------------------
 Cartesian Forces:  Max     0.105868825 RMS     0.024050920

 GradGradGradGradGradGradGradGradGradGradGradGradGradGradGradGradGradGrad
 Berny optimization.
 FormGI is forming the generalized inverse of G from B-inverse, IUseBI=4.
 Internal  Forces:  Max     0.198155601 RMS     0.049477907
 Search for a local minimum.
 Step number   1 out of a maximum of  121
 All quantities printed in internal units (Hartrees-Bohrs-Radians)
 Mixed Optimization -- RFO/linear search
 Second derivative matrix not updated -- first step.
 ITU=  0
     Eigenvalues ---    0.00237   0.01506   0.01506   0.02070   0.02070
     Eigenvalues ---    0.02070   0.02070   0.02070   0.02070   0.02070
     Eigenvalues ---    0.02070   0.02070   0.02070   0.02070   0.02070
     Eigenvalues ---    0.02070   0.02070   0.02070   0.02070   0.16000
     Eigenvalues ---    0.16000   0.16000   0.16000   0.16000   0.22489
     Eigenvalues ---    0.23478   0.23478   0.23500   0.24492   0.25000
     Eigenvalues ---    0.25000   0.25000   0.25000   0.25000   0.25000
     Eigenvalues ---    0.25000   0.25000   0.28519   0.29539   0.29539
     Eigenvalues ---    0.29539   0.29539   0.29539   0.37230   0.37230
     Eigenvalues ---    0.37230   0.37230   0.37230   0.41540   0.41554
     Eigenvalues ---    0.41554   0.41720   0.45389   0.45389   0.45389
     Eigenvalues ---    0.45389   0.45389   0.45389   0.45389   0.45389
 RFO step:  Lambda=-3.98008979D-01 EMin= 2.36824176D-03
 Linear search not attempted -- first point.
 Maximum step size (   0.300) exceeded in Quadratic search.
    -- Step size scaled by   0.391
 Iteration  1 RMS(Cart)=  0.09807184 RMS(Int)=  0.00390303
 Iteration  2 RMS(Cart)=  0.00446647 RMS(Int)=  0.00015732
 Iteration  3 RMS(Cart)=  0.00000820 RMS(Int)=  0.00015728
 Iteration  4 RMS(Cart)=  0.00000000 RMS(Int)=  0.00015728
 Variable       Old X    -DE/DX   Delta X   Delta X   Delta X     New X
                                 (Linear)    (Quad)   (Total)
    R1        2.64826   0.03197   0.00000   0.01516   0.01530   2.66357
    R2        2.64826   0.03204   0.00000   0.01520   0.01534   2.66360
    R3        2.91018   0.14867   0.00000   0.08510   0.08510   2.99528
    R4        2.64826  -0.00907   0.00000  -0.00417  -0.00417   2.64410
    R5        2.02201  -0.04149   0.00000  -0.02106  -0.02106   2.00094
    R6        2.64826  -0.04284   0.00000  -0.02016  -0.02030   2.62797
    R7        3.32592  -0.00344   0.00000  -0.00194  -0.00194   3.32398
    R8        2.64826  -0.04280   0.00000  -0.02014  -0.02028   2.62798
    R9        2.02201   0.00956   0.00000   0.00485   0.00485   2.02686
   R10        2.64826  -0.00893   0.00000  -0.00410  -0.00410   2.64417
   R11        3.32592  -0.00349   0.00000  -0.00197  -0.00197   3.32395
   R12        2.02201  -0.04180   0.00000  -0.02122  -0.02122   2.00079
   R13        2.64826   0.13869   0.00000   0.06560   0.06591   2.71417
   R14        2.64826   0.14055   0.00000   0.06664   0.06695   2.71521
   R15        2.64826  -0.01184   0.00000  -0.00562  -0.00562   2.64264
   R16        3.32592  -0.00747   0.00000  -0.00421  -0.00421   3.32171
   R17        2.64826  -0.06365   0.00000  -0.03134  -0.03165   2.61661
   R18        2.02201   0.00870   0.00000   0.00442   0.00442   2.02643
   R19        2.64826  -0.06186   0.00000  -0.03034  -0.03065   2.61761
   R20        2.02201   0.00815   0.00000   0.00414   0.00414   2.02614
   R21        2.64826  -0.00229   0.00000  -0.00087  -0.00087   2.64739
   R22        3.32592  -0.00724   0.00000  -0.00409  -0.00409   3.32183
   R23        3.32592  -0.00952   0.00000  -0.00537  -0.00537   3.32055
    A1        2.09440  -0.10902   0.00000  -0.06479  -0.06449   2.02990
    A2        2.09440   0.05265   0.00000   0.03127   0.03113   2.12552
    A3        2.09440   0.05636   0.00000   0.03351   0.03337   2.12776
    A4        2.09440   0.04929   0.00000   0.03154   0.03169   2.12608
    A5        2.09440   0.00310   0.00000   0.00367   0.00360   2.09800
    A6        2.09440  -0.05239   0.00000  -0.03522  -0.03529   2.05911
    A7        2.09440   0.02139   0.00000   0.01193   0.01178   2.10618
    A8        2.09440  -0.01027   0.00000  -0.00571  -0.00564   2.08876
    A9        2.09440  -0.01112   0.00000  -0.00622  -0.00615   2.08825
   A10        2.09440  -0.03226   0.00000  -0.02212  -0.02241   2.07198
   A11        2.09440   0.01611   0.00000   0.01105   0.01119   2.10559
   A12        2.09440   0.01615   0.00000   0.01107   0.01122   2.10562
   A13        2.09440   0.02142   0.00000   0.01196   0.01181   2.10621
   A14        2.09440  -0.01118   0.00000  -0.00626  -0.00619   2.08820
   A15        2.09440  -0.01024   0.00000  -0.00570  -0.00562   2.08877
   A16        2.09440   0.04917   0.00000   0.03147   0.03162   2.12601
   A17        2.09440   0.00295   0.00000   0.00356   0.00348   2.09788
   A18        2.09440  -0.05211   0.00000  -0.03503  -0.03510   2.05929
   A19        2.09440   0.06912   0.00000   0.03902   0.03869   2.13308
   A20        2.09440   0.07117   0.00000   0.04026   0.03992   2.13432
   A21        2.09440  -0.14030   0.00000  -0.07928  -0.07861   2.01578
   A22        2.09440   0.03910   0.00000   0.02589   0.02620   2.12060
   A23        2.09440   0.15906   0.00000   0.09484   0.09468   2.18908
   A24        2.09440  -0.19816   0.00000  -0.12073  -0.12088   1.97351
   A25        2.09440   0.03921   0.00000   0.02150   0.02118   2.11557
   A26        2.09440  -0.01964   0.00000  -0.01078  -0.01062   2.08378
   A27        2.09440  -0.01957   0.00000  -0.01072  -0.01056   2.08383
   A28        2.09440  -0.01136   0.00000  -0.01297  -0.01362   2.08078
   A29        2.09440   0.00644   0.00000   0.00702   0.00734   2.10173
   A30        2.09440   0.00493   0.00000   0.00596   0.00628   2.10068
   A31        2.09440   0.04004   0.00000   0.02174   0.02142   2.11581
   A32        2.09440  -0.02709   0.00000  -0.01514  -0.01497   2.07942
   A33        2.09440  -0.01295   0.00000  -0.00661  -0.00644   2.08795
   A34        2.09440   0.03331   0.00000   0.02313   0.02344   2.11783
   A35        2.09440   0.15573   0.00000   0.09246   0.09231   2.18670
   A36        2.09440  -0.18904   0.00000  -0.11559  -0.11575   1.97865
    D1        0.00000   0.00000   0.00000   0.00000   0.00000   0.00000
    D2        3.14159  -0.00000   0.00000   0.00000   0.00000   3.14159
    D3       -3.14159  -0.00000   0.00000  -0.00000  -0.00000  -3.14159
    D4       -0.00000  -0.00000   0.00000  -0.00000  -0.00000  -0.00000
    D5       -0.00000  -0.00000   0.00000  -0.00000  -0.00000  -0.00000
    D6        3.14159  -0.00000   0.00000  -0.00000  -0.00000   3.14159
    D7        3.14159   0.00000   0.00000   0.00000   0.00000   3.14159
    D8        0.00000  -0.00000   0.00000  -0.00000  -0.00000  -0.00000
    D9       -0.00000  -0.00000   0.00000  -0.00000  -0.00000  -0.00000
   D10        3.14159  -0.00000   0.00000  -0.00000  -0.00000   3.14159
   D11        3.14159  -0.00000   0.00000  -0.00000  -0.00000   3.14159
   D12       -0.00000  -0.00000   0.00000  -0.00000  -0.00000  -0.00000
   D13        0.00000  -0.00000   0.00000  -0.00000  -0.00000   0.00000
   D14        3.14159  -0.00000   0.00000  -0.00000  -0.00000   3.14159
   D15       -3.14159  -0.00000   0.00000  -0.00000  -0.00000  -3.14159
   D16        0.00000  -0.00000   0.00000  -0.00000  -0.00000   0.00000
   D17       -0.00000  -0.00000   0.00000   0.00000   0.00000  -0.00000
   D18        3.14159   0.00000   0.00000   0.00000   0.00000   3.14159
   D19        3.14159  -0.00000   0.00000  -0.00000  -0.00000   3.14159
   D20        0.00000  -0.00000   0.00000  -0.00000  -0.00000   0.00000
   D21        0.00000   0.00000   0.00000   0.00000   0.00000   0.00000
   D22       -3.14159   0.00000   0.00000   0.00000   0.00000  -3.14159
   D23       -3.14159  -0.00000   0.00000  -0.00000  -0.00000  -3.14159
   D24        0.00000   0.00000   0.00000   0.00000   0.00000   0.00000
   D25       -0.00000   0.00000   0.00000   0.00000   0.00000  -0.00000
   D26        3.14159   0.00000   0.00000   0.00000   0.00000   3.14159
   D27        3.14159  -0.00000   0.00000  -0.00000  -0.00000   3.14159
   D28       -0.00000   0.00000   0.00000   0.00000   0.00000  -0.00000
   D29        3.14159   0.00000   0.00000   0.00000   0.00000   3.14159
   D30        0.00000   0.00000   0.00000   0.00000   0.00000   0.00000
   D31        0.00000   0.00000   0.00000   0.00000   0.00000   0.00000
   D32       -3.14159  -0.00000   0.00000  -0.00000  -0.00000  -3.14159
   D33       -3.14159  -0.00000   0.00000  -0.00000  -0.00000  -3.14159
   D34        0.00000  -0.00000   0.00000  -0.00000  -0.00000  -0.00000
   D35       -0.00000   0.00000   0.00000   0.00000   0.00000  -0.00000
   D36        3.14159  -0.00000   0.00000  -0.00000  -0.00000   3.14159
   D37       -0.00000  -0.00000   0.00000  -0.00000  -0.00000  -0.00000
   D38        3.14159  -0.00000   0.00000  -0.00000  -0.00000   3.14159
   D39        3.14159   0.00000   0.00000   0.00000   0.00000   3.14159
   D40       -0.00000   0.00000   0.00000   0.00000   0.00000  -0.00000
   D41       -0.00000   0.00000   0.00000   0.00000   0.00000  -0.00000
   D42       -3.14159  -0.00000   0.00000  -0.00000  -0.00000  -3.14159
   D43        3.14159   0.00000   0.00000   0.00000   0.00000   3.14159
   D44        0.00000   0.00000   0.00000   0.00000   0.00000   0.00000
   D45        0.00000   0.00000   0.00000   0.00000   0.00000   0.00000
   D46       -3.14159  -0.00000   0.00000  -0.00000  -0.00000  -3.14159
   D47        3.14159   0.00000   0.00000   0.00000   0.00000   3.14159
   D48        0.00000  -0.00000   0.00000  -0.00000  -0.00000   0.00000
   D49        0.00000  -0.00000   0.00000  -0.00000  -0.00000   0.00000
   D50       -3.14159   0.00000   0.00000   0.00000   0.00000  -3.14159
   D51        3.14159   0.00000   0.00000   0.00000   0.00000   3.14159
   D52       -0.00000   0.00000   0.00000   0.00000   0.00000  -0.00000
         Item               Value     Threshold  Converged?
 Maximum Force            0.198156     0.000450     NO 
 RMS     Force            0.049478     0.000300     NO 
 Maximum Displacement     0.535252     0.001800     NO 
 RMS     Displacement     0.099472     0.001200     NO 
 Predicted change in Energy=-1.430985D-01
 GradGradGradGradGradGradGradGradGradGradGradGradGradGradGradGradGradGrad

                          Input orientation:                          
 ---------------------------------------------------------------------
 Center     Atomic      Atomic             Coordinates (Angstroms)
 Number     Number       Type             X           Y           Z
 ---------------------------------------------------------------------
      1          6           0       -0.139253   -0.938408   -0.002251
      2          6           0        1.201683   -0.865874   -0.430406
      3          6           0        1.909652    0.340975   -0.436992
      4          6           0        1.305010    1.520520   -0.016259
      5          6           0       -0.017567    1.477763    0.411437
      6          6           0       -0.726891    0.271671    0.418612
      7          6           0       -0.940534   -2.305969    0.004895
      8          6           0       -0.348285   -3.542690   -0.422493
      9          6           0       -1.069249   -4.740876   -0.409997
     10          6           0       -2.386049   -4.781576    0.016189
     11          6           0       -2.996987   -3.611848    0.437153
     12          6           0       -2.307481   -2.392338    0.439026
     13          1           0        1.703713   -1.738089   -0.759611
     14          1           0        1.848224    2.445341   -0.021534
     15          1           0       -1.731459    0.288013    0.752640
     16          1           0       -0.593529   -5.644760   -0.736485
     17          1           0       -2.926903   -5.707345    0.020511
     18         17           0       -3.277732   -1.043999    1.011916
     19         17           0       -4.668749   -3.665861    0.977789
     20         17           0       -0.806384    2.955242    0.948798
     21         17           0        3.581556    0.366901   -0.982938
     22         17           0        1.299903   -3.736441   -1.001886
 ---------------------------------------------------------------------
                    Distance matrix (angstroms):
                    1          2          3          4          5
     1  C    0.000000
     2  C    1.409498   0.000000
     3  C    2.454350   1.399196   0.000000
     4  C    2.851739   2.424267   1.390660   0.000000
     5  C    2.454348   2.772706   2.392967   1.390669   0.000000
     6  C    1.409516   2.394626   2.772764   2.424327   1.399232
     7  C    1.585032   2.617719   3.914734   4.436771   3.915836
     8  C    2.646240   3.093188   4.492366   5.341770   5.099977
     9  C    3.935723   4.491458   5.890653   6.707997   6.360210
    10  C    4.451784   5.329540   6.700669   7.303519   6.704123
    11  C    3.937893   5.091351   6.361136   6.712225   5.897605
    12  C    2.647612   3.924313   5.101237   5.344888   4.496904
    13  H    2.147000   1.058854   2.114002   3.366017   3.830909
    14  H    3.924308   3.398431   2.145864   1.072568   2.145890
    15  H    2.146878   3.366655   3.830890   3.366069   2.114084
    16  H    4.784895   5.114120   6.494970   7.447444   7.237388
    17  H    5.523973   6.378745   7.757819   8.375707   7.761626
    18  Cl   3.299960   4.709265   5.561155   5.351208   4.165157
    19  Cl   5.377343   6.654691   7.831456   7.973235   6.957810
    20  Cl   4.063258   4.531607   4.016424   2.729056   1.758958
    21  Cl   4.063250   2.736572   1.758975   2.729096   4.016464
    22  Cl   3.301428   2.928548   4.161276   5.348563   5.560677
                    6          7          8          9         10
     6  C    0.000000
     7  C    2.619357   0.000000
     8  C    3.924303   1.436279   0.000000
     9  C    5.092095   2.473353   1.398426   0.000000
    10  C    5.333860   2.866753   2.424822   1.384649   0.000000
    11  C    4.498377   2.474099   2.785569   2.389255   1.385179
    12  C    3.097680   1.436827   2.429809   2.787417   2.427638
    13  H    3.366776   2.810516   2.753349   4.102228   5.156630
    14  H    3.398498   5.509339   6.390770   7.765582   8.376086
    15  H    1.058772   2.813081   4.238914   5.203842   5.164454
    16  H    6.029609   3.437670   2.139493   1.072338   2.127141
    17  H    6.383351   3.938942   3.395770   2.137821   1.072189
    18  Cl   2.930834   2.840627   4.108850   4.534991   3.969390
    19  Cl   5.599561   4.086003   4.543387   4.004748   2.716655
    20  Cl   2.736599   5.346896   6.656833   7.819569   7.951318
    21  Cl   4.531680   5.345030   5.571594   6.931641   7.944645
    22  Cl   4.710697   2.842430   1.757771   2.640474   3.964218
                   11         12         13         14         15
    11  C    0.000000
    12  C    1.400938   0.000000
    13  H    5.199980   4.237269   0.000000
    14  H    7.770199   6.394148   4.250498   0.000000
    15  H    4.112178   2.759426   4.265255   4.250593   0.000000
    16  H    3.359578   3.859754   4.532100   8.480745   6.221749
    17  H    2.137665   3.398251   6.148674   9.448274   6.157062
    18  Cl   2.646322   1.757160   5.332435   6.286409   2.057289
    19  Cl   1.757838   2.736369   6.880635   8.989792   4.930668
    20  Cl   6.941700   5.577613   5.589867   2.872018   2.829904
    21  Cl   7.818205   6.657037   2.829692   2.872046   5.589864
    22  Cl   4.533168   4.110481   2.053087   6.283006   5.335142
                   16         17         18         19         20
    16  H    0.000000
    17  H    2.453893   0.000000
    18  Cl   5.606144   4.780457   0.000000
    19  Cl   4.843778   2.849222   2.968207   0.000000
    20  Cl   8.766158   8.966534   4.701646   7.665358   0.000000
    21  Cl   7.323397   8.958985   7.281478   9.390163   5.448407
    22  Cl   2.701334   4.774479   5.679734   6.288791   7.281499
                   21         22
    21  Cl   0.000000
    22  Cl   4.695074   0.000000
 Stoichiometry    C12H5Cl5
 Framework group  C1[X(C12H5Cl5)]
 Deg. of freedom    60
 Full point group                 C1      NOp   1
 Largest Abelian subgroup         C1      NOp   1
 Largest concise Abelian subgroup C1      NOp   1
                         Standard orientation:                         
 ---------------------------------------------------------------------
 Center     Atomic      Atomic             Coordinates (Angstroms)
 Number     Number       Type             X           Y           Z
 ---------------------------------------------------------------------
      1          6           0       -0.649754   -0.084686    0.000002
      2          6           0       -1.706924   -1.016929   -0.000000
      3          6           0       -3.046559   -0.613040   -0.000002
      4          6           0       -3.380578    0.736910   -0.000003
      5          6           0       -2.357132    1.678461    0.000002
      6          6           0       -1.016984    1.276151    0.000004
      7          6           0        0.867549   -0.543072    0.000003
      8          6           0        1.249128   -1.927736    0.000004
      9          6           0        2.592744   -2.315409    0.000005
     10          6           0        3.610470   -1.376533    0.000003
     11          6           0        3.287752   -0.029473    0.000001
     12          6           0        1.953537    0.397727    0.000001
     13          1           0       -1.501250   -2.055616   -0.000002
     14          1           0       -4.407673    1.045906   -0.000004
     15          1           0       -0.272269    2.028745    0.000006
     16          1           0        2.839387   -3.358997    0.000006
     17          1           0        4.636424   -1.687994    0.000002
     18         17           0        1.781650    2.146459   -0.000004
     19         17           0        4.581387    1.160696   -0.000005
     20         17           0       -2.751860    3.392557    0.000005
     21         17           0       -4.321516   -1.824848   -0.000006
     22         17           0        0.138921   -3.290527    0.000002
 ---------------------------------------------------------------------
 Rotational constants (GHZ):           0.3763421           0.1926174           0.1274081
 Standard basis: 6-311+G(d,p) (5D, 7F)
 There are   461 symmetry adapted cartesian basis functions of A   symmetry.
 There are   444 symmetry adapted basis functions of A   symmetry.
   444 basis functions,   737 primitive gaussians,   461 cartesian basis functions
    81 alpha electrons       81 beta electrons
       nuclear repulsion energy      1701.4684052602 Hartrees.
 NAtoms=   22 NActive=   22 NUniq=   22 SFac= 1.00D+00 NAtFMM=   60 NAOKFM=F Big=F
 Integral buffers will be    131072 words long.
 Raffenetti 2 integral format.
 Two-electron integral symmetry is turned on.
 One-electron integrals computed using PRISM.
 NBasis=   444 RedAO= T EigKep=  1.05D-06  NBF=   444
 NBsUse=   439 1.00D-06 EigRej=  4.69D-07 NBFU=   439
 Initial guess from the checkpoint file:  "/scratch/pkc/Gau-79319.chk"
 B after Tr=    -0.000000    0.000000   -0.000000
         Rot=    0.999908   -0.000000    0.000000   -0.013572 Ang=  -1.56 deg.
 ExpMin= 4.38D-02 ExpMax= 1.06D+05 ExpMxC= 3.62D+03 IAcc=3 IRadAn=         5 AccDes= 0.00D+00
 Harris functional with IExCor=  402 and IRadAn=       5 diagonalized for initial guess.
 HarFok:  IExCor=  402 AccDes= 0.00D+00 IRadAn=         5 IDoV= 1 UseB2=F ITyADJ=14
 ICtDFT=  3500011 ScaDFX=  1.000000  1.000000  1.000000  1.000000
 FoFCou: FMM=F IPFlag=           0 FMFlag=      100000 FMFlg1=           0
         NFxFlg=           0 DoJE=T BraDBF=F KetDBF=T FulRan=T
         wScrn=  0.000000 ICntrl=       500 IOpCl=  0 I1Cent=   200000004 NGrid=           0
         NMat0=    1 NMatS0=      1 NMatT0=    0 NMatD0=    1 NMtDS0=    0 NMtDT0=    0
 Petite list used in FoFCou.
 Requested convergence on RMS density matrix=1.00D-08 within  32 cycles.
 Requested convergence on MAX density matrix=1.00D-06.
 Requested convergence on             energy=1.00D-06.
 No special actions if energy rises.
 SCF Done:  E(RB3LYP) =  -2761.47806238     A.U. after   16 cycles
            NFock= 16  Conv=0.81D-08     -V/T= 2.0027
 QCSCF skips out because SCF is already converged.
 Calling FoFJK, ICntrl=      2127 FMM=F ISym2X=0 I1Cent= 0 IOpClX= 0 NMat=1 NMatS=1 NMatT=0.
 ***** Axes restored to original set *****
 -------------------------------------------------------------------
 Center     Atomic                   Forces (Hartrees/Bohr)
 Number     Number              X              Y              Z
 -------------------------------------------------------------------
      1        6          -0.010585133   -0.016164292    0.000451425
      2        6           0.000708368    0.012485374    0.002111637
      3        6          -0.015080676   -0.005444555    0.003945972
      4        6           0.001615978    0.002765834   -0.000013141
      5        6           0.002627348   -0.015822658   -0.003837188
      6        6           0.010903194    0.007130875   -0.002252904
      7        6           0.017216768    0.024529093   -0.001065221
      8        6          -0.016685182    0.005712000    0.006569901
      9        6          -0.001601690    0.009620668    0.002334446
     10        6           0.004155926    0.005604111   -0.000316662
     11        6          -0.004179407    0.002473961    0.001841748
     12        6           0.008193352   -0.003451204   -0.003347586
     13        1           0.006339463    0.001390592   -0.001827440
     14        1           0.003500624    0.005940040   -0.000037689
     15        1          -0.002006713    0.005947316    0.001777976
     16        1           0.003914651   -0.004999348   -0.002228599
     17        1          -0.003821636   -0.005501395    0.000225799
     18       17          -0.004409823   -0.004794752    0.000552392
     19       17           0.002998875   -0.008607860   -0.002604729
     20       17           0.001348089   -0.002966584   -0.001001246
     21       17          -0.003187652   -0.000277385    0.000998091
     22       17          -0.001964723   -0.015569830   -0.002276982
 -------------------------------------------------------------------
 Cartesian Forces:  Max     0.024529093 RMS     0.007195075

 GradGradGradGradGradGradGradGradGradGradGradGradGradGradGradGradGradGrad
 Berny optimization.
 Using GEDIIS/GDIIS optimizer.
 FormGI is forming the generalized inverse of G from B-inverse, IUseBI=4.
 Internal  Forces:  Max     0.031906077 RMS     0.006609885
 Search for a local minimum.
 Step number   2 out of a maximum of  121
 All quantities printed in internal units (Hartrees-Bohrs-Radians)
 Mixed Optimization -- RFO/linear search
 Update second derivatives using D2CorX and points    1    2
 DE= -7.48D-02 DEPred=-1.43D-01 R= 5.23D-01
 TightC=F SS=  1.41D+00  RLast= 3.00D-01 DXNew= 5.0454D-01 8.9996D-01
 Trust test= 5.23D-01 RLast= 3.00D-01 DXMaxT set to 5.05D-01
 ITU=  1  0
 Use linear search instead of GDIIS.
     Eigenvalues ---    0.00237   0.01461   0.01468   0.02070   0.02070
     Eigenvalues ---    0.02070   0.02070   0.02070   0.02070   0.02070
     Eigenvalues ---    0.02070   0.02070   0.02070   0.02070   0.02070
     Eigenvalues ---    0.02070   0.02070   0.02070   0.02070   0.16000
     Eigenvalues ---    0.16000   0.16000   0.16000   0.16082   0.22521
     Eigenvalues ---    0.23471   0.23478   0.23662   0.24492   0.24904
     Eigenvalues ---    0.25000   0.25000   0.25000   0.25000   0.25000
     Eigenvalues ---    0.25000   0.27885   0.29534   0.29536   0.29539
     Eigenvalues ---    0.29539   0.29539   0.36231   0.37204   0.37230
     Eigenvalues ---    0.37230   0.37230   0.38180   0.41384   0.41518
     Eigenvalues ---    0.41714   0.45068   0.45343   0.45389   0.45389
     Eigenvalues ---    0.45389   0.45389   0.45389   0.45389   1.59883
 RFO step:  Lambda=-1.12998327D-02 EMin= 2.36824176D-03
 Quartic linear search produced a step of  0.23045.
 Iteration  1 RMS(Cart)=  0.03928908 RMS(Int)=  0.00130107
 Iteration  2 RMS(Cart)=  0.00139142 RMS(Int)=  0.00007157
 Iteration  3 RMS(Cart)=  0.00000043 RMS(Int)=  0.00007157
 Variable       Old X    -DE/DX   Delta X   Delta X   Delta X     New X
                                 (Linear)    (Quad)   (Total)
    R1        2.66357   0.00190   0.00353  -0.00453  -0.00102   2.66254
    R2        2.66360   0.00189   0.00353  -0.00456  -0.00105   2.66255
    R3        2.99528  -0.00626   0.01961  -0.08565  -0.06604   2.92924
    R4        2.64410  -0.00917  -0.00096  -0.02156  -0.02252   2.62158
    R5        2.00094   0.00243  -0.00485   0.02183   0.01698   2.01792
    R6        2.62797  -0.00865  -0.00468  -0.01011  -0.01477   2.61319
    R7        3.32398  -0.00334  -0.00045  -0.01206  -0.01251   3.31148
    R8        2.62798  -0.00864  -0.00467  -0.01008  -0.01474   2.61325
    R9        2.02686   0.00689   0.00112   0.01887   0.01999   2.04685
   R10        2.64417  -0.00910  -0.00094  -0.02142  -0.02236   2.62181
   R11        3.32395  -0.00340  -0.00045  -0.01227  -0.01273   3.31122
   R12        2.00079   0.00256  -0.00489   0.02234   0.01745   2.01824
   R13        2.71417   0.00652   0.01519  -0.02458  -0.00921   2.70496
   R14        2.71521   0.00986   0.01543  -0.01480   0.00073   2.71594
   R15        2.64264  -0.00798  -0.00130  -0.01901  -0.02024   2.62240
   R16        3.32171   0.00062  -0.00097   0.00544   0.00447   3.32617
   R17        2.61661  -0.01304  -0.00729  -0.01639  -0.02378   2.59282
   R18        2.02643   0.00663   0.00102   0.01831   0.01933   2.04575
   R19        2.61761  -0.01029  -0.00706  -0.00818  -0.01542   2.60219
   R20        2.02614   0.00668   0.00095   0.01866   0.01961   2.04575
   R21        2.64739   0.00811  -0.00020   0.02356   0.02328   2.67067
   R22        3.32183  -0.00339  -0.00094  -0.01074  -0.01168   3.31015
   R23        3.32055  -0.00106  -0.00124  -0.00053  -0.00177   3.31878
    A1        2.02990  -0.01238  -0.01486  -0.01004  -0.02495   2.00496
    A2        2.12552   0.00581   0.00717   0.00405   0.01124   2.13676
    A3        2.12776   0.00657   0.00769   0.00600   0.01370   2.14147
    A4        2.12608   0.00327   0.00730  -0.00493   0.00235   2.12844
    A5        2.09800   0.00466   0.00083   0.03184   0.03268   2.13068
    A6        2.05911  -0.00793  -0.00813  -0.02691  -0.03503   2.02407
    A7        2.10618   0.00846   0.00272   0.03131   0.03404   2.14022
    A8        2.08876  -0.00462  -0.00130  -0.01766  -0.01896   2.06979
    A9        2.08825  -0.00384  -0.00142  -0.01365  -0.01508   2.07317
   A10        2.07198  -0.01105  -0.00516  -0.04265  -0.04777   2.02421
   A11        2.10559   0.00551   0.00258   0.02125   0.02381   2.12940
   A12        2.10562   0.00553   0.00259   0.02139   0.02396   2.12958
   A13        2.10621   0.00845   0.00272   0.03127   0.03401   2.14022
   A14        2.08820  -0.00387  -0.00143  -0.01378  -0.01521   2.07299
   A15        2.08877  -0.00458  -0.00130  -0.01749  -0.01880   2.06998
   A16        2.12601   0.00325   0.00729  -0.00495   0.00231   2.12833
   A17        2.09788   0.00438   0.00080   0.02991   0.03072   2.12860
   A18        2.05929  -0.00763  -0.00809  -0.02495  -0.03303   2.02626
   A19        2.13308   0.01086   0.00892   0.02045   0.02921   2.16230
   A20        2.13432   0.00919   0.00920   0.01174   0.02079   2.15511
   A21        2.01578  -0.02005  -0.01812  -0.03219  -0.05000   1.96578
   A22        2.12060   0.01118   0.00604   0.03233   0.03861   2.15921
   A23        2.18908   0.02073   0.02182   0.02990   0.05159   2.24067
   A24        1.97351  -0.03191  -0.02786  -0.06222  -0.09020   1.88331
   A25        2.11557   0.00485   0.00488   0.00248   0.00732   2.12289
   A26        2.08378  -0.00360  -0.00245  -0.00963  -0.01206   2.07172
   A27        2.08383  -0.00125  -0.00243   0.00715   0.00474   2.08857
   A28        2.08078  -0.00356  -0.00314  -0.01466  -0.01810   2.06268
   A29        2.10173   0.00235   0.00169   0.01099   0.01283   2.11456
   A30        2.10068   0.00121   0.00145   0.00368   0.00527   2.10595
   A31        2.11581   0.00236   0.00494  -0.00273   0.00195   2.11776
   A32        2.07942  -0.01588  -0.00345  -0.06477  -0.06809   2.01133
   A33        2.08795   0.01353  -0.00148   0.06750   0.06614   2.15410
   A34        2.11783   0.00523   0.00540   0.01478   0.02022   2.13805
   A35        2.18670   0.00809   0.02127  -0.03208  -0.01083   2.17588
   A36        1.97865  -0.01332  -0.02667   0.01730  -0.00939   1.96926
    D1        0.00000  -0.00000   0.00000  -0.00000  -0.00000   0.00000
    D2        3.14159   0.00000   0.00000   0.00000   0.00000   3.14159
    D3       -3.14159  -0.00000  -0.00000  -0.00000  -0.00000   3.14159
    D4       -0.00000  -0.00000  -0.00000   0.00000   0.00000  -0.00000
    D5       -0.00000   0.00000  -0.00000   0.00000   0.00000  -0.00000
    D6        3.14159  -0.00000  -0.00000  -0.00000  -0.00000   3.14159
    D7        3.14159   0.00000   0.00000   0.00000   0.00000  -3.14159
    D8       -0.00000  -0.00000  -0.00000  -0.00000  -0.00000  -0.00000
    D9       -0.00000  -0.00000  -0.00000  -0.00001  -0.00001  -0.00002
   D10        3.14159  -0.00000  -0.00000  -0.00001  -0.00001   3.14158
   D11        3.14159  -0.00000  -0.00000  -0.00001  -0.00001   3.14158
   D12       -0.00000  -0.00000  -0.00000  -0.00001  -0.00001  -0.00001
   D13        0.00000  -0.00000  -0.00000  -0.00000  -0.00000  -0.00000
   D14        3.14159   0.00000  -0.00000   0.00000   0.00000   3.14159
   D15       -3.14159  -0.00000  -0.00000  -0.00000  -0.00000  -3.14159
   D16        0.00000  -0.00000  -0.00000  -0.00000  -0.00000   0.00000
   D17       -0.00000   0.00000   0.00000   0.00000   0.00000  -0.00000
   D18        3.14159   0.00000   0.00000   0.00000   0.00000  -3.14159
   D19        3.14159   0.00000  -0.00000   0.00000   0.00000   3.14159
   D20        0.00000  -0.00000  -0.00000  -0.00000  -0.00000  -0.00000
   D21        0.00000  -0.00000   0.00000  -0.00000  -0.00000   0.00000
   D22       -3.14159  -0.00000   0.00000  -0.00000  -0.00000  -3.14159
   D23       -3.14159  -0.00000  -0.00000  -0.00000  -0.00000  -3.14159
   D24        0.00000   0.00000   0.00000   0.00000   0.00000   0.00000
   D25       -0.00000   0.00000   0.00000   0.00000   0.00000  -0.00000
   D26        3.14159   0.00000   0.00000   0.00000   0.00000  -3.14159
   D27        3.14159   0.00000  -0.00000   0.00000   0.00000   3.14159
   D28       -0.00000   0.00000   0.00000   0.00000   0.00000   0.00000
   D29        3.14159   0.00000   0.00000   0.00000   0.00000  -3.14159
   D30        0.00000  -0.00000   0.00000  -0.00000  -0.00000   0.00000
   D31        0.00000   0.00000   0.00000   0.00000   0.00000   0.00000
   D32       -3.14159  -0.00000  -0.00000  -0.00000  -0.00000   3.14159
   D33       -3.14159  -0.00000  -0.00000  -0.00000  -0.00000   3.14159
   D34       -0.00000  -0.00000  -0.00000  -0.00000  -0.00000  -0.00000
   D35       -0.00000   0.00000   0.00000   0.00000   0.00000  -0.00000
   D36        3.14159  -0.00000  -0.00000   0.00000   0.00000   3.14159
   D37       -0.00000  -0.00000  -0.00000  -0.00000  -0.00000  -0.00000
   D38        3.14159  -0.00000  -0.00000  -0.00000  -0.00000   3.14159
   D39        3.14159   0.00000   0.00000   0.00000   0.00000  -3.14159
   D40       -0.00000   0.00000   0.00000   0.00000   0.00000   0.00000
   D41       -0.00000   0.00000   0.00000   0.00000   0.00000  -0.00000
   D42       -3.14159  -0.00000  -0.00000  -0.00000  -0.00000  -3.14159
   D43        3.14159   0.00000   0.00000   0.00000   0.00000  -3.14159
   D44        0.00000  -0.00000   0.00000  -0.00000  -0.00000   0.00000
   D45        0.00000   0.00000   0.00000   0.00000   0.00000   0.00000
   D46       -3.14159  -0.00000  -0.00000  -0.00000  -0.00000  -3.14159
   D47        3.14159   0.00000   0.00000   0.00000   0.00000  -3.14159
   D48        0.00000  -0.00000  -0.00000  -0.00000  -0.00000   0.00000
   D49        0.00000  -0.00000  -0.00000  -0.00000  -0.00000  -0.00000
   D50       -3.14159  -0.00000   0.00000  -0.00000  -0.00000  -3.14159
   D51        3.14159   0.00000   0.00000   0.00000   0.00000   3.14159
   D52       -0.00000   0.00000   0.00000   0.00000   0.00000   0.00000
         Item               Value     Threshold  Converged?
 Maximum Force            0.031906     0.000450     NO 
 RMS     Force            0.006610     0.000300     NO 
 Maximum Displacement     0.233419     0.001800     NO 
 RMS     Displacement     0.039540     0.001200     NO 
 Predicted change in Energy=-4.480051D-03
 GradGradGradGradGradGradGradGradGradGradGradGradGradGradGradGradGradGrad

                          Input orientation:                          
 ---------------------------------------------------------------------
 Center     Atomic      Atomic             Coordinates (Angstroms)
 Number     Number       Type             X           Y           Z
 ---------------------------------------------------------------------
      1          6           0       -0.144796   -0.935989    0.000033
      2          6           0        1.195634   -0.849853   -0.425394
      3          6           0        1.889182    0.351615   -0.428242
      4          6           0        1.319217    1.542465   -0.016821
      5          6           0        0.003611    1.471087    0.403198
      6          6           0       -0.713942    0.283730    0.416605
      7          6           0       -0.930157   -2.272371    0.007791
[...]
                 (A) (A) (A) (A) (A) (A) (A) (A) (A) (A) (A) (A)
                 (A) (A) (A) (A) (A) (A) (A) (A) (A)
       Virtual   (A) (A) (A) (A) (A) (A) (A) (A) (A) (A) (A) (A)
                 (A) (A) (A) (A) (A) (A) (A) (A) (A) (A) (A) (A)
                 (A) (A) (A) (A) (A) (A) (A) (A) (A) (A) (A) (A)
                 (A) (A) (A) (A) (A) (A) (A) (A) (A) (A) (A) (A)
                 (A) (A) (A) (A) (A) (A) (A) (A) (A) (A) (A) (A)
                 (A) (A) (A) (A) (A) (A) (A) (A) (A) (A) (A) (A)
                 (A) (A) (A) (A) (A) (A) (A) (A) (A) (A) (A) (A)
                 (A) (A) (A) (A) (A) (A) (A) (A) (A) (A) (A) (A)
                 (A) (A) (A) (A) (A) (A) (A) (A) (A) (A) (A) (A)
                 (A) (A) (A) (A) (A) (A) (A) (A) (A) (A) (A) (A)
                 (A) (A) (A) (A) (A) (A) (A) (A) (A) (A) (A) (A)
                 (A) (A) (A) (A) (A) (A) (A) (A) (A) (A) (A) (A)
                 (A) (A) (A) (A) (A) (A) (A) (A) (A) (A) (A) (A)
                 (A) (A) (A) (A) (A) (A) (A) (A) (A) (A) (A) (A)
                 (A) (A) (A) (A) (A) (A) (A) (A) (A) (A) (A) (A)
                 (A) (A) (A) (A) (A) (A) (A) (A) (A) (A) (A) (A)
                 (A) (A) (A) (A) (A) (A) (A) (A) (A) (A) (A) (A)
                 (A) (A) (A) (A) (A) (A) (A) (A) (A) (A) (A) (A)
                 (A) (A) (A) (A) (A) (A) (A) (A) (A) (A) (A) (A)
                 (A) (A) (A) (A) (A) (A) (A) (A) (A) (A) (A) (A)
                 (A) (A) (A) (A) (A) (A) (A) (A) (A) (A) (A) (A)
                 (A) (A) (A) (A) (A) (A) (A) (A) (A) (A) (A) (A)
                 (A) (A) (A) (A) (A) (A) (A) (A) (A) (A) (A) (A)
                 (A) (A) (A) (A) (A) (A) (A) (A) (A) (A) (A) (A)
                 (A) (A) (A) (A) (A) (A) (A) (A) (A) (A) (A) (A)
                 (A) (A) (A) (A) (A) (A) (A) (A) (A) (A) (A) (A)
                 (A) (A) (A) (A) (A) (A) (A) (A) (A) (A) (A) (A)
                 (A) (A) (A) (A) (A) (A) (A) (A) (A) (A) (A) (A)
                 (A) (A) (A) (A) (A) (A) (A) (A) (A) (A) (A) (A)
                 (A) (A) (A) (A) (A) (A) (A) (A) (A) (A) (A) (A)
 The electronic state is 1-A.
 Alpha  occ. eigenvalues -- -101.57622-101.57588-101.57421-101.56842-101.56842
 Alpha  occ. eigenvalues --  -10.27682 -10.27108 -10.27021 -10.26215 -10.26214
 Alpha  occ. eigenvalues --  -10.23789 -10.22641 -10.22068 -10.21779 -10.21202
 Alpha  occ. eigenvalues --  -10.20871 -10.20870  -9.49094  -9.49047  -9.48888
 Alpha  occ. eigenvalues --   -9.48298  -9.48298  -7.25582  -7.25533  -7.25361
 Alpha  occ. eigenvalues --   -7.24766  -7.24766  -7.24580  -7.24526  -7.24500
 Alpha  occ. eigenvalues --   -7.24468  -7.24371  -7.24317  -7.23778  -7.23778
 Alpha  occ. eigenvalues --   -7.23741  -7.23741  -0.95003  -0.92627  -0.90610
 Alpha  occ. eigenvalues --   -0.88894  -0.88330  -0.85128  -0.84367  -0.79967
 Alpha  occ. eigenvalues --   -0.76177  -0.75629  -0.74565  -0.67453  -0.63128
 Alpha  occ. eigenvalues --   -0.62510  -0.61400  -0.55067  -0.53464  -0.53388
 Alpha  occ. eigenvalues --   -0.51696  -0.49682  -0.47841  -0.46553  -0.46226
 Alpha  occ. eigenvalues --   -0.45730  -0.44598  -0.43192  -0.42667  -0.41353
 Alpha  occ. eigenvalues --   -0.39986  -0.39647  -0.39361  -0.37778  -0.36755
 Alpha  occ. eigenvalues --   -0.35032  -0.34467  -0.33577  -0.33527  -0.33336
 Alpha  occ. eigenvalues --   -0.32870  -0.32361  -0.28617  -0.27793  -0.26771
 Alpha  occ. eigenvalues --   -0.26574
 Alpha virt. eigenvalues --   -0.05805  -0.05646  -0.05044  -0.04187  -0.03304
 Alpha virt. eigenvalues --   -0.01295  -0.00579  -0.00035   0.00922   0.01701
 Alpha virt. eigenvalues --    0.02044   0.02112   0.02208   0.02612   0.04200
 Alpha virt. eigenvalues --    0.04818   0.04827   0.05119   0.06163   0.06264
 Alpha virt. eigenvalues --    0.06384   0.06784   0.07613   0.08115   0.08503
 Alpha virt. eigenvalues --    0.08638   0.09343   0.09397   0.09837   0.10654
 Alpha virt. eigenvalues --    0.10705   0.10956   0.11368   0.11962   0.12046
 Alpha virt. eigenvalues --    0.12304   0.12629   0.12667   0.13100   0.13645
 Alpha virt. eigenvalues --    0.14095   0.14490   0.14766   0.15209   0.15455
 Alpha virt. eigenvalues --    0.15790   0.16711   0.16959   0.17213   0.17599
 Alpha virt. eigenvalues --    0.17917   0.18780   0.18996   0.19216   0.19462
 Alpha virt. eigenvalues --    0.19898   0.20117   0.20598   0.21110   0.21238
 Alpha virt. eigenvalues --    0.21450   0.22262   0.22367   0.22558   0.22956
 Alpha virt. eigenvalues --    0.23035   0.23426   0.23924   0.24075   0.24871
 Alpha virt. eigenvalues --    0.25491   0.25751   0.26303   0.26988   0.27282
 Alpha virt. eigenvalues --    0.27530   0.28080   0.28409   0.28583   0.29276
 Alpha virt. eigenvalues --    0.29554   0.30017   0.30259   0.31136   0.31779
 Alpha virt. eigenvalues --    0.32470   0.32640   0.32802   0.34534   0.35825
 Alpha virt. eigenvalues --    0.40773   0.41730   0.42063   0.43572   0.43739
 Alpha virt. eigenvalues --    0.44020   0.45378   0.45796   0.46103   0.46632
 Alpha virt. eigenvalues --    0.47283   0.47302   0.47568   0.48330   0.49085
 Alpha virt. eigenvalues --    0.50214   0.50533   0.50778   0.52636   0.53238
 Alpha virt. eigenvalues --    0.54932   0.55075   0.55671   0.56682   0.57202
 Alpha virt. eigenvalues --    0.57669   0.58861   0.58988   0.59418   0.59717
 Alpha virt. eigenvalues --    0.60287   0.61258   0.62507   0.63663   0.63785
 Alpha virt. eigenvalues --    0.64449   0.65395   0.65409   0.65694   0.66798
 Alpha virt. eigenvalues --    0.68337   0.68700   0.68832   0.69454   0.70094
 Alpha virt. eigenvalues --    0.70945   0.71399   0.71551   0.75805   0.78435
 Alpha virt. eigenvalues --    0.80879   0.81114   0.82133   0.82804   0.83576
 Alpha virt. eigenvalues --    0.83711   0.84017   0.84134   0.84539   0.84568
 Alpha virt. eigenvalues --    0.85087   0.85328   0.85862   0.85888   0.85923
 Alpha virt. eigenvalues --    0.86510   0.86635   0.86662   0.87957   0.89040
 Alpha virt. eigenvalues --    0.89048   0.90566   0.92686   0.92933   0.93561
 Alpha virt. eigenvalues --    0.94197   0.94634   0.95223   0.95344   0.95412
 Alpha virt. eigenvalues --    0.96271   0.96633   0.97635   0.98062   0.98721
 Alpha virt. eigenvalues --    0.99601   1.00749   1.01650   1.03684   1.04334
 Alpha virt. eigenvalues --    1.05392   1.05811   1.08840   1.10360   1.11930
 Alpha virt. eigenvalues --    1.16554   1.17321   1.17326   1.20902   1.22180
 Alpha virt. eigenvalues --    1.22611   1.23905   1.24507   1.25641   1.26699
 Alpha virt. eigenvalues --    1.29049   1.29261   1.29772   1.31172   1.32425
 Alpha virt. eigenvalues --    1.34379   1.36821   1.39182   1.41149   1.44603
 Alpha virt. eigenvalues --    1.47999   1.48775   1.49388   1.55164   1.55868
 Alpha virt. eigenvalues --    1.56736   1.57208   1.57709   1.59406   1.59914
 Alpha virt. eigenvalues --    1.60695   1.64367   1.65406   1.67551   1.68212
 Alpha virt. eigenvalues --    1.69374   1.71225   1.74321   1.77149   1.80273
 Alpha virt. eigenvalues --    1.81475   1.83396   1.84834   1.85747   1.85981
 Alpha virt. eigenvalues --    1.90512   1.91593   1.92944   1.93913   1.94228
 Alpha virt. eigenvalues --    1.95319   1.96003   1.96734   1.98280   2.01556
 Alpha virt. eigenvalues --    2.03021   2.05119   2.07694   2.08151   2.11667
 Alpha virt. eigenvalues --    2.13946   2.14155   2.16137   2.24535   2.24608
 Alpha virt. eigenvalues --    2.25460   2.26241   2.26966   2.27566   2.28622
 Alpha virt. eigenvalues --    2.29228   2.31726   2.34496   2.35406   2.37283
 Alpha virt. eigenvalues --    2.40170   2.40649   2.41532   2.43220   2.46942
 Alpha virt. eigenvalues --    2.49959   2.51067   2.51207   2.52522   2.54761
 Alpha virt. eigenvalues --    2.55811   2.56591   2.58758   2.62656   2.64664
 Alpha virt. eigenvalues --    2.65577   2.68381   2.69671   2.70019   2.70367
 Alpha virt. eigenvalues --    2.72843   2.73326   2.74623   2.74754   2.74825
 Alpha virt. eigenvalues --    2.75370   2.77749   2.79254   2.82521   2.83531
 Alpha virt. eigenvalues --    2.84509   2.89394   2.90152   2.96638   2.99298
 Alpha virt. eigenvalues --    3.07833   3.09240   3.09815   3.12554   3.14519
 Alpha virt. eigenvalues --    3.14565   3.19650   3.21705   3.23952   3.27807
 Alpha virt. eigenvalues --    3.34469   3.35429   3.37303   3.41628   3.57742
 Alpha virt. eigenvalues --    3.58257   3.64102   3.71074   3.75354   3.81275
 Alpha virt. eigenvalues --    3.84396   3.99427   4.04137   4.09023   4.10524
 Alpha virt. eigenvalues --    4.34014   4.80363   4.82124   9.76939   9.77314
 Alpha virt. eigenvalues --    9.78873   9.80310   9.83925  23.38374  23.55862
 Alpha virt. eigenvalues --   23.81823  23.85698  23.88029  23.91066  23.97638
 Alpha virt. eigenvalues --   23.99754  24.04030  24.06752  24.11778  24.15059
 Alpha virt. eigenvalues --   25.79736  25.81796  25.83265  25.86233  25.92786
 Alpha virt. eigenvalues --   26.08154  26.13557  26.18008  26.23411  26.30214
 Alpha virt. eigenvalues --   26.54657  26.60982  26.65520  26.67750  26.90516
 Alpha virt. eigenvalues --  215.76056 215.76564 215.78303 215.80071 215.84587
          Condensed to atoms (all electrons):
               1          2          3          4          5          6
     1  C   21.616634  -0.743142  -4.282920   1.774654  -4.283296  -0.743402
     2  C   -0.743142  63.544015 -16.557674 -12.581341   1.044562 -20.236891
     3  C   -4.282920 -16.557674  27.769067  -2.397475  -1.216600   1.045017
     4  C    1.774654 -12.581341  -2.397475  33.973447  -2.397333 -12.582020
     5  C   -4.283296   1.044562  -1.216600  -2.397333  27.769098 -16.557137
     6  C   -0.743402 -20.236891   1.045017 -12.582020 -16.557137  63.543498
     7  C    3.032634  -4.015577   2.747224  -1.021426   2.747753  -4.017119
     8  C   -2.203478  -1.670080  -0.482698   1.275035  -0.483199  -1.669064
     9  C   -2.940531  -0.301523  -0.409825   0.468879  -0.409615  -0.301257
    10  C   -0.196537   0.286097  -0.172081   0.092515  -0.172182   0.286434
    11  C   -3.808141  -1.079134   0.352925  -0.061922   0.353123  -1.079653
    12  C   -0.635899  -1.169088  -0.543136   0.961455  -0.543316  -1.168446
    13  H    0.099304  -0.081900   0.078620   0.091943  -0.031256   0.052479
    14  H    0.031667   0.040689   0.042885   0.144320   0.042881   0.040687
    15  H    0.099313   0.052492  -0.031256   0.091940   0.078629  -0.081925
    16  H    0.014247  -0.000405  -0.000398  -0.000062  -0.000398  -0.000408
    17  H    0.006314  -0.000430  -0.000079  -0.000031  -0.000079  -0.000429
    18  Cl  -0.449774  -0.151078   0.405630  -0.270015   0.405531  -0.150643
    19  Cl  -0.103642  -0.036027   0.013183  -0.002649   0.013176  -0.036058
    20  Cl  -0.248046   0.457411   0.050539  -0.158082  -1.423762   0.709672
    21  Cl  -0.248034   0.709579  -1.423716  -0.158061   0.050543   0.457415
    22  Cl   0.095440  -0.223428   0.480126  -0.344228   0.480274  -0.223716
               7          8          9         10         11         12
     1  C    3.032634  -2.203478  -2.940531  -0.196537  -3.808141  -0.635899
     2  C   -4.015577  -1.670080  -0.301523   0.286097  -1.079134  -1.169088
     3  C    2.747224  -0.482698  -0.409825  -0.172081   0.352925  -0.543136
     4  C   -1.021426   1.275035   0.468879   0.092515  -0.061922   0.961455
     5  C    2.747753  -0.483199  -0.409615  -0.172182   0.353123  -0.543316
     6  C   -4.017119  -1.669064  -0.301257   0.286434  -1.079653  -1.168446
     7  C   20.407916  -6.360958  -4.539135  -1.729323  -4.136184   2.542403
     8  C   -6.360958  25.443689  -4.518016   1.010281   2.721146  -6.549625
     9  C   -4.539135  -4.518016  15.220843   2.914457  -1.183749   2.493676
    10  C   -1.729323   1.010281   2.914457  17.150855  -2.855377 -10.415531
    11  C   -4.136184   2.721146  -1.183749  -2.855377  19.681402  -3.974166
    12  C    2.542403  -6.549625   2.493676 -10.415531  -3.974166  27.825916
    13  H    0.038029   0.048335   0.017980   0.001396   0.005143   0.055025
    14  H    0.007930   0.000346  -0.000023  -0.000009   0.000188   0.000852
    15  H    0.038034   0.048334   0.017980   0.001396   0.005149   0.055010
    16  H    0.049765   0.069399   0.307139  -0.034629  -0.034177  -0.016632
    17  H    0.024450   0.005144  -0.076603   0.326299   0.014391   0.050100
    18  Cl  -0.008846  -0.053062   0.275792   0.910092   0.426706  -2.489336
    19  Cl  -0.506455   0.034054   0.086554  -0.544014  -0.656272   1.184501
    20  Cl  -0.104765  -0.031372  -0.003799   0.000192   0.004541  -0.037697
    21  Cl  -0.104767  -0.031361  -0.003799   0.000191   0.004544  -0.037693
    22  Cl   0.695265  -0.736512  -0.662410  -0.257990   0.167540  -0.398738
              13         14         15         16         17         18
     1  C    0.099304   0.031667   0.099313   0.014247   0.006314  -0.449774
     2  C   -0.081900   0.040689   0.052492  -0.000405  -0.000430  -0.151078
     3  C    0.078620   0.042885  -0.031256  -0.000398  -0.000079   0.405630
     4  C    0.091943   0.144320   0.091940  -0.000062  -0.000031  -0.270015
     5  C   -0.031256   0.042881   0.078629  -0.000398  -0.000079   0.405531
     6  C    0.052479   0.040687  -0.081925  -0.000408  -0.000429  -0.150643
     7  C    0.038029   0.007930   0.038034   0.049765   0.024450  -0.008846
     8  C    0.048335   0.000346   0.048334   0.069399   0.005144  -0.053062
     9  C    0.017980  -0.000023   0.017980   0.307139  -0.076603   0.275792
    10  C    0.001396  -0.000009   0.001396  -0.034629   0.326299   0.910092
    11  C    0.005143   0.000188   0.005149  -0.034177   0.014391   0.426706
    12  C    0.055025   0.000852   0.055010  -0.016632   0.050100  -2.489336
    13  H    0.515140  -0.000216   0.000046   0.000002  -0.000002  -0.006789
    14  H   -0.000216   0.492470  -0.000216   0.000000  -0.000000  -0.000139
    15  H    0.000046  -0.000216   0.515139   0.000002  -0.000002  -0.006789
    16  H    0.000002   0.000000   0.000002   0.502720  -0.007580   0.000822
    17  H   -0.000002  -0.000000  -0.000002  -0.007580   0.500945  -0.001279
    18  Cl  -0.006789  -0.000139  -0.006789   0.000822  -0.001279  17.879398
    19  Cl   0.000256   0.000001   0.000255  -0.000518  -0.001795  -0.214704
    20  Cl  -0.000236  -0.007727  -0.017970  -0.000009  -0.000000  -0.001053
    21  Cl  -0.017970  -0.007727  -0.000235  -0.000009  -0.000000  -0.001057
    22  Cl  -0.007062  -0.000016  -0.007061  -0.006681   0.000994  -0.063106
              19         20         21         22
     1  C   -0.103642  -0.248046  -0.248034   0.095440
     2  C   -0.036027   0.457411   0.709579  -0.223428
     3  C    0.013183   0.050539  -1.423716   0.480126
     4  C   -0.002649  -0.158082  -0.158061  -0.344228
     5  C    0.013176  -1.423762   0.050543   0.480274
     6  C   -0.036058   0.709672   0.457415  -0.223716
     7  C   -0.506455  -0.104765  -0.104767   0.695265
     8  C    0.034054  -0.031372  -0.031361  -0.736512
     9  C    0.086554  -0.003799  -0.003799  -0.662410
    10  C   -0.544014   0.000192   0.000191  -0.257990
    11  C   -0.656272   0.004541   0.004544   0.167540
    12  C    1.184501  -0.037697  -0.037693  -0.398738
    13  H    0.000256  -0.000236  -0.017970  -0.007062
    14  H    0.000001  -0.007727  -0.007727  -0.000016
    15  H    0.000255  -0.017970  -0.000235  -0.007061
    16  H   -0.000518  -0.000009  -0.000009  -0.006681
    17  H   -0.001795  -0.000000  -0.000000   0.000994
    18  Cl  -0.214704  -0.001053  -0.001057  -0.063106
    19  Cl  17.316375   0.000069   0.000069  -0.007310
    20  Cl   0.000069  17.407592  -0.015325  -0.000443
    21  Cl   0.000069  -0.015325  17.407588  -0.000440
    22  Cl  -0.007310  -0.000443  -0.000440  17.598574
 Mulliken charges:
               1
     1  C    0.116633
     2  C   -1.287128
     3  C    0.532642
     4  C   -0.899544
     5  C    0.532602
     6  C   -1.287032
     7  C    0.213154
     8  C    0.133661
     9  C   -0.453015
    10  C   -0.602530
    11  C    1.131977
    12  C   -1.189635
    13  H    0.141733
    14  H    0.171156
    15  H    0.141734
    16  H    0.157807
    17  H    0.159672
    18  Cl   0.563699
    19  Cl   0.460950
    20  Cl   0.420270
    21  Cl   0.420266
    22  Cl   0.420929
 Sum of Mulliken charges =  -0.00000
 Mulliken charges with hydrogens summed into heavy atoms:
               1
     1  C    0.116633
     2  C   -1.145395
     3  C    0.532642
     4  C   -0.728388
     5  C    0.532602
     6  C   -1.145299
     7  C    0.213154
     8  C    0.133661
     9  C   -0.295208
    10  C   -0.442858
    11  C    1.131977
    12  C   -1.189635
    18  Cl   0.563699
    19  Cl   0.460950
    20  Cl   0.420270
    21  Cl   0.420266
    22  Cl   0.420929
 Electronic spatial extent (au):  <R**2>=           6991.0270
 Charge=             -0.0000 electrons
 Dipole moment (field-independent basis, Debye):
    X=              1.7992    Y=             -1.4151    Z=              0.0003  Tot=              2.2891
 Quadrupole moment (field-independent basis, Debye-Ang):
   XX=           -128.0939   YY=           -133.3237   ZZ=           -134.9925
   XY=             -7.4763   XZ=              0.0019   YZ=             -0.0003
 Traceless Quadrupole moment (field-independent basis, Debye-Ang):
   XX=              4.0428   YY=             -1.1870   ZZ=             -2.8558
   XY=             -7.4763   XZ=              0.0019   YZ=             -0.0003
 Octapole moment (field-independent basis, Debye-Ang**2):
  XXX=             18.9094  YYY=              6.1751  ZZZ=             -0.0023  XYY=             12.1380
  XXY=            -22.4648  XXZ=              0.0058  XZZ=              5.6766  YZZ=              2.6298
  YYZ=             -0.0012  XYZ=             -0.0003
 Hexadecapole moment (field-independent basis, Debye-Ang**3):
 XXXX=          -5728.2030 YYYY=          -1776.3260 ZZZZ=          -1474.5391 XXXY=            -88.5831
 XXXZ=              0.0218 YYYX=             16.1461 YYYZ=             -0.0322 ZZZX=             -0.0094
 ZZZY=              0.0265 XXYY=          -1240.8144 XXZZ=          -1289.3101 YYZZ=           -573.3057
 XXYZ=             -0.0259 YYXZ=              0.0026 ZZXY=             15.2426
 N-N= 1.713876228106D+03 E-N=-9.964466102031D+03  KE= 2.754120350392D+03
 1\1\GINC-DAMODAR\FOpt\RB3LYP\6-311+G(d,p)\C12H5Cl5\PKC\16-Mar-2022\0\\
 # opt b3lyp/6-311+g(d,p) scf=xqc\\Title Card Required\\0,1\C,-0.168766
 6304,-0.9852412753,0.0164595304\C,0.5832742186,-0.6227501857,-1.102629
 1943\C,1.2925944062,0.5726623913,-1.0837011493\C,1.2738297691,1.418193
 8196,0.020466332\C,0.5174955319,1.0342151302,1.1227282141\C,-0.2037638
 26,-0.1540866914,1.1377408518\C,-0.9317692042,-2.270391974,0.017269079
 1\C,-0.3510820099,-3.4614195785,0.4704967377\C,-1.0508756303,-4.663691
 1197,0.4761945637\C,-2.3609938281,-4.6944545172,0.0222841525\C,-2.9715
 548644,-3.5307890927,-0.4357505931\C,-2.2616015377,-2.3249644156,-0.43
 8557491\H,0.6163203355,-1.2610800127,-1.9755584392\H,1.8301501426,2.34
 50669099,0.0220132077\H,-0.7835838158,-0.4274747253,2.0093100928\H,-0.
 5723427945,-5.5658707069,0.8331446076\H,-2.9182561384,-5.6221372475,0.
 0205893059\Cl,-3.0232071537,-0.8635198267,-1.0118465178\Cl,-4.62195725
 92,-3.6196202599,-0.9971403969\Cl,0.4759525968,2.081371925,2.530691860
 9\Cl,2.2392082262,1.0313933741,-2.4887324354\Cl,1.3036184358,-3.465058
 6409,1.0526404507\\Version=EM64L-G16RevB.01\State=1-A\HF=-2761.5192988
 \RMSD=6.012e-09\RMSF=3.338e-06\Dipole=-0.1002576,-0.8824288,0.1494264\
 Quadrupole=-4.2490364,6.4983706,-2.2493342,1.6401531,-1.0901561,-1.227
 7756\PG=C01 [X(C12H5Cl5)]\\@


 THERE'S NOTHING SO GREAT AS THE GREAT OUTDOORS.

                                       -- ZIGGY
 Job cpu time:       0 days 20 hours 40 minutes 55.4 seconds.
 Elapsed time:       0 days  5 hours 11 minutes  8.3 seconds.
 File lengths (MBytes):  RWF=    130 Int=      0 D2E=      0 Chk=     20 Scr=      1
 Normal termination of Gaussian 16 at Wed Mar 16 21:20:45 2022.
