 Entering Gaussian System, Link 0=g16
 Input=2,3,5,6-Tetrachlorobiphenyl.gjf
 Output=2,3,5,6-Tetrachlorobiphenyl.log
 Initial command:
 /opt/g16/l1.exe "/scratch/gour/Gau-18147.inp" -scrdir="/scratch/gour/"
 Entering Link 1 = /opt/g16/l1.exe PID=     18148.
  
 Copyright (c) 1988-2017, Gaussian, Inc.  All Rights Reserved.
  
 This is part of the Gaussian(R) 16 program.  It is based on
 the Gaussian(R) 09 system (copyright 2009, Gaussian, Inc.),
 the Gaussian(R) 03 system (copyright 2003, Gaussian, Inc.),
 the Gaussian(R) 98 system (copyright 1998, Gaussian, Inc.),
 the Gaussian(R) 94 system (copyright 1995, Gaussian, Inc.),
 the Gaussian 92(TM) system (copyright 1992, Gaussian, Inc.),
 the Gaussian 90(TM) system (copyright 1990, Gaussian, Inc.),
 the Gaussian 88(TM) system (copyright 1988, Gaussian, Inc.),
 the Gaussian 86(TM) system (copyright 1986, Carnegie Mellon
 University), and the Gaussian 82(TM) system (copyright 1983,
 Carnegie Mellon University). Gaussian is a federally registered
 trademark of Gaussian, Inc.
  
 This software contains proprietary and confidential information,
 including trade secrets, belonging to Gaussian, Inc.
  
 This software is provided under written license and may be
 used, copied, transmitted, or stored only in accord with that
 written license.
  
 The following legend is applicable only to US Government
 contracts under FAR:
  
                    RESTRICTED RIGHTS LEGEND
  
 Use, reproduction and disclosure by the US Government is
 subject to restrictions as set forth in subparagraphs (a)
 and (c) of the Commercial Computer Software - Restricted
 Rights clause in FAR 52.227-19.
  
 Gaussian, Inc.
 340 Quinnipiac St., Bldg. 40, Wallingford CT 06492
  
  
 ---------------------------------------------------------------
 Warning -- This program may not be used in any manner that
 competes with the business of Gaussian, Inc. or will provide
 assistance to any competitor of Gaussian, Inc.  The licensee
 of this program is prohibited from giving any competitor of
 Gaussian, Inc. access to this program.  By using this program,
 the user acknowledges that Gaussian, Inc. is engaged in the
 business of creating and licensing software in the field of
 computational chemistry and represents and warrants to the
 licensee that it is not a competitor of Gaussian, Inc. and that
 it will not use this program in any manner prohibited above.
 ---------------------------------------------------------------
  

 Cite this work as:
 Gaussian 16, Revision B.01,
 M. J. Frisch, G. W. Trucks, H. B. Schlegel, G. E. Scuseria, 
 M. A. Robb, J. R. Cheeseman, G. Scalmani, V. Barone, 
 G. A. Petersson, H. Nakatsuji, X. Li, M. Caricato, A. V. Marenich, 
 J. Bloino, B. G. Janesko, R. Gomperts, B. Mennucci, H. P. Hratchian, 
 J. V. Ortiz, A. F. Izmaylov, J. L. Sonnenberg, D. Williams-Young, 
 F. Ding, F. Lipparini, F. Egidi, J. Goings, B. Peng, A. Petrone, 
 T. Henderson, D. Ranasinghe, V. G. Zakrzewski, J. Gao, N. Rega, 
 G. Zheng, W. Liang, M. Hada, M. Ehara, K. Toyota, R. Fukuda, 
 J. Hasegawa, M. Ishida, T. Nakajima, Y. Honda, O. Kitao, H. Nakai, 
 T. Vreven, K. Throssell, J. A. Montgomery, Jr., J. E. Peralta, 
 F. Ogliaro, M. J. Bearpark, J. J. Heyd, E. N. Brothers, K. N. Kudin, 
 V. N. Staroverov, T. A. Keith, R. Kobayashi, J. Normand, 
 K. Raghavachari, A. P. Rendell, J. C. Burant, S. S. Iyengar, 
 J. Tomasi, M. Cossi, J. M. Millam, M. Klene, C. Adamo, R. Cammi, 
 J. W. Ochterski, R. L. Martin, K. Morokuma, O. Farkas, 
 J. B. Foresman, and D. J. Fox, Gaussian, Inc., Wallingford CT, 2016.
 
 ******************************************
 Gaussian 16:  EM64L-G16RevB.01 20-Dec-2017
                15-Mar-2022 
 ******************************************
 %mem=10GB
 %nprocshared=4
 Will use up to    4 processors via shared memory.
 --------------------------------
 # opt b3lyp/6-311+g(d,p) scf=xqc
 --------------------------------
 1/18=20,19=15,26=3,38=1/1,3;
 2/9=110,12=2,17=6,18=5,40=1/2;
 3/5=4,6=6,7=111,11=2,25=1,30=1,71=1,74=-5/1,2,3;
 4//1;
 5/5=2,8=3,13=1,38=5/2,8;
 6/7=2,8=2,9=2,10=2,28=1/1;
 7//1,2,3,16;
 1/18=20,19=15,26=3/3(2);
 2/9=110/2;
 99//99;
 2/9=110/2;
 3/5=4,6=6,7=111,11=2,25=1,30=1,71=1,74=-5/1,2,3;
 4/5=5,16=3,69=1/1;
 5/5=2,8=3,13=1,38=5/2,8;
 7//1,2,3,16;
 1/18=20,19=15,26=3/3(-5);
 2/9=110/2;
 6/7=2,8=2,9=2,10=2,19=2,28=1/1;
 99/9=1/99;
 -------------------
 Title Card Required
 -------------------
 Symbolic Z-matrix:
 Charge =  0 Multiplicity = 1
 C                    -0.11316  -0.228    -0.00285 
 C                     1.21922  -0.19811  -0.4362 
 C                     1.92712   1.01134  -0.44227 
 C                     1.30263   2.1909   -0.015 
 C                    -0.02975   2.16102   0.41835 
 C                    -0.73765   0.95157   0.42442 
 C                    -0.89106  -1.55707   0.00382 
 C                    -0.26658  -2.73663  -0.42345 
 C                    -0.97447  -3.94608  -0.41738 
 C                    -2.30685  -3.97597   0.01597 
 C                    -2.93134  -2.79641   0.44325 
 C                    -2.22344  -1.58695   0.43717 
 H                     1.69603  -1.09874  -0.76243 
 H                     2.94442   1.03416  -0.77314 
 H                     1.84312   3.11434  -0.01963 
 H                    -0.50656   3.06164   0.74458 
 H                    -1.75495   0.92875   0.75529 
 H                    -2.84734  -4.89941   0.02061 
 Cl                   -3.00773  -0.10555   0.97378 
 Cl                   -4.60465  -2.83394   0.98749 
 Cl                   -0.19018  -5.42748  -0.95399 
 Cl                    1.40675  -2.6991   -0.96769 
 

 GradGradGradGradGradGradGradGradGradGradGradGradGradGradGradGradGradGrad
 Berny optimization.
 Initialization pass.
                           ----------------------------
                           !    Initial Parameters    !
                           ! (Angstroms and Degrees)  !
 --------------------------                            --------------------------
 ! Name  Definition              Value          Derivative Info.                !
 --------------------------------------------------------------------------------
 ! R1    R(1,2)                  1.4014         estimate D2E/DX2                !
 ! R2    R(1,6)                  1.4014         estimate D2E/DX2                !
 ! R3    R(1,7)                  1.54           estimate D2E/DX2                !
 ! R4    R(2,3)                  1.4014         estimate D2E/DX2                !
 ! R5    R(2,13)                 1.07           estimate D2E/DX2                !
 ! R6    R(3,4)                  1.4014         estimate D2E/DX2                !
 ! R7    R(3,14)                 1.07           estimate D2E/DX2                !
 ! R8    R(4,5)                  1.4014         estimate D2E/DX2                !
 ! R9    R(4,15)                 1.07           estimate D2E/DX2                !
 ! R10   R(5,6)                  1.4014         estimate D2E/DX2                !
 ! R11   R(5,16)                 1.07           estimate D2E/DX2                !
 ! R12   R(6,17)                 1.07           estimate D2E/DX2                !
 ! R13   R(7,8)                  1.4014         estimate D2E/DX2                !
 ! R14   R(7,12)                 1.4014         estimate D2E/DX2                !
 ! R15   R(8,9)                  1.4014         estimate D2E/DX2                !
 ! R16   R(8,22)                 1.76           estimate D2E/DX2                !
 ! R17   R(9,10)                 1.4014         estimate D2E/DX2                !
 ! R18   R(9,21)                 1.76           estimate D2E/DX2                !
 ! R19   R(10,11)                1.4014         estimate D2E/DX2                !
 ! R20   R(10,18)                1.07           estimate D2E/DX2                !
 ! R21   R(11,12)                1.4014         estimate D2E/DX2                !
 ! R22   R(11,20)                1.76           estimate D2E/DX2                !
 ! R23   R(12,19)                1.76           estimate D2E/DX2                !
 ! A1    A(2,1,6)              120.0            estimate D2E/DX2                !
 ! A2    A(2,1,7)              120.0            estimate D2E/DX2                !
 ! A3    A(6,1,7)              120.0            estimate D2E/DX2                !
 ! A4    A(1,2,3)              120.0            estimate D2E/DX2                !
 ! A5    A(1,2,13)             120.0            estimate D2E/DX2                !
 ! A6    A(3,2,13)             120.0            estimate D2E/DX2                !
 ! A7    A(2,3,4)              120.0            estimate D2E/DX2                !
 ! A8    A(2,3,14)             120.0            estimate D2E/DX2                !
 ! A9    A(4,3,14)             120.0            estimate D2E/DX2                !
 ! A10   A(3,4,5)              120.0            estimate D2E/DX2                !
 ! A11   A(3,4,15)             120.0            estimate D2E/DX2                !
 ! A12   A(5,4,15)             120.0            estimate D2E/DX2                !
 ! A13   A(4,5,6)              120.0            estimate D2E/DX2                !
 ! A14   A(4,5,16)             120.0            estimate D2E/DX2                !
 ! A15   A(6,5,16)             120.0            estimate D2E/DX2                !
 ! A16   A(1,6,5)              120.0            estimate D2E/DX2                !
 ! A17   A(1,6,17)             120.0            estimate D2E/DX2                !
 ! A18   A(5,6,17)             120.0            estimate D2E/DX2                !
 ! A19   A(1,7,8)              120.0            estimate D2E/DX2                !
 ! A20   A(1,7,12)             120.0            estimate D2E/DX2                !
 ! A21   A(8,7,12)             120.0            estimate D2E/DX2                !
 ! A22   A(7,8,9)              120.0            estimate D2E/DX2                !
 ! A23   A(7,8,22)             120.0            estimate D2E/DX2                !
 ! A24   A(9,8,22)             120.0            estimate D2E/DX2                !
 ! A25   A(8,9,10)             120.0            estimate D2E/DX2                !
 ! A26   A(8,9,21)             120.0            estimate D2E/DX2                !
 ! A27   A(10,9,21)            120.0            estimate D2E/DX2                !
 ! A28   A(9,10,11)            120.0            estimate D2E/DX2                !
 ! A29   A(9,10,18)            120.0            estimate D2E/DX2                !
 ! A30   A(11,10,18)           120.0            estimate D2E/DX2                !
 ! A31   A(10,11,12)           120.0            estimate D2E/DX2                !
 ! A32   A(10,11,20)           120.0            estimate D2E/DX2                !
 ! A33   A(12,11,20)           120.0            estimate D2E/DX2                !
 ! A34   A(7,12,11)            120.0            estimate D2E/DX2                !
 ! A35   A(7,12,19)            120.0            estimate D2E/DX2                !
 ! A36   A(11,12,19)           120.0            estimate D2E/DX2                !
 ! D1    D(6,1,2,3)              0.0001         estimate D2E/DX2                !
 ! D2    D(6,1,2,13)           180.0            estimate D2E/DX2                !
 ! D3    D(7,1,2,3)           -180.0            estimate D2E/DX2                !
 ! D4    D(7,1,2,13)            -0.0001         estimate D2E/DX2                !
 ! D5    D(2,1,6,5)             -0.0001         estimate D2E/DX2                !
 ! D6    D(2,1,6,17)           180.0            estimate D2E/DX2                !
 ! D7    D(7,1,6,5)            180.0            estimate D2E/DX2                !
 ! D8    D(7,1,6,17)             0.0            estimate D2E/DX2                !
 ! D9    D(2,1,7,8)             -0.0001         estimate D2E/DX2                !
 ! D10   D(2,1,7,12)           179.9998         estimate D2E/DX2                !
 ! D11   D(6,1,7,8)            179.9999         estimate D2E/DX2                !
 ! D12   D(6,1,7,12)            -0.0002         estimate D2E/DX2                !
 ! D13   D(1,2,3,4)              0.0            estimate D2E/DX2                !
 ! D14   D(1,2,3,14)           180.0            estimate D2E/DX2                !
 ! D15   D(13,2,3,4)          -179.9999         estimate D2E/DX2                !
 ! D16   D(13,2,3,14)            0.0001         estimate D2E/DX2                !
 ! D17   D(2,3,4,5)             -0.0001         estimate D2E/DX2                !
 ! D18   D(2,3,4,15)           180.0            estimate D2E/DX2                !
 ! D19   D(14,3,4,5)           179.9999         estimate D2E/DX2                !
 ! D20   D(14,3,4,15)            0.0            estimate D2E/DX2                !
 ! D21   D(3,4,5,6)              0.0001         estimate D2E/DX2                !
 ! D22   D(3,4,5,16)          -179.9999         estimate D2E/DX2                !
 ! D23   D(15,4,5,6)          -180.0            estimate D2E/DX2                !
 ! D24   D(15,4,5,16)            0.0            estimate D2E/DX2                !
 ! D25   D(4,5,6,1)              0.0            estimate D2E/DX2                !
 ! D26   D(4,5,6,17)           179.9999         estimate D2E/DX2                !
 ! D27   D(16,5,6,1)           180.0            estimate D2E/DX2                !
 ! D28   D(16,5,6,17)           -0.0001         estimate D2E/DX2                !
 ! D29   D(1,7,8,9)            179.9999         estimate D2E/DX2                !
 ! D30   D(1,7,8,22)             0.0001         estimate D2E/DX2                !
 ! D31   D(12,7,8,9)             0.0001         estimate D2E/DX2                !
 ! D32   D(12,7,8,22)         -179.9998         estimate D2E/DX2                !
 ! D33   D(1,7,12,11)         -179.9999         estimate D2E/DX2                !
 ! D34   D(1,7,12,19)            0.0            estimate D2E/DX2                !
 ! D35   D(8,7,12,11)           -0.0001         estimate D2E/DX2                !
 ! D36   D(8,7,12,19)          179.9999         estimate D2E/DX2                !
 ! D37   D(7,8,9,10)             0.0            estimate D2E/DX2                !
 ! D38   D(7,8,9,21)           180.0            estimate D2E/DX2                !
 ! D39   D(22,8,9,10)          179.9998         estimate D2E/DX2                !
 ! D40   D(22,8,9,21)           -0.0002         estimate D2E/DX2                !
 ! D41   D(8,9,10,11)            0.0            estimate D2E/DX2                !
 ! D42   D(8,9,10,18)         -179.9999         estimate D2E/DX2                !
 ! D43   D(21,9,10,11)         180.0            estimate D2E/DX2                !
 ! D44   D(21,9,10,18)           0.0001         estimate D2E/DX2                !
 ! D45   D(9,10,11,12)           0.0            estimate D2E/DX2                !
 ! D46   D(9,10,11,20)        -179.9998         estimate D2E/DX2                !
 ! D47   D(18,10,11,12)        179.9999         estimate D2E/DX2                !
 ! D48   D(18,10,11,20)          0.0001         estimate D2E/DX2                !
 ! D49   D(10,11,12,7)           0.0            estimate D2E/DX2                !
 ! D50   D(10,11,12,19)       -179.9999         estimate D2E/DX2                !
 ! D51   D(20,11,12,7)         179.9999         estimate D2E/DX2                !
 ! D52   D(20,11,12,19)         -0.0001         estimate D2E/DX2                !
 --------------------------------------------------------------------------------
 Trust Radius=3.00D-01 FncErr=1.00D-07 GrdErr=1.00D-06 EigMax=2.50D+02 EigMin=1.00D-04
 Number of steps in this run=    121 maximum allowed number of steps=    132.
 GradGradGradGradGradGradGradGradGradGradGradGradGradGradGradGradGradGrad

                          Input orientation:                          
 ---------------------------------------------------------------------
 Center     Atomic      Atomic             Coordinates (Angstroms)
 Number     Number       Type             X           Y           Z
 ---------------------------------------------------------------------
      1          6           0       -0.113158   -0.228000   -0.002851
      2          6           0        1.219223   -0.198114   -0.436198
      3          6           0        1.927117    1.011337   -0.442270
      4          6           0        1.302630    2.190902   -0.014995
      5          6           0       -0.029752    2.161016    0.418349
      6          6           0       -0.737646    0.951565    0.424422
      7          6           0       -0.891063   -1.557067    0.003823
      8          6           0       -0.266575   -2.736632   -0.423452
      9          6           0       -0.974468   -3.946084   -0.417378
     10          6           0       -2.306848   -3.975970    0.015972
     11          6           0       -2.931335   -2.796405    0.443247
     12          6           0       -2.223442   -1.586954    0.437173
     13          1           0        1.696034   -1.098739   -0.762430
     14          1           0        2.944420    1.034155   -0.773139
     15          1           0        1.843122    3.114344   -0.019631
     16          1           0       -0.506563    3.061641    0.744581
     17          1           0       -1.754948    0.928747    0.755291
     18          1           0       -2.847340   -4.899414    0.020612
     19         17           0       -3.007727   -0.105554    0.973785
     20         17           0       -4.604653   -2.833940    0.987490
     21         17           0       -0.190183   -5.427484   -0.953987
     22         17           0        1.406745   -2.699099   -0.967686
 ---------------------------------------------------------------------
                    Distance matrix (angstroms):
                    1          2          3          4          5
     1  C    0.000000
     2  C    1.401400   0.000000
     3  C    2.427296   1.401400   0.000000
     4  C    2.802800   2.427296   1.401400   0.000000
     5  C    2.427296   2.802800   2.427296   1.401400   0.000000
     6  C    1.401400   2.427296   2.802800   2.427296   1.401400
     7  C    1.540000   2.548270   3.838989   4.342800   3.838989
     8  C    2.548270   2.941400   4.342800   5.187469   4.975106
     9  C    3.838989   4.342800   5.744200   6.558176   6.235992
    10  C    4.342800   5.187469   6.558176   7.145600   6.558176
    11  C    3.838989   4.975106   6.235992   6.558176   5.744200
    12  C    2.548270   3.813607   4.975106   5.187469   4.342800
    13  H    2.146700   1.070000   2.146700   3.396345   3.872800
    14  H    3.396345   2.146700   1.070000   2.146700   3.396345
    15  H    3.872800   3.396345   2.146700   1.070000   2.146700
    16  H    3.396345   3.872800   3.396345   2.146700   1.070000
    17  H    2.146700   3.396345   3.872800   3.396345   2.146700
    18  H    5.412800   6.232802   7.612271   8.215600   7.612271
    19  Cl   3.057342   4.456874   5.254079   4.983028   3.783409
    20  Cl   5.286324   6.549198   7.713260   7.819846   6.797295
    21  Cl   5.286324   5.440665   6.797295   7.819846   7.713260
    22  Cl   3.057342   2.563702   3.783409   4.983028   5.254079
                    6          7          8          9         10
     6  C    0.000000
     7  C    2.548270   0.000000
     8  C    3.813607   1.401400   0.000000
     9  C    4.975106   2.427296   1.401400   0.000000
    10  C    5.187469   2.802800   2.427296   1.401400   0.000000
    11  C    4.342800   2.427296   2.802800   2.427296   1.401400
    12  C    2.941400   1.401400   2.427296   2.802800   2.427296
    13  H    3.396345   2.736837   2.578650   3.918930   4.990735
    14  H    3.872800   4.693509   4.965039   6.347206   7.300676
    15  H    3.396345   5.412800   6.232802   7.612271   8.215600
    16  H    2.146700   4.693509   5.919617   7.118798   7.300676
    17  H    1.070000   2.736837   4.127917   5.074276   4.990735
    18  H    6.232802   3.872800   3.396345   2.146700   1.070000
    19  Cl   2.563702   2.743718   4.048303   4.562800   4.048303
    20  Cl   5.440665   4.048303   4.562800   4.048303   2.743718
    21  Cl   6.549198   4.048303   2.743718   1.760000   2.743718
    22  Cl   4.456874   2.743718   1.760000   2.743718   4.048303
                   11         12         13         14         15
    11  C    0.000000
    12  C    1.401400   0.000000
    13  H    5.074276   4.127917   0.000000
    14  H    7.118798   5.919617   2.471400   0.000000
    15  H    7.612271   6.232802   4.280590   2.471400   0.000000
    16  H    6.347206   4.965039   4.942800   4.280590   2.471400
    17  H    3.918930   2.578650   4.280590   4.942800   4.280590
    18  H    2.146700   3.396345   5.974992   8.329571   9.285600
    19  Cl   2.743718   1.760000   5.111382   6.307038   5.906383
    20  Cl   1.760000   2.743718   6.765486   8.663168   8.830073
    21  Cl   4.048303   4.562800   4.725732   7.184095   8.830073
    22  Cl   4.562800   4.048303   1.639199   4.042212   5.906383
                   16         17         18         19         20
    16  H    0.000000
    17  H    2.471400   0.000000
    18  H    8.329571   5.974992   0.000000
    19  Cl   4.042212   1.639199   4.890332   0.000000
    20  Cl   7.184095   4.725732   2.879094   3.161400   0.000000
    21  Cl   8.663168   6.765486   2.879094   6.322800   5.475705
    22  Cl   6.307038   5.111382   4.890332   5.475705   6.322800
                   21         22
    21  Cl   0.000000
    22  Cl   3.161400   0.000000
 Stoichiometry    C12H6Cl4
 Framework group  C1[X(C12H6Cl4)]
 Deg. of freedom    60
 Full point group                 C1      NOp   1
 Largest Abelian subgroup         C1      NOp   1
 Largest concise Abelian subgroup C1      NOp   1
                         Standard orientation:                         
 ---------------------------------------------------------------------
 Center     Atomic      Atomic             Coordinates (Angstroms)
 Number     Number       Type             X           Y           Z
 ---------------------------------------------------------------------
      1          6           0        1.721847    0.000000    0.000002
      2          6           0        2.422547    1.213648   -0.000001
      3          6           0        3.823947    1.213648   -0.000003
      4          6           0        4.524647    0.000000   -0.000002
      5          6           0        3.823947   -1.213648    0.000003
      6          6           0        2.422547   -1.213648    0.000004
      7          6           0        0.181847    0.000000    0.000003
      8          6           0       -0.518853    1.213648    0.000002
      9          6           0       -1.920253    1.213648    0.000002
     10          6           0       -2.620953    0.000000    0.000001
     11          6           0       -1.920253   -1.213648    0.000001
     12          6           0       -0.518853   -1.213648    0.000002
     13          1           0        1.887547    2.140295   -0.000004
     14          1           0        4.358947    2.140295   -0.000006
     15          1           0        5.594647    0.000000   -0.000004
     16          1           0        4.358947   -2.140295    0.000006
     17          1           0        1.887547   -2.140295    0.000007
     18          1           0       -3.690953    0.000000   -0.000001
     19         17           0        0.361147   -2.737853   -0.000000
     20         17           0       -2.800253   -2.737853   -0.000003
     21         17           0       -2.800253    2.737853    0.000001
     22         17           0        0.361147    2.737853   -0.000002
 ---------------------------------------------------------------------
 Rotational constants (GHZ):           0.4182380           0.3162838           0.1800926
 Standard basis: 6-311+G(d,p) (5D, 7F)
 There are   436 symmetry adapted cartesian basis functions of A   symmetry.
 There are   420 symmetry adapted basis functions of A   symmetry.
   420 basis functions,   692 primitive gaussians,   436 cartesian basis functions
    73 alpha electrons       73 beta electrons
       nuclear repulsion energy      1498.3987758227 Hartrees.
 NAtoms=   22 NActive=   22 NUniq=   22 SFac= 1.00D+00 NAtFMM=   60 NAOKFM=F Big=F
 Integral buffers will be    131072 words long.
 Raffenetti 2 integral format.
 Two-electron integral symmetry is turned on.
 One-electron integrals computed using PRISM.
 NBasis=   420 RedAO= T EigKep=  1.69D-06  NBF=   420
 NBsUse=   414 1.00D-06 EigRej=  9.81D-07 NBFU=   414
 ExpMin= 4.38D-02 ExpMax= 1.06D+05 ExpMxC= 3.62D+03 IAcc=3 IRadAn=         5 AccDes= 0.00D+00
 Harris functional with IExCor=  402 and IRadAn=       5 diagonalized for initial guess.
 HarFok:  IExCor=  402 AccDes= 0.00D+00 IRadAn=         5 IDoV= 1 UseB2=F ITyADJ=14
 ICtDFT=  3500011 ScaDFX=  1.000000  1.000000  1.000000  1.000000
 FoFCou: FMM=F IPFlag=           0 FMFlag=      100000 FMFlg1=           0
         NFxFlg=           0 DoJE=T BraDBF=F KetDBF=T FulRan=T
         wScrn=  0.000000 ICntrl=       500 IOpCl=  0 I1Cent=   200000004 NGrid=           0
         NMat0=    1 NMatS0=      1 NMatT0=    0 NMatD0=    1 NMtDS0=    0 NMtDT0=    0
 Petite list used in FoFCou.
 Requested convergence on RMS density matrix=1.00D-08 within  32 cycles.
 Requested convergence on MAX density matrix=1.00D-06.
 Requested convergence on             energy=1.00D-06.
 No special actions if energy rises.
 EnCoef did     1 forward-backward iterations
 SCF Done:  E(RB3LYP) =  -2301.77231244     A.U. after   15 cycles
            NFock= 15  Conv=0.83D-08     -V/T= 2.0025
 QCSCF skips out because SCF is already converged.

 **********************************************************************

            Population analysis using the SCF Density.

 **********************************************************************

 Orbital symmetries:
       Occupied  (A) (A) (A) (A) (A) (A) (A) (A) (A) (A) (A) (A)
                 (A) (A) (A) (A) (A) (A) (A) (A) (A) (A) (A) (A)
                 (A) (A) (A) (A) (A) (A) (A) (A) (A) (A) (A) (A)
                 (A) (A) (A) (A) (A) (A) (A) (A) (A) (A) (A) (A)
                 (A) (A) (A) (A) (A) (A) (A) (A) (A) (A) (A) (A)
                 (A) (A) (A) (A) (A) (A) (A) (A) (A) (A) (A) (A)
                 (A)
       Virtual   (A) (A) (A) (A) (A) (A) (A) (A) (A) (A) (A) (A)
                 (A) (A) (A) (A) (A) (A) (A) (A) (A) (A) (A) (A)
                 (A) (A) (A) (A) (A) (A) (A) (A) (A) (A) (A) (A)
                 (A) (A) (A) (A) (A) (A) (A) (A) (A) (A) (A) (A)
                 (A) (A) (A) (A) (A) (A) (A) (A) (A) (A) (A) (A)
                 (A) (A) (A) (A) (A) (A) (A) (A) (A) (A) (A) (A)
                 (A) (A) (A) (A) (A) (A) (A) (A) (A) (A) (A) (A)
                 (A) (A) (A) (A) (A) (A) (A) (A) (A) (A) (A) (A)
                 (A) (A) (A) (A) (A) (A) (A) (A) (A) (A) (A) (A)
                 (A) (A) (A) (A) (A) (A) (A) (A) (A) (A) (A) (A)
                 (A) (A) (A) (A) (A) (A) (A) (A) (A) (A) (A) (A)
                 (A) (A) (A) (A) (A) (A) (A) (A) (A) (A) (A) (A)
                 (A) (A) (A) (A) (A) (A) (A) (A) (A) (A) (A) (A)
                 (A) (A) (A) (A) (A) (A) (A) (A) (A) (A) (A) (A)
                 (A) (A) (A) (A) (A) (A) (A) (A) (A) (A) (A) (A)
                 (A) (A) (A) (A) (A) (A) (A) (A) (A) (A) (A) (A)
                 (A) (A) (A) (A) (A) (A) (A) (A) (A) (A) (A) (A)
                 (A) (A) (A) (A) (A) (A) (A) (A) (A) (A) (A) (A)
                 (A) (A) (A) (A) (A) (A) (A) (A) (A) (A) (A) (A)
                 (A) (A) (A) (A) (A) (A) (A) (A) (A) (A) (A) (A)
                 (A) (A) (A) (A) (A) (A) (A) (A) (A) (A) (A) (A)
                 (A) (A) (A) (A) (A) (A) (A) (A) (A) (A) (A) (A)
                 (A) (A) (A) (A) (A) (A) (A) (A) (A) (A) (A) (A)
                 (A) (A) (A) (A) (A) (A) (A) (A) (A) (A) (A) (A)
                 (A) (A) (A) (A) (A) (A) (A) (A) (A) (A) (A) (A)
                 (A) (A) (A) (A) (A) (A) (A) (A) (A) (A) (A) (A)
                 (A) (A) (A) (A) (A) (A) (A) (A) (A) (A) (A) (A)
                 (A) (A) (A) (A) (A) (A) (A) (A) (A) (A) (A) (A)
                 (A) (A) (A) (A) (A)
 The electronic state is 1-A.
 Alpha  occ. eigenvalues -- -101.57893-101.57893-101.57821-101.57821 -10.28051
 Alpha  occ. eigenvalues --  -10.28050 -10.27826 -10.27825 -10.24326 -10.22695
 Alpha  occ. eigenvalues --  -10.20522 -10.18044 -10.17784 -10.17778 -10.16319
 Alpha  occ. eigenvalues --  -10.16318  -9.49602  -9.49602  -9.49311  -9.49311
 Alpha  occ. eigenvalues --   -7.26030  -7.26030  -7.25811  -7.25811  -7.25054
 Alpha  occ. eigenvalues --   -7.25054  -7.25009  -7.25009  -7.24789  -7.24789
 Alpha  occ. eigenvalues --   -7.24728  -7.24728  -0.95875  -0.92552  -0.89919
 Alpha  occ. eigenvalues --   -0.88242  -0.85720  -0.84627  -0.79004  -0.75739
 Alpha  occ. eigenvalues --   -0.75057  -0.74346  -0.65930  -0.63155  -0.62114
 Alpha  occ. eigenvalues --   -0.60653  -0.54819  -0.53856  -0.53622  -0.48954
 Alpha  occ. eigenvalues --   -0.48438  -0.48313  -0.46158  -0.45697  -0.45427
 Alpha  occ. eigenvalues --   -0.44964  -0.41983  -0.41938  -0.41012  -0.39267
 Alpha  occ. eigenvalues --   -0.38166  -0.38125  -0.36535  -0.36466  -0.34303
 Alpha  occ. eigenvalues --   -0.33778  -0.33660  -0.29947  -0.28732  -0.27373
 Alpha  occ. eigenvalues --   -0.27084  -0.25680  -0.25070
 Alpha virt. eigenvalues --   -0.07051  -0.05935  -0.05003  -0.01919  -0.01908
 Alpha virt. eigenvalues --   -0.00417  -0.00250   0.00095   0.01349   0.01692
 Alpha virt. eigenvalues --    0.02651   0.02892   0.04140   0.04622   0.04719
 Alpha virt. eigenvalues --    0.05481   0.05777   0.06328   0.06672   0.06786
 Alpha virt. eigenvalues --    0.08047   0.08141   0.08634   0.08713   0.09022
 Alpha virt. eigenvalues --    0.09590   0.10310   0.10803   0.11048   0.11731
 Alpha virt. eigenvalues --    0.12360   0.12442   0.12543   0.13456   0.13619
 Alpha virt. eigenvalues --    0.13677   0.13915   0.14171   0.15608   0.15684
 Alpha virt. eigenvalues --    0.16022   0.16987   0.17010   0.17368   0.17551
 Alpha virt. eigenvalues --    0.17982   0.18330   0.18823   0.19437   0.19454
 Alpha virt. eigenvalues --    0.20232   0.20404   0.20440   0.21154   0.21399
 Alpha virt. eigenvalues --    0.21734   0.21938   0.22108   0.22382   0.23146
 Alpha virt. eigenvalues --    0.23364   0.24713   0.25101   0.25503   0.25640
 Alpha virt. eigenvalues --    0.25907   0.26595   0.27030   0.27587   0.27915
 Alpha virt. eigenvalues --    0.28512   0.29878   0.30608   0.30773   0.32011
 Alpha virt. eigenvalues --    0.32127   0.32353   0.33151   0.33908   0.34958
 Alpha virt. eigenvalues --    0.35909   0.37112   0.37311   0.39214   0.41299
 Alpha virt. eigenvalues --    0.42254   0.42490   0.43550   0.44016   0.44809
 Alpha virt. eigenvalues --    0.45399   0.45701   0.45970   0.47094   0.47679
 Alpha virt. eigenvalues --    0.48439   0.49656   0.51236   0.51375   0.52091
 Alpha virt. eigenvalues --    0.53200   0.54154   0.54449   0.54606   0.56151
 Alpha virt. eigenvalues --    0.56634   0.57822   0.58224   0.58609   0.58725
 Alpha virt. eigenvalues --    0.58965   0.59293   0.59990   0.62005   0.63066
 Alpha virt. eigenvalues --    0.63977   0.64623   0.64730   0.65351   0.65521
 Alpha virt. eigenvalues --    0.66563   0.68385   0.69439   0.69724   0.70344
 Alpha virt. eigenvalues --    0.72883   0.74434   0.75815   0.78550   0.79538
 Alpha virt. eigenvalues --    0.80182   0.81028   0.82108   0.82870   0.82964
 Alpha virt. eigenvalues --    0.83598   0.83670   0.84121   0.84504   0.84742
 Alpha virt. eigenvalues --    0.85943   0.86235   0.86482   0.86563   0.87175
 Alpha virt. eigenvalues --    0.88440   0.89264   0.89532   0.90009   0.91538
 Alpha virt. eigenvalues --    0.92960   0.93469   0.94010   0.94475   0.94480
 Alpha virt. eigenvalues --    0.94678   0.96304   0.96552   0.96778   0.97904
 Alpha virt. eigenvalues --    0.98857   0.99651   1.00577   1.01334   1.04507
 Alpha virt. eigenvalues --    1.04768   1.08498   1.08724   1.08928   1.11502
 Alpha virt. eigenvalues --    1.12873   1.13547   1.13830   1.14136   1.15762
 Alpha virt. eigenvalues --    1.17683   1.21777   1.22451   1.24191   1.25360
 Alpha virt. eigenvalues --    1.27765   1.27881   1.28840   1.29851   1.33140
 Alpha virt. eigenvalues --    1.33310   1.37502   1.40147   1.40665   1.44599
 Alpha virt. eigenvalues --    1.46062   1.49902   1.50766   1.50766   1.54871
 Alpha virt. eigenvalues --    1.56021   1.56094   1.56190   1.57730   1.59503
 Alpha virt. eigenvalues --    1.63779   1.64822   1.65604   1.66415   1.70034
 Alpha virt. eigenvalues --    1.70953   1.74656   1.74780   1.76006   1.76067
 Alpha virt. eigenvalues --    1.78744   1.81898   1.83180   1.83912   1.84834
 Alpha virt. eigenvalues --    1.87384   1.87902   1.89453   1.89776   1.91973
 Alpha virt. eigenvalues --    1.94543   1.95633   1.96662   1.97002   1.97426
 Alpha virt. eigenvalues --    2.02085   2.02820   2.06236   2.07785   2.08114
 Alpha virt. eigenvalues --    2.09262   2.12982   2.13878   2.21836   2.22497
 Alpha virt. eigenvalues --    2.23359   2.23374   2.23543   2.25148   2.27276
 Alpha virt. eigenvalues --    2.28357   2.33822   2.35508   2.36286   2.36491
 Alpha virt. eigenvalues --    2.38847   2.40271   2.41224   2.43935   2.44498
 Alpha virt. eigenvalues --    2.44826   2.48660   2.50621   2.52894   2.56763
 Alpha virt. eigenvalues --    2.56763   2.58275   2.59382   2.65345   2.65777
 Alpha virt. eigenvalues --    2.66804   2.70252   2.70384   2.72873   2.73164
 Alpha virt. eigenvalues --    2.73679   2.73902   2.75048   2.76717   2.77720
 Alpha virt. eigenvalues --    2.80413   2.80619   2.81497   2.81632   2.84121
 Alpha virt. eigenvalues --    2.86603   2.92215   2.93480   2.94295   3.01600
 Alpha virt. eigenvalues --    3.04915   3.06062   3.08512   3.11090   3.12673
 Alpha virt. eigenvalues --    3.13194   3.17105   3.21530   3.22141   3.26616
 Alpha virt. eigenvalues --    3.33970   3.37132   3.37182   3.51139   3.53922
 Alpha virt. eigenvalues --    3.54621   3.55489   3.66264   3.70528   3.77137
 Alpha virt. eigenvalues --    3.89834   3.99315   4.03872   4.05887   4.18148
 Alpha virt. eigenvalues --    4.23582   4.45957   4.79255   4.85019   9.75561
 Alpha virt. eigenvalues --    9.78080   9.85912   9.87109  23.32353  23.66300
 Alpha virt. eigenvalues --   23.78022  23.83712  23.92601  23.92961  23.98948
 Alpha virt. eigenvalues --   23.98951  24.04200  24.06930  24.09459  24.18543
 Alpha virt. eigenvalues --   25.77107  25.78696  25.86758  25.88398  26.09207
 Alpha virt. eigenvalues --   26.20815  26.46375  26.50188  26.69887  26.75842
 Alpha virt. eigenvalues --   26.80917  26.93693 215.74744 215.77576 215.88192
 Alpha virt. eigenvalues --  215.89378
          Condensed to atoms (all electrons):
               1          2          3          4          5          6
     1  C   13.521523   1.564153  -0.018848  -0.296506  -0.018848   1.564153
     2  C    1.564153  10.028106  -2.506555  -0.450384   1.857517  -1.345824
     3  C   -0.018848  -2.506555  10.347622   0.990451  -1.397076   1.857518
     4  C   -0.296506  -0.450384   0.990451   5.895641   0.990451  -0.450384
     5  C   -0.018848   1.857517  -1.397076   0.990451  10.347622  -2.506555
     6  C    1.564153  -1.345824   1.857518  -0.450384  -2.506555  10.028106
     7  C    4.781443   0.635081  -1.168513  -0.565150  -1.168513   0.635081
     8  C   -2.695926  -0.666335  -0.925551  -0.218668  -0.343204  -1.029888
     9  C   -4.604357  -0.896091  -0.226404  -0.054329  -0.332636  -0.889837
    10  C    0.516420   0.522609   0.023539   0.064542   0.023539   0.522609
    11  C   -4.604357  -0.889837  -0.332636  -0.054329  -0.226404  -0.896091
    12  C   -2.695926  -1.029888  -0.343204  -0.218668  -0.925551  -0.666335
    13  H   -0.125687   0.460009   0.118677   0.009156  -0.026888   0.045315
    14  H    0.065191  -0.009538   0.306855  -0.015716  -0.000670  -0.013887
    15  H    0.030830   0.028835  -0.074719   0.385065  -0.074719   0.028835
    16  H    0.065191  -0.013887  -0.000670  -0.015716   0.306855  -0.009538
    17  H   -0.125687   0.045315  -0.026888   0.009156   0.118677   0.460009
    18  H    0.008960   0.000355   0.000112  -0.000005   0.000112   0.000355
    19  Cl  -0.218575  -0.104993  -0.031482   0.000265  -0.393527  -0.766395
    20  Cl  -0.103548  -0.039874  -0.002979  -0.001390   0.013923   0.001853
    21  Cl  -0.103548   0.001853   0.013923  -0.001390  -0.002979  -0.039874
    22  Cl  -0.218575  -0.766395  -0.393527   0.000265  -0.031482  -0.104993
               7          8          9         10         11         12
     1  C    4.781443  -2.695926  -4.604357   0.516420  -4.604357  -2.695926
     2  C    0.635081  -0.666335  -0.896091   0.522609  -0.889837  -1.029888
     3  C   -1.168513  -0.925551  -0.226404   0.023539  -0.332636  -0.343204
     4  C   -0.565150  -0.218668  -0.054329   0.064542  -0.054329  -0.218668
     5  C   -1.168513  -0.343204  -0.332636   0.023539  -0.226404  -0.925551
     6  C    0.635081  -1.029888  -0.889837   0.522609  -0.896091  -0.666335
     7  C   21.178261  -2.280225  -7.934708   4.350002  -7.934707  -2.280225
     8  C   -2.280225  12.907423   1.454501  -5.918201   3.102259   3.367273
     9  C   -7.934708   1.454501  23.664542  -4.726891  -3.634655   3.102259
    10  C    4.350002  -5.918201  -4.726891  22.117207  -4.726891  -5.918201
    11  C   -7.934707   3.102259  -3.634655  -4.726891  23.664542   1.454501
    12  C   -2.280225   3.367273   3.102259  -5.918201   1.454501  12.907424
    13  H   -0.064742   0.089844  -0.018517  -0.011574  -0.010341   0.007868
    14  H    0.009562   0.001692   0.000727   0.000248   0.000063   0.002683
    15  H    0.015729   0.001895   0.000237  -0.000056   0.000237   0.001895
    16  H    0.009562   0.002683   0.000063   0.000248   0.000727   0.001692
    17  H   -0.064742   0.007868  -0.010341  -0.011574  -0.018517   0.089844
    18  H    0.043600   0.061174  -0.000591   0.175326  -0.000591   0.061174
    19  Cl  -0.263248  -0.065686   0.722562   0.514440   0.344486  -1.301292
    20  Cl  -0.503892   0.195065  -0.162662  -0.481504  -0.345375   0.802269
    21  Cl  -0.503892   0.802269  -0.345375  -0.481504  -0.162662   0.195065
    22  Cl  -0.263248  -1.301292   0.344486   0.514440   0.722562  -0.065686
              13         14         15         16         17         18
     1  C   -0.125687   0.065191   0.030830   0.065191  -0.125687   0.008960
     2  C    0.460009  -0.009538   0.028835  -0.013887   0.045315   0.000355
     3  C    0.118677   0.306855  -0.074719  -0.000670  -0.026888   0.000112
     4  C    0.009156  -0.015716   0.385065  -0.015716   0.009156  -0.000005
     5  C   -0.026888  -0.000670  -0.074719   0.306855   0.118677   0.000112
     6  C    0.045315  -0.013887   0.028835  -0.009538   0.460009   0.000355
     7  C   -0.064742   0.009562   0.015729   0.009562  -0.064742   0.043600
     8  C    0.089844   0.001692   0.001895   0.002683   0.007868   0.061174
     9  C   -0.018517   0.000727   0.000237   0.000063  -0.010341  -0.000591
    10  C   -0.011574   0.000248  -0.000056   0.000248  -0.011574   0.175326
    11  C   -0.010341   0.000063   0.000237   0.000727  -0.018517  -0.000591
    12  C    0.007868   0.002683   0.001895   0.001692   0.089844   0.061174
    13  H    0.737752  -0.014696  -0.000577   0.000165  -0.000410   0.000003
    14  H   -0.014696   0.551594  -0.007008  -0.000354   0.000165  -0.000000
    15  H   -0.000577  -0.007008   0.547103  -0.007008  -0.000577   0.000000
    16  H    0.000165  -0.000354  -0.007008   0.551594  -0.014696  -0.000000
    17  H   -0.000410   0.000165  -0.000577  -0.014696   0.737752   0.000003
    18  H    0.000003  -0.000000   0.000000  -0.000000   0.000003   0.486882
    19  Cl   0.002886  -0.000351   0.000498   0.004405  -0.321500  -0.000090
    20  Cl   0.000087  -0.000001  -0.000000  -0.000008   0.006563  -0.003891
    21  Cl   0.006563  -0.000008  -0.000000  -0.000001   0.000087  -0.003891
    22  Cl  -0.321500   0.004405   0.000498  -0.000351   0.002886  -0.000090
              19         20         21         22
     1  C   -0.218575  -0.103548  -0.103548  -0.218575
     2  C   -0.104993  -0.039874   0.001853  -0.766395
     3  C   -0.031482  -0.002979   0.013923  -0.393527
     4  C    0.000265  -0.001390  -0.001390   0.000265
     5  C   -0.393527   0.013923  -0.002979  -0.031482
     6  C   -0.766395   0.001853  -0.039874  -0.104993
     7  C   -0.263248  -0.503892  -0.503892  -0.263248
     8  C   -0.065686   0.195065   0.802269  -1.301292
     9  C    0.722562  -0.162662  -0.345375   0.344486
    10  C    0.514440  -0.481504  -0.481504   0.514440
    11  C    0.344486  -0.345375  -0.162662   0.722562
    12  C   -1.301292   0.802269   0.195065  -0.065686
    13  H    0.002886   0.000087   0.006563  -0.321500
    14  H   -0.000351  -0.000001  -0.000008   0.004405
    15  H    0.000498  -0.000000  -0.000000   0.000498
    16  H    0.004405  -0.000008  -0.000001  -0.000351
    17  H   -0.321500   0.006563   0.000087   0.002886
    18  H   -0.000090  -0.003891  -0.003891  -0.000090
    19  Cl  18.468657  -0.273823   0.004469  -0.049089
    20  Cl  -0.273823  17.386902  -0.027494   0.004469
    21  Cl   0.004469  -0.027494  17.386902  -0.273823
    22  Cl  -0.049089   0.004469  -0.273823  18.468657
 Mulliken charges:
               1
     1  C   -0.287476
     2  C   -0.424233
     3  C   -0.209644
     4  C   -0.002360
     5  C   -0.209644
     6  C   -0.424233
     7  C   -0.662519
     8  C   -0.548970
     9  C    0.548015
    10  C   -1.068775
    11  C    0.548015
    12  C   -0.548970
    13  H    0.116607
    14  H    0.119043
    15  H    0.123010
    16  H    0.119043
    17  H    0.116607
    18  H    0.171098
    19  Cl   0.727381
    20  Cl   0.535311
    21  Cl   0.535311
    22  Cl   0.727381
 Sum of Mulliken charges =  -0.00000
 Mulliken charges with hydrogens summed into heavy atoms:
               1
     1  C   -0.287476
     2  C   -0.307626
     3  C   -0.090601
     4  C    0.120651
     5  C   -0.090601
     6  C   -0.307626
     7  C   -0.662519
     8  C   -0.548970
     9  C    0.548015
    10  C   -0.897678
    11  C    0.548015
    12  C   -0.548970
    19  Cl   0.727381
    20  Cl   0.535311
    21  Cl   0.535311
    22  Cl   0.727381
 Electronic spatial extent (au):  <R**2>=           5388.9175
 Charge=             -0.0000 electrons
 Dipole moment (field-independent basis, Debye):
    X=              0.3548    Y=             -0.0000    Z=             -0.0000  Tot=              0.3548
 Quadrupole moment (field-independent basis, Debye-Ang):
   XX=           -112.1958   YY=           -118.1390   ZZ=           -124.1612
   XY=             -0.0000   XZ=             -0.0000   YZ=             -0.0000
 Traceless Quadrupole moment (field-independent basis, Debye-Ang):
   XX=              5.9695   YY=              0.0263   ZZ=             -5.9959
   XY=             -0.0000   XZ=             -0.0000   YZ=             -0.0000
 Octapole moment (field-independent basis, Debye-Ang**2):
  XXX=             -0.5780  YYY=              0.0000  ZZZ=             -0.0000  XYY=             16.9059
  XXY=             -0.0000  XXZ=             -0.0001  XZZ=            -17.0615  YZZ=             -0.0000
  YYZ=             -0.0000  XYZ=             -0.0001
 Hexadecapole moment (field-independent basis, Debye-Ang**3):
 XXXX=          -3937.3651 YYYY=          -2753.6466 ZZZZ=           -145.8633 XXXY=             -0.0000
 XXXZ=             -0.0002 YYYX=             -0.0000 YYYZ=             -0.0001 ZZZX=              0.0001
 ZZZY=              0.0000 XXYY=          -1114.8893 XXZZ=           -788.6590 YYZZ=           -515.3148
 XXYZ=             -0.0002 YYXZ=              0.0001 ZZXY=             -0.0000
 N-N= 1.498398775823D+03 E-N=-8.441223286954D+03  KE= 2.296015733219D+03
 Calling FoFJK, ICntrl=      2127 FMM=F ISym2X=0 I1Cent= 0 IOpClX= 0 NMat=1 NMatS=1 NMatT=0.
 ***** Axes restored to original set *****
 -------------------------------------------------------------------
 Center     Atomic                   Forces (Hartrees/Bohr)
 Number     Number              X              Y              Z
 -------------------------------------------------------------------
      1        6          -0.013772730   -0.023530946    0.000118076
      2        6           0.008710252    0.050981137    0.006705256
      3        6          -0.022424697    0.003059199    0.007962584
      4        6          -0.005812405   -0.009930478    0.000049663
      5        6           0.013613428   -0.018113566   -0.007886841
      6        6           0.040155356    0.032506839   -0.007124511
      7        6           0.023134718    0.039526096   -0.000198377
      8        6          -0.004667722   -0.004352354    0.000720504
      9        6           0.000836955    0.000130435   -0.000251306
     10        6           0.006606435    0.011287225   -0.000056659
     11        6          -0.000294981    0.000795456    0.000246773
     12        6          -0.001512223   -0.006206240   -0.000667466
     13        1           0.003506605    0.052410068    0.008687802
     14        1           0.009548294   -0.000317282   -0.003205310
     15        1           0.005472872    0.009350504   -0.000046932
     16        1          -0.004938214    0.008193688    0.003165804
     17        1           0.043940570    0.028654720   -0.009095207
     18        1          -0.003901523   -0.006665810    0.000033436
     19       17          -0.084568952   -0.062601235    0.016105113
     20       17           0.007421894   -0.004810482   -0.003348750
     21       17          -0.007813939    0.004140717    0.003352040
     22       17          -0.013239993   -0.104507692   -0.015265694
 -------------------------------------------------------------------
 Cartesian Forces:  Max     0.104507692 RMS     0.024217492

 GradGradGradGradGradGradGradGradGradGradGradGradGradGradGradGradGradGrad
 Berny optimization.
 FormGI is forming the generalized inverse of G from B-inverse, IUseBI=4.
 Internal  Forces:  Max     0.193464904 RMS     0.050292788
 Search for a local minimum.
 Step number   1 out of a maximum of  121
 All quantities printed in internal units (Hartrees-Bohrs-Radians)
 Mixed Optimization -- RFO/linear search
 Second derivative matrix not updated -- first step.
 ITU=  0
     Eigenvalues ---    0.00237   0.01506   0.01506   0.02070   0.02070
     Eigenvalues ---    0.02070   0.02070   0.02070   0.02070   0.02070
     Eigenvalues ---    0.02070   0.02070   0.02070   0.02070   0.02070
     Eigenvalues ---    0.02070   0.02070   0.02070   0.02070   0.16000
     Eigenvalues ---    0.16000   0.16000   0.16000   0.16000   0.16000
     Eigenvalues ---    0.22000   0.22000   0.23485   0.23485   0.25000
     Eigenvalues ---    0.25000   0.25000   0.25000   0.25000   0.25000
     Eigenvalues ---    0.25000   0.25000   0.28519   0.29539   0.29539
     Eigenvalues ---    0.29539   0.29539   0.37230   0.37230   0.37230
     Eigenvalues ---    0.37230   0.37230   0.37230   0.41268   0.41459
     Eigenvalues ---    0.41635   0.41797   0.45389   0.45389   0.45389
     Eigenvalues ---    0.45389   0.45389   0.45389   0.45389   0.45389
 RFO step:  Lambda=-4.05959168D-01 EMin= 2.36824176D-03
 Linear search not attempted -- first point.
 Maximum step size (   0.300) exceeded in Quadratic search.
    -- Step size scaled by   0.390
 Iteration  1 RMS(Cart)=  0.09927990 RMS(Int)=  0.00385057
 Iteration  2 RMS(Cart)=  0.00439269 RMS(Int)=  0.00015948
 Iteration  3 RMS(Cart)=  0.00000748 RMS(Int)=  0.00015944
 Iteration  4 RMS(Cart)=  0.00000000 RMS(Int)=  0.00015944
 Variable       Old X    -DE/DX   Delta X   Delta X   Delta X     New X
                                 (Linear)    (Quad)   (Total)
    R1        2.64826   0.03518   0.00000   0.01648   0.01663   2.66489
    R2        2.64826   0.03518   0.00000   0.01648   0.01663   2.66489
    R3        2.91018   0.15441   0.00000   0.08707   0.08707   2.99725
    R4        2.64826  -0.00449   0.00000  -0.00204  -0.00204   2.64623
    R5        2.02201  -0.04520   0.00000  -0.02263  -0.02263   1.99937
    R6        2.64826  -0.04011   0.00000  -0.01871  -0.01886   2.62940
    R7        2.02201   0.01006   0.00000   0.00504   0.00504   2.02705
    R8        2.64826  -0.04011   0.00000  -0.01871  -0.01886   2.62940
    R9        2.02201   0.01083   0.00000   0.00543   0.00543   2.02743
   R10        2.64826  -0.00449   0.00000  -0.00204  -0.00204   2.64623
   R11        2.02201   0.01006   0.00000   0.00504   0.00504   2.02705
   R12        2.02201  -0.04520   0.00000  -0.02263  -0.02263   1.99937
   R13        2.64826   0.14309   0.00000   0.06685   0.06715   2.71541
   R14        2.64826   0.14309   0.00000   0.06685   0.06715   2.71541
   R15        2.64826  -0.00283   0.00000  -0.00128  -0.00129   2.64698
   R16        3.32592  -0.01010   0.00000  -0.00561  -0.00561   3.32031
   R17        2.64826  -0.06533   0.00000  -0.03160  -0.03192   2.61635
   R18        3.32592  -0.00799   0.00000  -0.00444  -0.00444   3.32148
   R19        2.64826  -0.06533   0.00000  -0.03160  -0.03192   2.61635
   R20        2.02201   0.00772   0.00000   0.00387   0.00387   2.02587
   R21        2.64826  -0.00283   0.00000  -0.00128  -0.00129   2.64698
   R22        3.32592  -0.00799   0.00000  -0.00444  -0.00444   3.32148
   R23        3.32592  -0.01010   0.00000  -0.00561  -0.00561   3.32031
    A1        2.09440  -0.11386   0.00000  -0.06674  -0.06642   2.02798
    A2        2.09440   0.05693   0.00000   0.03337   0.03321   2.12760
    A3        2.09440   0.05693   0.00000   0.03337   0.03321   2.12760
    A4        2.09440   0.05443   0.00000   0.03410   0.03425   2.12865
    A5        2.09440   0.00123   0.00000   0.00254   0.00246   2.09686
    A6        2.09440  -0.05566   0.00000  -0.03663  -0.03671   2.05768
    A7        2.09440   0.01519   0.00000   0.00818   0.00802   2.10242
    A8        2.09440  -0.00814   0.00000  -0.00447  -0.00439   2.09001
    A9        2.09440  -0.00705   0.00000  -0.00372  -0.00364   2.09076
   A10        2.09440  -0.02538   0.00000  -0.01782  -0.01813   2.07626
   A11        2.09440   0.01269   0.00000   0.00891   0.00907   2.10346
   A12        2.09440   0.01269   0.00000   0.00891   0.00907   2.10346
   A13        2.09440   0.01519   0.00000   0.00818   0.00802   2.10242
   A14        2.09440  -0.00705   0.00000  -0.00372  -0.00364   2.09076
   A15        2.09440  -0.00814   0.00000  -0.00447  -0.00439   2.09001
   A16        2.09440   0.05443   0.00000   0.03410   0.03425   2.12865
   A17        2.09440   0.00123   0.00000   0.00254   0.00246   2.09686
   A18        2.09440  -0.05566   0.00000  -0.03663  -0.03671   2.05768
   A19        2.09440   0.07060   0.00000   0.03923   0.03890   2.13329
   A20        2.09440   0.07060   0.00000   0.03923   0.03890   2.13329
   A21        2.09440  -0.14120   0.00000  -0.07846  -0.07780   2.01660
   A22        2.09440   0.03450   0.00000   0.02327   0.02358   2.11797
   A23        2.09440   0.15896   0.00000   0.09306   0.09290   2.18730
   A24        2.09440  -0.19346   0.00000  -0.11633  -0.11648   1.97791
   A25        2.09440   0.04257   0.00000   0.02273   0.02241   2.11681
   A26        2.09440  -0.01287   0.00000  -0.00637  -0.00620   2.08819
   A27        2.09440  -0.02970   0.00000  -0.01637  -0.01620   2.07819
   A28        2.09440  -0.01295   0.00000  -0.01354  -0.01418   2.08021
   A29        2.09440   0.00648   0.00000   0.00677   0.00709   2.10149
   A30        2.09440   0.00648   0.00000   0.00677   0.00709   2.10149
   A31        2.09440   0.04257   0.00000   0.02273   0.02241   2.11681
   A32        2.09440  -0.02970   0.00000  -0.01637  -0.01620   2.07819
   A33        2.09440  -0.01287   0.00000  -0.00637  -0.00620   2.08819
   A34        2.09440   0.03450   0.00000   0.02327   0.02358   2.11797
   A35        2.09440   0.15896   0.00000   0.09306   0.09290   2.18730
   A36        2.09440  -0.19346   0.00000  -0.11633  -0.11648   1.97791
    D1        0.00000   0.00000   0.00000   0.00000   0.00000   0.00000
    D2        3.14159  -0.00000   0.00000   0.00000   0.00000   3.14159
    D3       -3.14159  -0.00000   0.00000  -0.00000  -0.00000  -3.14159
    D4       -0.00000  -0.00000   0.00000  -0.00000  -0.00000  -0.00000
    D5       -0.00000  -0.00000   0.00000  -0.00000  -0.00000  -0.00000
    D6        3.14159  -0.00000   0.00000  -0.00000  -0.00000   3.14159
    D7        3.14159   0.00000   0.00000   0.00000   0.00000   3.14159
    D8        0.00000  -0.00000   0.00000  -0.00000  -0.00000  -0.00000
    D9       -0.00000  -0.00000   0.00000  -0.00000  -0.00000  -0.00000
   D10        3.14159  -0.00000   0.00000  -0.00000  -0.00000   3.14159
   D11        3.14159  -0.00000   0.00000  -0.00000  -0.00000   3.14159
   D12       -0.00000  -0.00000   0.00000  -0.00000  -0.00000  -0.00000
   D13        0.00000  -0.00000   0.00000  -0.00000  -0.00000   0.00000
   D14        3.14159  -0.00000   0.00000  -0.00000  -0.00000   3.14159
   D15       -3.14159  -0.00000   0.00000  -0.00000  -0.00000  -3.14159
   D16        0.00000  -0.00000   0.00000  -0.00000  -0.00000   0.00000
   D17       -0.00000  -0.00000   0.00000   0.00000   0.00000  -0.00000
   D18        3.14159   0.00000   0.00000   0.00000   0.00000   3.14159
   D19        3.14159  -0.00000   0.00000  -0.00000  -0.00000   3.14159
   D20        0.00000  -0.00000   0.00000  -0.00000  -0.00000   0.00000
   D21        0.00000   0.00000   0.00000   0.00000   0.00000   0.00000
   D22       -3.14159   0.00000   0.00000   0.00000   0.00000  -3.14159
   D23       -3.14159  -0.00000   0.00000  -0.00000  -0.00000  -3.14159
   D24        0.00000   0.00000   0.00000   0.00000   0.00000   0.00000
   D25       -0.00000   0.00000   0.00000   0.00000   0.00000  -0.00000
   D26        3.14159   0.00000   0.00000   0.00000   0.00000   3.14159
   D27        3.14159   0.00000   0.00000  -0.00000  -0.00000   3.14159
   D28       -0.00000   0.00000   0.00000   0.00000   0.00000  -0.00000
   D29        3.14159   0.00000   0.00000   0.00000   0.00000   3.14159
   D30        0.00000   0.00000   0.00000   0.00000   0.00000   0.00000
   D31        0.00000   0.00000   0.00000   0.00000   0.00000   0.00000
   D32       -3.14159  -0.00000   0.00000  -0.00000  -0.00000  -3.14159
   D33       -3.14159  -0.00000   0.00000  -0.00000  -0.00000  -3.14159
   D34        0.00000  -0.00000   0.00000  -0.00000  -0.00000  -0.00000
   D35       -0.00000   0.00000   0.00000   0.00000   0.00000  -0.00000
   D36        3.14159  -0.00000   0.00000  -0.00000  -0.00000   3.14159
   D37       -0.00000  -0.00000   0.00000  -0.00000  -0.00000  -0.00000
   D38        3.14159  -0.00000   0.00000  -0.00000  -0.00000   3.14159
   D39        3.14159   0.00000   0.00000   0.00000   0.00000   3.14159
   D40       -0.00000   0.00000   0.00000   0.00000   0.00000  -0.00000
   D41       -0.00000   0.00000   0.00000   0.00000   0.00000  -0.00000
   D42       -3.14159  -0.00000   0.00000  -0.00000  -0.00000  -3.14159
   D43        3.14159   0.00000   0.00000   0.00000   0.00000   3.14159
   D44        0.00000   0.00000   0.00000   0.00000   0.00000   0.00000
   D45        0.00000   0.00000   0.00000   0.00000   0.00000   0.00000
   D46       -3.14159  -0.00000   0.00000  -0.00000  -0.00000  -3.14159
   D47        3.14159   0.00000   0.00000   0.00000   0.00000   3.14159
   D48        0.00000  -0.00000   0.00000  -0.00000  -0.00000   0.00000
   D49        0.00000  -0.00000   0.00000  -0.00000  -0.00000   0.00000
   D50       -3.14159   0.00000   0.00000   0.00000   0.00000  -3.14159
   D51        3.14159   0.00000   0.00000   0.00000   0.00000   3.14159
   D52       -0.00000   0.00000   0.00000   0.00000   0.00000  -0.00000
         Item               Value     Threshold  Converged?
 Maximum Force            0.193465     0.000450     NO 
 RMS     Force            0.050293     0.000300     NO 
 Maximum Displacement     0.534065     0.001800     NO 
 RMS     Displacement     0.100607     0.001200     NO 
 Predicted change in Energy=-1.456275D-01
 GradGradGradGradGradGradGradGradGradGradGradGradGradGradGradGradGradGrad

                          Input orientation:                          
 ---------------------------------------------------------------------
 Center     Atomic      Atomic             Coordinates (Angstroms)
 Number     Number       Type             X           Y           Z
 ---------------------------------------------------------------------
      1          6           0       -0.088379   -0.185665   -0.003063
      2          6           0        1.253238   -0.109525   -0.430765
      3          6           0        1.961764    1.098304   -0.437351
      4          6           0        1.352355    2.275859   -0.015422
      5          6           0        0.029086    2.233771    0.412628
      6          6           0       -0.677085    1.024559    0.418178
      7          6           0       -0.889558   -1.554497    0.003810
      8          6           0       -0.296691   -2.791590   -0.423852
      9          6           0       -1.021456   -3.990148   -0.410173
     10          6           0       -2.338083   -4.029336    0.016240
     11          6           0       -2.946777   -2.859004    0.436578
     12          6           0       -2.256610   -1.640118    0.438116
     13          1           0        1.756126   -0.980236   -0.759970
     14          1           0        2.981387    1.115444   -0.770051
     15          1           0        1.894298    3.201780   -0.020071
     16          1           0       -0.453804    3.133652    0.740723
     17          1           0       -1.681064    1.039146    0.751683
     18          1           0       -2.879608   -4.954545    0.020888
     19         17           0       -3.226874   -0.291944    1.010980
     20         17           0       -4.618342   -2.912254    0.977292
     21         17           0       -0.251716   -5.477689   -0.943144
     22         17           0        1.351383   -2.981714   -1.002525
 ---------------------------------------------------------------------
                    Distance matrix (angstroms):
                    1          2          3          4          5
     1  C    0.000000
     2  C    1.410199   0.000000
     3  C    2.457696   1.400322   0.000000
     4  C    2.852187   2.423302   1.391417   0.000000
     5  C    2.457696   2.775049   2.397290   1.391417   0.000000
     6  C    1.410199   2.394368   2.775049   2.423302   1.400322
     7  C    1.586076   2.620758   3.919440   4.438263   3.919440
     8  C    2.647886   3.097709   4.498008   5.344643   5.104907
     9  C    3.938333   4.498211   5.898533   6.712203   6.365361
    10  C    4.453689   5.335009   6.707244   7.305876   6.707244
    11  C    3.938333   5.094315   6.365361   6.712203   5.898533
    12  C    2.647886   3.926411   5.104907   5.344643   4.498008
    13  H    2.146264   1.058022   2.113456   3.364453   3.832427
    14  H    3.421201   2.145265   1.072666   2.137703   3.371271
    15  H    3.925058   3.397700   2.145527   1.072871   2.145527
    16  H    3.421201   3.847670   3.371271   2.137703   1.072666
    17  H    2.146264   3.365673   3.832427   3.364453   2.113456
    18  H    5.525736   6.384249   7.764397   8.377923   7.764397
    19  Cl   3.299959   4.709916   5.563489   5.349435   4.163956
    20  Cl   5.377356   6.656829   7.834768   7.971903   6.956940
    21  Cl   5.377356   5.598626   6.956940   7.971903   7.834768
    22  Cl   3.299959   2.930190   4.163956   5.349435   5.563489
                    6          7          8          9         10
     6  C    0.000000
     7  C    2.620758   0.000000
     8  C    3.926411   1.436936   0.000000
     9  C    5.094315   2.474101   1.400719   0.000000
    10  C    5.335009   2.867613   2.427545   1.384511   0.000000
    11  C    4.498211   2.474101   2.787084   2.388166   1.384511
    12  C    3.097709   1.436936   2.431081   2.787084   2.427545
    13  H    3.365673   2.812966   2.758267   4.110583   5.163532
    14  H    3.847670   4.765675   5.111806   6.497641   7.442028
    15  H    3.397700   5.511134   6.394056   7.770305   8.378747
    16  H    2.145265   4.765675   6.040646   7.238461   7.442028
    17  H    1.058022   2.812966   4.239446   5.203729   5.163532
    18  H    6.384249   3.939660   3.398181   2.137429   1.072047
    19  Cl   2.930190   2.841034   4.110102   4.534342   3.968319
    20  Cl   5.598626   4.085952   4.544714   4.003062   2.714972
    21  Cl   6.656829   4.085952   2.736205   1.757651   2.714972
    22  Cl   4.709915   2.841034   1.757031   2.645409   3.968319
                   11         12         13         14         15
    11  C    0.000000
    12  C    1.400719   0.000000
    13  H    5.203729   4.239446   0.000000
    14  H    7.238461   6.040646   2.427600   0.000000
    15  H    7.770305   6.394056   4.249212   2.469216   0.000000
    16  H    6.497641   5.111807   4.905094   4.261002   2.469216
    17  H    4.110583   2.758267   4.263482   4.905094   4.249212
    18  H    2.137429   3.398181   6.155884   8.474764   9.450794
    19  Cl   2.645409   1.757031   5.332944   6.610243   6.284550
    20  Cl   1.757651   2.736205   6.883649   8.776756   8.988361
    21  Cl   4.003062   4.544714   4.928699   7.345225   8.988361
    22  Cl   4.534342   4.110102   2.056347   4.415616   6.284550
                   16         17         18         19         20
    16  H    0.000000
    17  H    2.427600   0.000000
    18  H    8.474764   6.155884   0.000000
    19  Cl   4.415616   2.056347   4.779197   0.000000
    20  Cl   7.345225   4.928699   2.847605   2.967043   0.000000
    21  Cl   8.776756   6.883649   2.847605   6.289842   5.416360
    22  Cl   6.610243   5.332944   4.779197   5.678864   6.289842
                   21         22
    21  Cl   0.000000
    22  Cl   2.967043   0.000000
 Stoichiometry    C12H6Cl4
 Framework group  C1[X(C12H6Cl4)]
 Deg. of freedom    60
 Full point group                 C1      NOp   1
 Largest Abelian subgroup         C1      NOp   1
 Largest concise Abelian subgroup C1      NOp   1
                         Standard orientation:                         
 ---------------------------------------------------------------------
 Center     Atomic      Atomic             Coordinates (Angstroms)
 Number     Number       Type             X           Y           Z
 ---------------------------------------------------------------------
      1          6           0        1.839513    0.000000    0.000002
      2          6           0        2.584773    1.197184   -0.000002
      3          6           0        3.985094    1.198645   -0.000004
      4          6           0        4.691700    0.000000   -0.000002
      5          6           0        3.985094   -1.198645    0.000004
      6          6           0        2.584773   -1.197184    0.000005
      7          6           0        0.253437    0.000000    0.000002
      8          6           0       -0.512882    1.215541    0.000002
      9          6           0       -1.913437    1.194083    0.000002
     10          6           0       -2.614176    0.000000    0.000002
     11          6           0       -1.913437   -1.194083    0.000001
     12          6           0       -0.512882   -1.215541    0.000002
     13          1           0        2.088774    2.131741   -0.000005
     14          1           0        4.516374    2.130501   -0.000007
     15          1           0        5.764571    0.000000   -0.000004
     16          1           0        4.516374   -2.130501    0.000007
     17          1           0        2.088774   -2.131741    0.000009
     18          1           0       -3.686223    0.000000   -0.000000
     19         17           0        0.158039   -2.839432   -0.000001
     20         17           0       -2.806100   -2.708180   -0.000003
     21         17           0       -2.806100    2.708180    0.000002
     22         17           0        0.158039    2.839432   -0.000002
 ---------------------------------------------------------------------
 Rotational constants (GHZ):           0.4096538           0.3023828           0.1739690
 Standard basis: 6-311+G(d,p) (5D, 7F)
 There are   436 symmetry adapted cartesian basis functions of A   symmetry.
 There are   420 symmetry adapted basis functions of A   symmetry.
   420 basis functions,   692 primitive gaussians,   436 cartesian basis functions
    73 alpha electrons       73 beta electrons
       nuclear repulsion energy      1479.9659594942 Hartrees.
 NAtoms=   22 NActive=   22 NUniq=   22 SFac= 1.00D+00 NAtFMM=   60 NAOKFM=F Big=F
 Integral buffers will be    131072 words long.
 Raffenetti 2 integral format.
 Two-electron integral symmetry is turned on.
 One-electron integrals computed using PRISM.
 NBasis=   420 RedAO= T EigKep=  1.21D-06  NBF=   420
 NBsUse=   415 1.00D-06 EigRej=  5.25D-07 NBFU=   415
 Initial guess from the checkpoint file:  "/scratch/gour/Gau-18148.chk"
 B after Tr=    -0.000000    0.000000   -0.000000
         Rot=    1.000000   -0.000000   -0.000000    0.000000 Ang=  -0.00 deg.
 ExpMin= 4.38D-02 ExpMax= 1.06D+05 ExpMxC= 3.62D+03 IAcc=3 IRadAn=         5 AccDes= 0.00D+00
 Harris functional with IExCor=  402 and IRadAn=       5 diagonalized for initial guess.
 HarFok:  IExCor=  402 AccDes= 0.00D+00 IRadAn=         5 IDoV= 1 UseB2=F ITyADJ=14
 ICtDFT=  3500011 ScaDFX=  1.000000  1.000000  1.000000  1.000000
 FoFCou: FMM=F IPFlag=           0 FMFlag=      100000 FMFlg1=           0
         NFxFlg=           0 DoJE=T BraDBF=F KetDBF=T FulRan=T
         wScrn=  0.000000 ICntrl=       500 IOpCl=  0 I1Cent=   200000004 NGrid=           0
         NMat0=    1 NMatS0=      1 NMatT0=    0 NMatD0=    1 NMtDS0=    0 NMtDT0=    0
 Petite list used in FoFCou.
 Requested convergence on RMS density matrix=1.00D-08 within  32 cycles.
 Requested convergence on MAX density matrix=1.00D-06.
 Requested convergence on             energy=1.00D-06.
 No special actions if energy rises.
 SCF Done:  E(RB3LYP) =  -2301.84711741     A.U. after   14 cycles
            NFock= 14  Conv=0.64D-08     -V/T= 2.0028
 QCSCF skips out because SCF is already converged.
 Calling FoFJK, ICntrl=      2127 FMM=F ISym2X=0 I1Cent= 0 IOpClX= 0 NMat=1 NMatS=1 NMatT=0.
 ***** Axes restored to original set *****
 -------------------------------------------------------------------
 Center     Atomic                   Forces (Hartrees/Bohr)
 Number     Number              X              Y              Z
 -------------------------------------------------------------------
      1        6          -0.012254804   -0.020937527    0.000105058
      2        6          -0.002091553    0.016401894    0.003769646
      3        6          -0.014251997   -0.003195842    0.004095290
      4        6          -0.003729688   -0.006372096    0.000031803
      5        6           0.004174633   -0.014021679   -0.004008700
      6        6           0.015308384    0.006179269   -0.003882941
      7        6           0.013773426    0.023532101   -0.000118025
      8        6          -0.006315278    0.006784717    0.003354935
      9        6           0.003145192   -0.000189247   -0.001071831
     10        6           0.001012908    0.001730535   -0.000008665
     11        6          -0.001700434    0.002657607    0.001059520
     12        6           0.008993330   -0.002209234   -0.003377893
     13        1           0.005958193    0.001381999   -0.001703449
     14        1           0.007394756   -0.001622375   -0.002740923
     15        1           0.004079692    0.006970230   -0.000034984
     16        1          -0.005023595    0.005673531    0.002720629
     17        1          -0.001705254    0.005884346    0.001666820
     18        1          -0.003118686   -0.005328312    0.000026717
     19       17          -0.005331045   -0.005294790    0.000761990
     20       17           0.003634031   -0.009377681   -0.002958568
     21       17          -0.009942897   -0.001401104    0.003012627
     22       17          -0.002009315   -0.007246341   -0.000699059
 -------------------------------------------------------------------
 Cartesian Forces:  Max     0.023532101 RMS     0.007060349

 GradGradGradGradGradGradGradGradGradGradGradGradGradGradGradGradGradGrad
 Berny optimization.
 Using GEDIIS/GDIIS optimizer.
 FormGI is forming the generalized inverse of G from B-inverse, IUseBI=4.
 Internal  Forces:  Max     0.018279758 RMS     0.006019850
 Search for a local minimum.
 Step number   2 out of a maximum of  121
 All quantities printed in internal units (Hartrees-Bohrs-Radians)
 Mixed Optimization -- RFO/linear search
 Update second derivatives using D2CorX and points    1    2
 DE= -7.48D-02 DEPred=-1.46D-01 R= 5.14D-01
 TightC=F SS=  1.41D+00  RLast= 3.00D-01 DXNew= 5.0454D-01 8.9996D-01
 Trust test= 5.14D-01 RLast= 3.00D-01 DXMaxT set to 5.05D-01
 ITU=  1  0
 Use linear search instead of GDIIS.
     Eigenvalues ---    0.00237   0.01461   0.01467   0.02070   0.02070
     Eigenvalues ---    0.02070   0.02070   0.02070   0.02070   0.02070
     Eigenvalues ---    0.02070   0.02070   0.02070   0.02070   0.02070
     Eigenvalues ---    0.02070   0.02070   0.02070   0.02070   0.15999
     Eigenvalues ---    0.16000   0.16000   0.16000   0.16000   0.16084
     Eigenvalues ---    0.22000   0.22001   0.23467   0.23724   0.24870
     Eigenvalues ---    0.25000   0.25000   0.25000   0.25000   0.25000
     Eigenvalues ---    0.25000   0.27919   0.29532   0.29538   0.29539
     Eigenvalues ---    0.29539   0.36197   0.37189   0.37230   0.37230
     Eigenvalues ---    0.37230   0.37230   0.38242   0.41094   0.41642
     Eigenvalues ---    0.41674   0.45069   0.45352   0.45389   0.45389
     Eigenvalues ---    0.45389   0.45389   0.45389   0.45389   1.64986
 RFO step:  Lambda=-9.99620399D-03 EMin= 2.36824176D-03
 Quartic linear search produced a step of  0.17447.
 Iteration  1 RMS(Cart)=  0.04164143 RMS(Int)=  0.00107450
 Iteration  2 RMS(Cart)=  0.00111363 RMS(Int)=  0.00005823
 Iteration  3 RMS(Cart)=  0.00000027 RMS(Int)=  0.00005823
 Variable       Old X    -DE/DX   Delta X   Delta X   Delta X     New X
                                 (Linear)    (Quad)   (Total)
    R1        2.66489   0.00326   0.00290   0.00042   0.00338   2.66827
    R2        2.66489   0.00326   0.00290   0.00042   0.00338   2.66827
    R3        2.99725  -0.00424   0.01519  -0.06481  -0.04962   2.94763
    R4        2.64623  -0.00728  -0.00036  -0.01741  -0.01776   2.62846
    R5        1.99937   0.00222  -0.00395   0.01854   0.01459   2.01396
    R6        2.62940  -0.00617  -0.00329  -0.00669  -0.01004   2.61936
    R7        2.02705   0.00785   0.00088   0.02151   0.02239   2.04944
    R8        2.62940  -0.00617  -0.00329  -0.00669  -0.01004   2.61936
    R9        2.02743   0.00808   0.00095   0.02200   0.02294   2.05038
   R10        2.64623  -0.00728  -0.00036  -0.01741  -0.01776   2.62846
   R11        2.02705   0.00785   0.00088   0.02151   0.02239   2.04944
   R12        1.99937   0.00222  -0.00395   0.01854   0.01459   2.01396
   R13        2.71541   0.00927   0.01172  -0.00820   0.00362   2.71904
   R14        2.71541   0.00927   0.01172  -0.00820   0.00362   2.71904
   R15        2.64698   0.00673  -0.00022   0.01767   0.01744   2.66441
   R16        3.32031  -0.00087  -0.00098  -0.00028  -0.00126   3.31904
   R17        2.61635  -0.01321  -0.00557  -0.01931  -0.02498   2.59136
   R18        3.32148  -0.00408  -0.00077  -0.01327  -0.01405   3.30743
   R19        2.61635  -0.01321  -0.00557  -0.01931  -0.02498   2.59136
   R20        2.02587   0.00617   0.00067   0.01696   0.01764   2.04351
   R21        2.64698   0.00673  -0.00022   0.01767   0.01744   2.66441
   R22        3.32148  -0.00408  -0.00077  -0.01327  -0.01405   3.30743
   R23        3.32031  -0.00087  -0.00098  -0.00028  -0.00126   3.31904
    A1        2.02798  -0.01454  -0.01159  -0.02731  -0.03876   1.98922
    A2        2.12760   0.00727   0.00579   0.01366   0.01938   2.14698
    A3        2.12760   0.00727   0.00579   0.01366   0.01938   2.14698
    A4        2.12865   0.00677   0.00598   0.01393   0.01997   2.14862
    A5        2.09686   0.00256   0.00043   0.02118   0.02158   2.11843
    A6        2.05768  -0.00933  -0.00641  -0.03511  -0.04155   2.01614
    A7        2.10242   0.00309   0.00140   0.00903   0.01036   2.11278
    A8        2.09001  -0.00335  -0.00077  -0.01669  -0.01743   2.07258
    A9        2.09076   0.00025  -0.00063   0.00767   0.00707   2.09783
   A10        2.07626  -0.00519  -0.00316  -0.01860  -0.02190   2.05437
   A11        2.10346   0.00260   0.00158   0.00930   0.01095   2.11441
   A12        2.10346   0.00260   0.00158   0.00930   0.01095   2.11441
   A13        2.10242   0.00309   0.00140   0.00903   0.01036   2.11278
   A14        2.09076   0.00025  -0.00063   0.00767   0.00707   2.09783
   A15        2.09001  -0.00335  -0.00077  -0.01669  -0.01743   2.07258
   A16        2.12865   0.00677   0.00598   0.01393   0.01997   2.14862
   A17        2.09686   0.00256   0.00043   0.02118   0.02158   2.11843
   A18        2.05768  -0.00933  -0.00641  -0.03511  -0.04155   2.01614
   A19        2.13329   0.00852   0.00679   0.01310   0.01977   2.15307
   A20        2.13329   0.00852   0.00679   0.01310   0.01977   2.15307
   A21        2.01660  -0.01705  -0.01357  -0.02620  -0.03954   1.97705
   A22        2.11797   0.00532   0.00411   0.01391   0.01814   2.13611
   A23        2.18730   0.00980   0.01621  -0.01046   0.00570   2.19300
   A24        1.97791  -0.01511  -0.02032  -0.00346  -0.02383   1.95408
   A25        2.11681   0.00449   0.00391   0.00476   0.00856   2.12536
   A26        2.08819   0.01379  -0.00108   0.06718   0.06615   2.15434
   A27        2.07819  -0.01828  -0.00283  -0.07194  -0.07471   2.00348
   A28        2.08021  -0.00256  -0.00247  -0.01115  -0.01384   2.06637
   A29        2.10149   0.00128   0.00124   0.00557   0.00692   2.10841
   A30        2.10149   0.00128   0.00124   0.00557   0.00692   2.10841
   A31        2.11681   0.00449   0.00391   0.00476   0.00856   2.12536
   A32        2.07819  -0.01828  -0.00283  -0.07194  -0.07471   2.00348
   A33        2.08819   0.01379  -0.00108   0.06718   0.06615   2.15434
   A34        2.11797   0.00532   0.00411   0.01391   0.01814   2.13611
   A35        2.18730   0.00980   0.01621  -0.01046   0.00570   2.19300
   A36        1.97791  -0.01511  -0.02032  -0.00346  -0.02383   1.95408
    D1        0.00000  -0.00000   0.00000  -0.00000  -0.00000   0.00000
    D2        3.14159   0.00000   0.00000   0.00000   0.00000  -3.14159
    D3       -3.14159  -0.00000  -0.00000  -0.00000  -0.00000   3.14159
    D4       -0.00000  -0.00000  -0.00000   0.00000   0.00000  -0.00000
    D5       -0.00000   0.00000  -0.00000   0.00000   0.00000  -0.00000
    D6        3.14159  -0.00000  -0.00000  -0.00000  -0.00000   3.14159
    D7        3.14159   0.00000   0.00000   0.00000   0.00000  -3.14159
    D8       -0.00000  -0.00000  -0.00000  -0.00000  -0.00000  -0.00000
    D9       -0.00000  -0.00000  -0.00000  -0.00002  -0.00002  -0.00002
   D10        3.14159  -0.00000  -0.00000  -0.00001  -0.00001   3.14158
   D11        3.14159  -0.00000  -0.00000  -0.00002  -0.00002   3.14157
   D12       -0.00000  -0.00000  -0.00000  -0.00001  -0.00001  -0.00002
   D13        0.00000  -0.00000  -0.00000  -0.00000  -0.00000  -0.00000
   D14        3.14159   0.00000  -0.00000   0.00000   0.00000   3.14159
   D15       -3.14159  -0.00000  -0.00000  -0.00000  -0.00000  -3.14159
   D16        0.00000  -0.00000  -0.00000  -0.00000  -0.00000   0.00000
   D17       -0.00000   0.00000   0.00000   0.00000   0.00000  -0.00000
   D18        3.14159   0.00000   0.00000   0.00000   0.00000   3.14159
   D19        3.14159   0.00000  -0.00000   0.00000   0.00000   3.14159
   D20        0.00000  -0.00000  -0.00000  -0.00000  -0.00000  -0.00000
   D21        0.00000  -0.00000   0.00000  -0.00000  -0.00000   0.00000
   D22       -3.14159  -0.00000   0.00000  -0.00000  -0.00000  -3.14159
   D23       -3.14159  -0.00000  -0.00000  -0.00000  -0.00000  -3.14159
   D24        0.00000   0.00000   0.00000   0.00000   0.00000   0.00000
   D25       -0.00000   0.00000   0.00000   0.00000   0.00000   0.00000
   D26        3.14159   0.00000   0.00000   0.00000   0.00000  -3.14159
   D27        3.14159   0.00000  -0.00000   0.00000   0.00000   3.14159
   D28       -0.00000   0.00000   0.00000   0.00000   0.00000   0.00000
   D29        3.14159   0.00000   0.00000   0.00000   0.00000  -3.14159
   D30        0.00000  -0.00000   0.00000  -0.00000  -0.00000   0.00000
   D31        0.00000   0.00000   0.00000   0.00000   0.00000   0.00000
   D32       -3.14159  -0.00000  -0.00000  -0.00000  -0.00000   3.14159
   D33       -3.14159  -0.00000  -0.00000  -0.00000  -0.00000   3.14159
   D34       -0.00000  -0.00000  -0.00000  -0.00000  -0.00000  -0.00000
   D35       -0.00000   0.00000   0.00000   0.00000   0.00000  -0.00000
   D36        3.14159  -0.00000  -0.00000   0.00000   0.00000   3.14159
   D37       -0.00000  -0.00000  -0.00000  -0.00000  -0.00000  -0.00000
   D38        3.14159  -0.00000  -0.00000  -0.00000  -0.00000   3.14159
   D39        3.14159   0.00000   0.00000   0.00000   0.00000  -3.14159
   D40       -0.00000   0.00000   0.00000   0.00000   0.00000   0.00000
   D41       -0.00000   0.00000   0.00000   0.00000   0.00000   0.00000
   D42       -3.14159  -0.00000  -0.00000  -0.00000  -0.00000  -3.14159
   D43        3.14159   0.00000   0.00000   0.00000   0.00000  -3.14159
   D44        0.00000  -0.00000   0.00000  -0.00000  -0.00000   0.00000
   D45        0.00000   0.00000   0.00000   0.00000   0.00000   0.00000
   D46       -3.14159  -0.00000  -0.00000  -0.00000  -0.00000  -3.14159
   D47        3.14159   0.00000   0.00000   0.00000   0.00000  -3.14159
   D48        0.00000  -0.00000  -0.00000  -0.00000  -0.00000   0.00000
   D49        0.00000  -0.00000  -0.00000  -0.00000  -0.00000  -0.00000
   D50       -3.14159  -0.00000   0.00000  -0.00000  -0.00000  -3.14159
   D51        3.14159   0.00000   0.00000   0.00000   0.00000   3.14159
   D52       -0.00000   0.00000   0.00000   0.00000   0.00000   0.00000
         Item               Value     Threshold  Converged?
 Maximum Force            0.018280     0.000450     NO 
 RMS     Force            0.006020     0.000300     NO 
 Maximum Displacement     0.244263     0.001800     NO 
 RMS     Displacement     0.041590     0.001200     NO 
 Predicted change in Energy=-4.473220D-03
 GradGradGradGradGradGradGradGradGradGradGradGradGradGradGradGradGradGrad

                          Input orientation:                          
 ---------------------------------------------------------------------
 Center     Atomic      Atomic             Coordinates (Angstroms)
 Number     Number       Type             X           Y           Z
 ---------------------------------------------------------------------
      1          6           0       -0.087479   -0.184129   -0.003068
      2          6           0        1.255668   -0.081012   -0.426198
      3          6           0        1.960098    1.118321   -0.433033
      4          6           0        1.365865    2.298943   -0.015541
      5          6           0        0.047335    2.242087    0.408166
      6          6           0       -0.653434    1.040604    0.413391
      7          6           0       -0.875395   -1.530302    0.003693
      8          6           0       -0.306242   -2.782384   -0.418979
      9          6           0       -1.037623   -3.987714   -0.404396
     10          6           0       -2.341907   -4.035867    0.016272
     11          6           0       -2.936763   -2.871951    0.430855
     12          6           0       -2.243926   -1.643976    0.433223
     13          1           0        1.797766   -0.933765   -0.764939
     14          1           0        2.990047    1.116415   -0.772704
[...]

 **********************************************************************

            Population analysis using the SCF Density.

 **********************************************************************

 Orbital symmetries:
       Occupied  (A) (A) (A) (A) (A) (A) (A) (A) (A) (A) (A) (A)
                 (A) (A) (A) (A) (A) (A) (A) (A) (A) (A) (A) (A)
                 (A) (A) (A) (A) (A) (A) (A) (A) (A) (A) (A) (A)
                 (A) (A) (A) (A) (A) (A) (A) (A) (A) (A) (A) (A)
                 (A) (A) (A) (A) (A) (A) (A) (A) (A) (A) (A) (A)
                 (A) (A) (A) (A) (A) (A) (A) (A) (A) (A) (A) (A)
                 (A)
       Virtual   (A) (A) (A) (A) (A) (A) (A) (A) (A) (A) (A) (A)
                 (A) (A) (A) (A) (A) (A) (A) (A) (A) (A) (A) (A)
                 (A) (A) (A) (A) (A) (A) (A) (A) (A) (A) (A) (A)
                 (A) (A) (A) (A) (A) (A) (A) (A) (A) (A) (A) (A)
                 (A) (A) (A) (A) (A) (A) (A) (A) (A) (A) (A) (A)
                 (A) (A) (A) (A) (A) (A) (A) (A) (A) (A) (A) (A)
                 (A) (A) (A) (A) (A) (A) (A) (A) (A) (A) (A) (A)
                 (A) (A) (A) (A) (A) (A) (A) (A) (A) (A) (A) (A)
                 (A) (A) (A) (A) (A) (A) (A) (A) (A) (A) (A) (A)
                 (A) (A) (A) (A) (A) (A) (A) (A) (A) (A) (A) (A)
                 (A) (A) (A) (A) (A) (A) (A) (A) (A) (A) (A) (A)
                 (A) (A) (A) (A) (A) (A) (A) (A) (A) (A) (A) (A)
                 (A) (A) (A) (A) (A) (A) (A) (A) (A) (A) (A) (A)
                 (A) (A) (A) (A) (A) (A) (A) (A) (A) (A) (A) (A)
                 (A) (A) (A) (A) (A) (A) (A) (A) (A) (A) (A) (A)
                 (A) (A) (A) (A) (A) (A) (A) (A) (A) (A) (A) (A)
                 (A) (A) (A) (A) (A) (A) (A) (A) (A) (A) (A) (A)
                 (A) (A) (A) (A) (A) (A) (A) (A) (A) (A) (A) (A)
                 (A) (A) (A) (A) (A) (A) (A) (A) (A) (A) (A) (A)
                 (A) (A) (A) (A) (A) (A) (A) (A) (A) (A) (A) (A)
                 (A) (A) (A) (A) (A) (A) (A) (A) (A) (A) (A) (A)
                 (A) (A) (A) (A) (A) (A) (A) (A) (A) (A) (A) (A)
                 (A) (A) (A) (A) (A) (A) (A) (A) (A) (A) (A) (A)
                 (A) (A) (A) (A) (A) (A) (A) (A) (A) (A) (A) (A)
                 (A) (A) (A) (A) (A) (A) (A) (A) (A) (A) (A) (A)
                 (A) (A) (A) (A) (A) (A) (A) (A) (A) (A) (A) (A)
                 (A) (A) (A) (A) (A) (A) (A) (A) (A) (A) (A) (A)
                 (A) (A) (A) (A) (A) (A) (A) (A) (A) (A) (A) (A)
                 (A) (A) (A) (A) (A) (A) (A) (A)
 The electronic state is 1-A.
 Alpha  occ. eigenvalues -- -101.57511-101.57511-101.57183-101.57183 -10.27191
 Alpha  occ. eigenvalues --  -10.27189 -10.27122 -10.27122 -10.23475 -10.22133
 Alpha  occ. eigenvalues --  -10.20635 -10.19105 -10.19104 -10.18912 -10.18885
 Alpha  occ. eigenvalues --  -10.18831  -9.48968  -9.48968  -9.48655  -9.48655
 Alpha  occ. eigenvalues --   -7.25458  -7.25458  -7.25145  -7.25145  -7.24446
 Alpha  occ. eigenvalues --   -7.24446  -7.24387  -7.24387  -7.24140  -7.24140
 Alpha  occ. eigenvalues --   -7.24059  -7.24059  -0.95350  -0.91540  -0.89276
 Alpha  occ. eigenvalues --   -0.87222  -0.87015  -0.83643  -0.79410  -0.76375
 Alpha  occ. eigenvalues --   -0.74775  -0.73712  -0.66432  -0.62401  -0.61805
 Alpha  occ. eigenvalues --   -0.60467  -0.54407  -0.54288  -0.52542  -0.48855
 Alpha  occ. eigenvalues --   -0.47848  -0.47293  -0.46459  -0.44999  -0.44849
 Alpha  occ. eigenvalues --   -0.43800  -0.42319  -0.42302  -0.40347  -0.38264
 Alpha  occ. eigenvalues --   -0.37324  -0.36986  -0.36221  -0.35734  -0.34896
 Alpha  occ. eigenvalues --   -0.34178  -0.32722  -0.32476  -0.32295  -0.27710
 Alpha  occ. eigenvalues --   -0.27068  -0.26734  -0.26041
 Alpha virt. eigenvalues --   -0.05607  -0.05303  -0.03710  -0.03232  -0.02604
 Alpha virt. eigenvalues --   -0.00465  -0.00448   0.00599   0.01634   0.01849
 Alpha virt. eigenvalues --    0.02728   0.03086   0.03325   0.04101   0.04338
 Alpha virt. eigenvalues --    0.04754   0.05612   0.05957   0.06695   0.06995
 Alpha virt. eigenvalues --    0.07622   0.07708   0.08435   0.08593   0.08741
 Alpha virt. eigenvalues --    0.09654   0.09872   0.10713   0.11114   0.11235
 Alpha virt. eigenvalues --    0.11310   0.12422   0.12438   0.12605   0.13428
 Alpha virt. eigenvalues --    0.13678   0.13791   0.14074   0.15000   0.15242
 Alpha virt. eigenvalues --    0.15344   0.16141   0.16442   0.16584   0.16820
 Alpha virt. eigenvalues --    0.16849   0.17135   0.18149   0.19028   0.19669
 Alpha virt. eigenvalues --    0.19866   0.19880   0.19979   0.20641   0.20828
 Alpha virt. eigenvalues --    0.20853   0.21206   0.21544   0.21762   0.22554
 Alpha virt. eigenvalues --    0.22655   0.23575   0.23804   0.23980   0.24665
 Alpha virt. eigenvalues --    0.24861   0.25486   0.25569   0.25942   0.26115
 Alpha virt. eigenvalues --    0.26163   0.27911   0.28171   0.28705   0.28990
 Alpha virt. eigenvalues --    0.29210   0.29300   0.30305   0.30570   0.31747
 Alpha virt. eigenvalues --    0.31864   0.32826   0.32933   0.34197   0.35127
 Alpha virt. eigenvalues --    0.37534   0.40251   0.42470   0.43746   0.43827
 Alpha virt. eigenvalues --    0.44348   0.44833   0.46235   0.46256   0.46756
 Alpha virt. eigenvalues --    0.48073   0.48125   0.48496   0.49936   0.50873
 Alpha virt. eigenvalues --    0.52035   0.52267   0.52861   0.53873   0.54142
 Alpha virt. eigenvalues --    0.54495   0.56057   0.57050   0.58144   0.58501
 Alpha virt. eigenvalues --    0.58693   0.59131   0.60205   0.60574   0.60826
 Alpha virt. eigenvalues --    0.61802   0.62127   0.63212   0.64710   0.64937
 Alpha virt. eigenvalues --    0.66266   0.66342   0.67965   0.68634   0.70059
 Alpha virt. eigenvalues --    0.70182   0.70261   0.70489   0.71599   0.71828
 Alpha virt. eigenvalues --    0.73648   0.75616   0.76867   0.78533   0.80143
 Alpha virt. eigenvalues --    0.80413   0.81126   0.82114   0.83563   0.83709
 Alpha virt. eigenvalues --    0.83793   0.84172   0.84232   0.84790   0.84884
 Alpha virt. eigenvalues --    0.85064   0.85994   0.86391   0.86876   0.87426
 Alpha virt. eigenvalues --    0.87911   0.88249   0.88629   0.90146   0.92318
 Alpha virt. eigenvalues --    0.93535   0.94795   0.94825   0.95513   0.96334
 Alpha virt. eigenvalues --    0.97341   0.97686   0.98386   0.98972   0.99550
 Alpha virt. eigenvalues --    1.00749   1.01026   1.01846   1.03295   1.04732
 Alpha virt. eigenvalues --    1.06452   1.07088   1.07198   1.11942   1.13080
 Alpha virt. eigenvalues --    1.13290   1.16753   1.18000   1.19605   1.21697
 Alpha virt. eigenvalues --    1.24543   1.24862   1.28144   1.28862   1.28895
 Alpha virt. eigenvalues --    1.29140   1.30363   1.33031   1.36685   1.38725
 Alpha virt. eigenvalues --    1.38944   1.41568   1.43750   1.48195   1.49748
 Alpha virt. eigenvalues --    1.50431   1.50941   1.54896   1.55782   1.56714
 Alpha virt. eigenvalues --    1.58022   1.59232   1.59706   1.62446   1.64728
 Alpha virt. eigenvalues --    1.66430   1.68670   1.68710   1.70742   1.72683
 Alpha virt. eigenvalues --    1.74053   1.74839   1.75328   1.76524   1.78838
 Alpha virt. eigenvalues --    1.80879   1.83160   1.83302   1.84670   1.88131
 Alpha virt. eigenvalues --    1.89928   1.90604   1.92760   1.94230   1.94870
 Alpha virt. eigenvalues --    1.96599   1.97128   1.97566   2.01553   2.02675
 Alpha virt. eigenvalues --    2.03244   2.04461   2.07077   2.10356   2.11920
 Alpha virt. eigenvalues --    2.12548   2.19783   2.23585   2.24279   2.24786
 Alpha virt. eigenvalues --    2.25577   2.26185   2.28809   2.30246   2.34828
 Alpha virt. eigenvalues --    2.35876   2.36837   2.38809   2.39355   2.39497
 Alpha virt. eigenvalues --    2.39964   2.41335   2.43083   2.47122   2.47130
 Alpha virt. eigenvalues --    2.51277   2.53445   2.53904   2.56486   2.58350
 Alpha virt. eigenvalues --    2.61723   2.63185   2.65349   2.65462   2.67463
 Alpha virt. eigenvalues --    2.69319   2.69959   2.71197   2.72468   2.74311
 Alpha virt. eigenvalues --    2.74387   2.75493   2.75524   2.79327   2.79437
 Alpha virt. eigenvalues --    2.84311   2.84440   2.84597   2.86135   2.88063
 Alpha virt. eigenvalues --    2.91494   2.92209   2.97931   3.00810   3.06152
 Alpha virt. eigenvalues --    3.09008   3.10350   3.12422   3.13225   3.16515
 Alpha virt. eigenvalues --    3.21579   3.25585   3.27824   3.33422   3.37195
 Alpha virt. eigenvalues --    3.38712   3.48342   3.52152   3.54186   3.58436
 Alpha virt. eigenvalues --    3.63295   3.77115   3.78863   3.89829   3.97501
 Alpha virt. eigenvalues --    3.99730   4.03599   4.13902   4.14860   4.34231
 Alpha virt. eigenvalues --    4.80730   4.83864   9.76100   9.78476   9.81507
 Alpha virt. eigenvalues --    9.84233  23.35324  23.65500  23.79171  23.86432
 Alpha virt. eigenvalues --   23.93050  23.94002  23.94849  24.00687  24.07495
 Alpha virt. eigenvalues --   24.08513  24.10725  24.18995  25.79355  25.80603
 Alpha virt. eigenvalues --   25.87982  25.93088  26.11730  26.15422  26.21745
 Alpha virt. eigenvalues --   26.35080  26.52463  26.56431  26.75536  26.96438
 Alpha virt. eigenvalues --  215.75257 215.77870 215.81433 215.84853
          Condensed to atoms (all electrons):
               1          2          3          4          5          6
     1  C   16.634122   0.674570  -1.916778  -1.452488  -1.916747   0.674954
     2  C    0.674570  16.944999  -2.622034   2.085286  -3.114522  -2.275620
     3  C   -1.916778  -2.622034  10.583800  -1.582108   1.742344  -3.114312
     4  C   -1.452488   2.085286  -1.582108   8.905323  -1.581869   2.084792
     5  C   -1.916747  -3.114522   1.742344  -1.581869  10.583097  -2.620522
     6  C    0.674954  -2.275620  -3.114312   2.084792  -2.620522  16.943165
     7  C    2.196610  -2.035328   1.499083  -1.619172   1.499130  -2.034769
     8  C   -1.028125  -1.116215   0.358859  -0.306183   0.357615  -1.119499
     9  C   -3.545775  -0.651871   0.233001  -0.136292   0.233230  -0.650978
    10  C   -0.142942   0.541577  -0.146924   0.081991  -0.146751   0.541927
    11  C   -3.546410  -0.650854   0.233371  -0.136308   0.232898  -0.652038
    12  C   -1.026948  -1.119158   0.357971  -0.306151   0.358422  -1.116497
    13  H    0.001358   0.285311  -0.042640  -0.024686  -0.000660  -0.010457
    14  H    0.038857  -0.021666   0.353816  -0.000958  -0.017156  -0.002438
    15  H    0.032842  -0.035545   0.010398   0.352315   0.010398  -0.035536
    16  H    0.038855  -0.002436  -0.017159  -0.000956   0.353814  -0.021662
    17  H    0.001351  -0.010470  -0.000655  -0.024692  -0.042645   0.285313
    18  H    0.017859  -0.000361   0.000008  -0.000005   0.000008  -0.000364
    19  Cl  -0.309657  -0.027168   0.183243  -0.112233   0.182586  -0.026555
    20  Cl  -0.080065  -0.025406   0.006978  -0.003460   0.006986  -0.025321
    21  Cl  -0.080059  -0.025341   0.006985  -0.003460   0.006978  -0.025387
    22  Cl  -0.309803  -0.026610   0.182590  -0.112227   0.183206  -0.027075
               7          8          9         10         11         12
     1  C    2.196610  -1.028125  -3.545775  -0.142942  -3.546410  -1.026948
     2  C   -2.035328  -1.116215  -0.651871   0.541577  -0.650854  -1.119158
     3  C    1.499083   0.358859   0.233001  -0.146924   0.233371   0.357971
     4  C   -1.619172  -0.306183  -0.136292   0.081991  -0.136308  -0.306151
     5  C    1.499130   0.357615   0.233230  -0.146751   0.232898   0.358422
     6  C   -2.034769  -1.119499  -0.650978   0.541927  -0.652038  -1.116497
     7  C   14.848630  -1.831951  -3.004120   2.711984  -3.004144  -1.831820
     8  C   -1.831951  35.925356 -10.690186  -7.009229   9.697530 -16.212630
     9  C   -3.004120 -10.690186  24.149491  -1.355561  -8.110819   9.697144
    10  C    2.711984  -7.009229  -1.355561  19.515981  -1.355403  -7.009415
    11  C   -3.004144   9.697530  -8.110819  -1.355403  24.150044 -10.690695
    12  C   -1.831820 -16.212630   9.697144  -7.009415 -10.690695  35.925363
    13  H    0.038756   0.047629   0.007909  -0.002944   0.007847   0.047780
    14  H   -0.004616   0.002134  -0.000068   0.000088  -0.000066   0.002131
    15  H    0.012844   0.001214   0.000182   0.000003   0.000182   0.001214
    16  H   -0.004617   0.002131  -0.000066   0.000088  -0.000068   0.002133
    17  H    0.038768   0.047786   0.007848  -0.002946   0.007910   0.047635
    18  H    0.052691   0.099729   0.004447   0.070580   0.004441   0.099728
    19  Cl  -0.365240  -1.455128   1.014776   0.335564  -1.219985   0.681753
    20  Cl  -0.393136   0.463513  -0.287032  -0.171523  -0.182391   0.108766
    21  Cl  -0.393128   0.108770  -0.182405  -0.171518  -0.287028   0.463500
    22  Cl  -0.365250   0.681900  -1.219986   0.335569   1.014821  -1.455173
              13         14         15         16         17         18
     1  C    0.001358   0.038857   0.032842   0.038855   0.001351   0.017859
     2  C    0.285311  -0.021666  -0.035545  -0.002436  -0.010470  -0.000361
     3  C   -0.042640   0.353816   0.010398  -0.017159  -0.000655   0.000008
     4  C   -0.024686  -0.000958   0.352315  -0.000956  -0.024692  -0.000005
     5  C   -0.000660  -0.017156   0.010398   0.353814  -0.042645   0.000008
     6  C   -0.010457  -0.002438  -0.035536  -0.021662   0.285313  -0.000364
     7  C    0.038756  -0.004616   0.012844  -0.004617   0.038768   0.052691
     8  C    0.047629   0.002134   0.001214   0.002131   0.047786   0.099729
     9  C    0.007909  -0.000068   0.000182  -0.000066   0.007848   0.004447
    10  C   -0.002944   0.000088   0.000003   0.000088  -0.002946   0.070580
    11  C    0.007847  -0.000066   0.000182  -0.000068   0.007910   0.004441
    12  C    0.047780   0.002131   0.001214   0.002133   0.047635   0.099728
    13  H    0.541908  -0.007440  -0.000234   0.000077  -0.000067  -0.000001
    14  H   -0.007440   0.537140  -0.007768  -0.000246   0.000077  -0.000000
    15  H   -0.000234  -0.007768   0.535977  -0.007768  -0.000234  -0.000000
    16  H    0.000077  -0.000246  -0.007768   0.537140  -0.007440  -0.000000
    17  H   -0.000067   0.000077  -0.000234  -0.007440   0.541910  -0.000001
    18  H   -0.000001  -0.000000  -0.000000  -0.000000  -0.000001   0.490188
    19  Cl  -0.004509  -0.000918  -0.000215  -0.000916  -0.004532  -0.001252
    20  Cl   0.000233  -0.000001   0.000001  -0.000001   0.000233  -0.004327
    21  Cl   0.000233  -0.000001   0.000001  -0.000001   0.000233  -0.004327
    22  Cl  -0.004531  -0.000916  -0.000215  -0.000918  -0.004509  -0.001252
              19         20         21         22
     1  C   -0.309657  -0.080065  -0.080059  -0.309803
     2  C   -0.027168  -0.025406  -0.025341  -0.026610
     3  C    0.183243   0.006978   0.006985   0.182590
     4  C   -0.112233  -0.003460  -0.003460  -0.112227
     5  C    0.182586   0.006986   0.006978   0.183206
     6  C   -0.026555  -0.025321  -0.025387  -0.027075
     7  C   -0.365240  -0.393136  -0.393128  -0.365250
     8  C   -1.455128   0.463513   0.108770   0.681900
     9  C    1.014776  -0.287032  -0.182405  -1.219986
    10  C    0.335564  -0.171523  -0.171518   0.335569
    11  C   -1.219985  -0.182391  -0.287028   1.014821
    12  C    0.681753   0.108766   0.463500  -1.455173
    13  H   -0.004509   0.000233   0.000233  -0.004531
    14  H   -0.000918  -0.000001  -0.000001  -0.000916
    15  H   -0.000215   0.000001   0.000001  -0.000215
    16  H   -0.000916  -0.000001  -0.000001  -0.000918
    17  H   -0.004532   0.000233   0.000233  -0.004509
    18  H   -0.001252  -0.004327  -0.004327  -0.001252
    19  Cl  17.897852  -0.232048   0.005718  -0.127738
    20  Cl  -0.232048  17.364409  -0.030877   0.005718
    21  Cl   0.005718  -0.030877  17.364407  -0.232046
    22  Cl  -0.127738   0.005718  -0.232046  17.897846
 Mulliken charges:
               1
     1  C    1.044418
     2  C   -0.771138
     3  C   -0.309838
     4  C   -0.106459
     5  C   -0.309839
     6  C   -0.771123
     7  C   -0.011204
     8  C   -1.025020
     9  C    0.487131
    10  C   -0.620196
    11  C    0.487168
    12  C   -1.025053
    13  H    0.119129
    14  H    0.130017
    15  H    0.129944
    16  H    0.130016
    17  H    0.119128
    18  H    0.172211
    19  Cl   0.586604
    20  Cl   0.478752
    21  Cl   0.478753
    22  Cl   0.586599
 Sum of Mulliken charges =  -0.00000
 Mulliken charges with hydrogens summed into heavy atoms:
               1
     1  C    1.044418
     2  C   -0.652009
     3  C   -0.179822
     4  C    0.023486
     5  C   -0.179823
     6  C   -0.651995
     7  C   -0.011204
     8  C   -1.025020
     9  C    0.487131
    10  C   -0.447985
    11  C    0.487168
    12  C   -1.025053
    19  Cl   0.586604
    20  Cl   0.478752
    21  Cl   0.478753
    22  Cl   0.586599
 Electronic spatial extent (au):  <R**2>=           5334.5514
 Charge=             -0.0000 electrons
 Dipole moment (field-independent basis, Debye):
    X=              1.0630    Y=             -0.0000    Z=             -0.0000  Tot=              1.0630
 Quadrupole moment (field-independent basis, Debye-Ang):
   XX=           -109.0358   YY=           -127.7611   ZZ=           -115.6999
   XY=              0.0001   XZ=              0.0001   YZ=              0.0058
 Traceless Quadrupole moment (field-independent basis, Debye-Ang):
   XX=              8.4631   YY=            -10.2621   ZZ=              1.7990
   XY=              0.0001   XZ=              0.0001   YZ=              0.0058
 Octapole moment (field-independent basis, Debye-Ang**2):
  XXX=             15.8979  YYY=             -0.0002  ZZZ=             -0.0014  XYY=            -11.6001
  XXY=             -0.0004  XXZ=             -0.0014  XZZ=              9.9354  YZZ=              0.0000
  YYZ=             -0.0017  XYZ=              0.0184
 Hexadecapole moment (field-independent basis, Debye-Ang**3):
 XXXX=          -3853.7875 YYYY=          -2486.1699 ZZZZ=           -367.8227 XXXY=             -0.0001
 XXXZ=              0.0043 YYYX=             -0.0022 YYYZ=             -0.0217 ZZZX=              0.0012
 ZZZY=              0.0302 XXYY=          -1160.7468 XXZZ=           -726.5837 YYZZ=           -507.2663
 XXYZ=              0.0624 YYXZ=              0.0028 ZZXY=             -0.0002
 N-N= 1.489543933878D+03 E-N=-8.423570931717D+03  KE= 2.295545638754D+03
 1\1\GINC-LOCALHOST\FOpt\RB3LYP\6-311+G(d,p)\C12H6Cl4\GOUR\15-Mar-2022\
 0\\# opt b3lyp/6-311+g(d,p) scf=xqc\\Title Card Required\\0,1\C,-0.118
 0620266,-0.2363317329,-0.0027825631\C,1.1133994495,-0.1377887473,0.650
 0576222\C,1.8162133906,1.0647201585,0.6435831247\C,1.294407628,2.17682
 58963,-0.0146588962\C,0.0664257156,2.0824547599,-0.6669641064\C,-0.637
 9366736,0.8808481463,-0.661608204\C,-0.8733891766,-1.5267596798,0.0035
 724034\C,-0.6727450384,-2.481423496,-1.0069889863\C,-1.3814157419,-3.6
 876630637,-0.9973733155\C,-2.2931807615,-3.9526182891,0.0156136321\C,-
 2.5043157702,-3.0204317889,1.022644926\C,-1.7996345714,-1.8118227014,1
 .0202754402\H,1.5206861422,-1.0020234802,1.1625453941\H,2.7709002014,1
 .1316584425,1.1528209246\H,1.8420212684,3.1124067451,-0.0192617059\H,-
 0.34486641,2.9438929603,-1.1807669708\H,-1.5930999602,0.8090585098,-1.
 169483316\H,-2.839189318,-4.8855983987,0.020267248\Cl,-2.0676048739,-0
 .6436931708,2.2872010482\Cl,-3.6615131038,-3.4048242798,2.2708800583\C
 l,-1.1551244264,-4.8941261116,-2.2376123171\Cl,0.4716141858,-2.1525111
 697,-2.2812333489\\Version=EM64L-G16RevB.01\State=1-A\HF=-2301.8916409
 \RMSD=2.609e-09\RMSF=4.014e-06\Dipole=0.2112544,0.3609202,-0.0017692\Q
 uadrupole=0.6451992,4.337188,-4.9823872,3.3223695,3.5056609,-2.1075922
 \PG=C01 [X(C12H6Cl4)]\\@


 THE RED LIGHT IS ALWAYS LONGER THAN THE GREEN LIGHT.

                     -- PETER'S THEORY OF RELATIVITY
 Job cpu time:       0 days  6 hours 20 minutes  8.0 seconds.
 Elapsed time:       0 days  1 hours 35 minutes 19.4 seconds.
 File lengths (MBytes):  RWF=    120 Int=      0 D2E=      0 Chk=     18 Scr=      1
 Normal termination of Gaussian 16 at Tue Mar 15 22:01:37 2022.
