 Entering Gaussian System, Link 0=g16
 Input=2,3,3prime,4,5-Pentachlorobiphenyl.gjf
 Output=2,3,3prime,4,5-Pentachlorobiphenyl.log
 Initial command:
 /opt/g16/l1.exe "/scratch/gour/Gau-47269.inp" -scrdir="/scratch/gour/"
 Entering Link 1 = /opt/g16/l1.exe PID=     47270.
  
 Copyright (c) 1988-2017, Gaussian, Inc.  All Rights Reserved.
  
 This is part of the Gaussian(R) 16 program.  It is based on
 the Gaussian(R) 09 system (copyright 2009, Gaussian, Inc.),
 the Gaussian(R) 03 system (copyright 2003, Gaussian, Inc.),
 the Gaussian(R) 98 system (copyright 1998, Gaussian, Inc.),
 the Gaussian(R) 94 system (copyright 1995, Gaussian, Inc.),
 the Gaussian 92(TM) system (copyright 1992, Gaussian, Inc.),
 the Gaussian 90(TM) system (copyright 1990, Gaussian, Inc.),
 the Gaussian 88(TM) system (copyright 1988, Gaussian, Inc.),
 the Gaussian 86(TM) system (copyright 1986, Carnegie Mellon
 University), and the Gaussian 82(TM) system (copyright 1983,
 Carnegie Mellon University). Gaussian is a federally registered
 trademark of Gaussian, Inc.
  
 This software contains proprietary and confidential information,
 including trade secrets, belonging to Gaussian, Inc.
  
 This software is provided under written license and may be
 used, copied, transmitted, or stored only in accord with that
 written license.
  
 The following legend is applicable only to US Government
 contracts under FAR:
  
                    RESTRICTED RIGHTS LEGEND
  
 Use, reproduction and disclosure by the US Government is
 subject to restrictions as set forth in subparagraphs (a)
 and (c) of the Commercial Computer Software - Restricted
 Rights clause in FAR 52.227-19.
  
 Gaussian, Inc.
 340 Quinnipiac St., Bldg. 40, Wallingford CT 06492
  
  
 ---------------------------------------------------------------
 Warning -- This program may not be used in any manner that
 competes with the business of Gaussian, Inc. or will provide
 assistance to any competitor of Gaussian, Inc.  The licensee
 of this program is prohibited from giving any competitor of
 Gaussian, Inc. access to this program.  By using this program,
 the user acknowledges that Gaussian, Inc. is engaged in the
 business of creating and licensing software in the field of
 computational chemistry and represents and warrants to the
 licensee that it is not a competitor of Gaussian, Inc. and that
 it will not use this program in any manner prohibited above.
 ---------------------------------------------------------------
  

 Cite this work as:
 Gaussian 16, Revision B.01,
 M. J. Frisch, G. W. Trucks, H. B. Schlegel, G. E. Scuseria, 
 M. A. Robb, J. R. Cheeseman, G. Scalmani, V. Barone, 
 G. A. Petersson, H. Nakatsuji, X. Li, M. Caricato, A. V. Marenich, 
 J. Bloino, B. G. Janesko, R. Gomperts, B. Mennucci, H. P. Hratchian, 
 J. V. Ortiz, A. F. Izmaylov, J. L. Sonnenberg, D. Williams-Young, 
 F. Ding, F. Lipparini, F. Egidi, J. Goings, B. Peng, A. Petrone, 
 T. Henderson, D. Ranasinghe, V. G. Zakrzewski, J. Gao, N. Rega, 
 G. Zheng, W. Liang, M. Hada, M. Ehara, K. Toyota, R. Fukuda, 
 J. Hasegawa, M. Ishida, T. Nakajima, Y. Honda, O. Kitao, H. Nakai, 
 T. Vreven, K. Throssell, J. A. Montgomery, Jr., J. E. Peralta, 
 F. Ogliaro, M. J. Bearpark, J. J. Heyd, E. N. Brothers, K. N. Kudin, 
 V. N. Staroverov, T. A. Keith, R. Kobayashi, J. Normand, 
 K. Raghavachari, A. P. Rendell, J. C. Burant, S. S. Iyengar, 
 J. Tomasi, M. Cossi, J. M. Millam, M. Klene, C. Adamo, R. Cammi, 
 J. W. Ochterski, R. L. Martin, K. Morokuma, O. Farkas, 
 J. B. Foresman, and D. J. Fox, Gaussian, Inc., Wallingford CT, 2016.
 
 ******************************************
 Gaussian 16:  EM64L-G16RevB.01 20-Dec-2017
                16-Mar-2022 
 ******************************************
 %mem=10GB
 %nprocshared=4
 Will use up to    4 processors via shared memory.
 --------------------------------
 # opt b3lyp/6-311+g(d,p) scf=xqc
 --------------------------------
 1/18=20,19=15,26=3,38=1/1,3;
 2/9=110,12=2,17=6,18=5,40=1/2;
 3/5=4,6=6,7=111,11=2,25=1,30=1,71=1,74=-5/1,2,3;
 4//1;
 5/5=2,8=3,13=1,38=5/2,8;
 6/7=2,8=2,9=2,10=2,28=1/1;
 7//1,2,3,16;
 1/18=20,19=15,26=3/3(2);
 2/9=110/2;
 99//99;
 2/9=110/2;
 3/5=4,6=6,7=111,11=2,25=1,30=1,71=1,74=-5/1,2,3;
 4/5=5,16=3,69=1/1;
 5/5=2,8=3,13=1,38=5/2,8;
 7//1,2,3,16;
 1/18=20,19=15,26=3/3(-5);
 2/9=110/2;
 6/7=2,8=2,9=2,10=2,19=2,28=1/1;
 99/9=1/99;
 -------------------
 Title Card Required
 -------------------
 Symbolic Z-matrix:
 Charge =  0 Multiplicity = 1
 C                     0.14914   0.2638   -0.00285 
 C                     1.48152   0.29369  -0.4362 
 C                     2.18941   1.50314  -0.44227 
 C                     1.56492   2.68271  -0.015 
 C                     0.23254   2.65282   0.41835 
 C                    -0.47535   1.44337   0.42442 
 C                    -0.62877  -1.06526   0.00382 
 C                    -0.00428  -2.24483  -0.42345 
 C                    -0.71217  -3.45428  -0.41738 
 C                    -2.04455  -3.48417   0.01597 
 C                    -2.66904  -2.3046    0.44325 
 C                    -1.96115  -1.09515   0.43717 
 H                     1.95833  -0.60694  -0.76243 
 H                     3.20671   1.52596  -0.77314 
 H                     2.10542   3.60615  -0.01963 
 H                    -1.49265   1.42055   0.75529 
 H                     1.01302  -2.22201  -0.75432 
 Cl                   -2.74543   0.38625   0.97378 
 Cl                   -4.34236  -2.34214   0.98749 
 Cl                   -0.55174   4.13422   0.95495 
 Cl                   -2.93359  -5.0031    0.0236 
 Cl                    0.07211  -4.93568  -0.95399 
 

 GradGradGradGradGradGradGradGradGradGradGradGradGradGradGradGradGradGrad
 Berny optimization.
 Initialization pass.
                           ----------------------------
                           !    Initial Parameters    !
                           ! (Angstroms and Degrees)  !
 --------------------------                            --------------------------
 ! Name  Definition              Value          Derivative Info.                !
 --------------------------------------------------------------------------------
 ! R1    R(1,2)                  1.4014         estimate D2E/DX2                !
 ! R2    R(1,6)                  1.4014         estimate D2E/DX2                !
 ! R3    R(1,7)                  1.54           estimate D2E/DX2                !
 ! R4    R(2,3)                  1.4014         estimate D2E/DX2                !
 ! R5    R(2,13)                 1.07           estimate D2E/DX2                !
 ! R6    R(3,4)                  1.4014         estimate D2E/DX2                !
 ! R7    R(3,14)                 1.07           estimate D2E/DX2                !
 ! R8    R(4,5)                  1.4014         estimate D2E/DX2                !
 ! R9    R(4,15)                 1.07           estimate D2E/DX2                !
 ! R10   R(5,6)                  1.4014         estimate D2E/DX2                !
 ! R11   R(5,20)                 1.76           estimate D2E/DX2                !
 ! R12   R(6,16)                 1.07           estimate D2E/DX2                !
 ! R13   R(7,8)                  1.4014         estimate D2E/DX2                !
 ! R14   R(7,12)                 1.4014         estimate D2E/DX2                !
 ! R15   R(8,9)                  1.4014         estimate D2E/DX2                !
 ! R16   R(8,17)                 1.07           estimate D2E/DX2                !
 ! R17   R(9,10)                 1.4014         estimate D2E/DX2                !
 ! R18   R(9,22)                 1.76           estimate D2E/DX2                !
 ! R19   R(10,11)                1.4014         estimate D2E/DX2                !
 ! R20   R(10,21)                1.76           estimate D2E/DX2                !
 ! R21   R(11,12)                1.4014         estimate D2E/DX2                !
 ! R22   R(11,19)                1.76           estimate D2E/DX2                !
 ! R23   R(12,18)                1.76           estimate D2E/DX2                !
 ! A1    A(2,1,6)              120.0            estimate D2E/DX2                !
 ! A2    A(2,1,7)              120.0            estimate D2E/DX2                !
 ! A3    A(6,1,7)              120.0            estimate D2E/DX2                !
 ! A4    A(1,2,3)              120.0            estimate D2E/DX2                !
 ! A5    A(1,2,13)             120.0            estimate D2E/DX2                !
 ! A6    A(3,2,13)             120.0            estimate D2E/DX2                !
 ! A7    A(2,3,4)              120.0            estimate D2E/DX2                !
 ! A8    A(2,3,14)             120.0            estimate D2E/DX2                !
 ! A9    A(4,3,14)             120.0            estimate D2E/DX2                !
 ! A10   A(3,4,5)              120.0            estimate D2E/DX2                !
 ! A11   A(3,4,15)             120.0            estimate D2E/DX2                !
 ! A12   A(5,4,15)             120.0            estimate D2E/DX2                !
 ! A13   A(4,5,6)              120.0            estimate D2E/DX2                !
 ! A14   A(4,5,20)             120.0            estimate D2E/DX2                !
 ! A15   A(6,5,20)             120.0            estimate D2E/DX2                !
 ! A16   A(1,6,5)              120.0            estimate D2E/DX2                !
 ! A17   A(1,6,16)             120.0            estimate D2E/DX2                !
 ! A18   A(5,6,16)             120.0            estimate D2E/DX2                !
 ! A19   A(1,7,8)              120.0            estimate D2E/DX2                !
 ! A20   A(1,7,12)             120.0            estimate D2E/DX2                !
 ! A21   A(8,7,12)             120.0            estimate D2E/DX2                !
 ! A22   A(7,8,9)              120.0            estimate D2E/DX2                !
 ! A23   A(7,8,17)             120.0            estimate D2E/DX2                !
 ! A24   A(9,8,17)             120.0            estimate D2E/DX2                !
 ! A25   A(8,9,10)             120.0            estimate D2E/DX2                !
 ! A26   A(8,9,22)             120.0            estimate D2E/DX2                !
 ! A27   A(10,9,22)            120.0            estimate D2E/DX2                !
 ! A28   A(9,10,11)            120.0            estimate D2E/DX2                !
 ! A29   A(9,10,21)            120.0            estimate D2E/DX2                !
 ! A30   A(11,10,21)           120.0            estimate D2E/DX2                !
 ! A31   A(10,11,12)           120.0            estimate D2E/DX2                !
 ! A32   A(10,11,19)           120.0            estimate D2E/DX2                !
 ! A33   A(12,11,19)           120.0            estimate D2E/DX2                !
 ! A34   A(7,12,11)            120.0            estimate D2E/DX2                !
 ! A35   A(7,12,18)            120.0            estimate D2E/DX2                !
 ! A36   A(11,12,18)           120.0            estimate D2E/DX2                !
 ! D1    D(6,1,2,3)              0.0001         estimate D2E/DX2                !
 ! D2    D(6,1,2,13)           180.0            estimate D2E/DX2                !
 ! D3    D(7,1,2,3)           -180.0            estimate D2E/DX2                !
 ! D4    D(7,1,2,13)            -0.0001         estimate D2E/DX2                !
 ! D5    D(2,1,6,5)             -0.0001         estimate D2E/DX2                !
 ! D6    D(2,1,6,16)           180.0            estimate D2E/DX2                !
 ! D7    D(7,1,6,5)            180.0            estimate D2E/DX2                !
 ! D8    D(7,1,6,16)             0.0            estimate D2E/DX2                !
 ! D9    D(2,1,7,8)             -0.0001         estimate D2E/DX2                !
 ! D10   D(2,1,7,12)           179.9998         estimate D2E/DX2                !
 ! D11   D(6,1,7,8)            179.9999         estimate D2E/DX2                !
 ! D12   D(6,1,7,12)            -0.0002         estimate D2E/DX2                !
 ! D13   D(1,2,3,4)              0.0            estimate D2E/DX2                !
 ! D14   D(1,2,3,14)           180.0            estimate D2E/DX2                !
 ! D15   D(13,2,3,4)          -179.9999         estimate D2E/DX2                !
 ! D16   D(13,2,3,14)            0.0001         estimate D2E/DX2                !
 ! D17   D(2,3,4,5)             -0.0001         estimate D2E/DX2                !
 ! D18   D(2,3,4,15)           180.0            estimate D2E/DX2                !
 ! D19   D(14,3,4,5)           179.9999         estimate D2E/DX2                !
 ! D20   D(14,3,4,15)            0.0            estimate D2E/DX2                !
 ! D21   D(3,4,5,6)              0.0001         estimate D2E/DX2                !
 ! D22   D(3,4,5,20)          -179.9999         estimate D2E/DX2                !
 ! D23   D(15,4,5,6)          -180.0            estimate D2E/DX2                !
 ! D24   D(15,4,5,20)            0.0            estimate D2E/DX2                !
 ! D25   D(4,5,6,1)              0.0            estimate D2E/DX2                !
 ! D26   D(4,5,6,16)           179.9999         estimate D2E/DX2                !
 ! D27   D(20,5,6,1)           180.0            estimate D2E/DX2                !
 ! D28   D(20,5,6,16)           -0.0001         estimate D2E/DX2                !
 ! D29   D(1,7,8,9)            179.9999         estimate D2E/DX2                !
 ! D30   D(1,7,8,17)             0.0001         estimate D2E/DX2                !
 ! D31   D(12,7,8,9)             0.0001         estimate D2E/DX2                !
 ! D32   D(12,7,8,17)         -179.9998         estimate D2E/DX2                !
 ! D33   D(1,7,12,11)         -179.9999         estimate D2E/DX2                !
 ! D34   D(1,7,12,18)            0.0            estimate D2E/DX2                !
 ! D35   D(8,7,12,11)           -0.0001         estimate D2E/DX2                !
 ! D36   D(8,7,12,18)          179.9999         estimate D2E/DX2                !
 ! D37   D(7,8,9,10)             0.0            estimate D2E/DX2                !
 ! D38   D(7,8,9,22)           180.0            estimate D2E/DX2                !
 ! D39   D(17,8,9,10)          179.9998         estimate D2E/DX2                !
 ! D40   D(17,8,9,22)           -0.0002         estimate D2E/DX2                !
 ! D41   D(8,9,10,11)            0.0            estimate D2E/DX2                !
 ! D42   D(8,9,10,21)         -179.9999         estimate D2E/DX2                !
 ! D43   D(22,9,10,11)         180.0            estimate D2E/DX2                !
 ! D44   D(22,9,10,21)           0.0001         estimate D2E/DX2                !
 ! D45   D(9,10,11,12)           0.0            estimate D2E/DX2                !
 ! D46   D(9,10,11,19)        -179.9998         estimate D2E/DX2                !
 ! D47   D(21,10,11,12)        179.9999         estimate D2E/DX2                !
 ! D48   D(21,10,11,19)          0.0001         estimate D2E/DX2                !
 ! D49   D(10,11,12,7)           0.0            estimate D2E/DX2                !
 ! D50   D(10,11,12,18)       -179.9999         estimate D2E/DX2                !
 ! D51   D(19,11,12,7)         179.9999         estimate D2E/DX2                !
 ! D52   D(19,11,12,18)         -0.0001         estimate D2E/DX2                !
 --------------------------------------------------------------------------------
 Trust Radius=3.00D-01 FncErr=1.00D-07 GrdErr=1.00D-06 EigMax=2.50D+02 EigMin=1.00D-04
 Number of steps in this run=    121 maximum allowed number of steps=    132.
 GradGradGradGradGradGradGradGradGradGradGradGradGradGradGradGradGradGrad

                          Input orientation:                          
 ---------------------------------------------------------------------
 Center     Atomic      Atomic             Coordinates (Angstroms)
 Number     Number       Type             X           Y           Z
 ---------------------------------------------------------------------
      1          6           0        0.149137    0.263803   -0.002851
      2          6           0        1.481518    0.293689   -0.436198
      3          6           0        2.189412    1.503140   -0.442270
      4          6           0        1.564925    2.682705   -0.014995
      5          6           0        0.232543    2.652820    0.418349
      6          6           0       -0.475351    1.443369    0.424422
      7          6           0       -0.628767   -1.065264    0.003823
      8          6           0       -0.004280   -2.244829   -0.423452
      9          6           0       -0.712173   -3.454281   -0.417378
     10          6           0       -2.044553   -3.484167    0.015972
     11          6           0       -2.669040   -2.304602    0.443247
     12          6           0       -1.961147   -1.095151    0.437173
     13          1           0        1.958329   -0.606936   -0.762429
     14          1           0        3.206715    1.525958   -0.773139
     15          1           0        2.105417    3.606148   -0.019631
     16          1           0       -1.492653    1.420550    0.755291
     17          1           0        1.013023   -2.222011   -0.754322
     18         17           0       -2.745432    0.386249    0.973785
     19         17           0       -4.342358   -2.342137    0.987490
     20         17           0       -0.551744    4.134221    0.954955
     21         17           0       -2.933586   -5.003102    0.023603
     22         17           0        0.072112   -4.935681   -0.953987
 ---------------------------------------------------------------------
                    Distance matrix (angstroms):
                    1          2          3          4          5
     1  C    0.000000
     2  C    1.401400   0.000000
     3  C    2.427296   1.401400   0.000000
     4  C    2.802800   2.427296   1.401400   0.000000
     5  C    2.427296   2.802800   2.427296   1.401400   0.000000
     6  C    1.401400   2.427296   2.802800   2.427296   1.401400
     7  C    1.540000   2.548270   3.838989   4.342800   3.838989
     8  C    2.548270   2.941400   4.342800   5.187469   4.975106
     9  C    3.838989   4.342800   5.744200   6.558176   6.235992
    10  C    4.342800   5.187469   6.558176   7.145600   6.558176
    11  C    3.838989   4.975106   6.235992   6.558176   5.744200
    12  C    2.548270   3.813607   4.975106   5.187469   4.342800
    13  H    2.146700   1.070000   2.146700   3.396345   3.872800
    14  H    3.396345   2.146700   1.070000   2.146700   3.396345
    15  H    3.872800   3.396345   2.146700   1.070000   2.146700
    16  H    2.146700   3.396345   3.872800   3.396345   2.146700
    17  H    2.736837   2.578650   3.918930   4.990735   5.074276
    18  Cl   3.057342   4.456874   5.254079   4.983028   3.783409
    19  Cl   5.286324   6.549198   7.713260   7.819846   6.797295
    20  Cl   4.048303   4.562800   4.048303   2.743718   1.760000
    21  Cl   6.102800   6.910901   8.294174   8.905600   8.294174
    22  Cl   5.286324   5.440665   6.797295   7.819846   7.713260
                    6          7          8          9         10
     6  C    0.000000
     7  C    2.548270   0.000000
     8  C    3.813607   1.401400   0.000000
     9  C    4.975106   2.427296   1.401400   0.000000
    10  C    5.187469   2.802800   2.427296   1.401400   0.000000
    11  C    4.342800   2.427296   2.802800   2.427296   1.401400
    12  C    2.941400   1.401400   2.427296   2.802800   2.427296
    13  H    3.396345   2.736837   2.578650   3.918930   4.990735
    14  H    3.872800   4.693509   4.965039   6.347206   7.300676
    15  H    3.396345   5.412800   6.232802   7.612271   8.215600
    16  H    1.070000   2.736837   4.127917   5.074276   4.990735
    17  H    4.127917   2.146700   1.070000   2.146700   3.396345
    18  Cl   2.563702   2.743718   4.048303   4.562800   4.048303
    19  Cl   5.440665   4.048303   4.562800   4.048303   2.743718
    20  Cl   2.743718   5.286324   6.549198   7.713260   7.819846
    21  Cl   6.910901   4.562800   4.048303   2.743718   1.760000
    22  Cl   6.549198   4.048303   2.743718   1.760000   2.743718
                   11         12         13         14         15
    11  C    0.000000
    12  C    1.401400   0.000000
    13  H    5.074276   4.127917   0.000000
    14  H    7.118798   5.919617   2.471400   0.000000
    15  H    7.612271   6.232802   4.280590   2.471400   0.000000
    16  H    3.918930   2.578650   4.280590   4.942800   4.280590
    17  H    3.872800   3.396345   1.871400   4.342800   5.974992
    18  Cl   2.743718   1.760000   5.111382   6.307038   5.906383
    19  Cl   1.760000   2.743718   6.765486   8.663168   8.830073
    20  Cl   6.797295   5.440665   5.632800   4.890332   2.879094
    21  Cl   2.743718   4.048303   6.623817   8.998151   9.975600
    22  Cl   4.048303   4.562800   4.725732   7.184095   8.830073
                   16         17         18         19         20
    16  H    0.000000
    17  H    4.671787   0.000000
    18  Cl   1.639199   4.890332   0.000000
    19  Cl   4.725732   5.632800   3.161400   0.000000
    20  Cl   2.879094   6.765486   4.342800   7.504200   0.000000
    21  Cl   6.623817   4.890332   5.475705   3.161400   9.488480
    22  Cl   6.765486   2.879094   6.322800   5.475705   9.289584
                   21         22
    21  Cl   0.000000
    22  Cl   3.161400   0.000000
 Stoichiometry    C12H5Cl5
 Framework group  C1[X(C12H5Cl5)]
 Deg. of freedom    60
 Full point group                 C1      NOp   1
 Largest Abelian subgroup         C1      NOp   1
 Largest concise Abelian subgroup C1      NOp   1
                         Standard orientation:                         
 ---------------------------------------------------------------------
 Center     Atomic      Atomic             Coordinates (Angstroms)
 Number     Number       Type             X           Y           Z
 ---------------------------------------------------------------------
      1          6           0       -1.566572    0.915875   -0.000000
      2          6           0       -1.982635    2.254088    0.000003
      3          6           0       -3.349593    2.562872    0.000005
      4          6           0       -4.300488    1.533444    0.000005
      5          6           0       -3.884424    0.195232   -0.000000
      6          6           0       -2.517466   -0.113553   -0.000003
      7          6           0       -0.064420    0.576552   -0.000002
      8          6           0        0.886474    1.605980   -0.000002
      9          6           0        2.253432    1.297196   -0.000002
     10          6           0        2.669496   -0.041017   -0.000002
     11          6           0        1.718602   -1.070445   -0.000001
     12          6           0        0.351644   -0.761661   -0.000001
     13          1           0       -1.256607    3.040079    0.000005
     14          1           0       -3.667267    3.584627    0.000008
     15          1           0       -5.344190    1.769208    0.000007
     16          1           0       -2.199792   -1.135308   -0.000005
     17          1           0        0.568800    2.627735    0.000001
     18         17           0       -0.842572   -2.054506    0.000001
     19         17           0        2.241131   -2.751089    0.000003
     20         17           0       -5.078639   -1.097614   -0.000004
     21         17           0        4.386241   -0.428815    0.000001
     22         17           0        3.447648    2.590041   -0.000002
 ---------------------------------------------------------------------
 Rotational constants (GHZ):           0.5143122           0.1618361           0.1231007
 Standard basis: 6-311+G(d,p) (5D, 7F)
 There are   461 symmetry adapted cartesian basis functions of A   symmetry.
 There are   444 symmetry adapted basis functions of A   symmetry.
   444 basis functions,   737 primitive gaussians,   461 cartesian basis functions
    81 alpha electrons       81 beta electrons
       nuclear repulsion energy      1714.1460458671 Hartrees.
 NAtoms=   22 NActive=   22 NUniq=   22 SFac= 1.00D+00 NAtFMM=   60 NAOKFM=F Big=F
 Integral buffers will be    131072 words long.
 Raffenetti 2 integral format.
 Two-electron integral symmetry is turned on.
 One-electron integrals computed using PRISM.
 NBasis=   444 RedAO= T EigKep=  1.93D-06  NBF=   444
 NBsUse=   437 1.00D-06 EigRej=  1.00D-06 NBFU=   437
 ExpMin= 4.38D-02 ExpMax= 1.06D+05 ExpMxC= 3.62D+03 IAcc=3 IRadAn=         5 AccDes= 0.00D+00
 Harris functional with IExCor=  402 and IRadAn=       5 diagonalized for initial guess.
 HarFok:  IExCor=  402 AccDes= 0.00D+00 IRadAn=         5 IDoV= 1 UseB2=F ITyADJ=14
 ICtDFT=  3500011 ScaDFX=  1.000000  1.000000  1.000000  1.000000
 FoFCou: FMM=F IPFlag=           0 FMFlag=      100000 FMFlg1=           0
         NFxFlg=           0 DoJE=T BraDBF=F KetDBF=T FulRan=T
         wScrn=  0.000000 ICntrl=       500 IOpCl=  0 I1Cent=   200000004 NGrid=           0
         NMat0=    1 NMatS0=      1 NMatT0=    0 NMatD0=    1 NMtDS0=    0 NMtDT0=    0
 Petite list used in FoFCou.
 Requested convergence on RMS density matrix=1.00D-08 within  32 cycles.
 Requested convergence on MAX density matrix=1.00D-06.
 Requested convergence on             energy=1.00D-06.
 No special actions if energy rises.
 SCF Done:  E(RB3LYP) =  -2761.45104605     A.U. after   16 cycles
            NFock= 16  Conv=0.42D-08     -V/T= 2.0026
 QCSCF skips out because SCF is already converged.

 **********************************************************************

            Population analysis using the SCF Density.

 **********************************************************************

 Orbital symmetries:
       Occupied  (A) (A) (A) (A) (A) (A) (A) (A) (A) (A) (A) (A)
                 (A) (A) (A) (A) (A) (A) (A) (A) (A) (A) (A) (A)
                 (A) (A) (A) (A) (A) (A) (A) (A) (A) (A) (A) (A)
                 (A) (A) (A) (A) (A) (A) (A) (A) (A) (A) (A) (A)
                 (A) (A) (A) (A) (A) (A) (A) (A) (A) (A) (A) (A)
                 (A) (A) (A) (A) (A) (A) (A) (A) (A) (A) (A) (A)
                 (A) (A) (A) (A) (A) (A) (A) (A) (A)
       Virtual   (A) (A) (A) (A) (A) (A) (A) (A) (A) (A) (A) (A)
                 (A) (A) (A) (A) (A) (A) (A) (A) (A) (A) (A) (A)
                 (A) (A) (A) (A) (A) (A) (A) (A) (A) (A) (A) (A)
                 (A) (A) (A) (A) (A) (A) (A) (A) (A) (A) (A) (A)
                 (A) (A) (A) (A) (A) (A) (A) (A) (A) (A) (A) (A)
                 (A) (A) (A) (A) (A) (A) (A) (A) (A) (A) (A) (A)
                 (A) (A) (A) (A) (A) (A) (A) (A) (A) (A) (A) (A)
                 (A) (A) (A) (A) (A) (A) (A) (A) (A) (A) (A) (A)
                 (A) (A) (A) (A) (A) (A) (A) (A) (A) (A) (A) (A)
                 (A) (A) (A) (A) (A) (A) (A) (A) (A) (A) (A) (A)
                 (A) (A) (A) (A) (A) (A) (A) (A) (A) (A) (A) (A)
                 (A) (A) (A) (A) (A) (A) (A) (A) (A) (A) (A) (A)
                 (A) (A) (A) (A) (A) (A) (A) (A) (A) (A) (A) (A)
                 (A) (A) (A) (A) (A) (A) (A) (A) (A) (A) (A) (A)
                 (A) (A) (A) (A) (A) (A) (A) (A) (A) (A) (A) (A)
                 (A) (A) (A) (A) (A) (A) (A) (A) (A) (A) (A) (A)
                 (A) (A) (A) (A) (A) (A) (A) (A) (A) (A) (A) (A)
                 (A) (A) (A) (A) (A) (A) (A) (A) (A) (A) (A) (A)
                 (A) (A) (A) (A) (A) (A) (A) (A) (A) (A) (A) (A)
                 (A) (A) (A) (A) (A) (A) (A) (A) (A) (A) (A) (A)
                 (A) (A) (A) (A) (A) (A) (A) (A) (A) (A) (A) (A)
                 (A) (A) (A) (A) (A) (A) (A) (A) (A) (A) (A) (A)
                 (A) (A) (A) (A) (A) (A) (A) (A) (A) (A) (A) (A)
                 (A) (A) (A) (A) (A) (A) (A) (A) (A) (A) (A) (A)
                 (A) (A) (A) (A) (A) (A) (A) (A) (A) (A) (A) (A)
                 (A) (A) (A) (A) (A) (A) (A) (A) (A) (A) (A) (A)
                 (A) (A) (A) (A) (A) (A) (A) (A) (A) (A) (A) (A)
                 (A) (A) (A) (A) (A) (A) (A) (A) (A) (A) (A) (A)
                 (A) (A) (A) (A) (A) (A) (A) (A) (A) (A) (A) (A)
                 (A) (A) (A) (A) (A) (A) (A) (A)
 The electronic state is 1-A.
 Alpha  occ. eigenvalues -- -101.58342-101.58142-101.58113-101.57978-101.56286
 Alpha  occ. eigenvalues --  -10.28772 -10.28374 -10.28272 -10.28214 -10.25122
 Alpha  occ. eigenvalues --  -10.24330 -10.22635 -10.22232 -10.20244 -10.20134
 Alpha  occ. eigenvalues --  -10.20115 -10.18177  -9.50124  -9.49558  -9.49533
 Alpha  occ. eigenvalues --   -9.49396  -9.47731  -7.26552  -7.26077  -7.26033
 Alpha  occ. eigenvalues --   -7.25913  -7.25572  -7.25532  -7.25038  -7.25010
 Alpha  occ. eigenvalues --   -7.24951  -7.24950  -7.24873  -7.24793  -7.24189
 Alpha  occ. eigenvalues --   -7.23216  -7.23183  -0.96283  -0.92448  -0.90485
 Alpha  occ. eigenvalues --   -0.89401  -0.86824  -0.86337  -0.84662  -0.79327
 Alpha  occ. eigenvalues --   -0.76308  -0.75936  -0.74479  -0.66165  -0.64665
 Alpha  occ. eigenvalues --   -0.63357  -0.60517  -0.55137  -0.54545  -0.53934
 Alpha  occ. eigenvalues --   -0.50049  -0.49216  -0.48222  -0.47196  -0.46565
 Alpha  occ. eigenvalues --   -0.46235  -0.45587  -0.42829  -0.42221  -0.41733
 Alpha  occ. eigenvalues --   -0.40309  -0.40229  -0.38472  -0.38348  -0.35884
 Alpha  occ. eigenvalues --   -0.35810  -0.35547  -0.34649  -0.33907  -0.32617
 Alpha  occ. eigenvalues --   -0.32285  -0.29885  -0.29055  -0.27702  -0.26740
 Alpha  occ. eigenvalues --   -0.25543
 Alpha virt. eigenvalues --   -0.07896  -0.06544  -0.05952  -0.03672  -0.01515
 Alpha virt. eigenvalues --   -0.01463  -0.00763   0.00241   0.00954   0.01199
 Alpha virt. eigenvalues --    0.01613   0.01932   0.03317   0.03795   0.03811
 Alpha virt. eigenvalues --    0.04296   0.05767   0.05774   0.06212   0.06258
 Alpha virt. eigenvalues --    0.07068   0.07689   0.08035   0.08157   0.08332
 Alpha virt. eigenvalues --    0.08545   0.08651   0.09449   0.10310   0.10382
 Alpha virt. eigenvalues --    0.10938   0.11150   0.11531   0.11628   0.13127
 Alpha virt. eigenvalues --    0.13168   0.13307   0.13681   0.13689   0.14030
 Alpha virt. eigenvalues --    0.14844   0.14899   0.15772   0.15779   0.15830
 Alpha virt. eigenvalues --    0.16198   0.17042   0.17202   0.17698   0.18025
 Alpha virt. eigenvalues --    0.18175   0.18931   0.19173   0.19729   0.19767
 Alpha virt. eigenvalues --    0.20152   0.20677   0.20917   0.21461   0.21814
 Alpha virt. eigenvalues --    0.22014   0.22461   0.22941   0.23609   0.24132
 Alpha virt. eigenvalues --    0.24639   0.24989   0.25275   0.26072   0.26522
 Alpha virt. eigenvalues --    0.26654   0.27160   0.27752   0.28560   0.29456
 Alpha virt. eigenvalues --    0.29978   0.30215   0.30521   0.31215   0.31495
 Alpha virt. eigenvalues --    0.32442   0.33979   0.34803   0.35349   0.36131
 Alpha virt. eigenvalues --    0.37206   0.39924   0.41615   0.41851   0.42237
 Alpha virt. eigenvalues --    0.43357   0.43661   0.43921   0.44617   0.45263
 Alpha virt. eigenvalues --    0.45662   0.45972   0.46181   0.47018   0.47654
 Alpha virt. eigenvalues --    0.48482   0.48931   0.50295   0.50654   0.50808
 Alpha virt. eigenvalues --    0.51879   0.53017   0.53128   0.54011   0.55573
 Alpha virt. eigenvalues --    0.56053   0.56775   0.57201   0.58104   0.58115
 Alpha virt. eigenvalues --    0.58961   0.59525   0.60469   0.61104   0.61308
 Alpha virt. eigenvalues --    0.62104   0.63307   0.63447   0.64461   0.64535
 Alpha virt. eigenvalues --    0.66060   0.66737   0.67636   0.67956   0.69085
 Alpha virt. eigenvalues --    0.71105   0.72453   0.74308   0.76147   0.78963
 Alpha virt. eigenvalues --    0.80286   0.80474   0.81138   0.81712   0.81991
 Alpha virt. eigenvalues --    0.83090   0.83238   0.83618   0.83981   0.84303
 Alpha virt. eigenvalues --    0.84961   0.85147   0.85185   0.85884   0.86632
 Alpha virt. eigenvalues --    0.86813   0.86843   0.87759   0.88006   0.88292
 Alpha virt. eigenvalues --    0.89190   0.89476   0.90054   0.91394   0.92280
 Alpha virt. eigenvalues --    0.93460   0.93687   0.94139   0.95200   0.95369
 Alpha virt. eigenvalues --    0.95848   0.96111   0.96672   0.97690   0.98106
 Alpha virt. eigenvalues --    0.98311   0.99821   1.00888   1.01887   1.03756
 Alpha virt. eigenvalues --    1.03800   1.07505   1.08964   1.09298   1.10646
 Alpha virt. eigenvalues --    1.11344   1.12105   1.15501   1.18256   1.18887
 Alpha virt. eigenvalues --    1.20442   1.23306   1.23686   1.24811   1.26091
 Alpha virt. eigenvalues --    1.27134   1.27784   1.27902   1.27949   1.29476
 Alpha virt. eigenvalues --    1.32290   1.34732   1.36130   1.36641   1.42464
 Alpha virt. eigenvalues --    1.43624   1.46120   1.47380   1.49765   1.50179
 Alpha virt. eigenvalues --    1.54532   1.55102   1.55365   1.59263   1.59687
 Alpha virt. eigenvalues --    1.61032   1.63718   1.64036   1.65614   1.67044
 Alpha virt. eigenvalues --    1.68478   1.72016   1.74430   1.76155   1.78728
 Alpha virt. eigenvalues --    1.79228   1.80882   1.81340   1.83429   1.84483
 Alpha virt. eigenvalues --    1.85326   1.86487   1.88182   1.89402   1.91846
 Alpha virt. eigenvalues --    1.92764   1.95023   1.95505   1.98430   1.98686
 Alpha virt. eigenvalues --    2.00009   2.00333   2.03280   2.08222   2.10507
 Alpha virt. eigenvalues --    2.12074   2.15205   2.21084   2.21442   2.22126
 Alpha virt. eigenvalues --    2.23815   2.24138   2.24835   2.26079   2.26789
 Alpha virt. eigenvalues --    2.29233   2.29676   2.31167   2.33508   2.33976
 Alpha virt. eigenvalues --    2.34599   2.38286   2.39091   2.41080   2.41949
 Alpha virt. eigenvalues --    2.42731   2.44790   2.48144   2.49571   2.50514
 Alpha virt. eigenvalues --    2.52420   2.55219   2.55632   2.58815   2.61333
 Alpha virt. eigenvalues --    2.62918   2.63334   2.65858   2.68321   2.69076
 Alpha virt. eigenvalues --    2.72120   2.72560   2.73624   2.73658   2.76026
 Alpha virt. eigenvalues --    2.78060   2.78780   2.79985   2.80490   2.83056
 Alpha virt. eigenvalues --    2.83460   2.85233   2.90731   2.92849   2.95362
 Alpha virt. eigenvalues --    3.04560   3.04857   3.06359   3.07426   3.11177
 Alpha virt. eigenvalues --    3.12382   3.14683   3.17376   3.19934   3.22298
 Alpha virt. eigenvalues --    3.24692   3.33535   3.36096   3.38777   3.46880
 Alpha virt. eigenvalues --    3.51449   3.59724   3.61841   3.65996   3.71984
 Alpha virt. eigenvalues --    3.79062   3.89125   4.02334   4.04507   4.14430
 Alpha virt. eigenvalues --    4.19670   4.44813   4.79131   4.83330   9.72418
 Alpha virt. eigenvalues --    9.77746   9.78030   9.79839   9.87671  23.31260
 Alpha virt. eigenvalues --   23.58347  23.78396  23.82544  23.87795  23.92486
 Alpha virt. eigenvalues --   23.94307  23.95676  24.03086  24.05179  24.06698
 Alpha virt. eigenvalues --   24.14264  25.75088  25.79163  25.81654  25.84428
 Alpha virt. eigenvalues --   25.90702  26.10053  26.11136  26.13219  26.19086
 Alpha virt. eigenvalues --   26.44605  26.55311  26.62030  26.69774  26.78557
 Alpha virt. eigenvalues --   26.94372 215.71201 215.76940 215.77552 215.79585
 Alpha virt. eigenvalues --  215.90221
          Condensed to atoms (all electrons):
               1          2          3          4          5          6
     1  C   14.064460   0.648817  -1.390879  -1.228655  -2.037492   2.142714
     2  C    0.648817   8.581826   0.063960  -1.489796   0.253371  -0.189101
     3  C   -1.390879   0.063960   9.954766   1.586559  -1.752398   0.148389
     4  C   -1.228655  -1.489796   1.586559  12.783258  -2.914612  -2.858372
     5  C   -2.037492   0.253371  -1.752398  -2.914612  13.202130   1.634899
     6  C    2.142714  -0.189101   0.148389  -2.858372   1.634899   9.987765
     7  C    4.096696   0.332951  -0.701382  -0.536884  -1.383644  -0.514159
     8  C   -2.139354  -0.507205  -0.945131  -0.013515  -0.797747  -1.871531
     9  C   -2.372516   0.550760   0.022661  -0.061451  -0.484561  -1.596001
    10  C   -1.117310   0.128777  -0.311418   0.109245  -0.111338  -0.185390
    11  C   -2.067624  -1.095501  -0.271308   0.145443   0.414307   0.240727
    12  C   -1.452731  -1.568069  -0.480220   0.606823   0.493813  -0.100199
    13  H    0.024919   0.369259  -0.136060  -0.003945  -0.012194  -0.008961
    14  H    0.048868  -0.055382   0.373858   0.007958  -0.024352  -0.009612
    15  H    0.041708   0.008243  -0.080034   0.349505  -0.012754   0.032882
    16  H   -0.232568  -0.058328  -0.035843   0.133805   0.051562   0.400917
    17  H    0.079500   0.055573   0.025883   0.000392   0.003850   0.035558
    18  Cl  -0.048363   0.074058   0.095107  -0.097490  -0.506733  -0.899287
    19  Cl   0.018093  -0.062430  -0.002659   0.001828   0.050057   0.085134
    20  Cl  -0.281214   0.153757   0.202021  -0.251385  -0.766496   0.570825
    21  Cl  -0.095608  -0.044370  -0.009865   0.000657   0.002073  -0.018305
    22  Cl  -0.201229   0.009616   0.019763  -0.002899  -0.011487  -0.087411
               7          8          9         10         11         12
     1  C    4.096696  -2.139354  -2.372516  -1.117310  -2.067624  -1.452731
     2  C    0.332951  -0.507205   0.550760   0.128777  -1.095501  -1.568069
     3  C   -0.701382  -0.945131   0.022661  -0.311418  -0.271308  -0.480220
     4  C   -0.536884  -0.013515  -0.061451   0.109245   0.145443   0.606823
     5  C   -1.383644  -0.797747  -0.484561  -0.111338   0.414307   0.493813
     6  C   -0.514159  -1.871531  -1.596001  -0.185390   0.240727  -0.100199
     7  C   17.577797  -1.871061  -4.346367   3.658481  -3.872375  -4.235294
     8  C   -1.871061  11.209051   2.771418  -5.482993   2.557076   2.593489
     9  C   -4.346367   2.771418  13.771415  -4.275725  -0.898066   3.391523
    10  C    3.658481  -5.482993  -4.275725  25.195625  -3.849126  -6.717309
    11  C   -3.872375   2.557076  -0.898066  -3.849126  14.564016   0.324555
    12  C   -4.235294   2.593489   3.391523  -6.717309   0.324555  13.874904
    13  H    0.032814   0.044968  -0.010789  -0.000505   0.002132   0.020775
    14  H   -0.001536   0.006381   0.001293   0.000480   0.000082   0.002242
    15  H    0.009758   0.003509   0.000214  -0.000006  -0.000058  -0.000737
    16  H   -0.030322   0.011443  -0.021257   0.021402   0.035248   0.194129
    17  H    0.091762   0.281183  -0.149381  -0.015985  -0.003157  -0.065883
    18  Cl  -0.190493   0.369248   0.575577  -0.299851   0.382947  -1.042876
    19  Cl  -0.458147   0.194354  -0.134818  -0.673751  -0.546319   0.876035
    20  Cl  -0.189145  -0.087578  -0.013034  -0.006946  -0.021399  -0.060191
    21  Cl   0.027664  -0.403909  -0.302457   0.325306   0.400720  -0.651870
    22  Cl  -0.929178   0.520455  -0.074952  -0.330437  -0.060480   0.371098
              13         14         15         16         17         18
     1  C    0.024919   0.048868   0.041708  -0.232568   0.079500  -0.048363
     2  C    0.369259  -0.055382   0.008243  -0.058328   0.055573   0.074058
     3  C   -0.136060   0.373858  -0.080034  -0.035843   0.025883   0.095107
     4  C   -0.003945   0.007958   0.349505   0.133805   0.000392  -0.097490
     5  C   -0.012194  -0.024352  -0.012754   0.051562   0.003850  -0.506733
     6  C   -0.008961  -0.009612   0.032882   0.400917   0.035558  -0.899287
     7  C    0.032814  -0.001536   0.009758  -0.030322   0.091762  -0.190493
     8  C    0.044968   0.006381   0.003509   0.011443   0.281183   0.369248
     9  C   -0.010789   0.001293   0.000214  -0.021257  -0.149381   0.575577
    10  C   -0.000505   0.000480  -0.000006   0.021402  -0.015985  -0.299851
    11  C    0.002132   0.000082  -0.000058   0.035248  -0.003157   0.382947
    12  C    0.020775   0.002242  -0.000737   0.194129  -0.065883  -1.042876
    13  H    0.563445  -0.006760  -0.000225  -0.000095   0.003216   0.000176
    14  H   -0.006760   0.528866  -0.007373   0.000123  -0.000012  -0.000245
    15  H   -0.000225  -0.007373   0.515587  -0.000555  -0.000003   0.000559
    16  H   -0.000095   0.000123  -0.000555   0.696025  -0.000078  -0.278540
    17  H    0.003216  -0.000012  -0.000003  -0.000078   0.524876  -0.002404
    18  Cl   0.000176  -0.000245   0.000559  -0.278540  -0.002404  18.552526
    19  Cl  -0.000028  -0.000000  -0.000000   0.004651   0.001997  -0.360439
    20  Cl  -0.000019  -0.000199  -0.005111  -0.037100   0.000133  -0.038282
    21  Cl   0.000115  -0.000000   0.000000   0.000680  -0.001863  -0.007499
    22  Cl  -0.000391   0.000004   0.000001  -0.000199  -0.016394   0.015457
              19         20         21         22
     1  C    0.018093  -0.281214  -0.095608  -0.201229
     2  C   -0.062430   0.153757  -0.044370   0.009616
     3  C   -0.002659   0.202021  -0.009865   0.019763
     4  C    0.001828  -0.251385   0.000657  -0.002899
     5  C    0.050057  -0.766496   0.002073  -0.011487
     6  C    0.085134   0.570825  -0.018305  -0.087411
     7  C   -0.458147  -0.189145   0.027664  -0.929178
     8  C    0.194354  -0.087578  -0.403909   0.520455
     9  C   -0.134818  -0.013034  -0.302457  -0.074952
    10  C   -0.673751  -0.006946   0.325306  -0.330437
    11  C   -0.546319  -0.021399   0.400720  -0.060480
    12  C    0.876035  -0.060191  -0.651870   0.371098
    13  H   -0.000028  -0.000019   0.000115  -0.000391
    14  H   -0.000000  -0.000199  -0.000000   0.000004
    15  H   -0.000000  -0.005111   0.000000   0.000001
    16  H    0.004651  -0.037100   0.000680  -0.000199
    17  H    0.001997   0.000133  -0.001863  -0.016394
    18  Cl  -0.360439  -0.038282  -0.007499   0.015457
    19  Cl  17.597291   0.001321  -0.276335  -0.003569
    20  Cl   0.001321  17.428626  -0.000105  -0.000100
    21  Cl  -0.276335  -0.000105  17.577011  -0.194445
    22  Cl  -0.003569  -0.000100  -0.194445  17.433849
 Mulliken charges:
               1
     1  C   -0.500230
     2  C   -0.160786
     3  C   -0.375771
     4  C   -0.266469
     5  C    0.709748
     6  C   -0.941480
     7  C   -0.567937
     8  C   -0.442550
     9  C   -0.343483
    10  C   -0.061227
    11  C   -0.381839
    12  C   -0.374007
    13  H    0.118152
    14  H    0.135316
    15  H    0.144890
    16  H    0.144899
    17  H    0.151236
    18  Cl   0.706850
    19  Cl   0.687735
    20  Cl   0.401621
    21  Cl   0.672405
    22  Cl   0.542929
 Sum of Mulliken charges =  -0.00000
 Mulliken charges with hydrogens summed into heavy atoms:
               1
     1  C   -0.500230
     2  C   -0.042634
     3  C   -0.240454
     4  C   -0.121579
     5  C    0.709748
     6  C   -0.796581
     7  C   -0.567937
     8  C   -0.291315
     9  C   -0.343483
    10  C   -0.061227
    11  C   -0.381839
    12  C   -0.374007
    18  Cl   0.706850
    19  Cl   0.687735
    20  Cl   0.401621
    21  Cl   0.672405
    22  Cl   0.542929
 Electronic spatial extent (au):  <R**2>=           7632.3383
 Charge=             -0.0000 electrons
 Dipole moment (field-independent basis, Debye):
    X=             -0.6163    Y=              2.2378    Z=              0.0000  Tot=              2.3211
 Quadrupole moment (field-independent basis, Debye-Ang):
   XX=           -138.4764   YY=           -124.9462   ZZ=           -135.8280
   XY=             -6.3098   XZ=             -0.0000   YZ=              0.0000
 Traceless Quadrupole moment (field-independent basis, Debye-Ang):
   XX=             -5.3929   YY=              8.1374   ZZ=             -2.7444
   XY=             -6.3098   XZ=             -0.0000   YZ=              0.0000
 Octapole moment (field-independent basis, Debye-Ang**2):
  XXX=             23.3294  YYY=              0.4646  ZZZ=             -0.0000  XYY=            -13.4361
  XXY=             18.0312  XXZ=              0.0002  XZZ=             14.1327  YZZ=            -11.8008
  YYZ=              0.0001  XYZ=             -0.0001
 Hexadecapole moment (field-independent basis, Debye-Ang**3):
 XXXX=          -7456.6634 YYYY=          -2317.6898 ZZZZ=           -158.3001 XXXY=           -114.3453
 XXXZ=             -0.0004 YYYX=            -13.2952 YYYZ=              0.0002 ZZZX=              0.0002
 ZZZY=             -0.0001 XXYY=          -1557.2686 XXZZ=          -1321.8856 YYZZ=           -457.9184
 XXYZ=              0.0003 YYXZ=             -0.0001 ZZXY=             24.4400
 N-N= 1.714146045867D+03 E-N=-9.964642066826D+03  KE= 2.754188881646D+03
 Calling FoFJK, ICntrl=      2127 FMM=F ISym2X=0 I1Cent= 0 IOpClX= 0 NMat=1 NMatS=1 NMatT=0.
 ***** Axes restored to original set *****
 -------------------------------------------------------------------
 Center     Atomic                   Forces (Hartrees/Bohr)
 Number     Number              X              Y              Z
 -------------------------------------------------------------------
      1        6          -0.010597647   -0.022192885   -0.000676676
      2        6          -0.000486170    0.017081609    0.003368373
      3        6          -0.020495672   -0.005310047    0.005755238
      4        6          -0.006417486   -0.004290139    0.001308326
      5        6           0.014011382   -0.017494136   -0.007901620
      6        6           0.040523002    0.033628022   -0.007035056
      7        6           0.016634029    0.032127529    0.000553805
      8        6          -0.020811154   -0.009524911    0.005067585
      9        6           0.005213459    0.005513999   -0.000682093
     10        6          -0.005223284   -0.010041191   -0.000164903
     11        6          -0.010225400    0.002377805    0.003815609
     12        6           0.001923983   -0.004173052   -0.001417700
     13        1           0.006519648   -0.003934664   -0.002886957
     14        1           0.008808885    0.000886024   -0.002735715
     15        1           0.004814105    0.008317232   -0.000023959
     16        1           0.040546238    0.027212941   -0.008247687
     17        1           0.004894857   -0.003200442   -0.002213834
     18       17          -0.083991576   -0.061424222    0.016135935
     19       17           0.009570560   -0.000272535   -0.003204384
     20       17           0.000835469   -0.002498474   -0.000744452
     21       17           0.004397384    0.008455834    0.000139263
     22       17          -0.000444612    0.008755704    0.001790901
 -------------------------------------------------------------------
 Cartesian Forces:  Max     0.083991576 RMS     0.017895242

 GradGradGradGradGradGradGradGradGradGradGradGradGradGradGradGradGradGrad
 Berny optimization.
 FormGI is forming the generalized inverse of G from B-inverse, IUseBI=4.
 Internal  Forces:  Max     0.278387420 RMS     0.050430680
 Search for a local minimum.
 Step number   1 out of a maximum of  121
 All quantities printed in internal units (Hartrees-Bohrs-Radians)
 Mixed Optimization -- RFO/linear search
 Second derivative matrix not updated -- first step.
 ITU=  0
     Eigenvalues ---    0.00237   0.01506   0.01506   0.02070   0.02070
     Eigenvalues ---    0.02070   0.02070   0.02070   0.02070   0.02070
     Eigenvalues ---    0.02070   0.02070   0.02070   0.02070   0.02070
     Eigenvalues ---    0.02070   0.02070   0.02070   0.02070   0.16000
     Eigenvalues ---    0.16000   0.16000   0.16000   0.16000   0.22000
     Eigenvalues ---    0.23478   0.23485   0.23493   0.25000   0.25000
     Eigenvalues ---    0.25000   0.25000   0.25000   0.25000   0.25000
     Eigenvalues ---    0.25000   0.25000   0.28519   0.29539   0.29539
     Eigenvalues ---    0.29539   0.29539   0.29539   0.37230   0.37230
     Eigenvalues ---    0.37230   0.37230   0.37230   0.41364   0.41554
     Eigenvalues ---    0.41635   0.41797   0.45389   0.45389   0.45389
     Eigenvalues ---    0.45389   0.45389   0.45389   0.45389   0.45389
 RFO step:  Lambda=-4.16620836D-01 EMin= 2.36824243D-03
 Linear search not attempted -- first point.
 Maximum step size (   0.300) exceeded in Quadratic search.
    -- Step size scaled by   0.382
 Iteration  1 RMS(Cart)=  0.20637293 RMS(Int)=  0.01005701
 Iteration  2 RMS(Cart)=  0.03697160 RMS(Int)=  0.00029394
 Iteration  3 RMS(Cart)=  0.00056039 RMS(Int)=  0.00004452
 Iteration  4 RMS(Cart)=  0.00000016 RMS(Int)=  0.00004452
 Variable       Old X    -DE/DX   Delta X   Delta X   Delta X     New X
                                 (Linear)    (Quad)   (Total)
    R1        2.64826   0.01742   0.00000   0.00786   0.00790   2.65616
    R2        2.64826   0.01523   0.00000   0.00701   0.00704   2.65531
    R3        2.91018   0.06662   0.00000   0.03625   0.03625   2.94643
    R4        2.64826  -0.01243   0.00000  -0.00556  -0.00556   2.64270
    R5        2.02201   0.00710   0.00000   0.00344   0.00344   2.02544
    R6        2.64826  -0.02639   0.00000  -0.01190  -0.01194   2.63632
    R7        2.02201   0.00924   0.00000   0.00447   0.00447   2.02648
    R8        2.64826  -0.02553   0.00000  -0.01141  -0.01145   2.63681
    R9        2.02201   0.00961   0.00000   0.00465   0.00465   2.02666
   R10        2.64826  -0.00436   0.00000  -0.00180  -0.00180   2.64646
   R11        3.32592  -0.00270   0.00000  -0.00145  -0.00145   3.32447
   R12        2.02201  -0.04168   0.00000  -0.02018  -0.02018   2.00183
   R13        2.64826   0.01559   0.00000   0.00728   0.00738   2.65564
   R14        2.64826   0.12005   0.00000   0.05388   0.05395   2.70221
   R15        2.64826  -0.02615   0.00000  -0.01225  -0.01222   2.63604
   R16        2.02201   0.00527   0.00000   0.00255   0.00255   2.02456
   R17        2.64826  -0.03450   0.00000  -0.01635  -0.01642   2.63184
   R18        3.32592  -0.00811   0.00000  -0.00435  -0.00435   3.32157
   R19        2.64826  -0.02210   0.00000  -0.01013  -0.01023   2.63803
   R20        3.32592  -0.00952   0.00000  -0.00511  -0.00511   3.32081
   R21        2.64826   0.01173   0.00000   0.00592   0.00589   2.65415
   R22        3.32592  -0.01008   0.00000  -0.00541  -0.00541   3.32051
   R23        3.32592  -0.00935   0.00000  -0.00502  -0.00502   3.32090
    A1        2.09440  -0.05986   0.00000  -0.03375  -0.03366   2.06073
    A2        2.09440  -0.13142   0.00000  -0.07556  -0.07560   2.01879
    A3        2.09440   0.19128   0.00000   0.10931   0.10927   2.20366
    A4        2.09440   0.03664   0.00000   0.02195   0.02199   2.11638
    A5        2.09440  -0.01428   0.00000  -0.00830  -0.00832   2.08608
    A6        2.09440  -0.02236   0.00000  -0.01365  -0.01367   2.08073
    A7        2.09440   0.00357   0.00000   0.00136   0.00132   2.09572
    A8        2.09440  -0.00108   0.00000  -0.00021  -0.00019   2.09420
    A9        2.09440  -0.00249   0.00000  -0.00115  -0.00113   2.09326
   A10        2.09440  -0.01732   0.00000  -0.01132  -0.01140   2.08299
   A11        2.09440   0.00871   0.00000   0.00569   0.00573   2.10013
   A12        2.09440   0.00861   0.00000   0.00563   0.00567   2.10006
   A13        2.09440   0.02014   0.00000   0.01123   0.01119   2.10558
   A14        2.09440  -0.00934   0.00000  -0.00520  -0.00517   2.08922
   A15        2.09440  -0.01080   0.00000  -0.00603  -0.00601   2.08838
   A16        2.09440   0.01684   0.00000   0.01053   0.01057   2.10496
   A17        2.09440   0.01862   0.00000   0.01264   0.01262   2.10702
   A18        2.09440  -0.03546   0.00000  -0.02317  -0.02319   2.07120
   A19        2.09440  -0.20462   0.00000  -0.11819  -0.11828   1.97612
   A20        2.09440   0.27839   0.00000   0.15851   0.15842   2.25282
   A21        2.09440  -0.07377   0.00000  -0.04033  -0.04015   2.05425
   A22        2.09440   0.05910   0.00000   0.03471   0.03484   2.12923
   A23        2.09440  -0.02615   0.00000  -0.01510  -0.01517   2.07923
   A24        2.09440  -0.03295   0.00000  -0.01961  -0.01967   2.07472
   A25        2.09440   0.00435   0.00000  -0.00041  -0.00046   2.09394
   A26        2.09440  -0.00845   0.00000  -0.00339  -0.00336   2.09103
   A27        2.09440   0.00410   0.00000   0.00380   0.00382   2.09822
   A28        2.09440  -0.01114   0.00000  -0.00883  -0.00901   2.08539
   A29        2.09440   0.00641   0.00000   0.00490   0.00499   2.09938
   A30        2.09440   0.00472   0.00000   0.00393   0.00402   2.09841
   A31        2.09440   0.03834   0.00000   0.02216   0.02203   2.11642
   A32        2.09440  -0.02000   0.00000  -0.01155  -0.01148   2.08291
   A33        2.09440  -0.01835   0.00000  -0.01061  -0.01054   2.08385
   A34        2.09440  -0.01689   0.00000  -0.00729  -0.00725   2.08715
   A35        2.09440   0.18286   0.00000   0.10356   0.10354   2.19794
   A36        2.09440  -0.16597   0.00000  -0.09627  -0.09629   1.99810
    D1        0.00000   0.00000   0.00000   0.00000   0.00000   0.00000
    D2        3.14159   0.00000   0.00000   0.00000   0.00000   3.14159
    D3       -3.14159   0.00000   0.00000  -0.00000  -0.00000  -3.14159
    D4       -0.00000  -0.00000   0.00000  -0.00000  -0.00000  -0.00000
    D5       -0.00000  -0.00000   0.00000  -0.00000  -0.00000  -0.00000
    D6        3.14159  -0.00000   0.00000  -0.00000  -0.00000   3.14159
    D7        3.14159   0.00000   0.00000   0.00000   0.00000   3.14159
    D8        0.00000  -0.00000   0.00000  -0.00000  -0.00000   0.00000
    D9       -0.00000  -0.00000   0.00000  -0.00000  -0.00000  -0.00000
   D10        3.14159  -0.00000   0.00000  -0.00000  -0.00000   3.14159
   D11        3.14159  -0.00000   0.00000  -0.00000  -0.00000   3.14159
   D12       -0.00000  -0.00000   0.00000  -0.00000  -0.00000  -0.00000
   D13        0.00000  -0.00000   0.00000  -0.00000  -0.00000   0.00000
   D14        3.14159  -0.00000   0.00000  -0.00000  -0.00000   3.14159
   D15       -3.14159  -0.00000   0.00000  -0.00000  -0.00000  -3.14159
   D16        0.00000  -0.00000   0.00000  -0.00000  -0.00000   0.00000
   D17       -0.00000   0.00000   0.00000   0.00000   0.00000  -0.00000
   D18        3.14159   0.00000   0.00000   0.00000   0.00000   3.14159
   D19        3.14159  -0.00000   0.00000  -0.00000  -0.00000   3.14159
   D20        0.00000  -0.00000   0.00000  -0.00000  -0.00000   0.00000
   D21        0.00000   0.00000   0.00000   0.00000   0.00000   0.00000
   D22       -3.14159   0.00000   0.00000   0.00000   0.00000  -3.14159
   D23       -3.14159  -0.00000   0.00000  -0.00000  -0.00000  -3.14159
   D24        0.00000   0.00000   0.00000   0.00000   0.00000   0.00000
   D25       -0.00000   0.00000   0.00000   0.00000   0.00000  -0.00000
   D26        3.14159   0.00000   0.00000   0.00000   0.00000   3.14159
   D27        3.14159   0.00000   0.00000   0.00000   0.00000   3.14159
   D28       -0.00000   0.00000   0.00000   0.00000   0.00000  -0.00000
   D29        3.14159   0.00000   0.00000   0.00000   0.00000   3.14159
   D30        0.00000   0.00000   0.00000   0.00000   0.00000   0.00000
   D31        0.00000   0.00000   0.00000   0.00000   0.00000   0.00000
   D32       -3.14159  -0.00000   0.00000  -0.00000  -0.00000  -3.14159
   D33       -3.14159   0.00000   0.00000   0.00000   0.00000  -3.14159
   D34        0.00000  -0.00000   0.00000  -0.00000  -0.00000   0.00000
   D35       -0.00000  -0.00000   0.00000  -0.00000  -0.00000  -0.00000
   D36        3.14159  -0.00000   0.00000  -0.00000  -0.00000   3.14159
   D37       -0.00000  -0.00000   0.00000  -0.00000  -0.00000  -0.00000
   D38        3.14159  -0.00000   0.00000  -0.00000  -0.00000   3.14159
   D39        3.14159   0.00000   0.00000   0.00000   0.00000   3.14159
   D40       -0.00000   0.00000   0.00000   0.00000   0.00000  -0.00000
   D41       -0.00000  -0.00000   0.00000  -0.00000  -0.00000  -0.00000
   D42       -3.14159  -0.00000   0.00000  -0.00000  -0.00000  -3.14159
   D43        3.14159   0.00000   0.00000   0.00000   0.00000   3.14159
   D44        0.00000  -0.00000   0.00000  -0.00000  -0.00000   0.00000
   D45        0.00000   0.00000   0.00000   0.00000   0.00000   0.00000
   D46       -3.14159  -0.00000   0.00000  -0.00000  -0.00000  -3.14159
   D47        3.14159   0.00000   0.00000   0.00000   0.00000   3.14159
   D48        0.00000   0.00000   0.00000   0.00000   0.00000   0.00000
   D49        0.00000   0.00000   0.00000   0.00000   0.00000   0.00000
   D50       -3.14159   0.00000   0.00000   0.00000   0.00000  -3.14159
   D51        3.14159   0.00000   0.00000   0.00000   0.00000   3.14159
   D52       -0.00000   0.00000   0.00000   0.00000   0.00000  -0.00000
         Item               Value     Threshold  Converged?
 Maximum Force            0.278387     0.000450     NO 
 RMS     Force            0.050431     0.000300     NO 
 Maximum Displacement     0.983807     0.001800     NO 
 RMS     Displacement     0.238519     0.001200     NO 
 Predicted change in Energy=-1.474676D-01
 GradGradGradGradGradGradGradGradGradGradGradGradGradGradGradGradGradGrad

                          Input orientation:                          
 ---------------------------------------------------------------------
 Center     Atomic      Atomic             Coordinates (Angstroms)
 Number     Number       Type             X           Y           Z
 ---------------------------------------------------------------------
      1          6           0        0.015255    0.367465    0.060726
      2          6           0        1.339029    0.251124   -0.397248
      3          6           0        2.183397    1.363748   -0.466467
      4          6           0        1.717932    2.619956   -0.077189
      5          6           0        0.406132    2.751744    0.379738
      6          6           0       -0.440578    1.638439    0.449601
      7          6           0       -0.809985   -0.955215    0.084195
      8          6           0       -0.082326   -2.070397   -0.364979
      9          6           0       -0.643803   -3.346173   -0.419599
     10          6           0       -1.963857   -3.543034   -0.021669
     11          6           0       -2.714723   -2.456233    0.429820
     12          6           0       -2.164635   -1.165370    0.491026
     13          1           0        1.710915   -0.707497   -0.699803
     14          1           0        3.189902    1.251678   -0.819112
     15          1           0        2.361985    3.475949   -0.128612
     16          1           0       -1.430582    1.774111    0.801243
     17          1           0        0.934633   -1.939042   -0.675352
     18         17           0       -3.266040    0.068196    1.085570
     19         17           0       -4.379829   -2.708845    0.930964
     20         17           0       -0.190581    4.331465    0.873011
     21         17           0       -2.679434   -5.146707   -0.087099
     22         17           0        0.319240   -4.700868   -0.991305
 ---------------------------------------------------------------------
                    Distance matrix (angstroms):
                    1          2          3          4          5
     1  C    0.000000
     2  C    1.405579   0.000000
     3  C    2.443635   1.398457   0.000000
     4  C    2.826985   2.420200   1.395082   0.000000
     5  C    2.437077   2.779767   2.408583   1.395339   0.000000
     6  C    1.405128   2.410145   2.792827   2.429001   1.400445
     7  C    1.559183   2.511036   3.826376   4.381581   3.912522
     8  C    2.476675   2.722270   4.115478   5.032212   4.903697
     9  C    3.802127   4.107635   5.493506   6.425708   6.239062
    10  C    4.383569   5.044379   6.440037   7.179213   6.738116
    11  C    3.944906   4.944364   6.275920   6.758194   6.071678
    12  C    2.699382   3.882157   5.120412   5.452145   4.686685
    13  H    2.146907   1.071818   2.137228   3.385209   3.851522
    14  H    3.410914   2.145882   1.072367   2.142273   3.381837
    15  H    3.899444   3.393833   2.146493   1.072462   2.146685
    16  H    2.148828   3.380327   3.851796   3.376423   2.122958
    17  H    2.589795   2.244483   3.537155   4.664313   4.836942
    18  Cl   3.450618   4.841371   5.812370   5.718694   4.602660
    19  Cl   5.434865   6.575021   7.849507   8.160586   7.281985
    20  Cl   4.051601   4.538992   4.029555   2.733965   1.759233
    21  Cl   6.139161   6.736529   8.134930   8.925132   8.492596
    22  Cl   5.185284   5.090687   6.366326   7.509088   7.578175
                    6          7          8          9         10
     6  C    0.000000
     7  C    2.645189   0.000000
     8  C    3.814100   1.405304   0.000000
     9  C    5.063908   2.449103   1.394935   0.000000
    10  C    5.421268   2.835390   2.413852   1.392712   0.000000
    11  C    4.683852   2.449600   2.776706   2.408779   1.395987
    12  C    3.291722   1.429948   2.426485   2.810350   2.440585
    13  H    3.384297   2.651594   2.277129   3.547649   4.690851
    14  H    3.865178   4.656763   4.685072   5.999761   7.084237
    15  H    3.400755   5.453613   6.065681   7.460615   8.245634
    16  H    1.059324   2.889380   4.237701   5.322290   5.406810
    17  H    3.994383   2.142083   1.071350   2.129997   3.376587
    18  Cl   3.294444   2.842944   4.100453   4.560655   3.995328
    19  Cl   5.886280   4.066451   4.533830   4.023443   2.727691
    20  Cl   2.737547   5.380973   6.521363   7.798870   8.121127
    21  Cl   7.165106   4.592689   4.035576   2.737933   1.757299
    22  Cl   6.545254   4.057310   2.733663   1.757697   2.737391
                   11         12         13         14         15
    11  C    0.000000
    12  C    1.404518   0.000000
    13  H    4.890849   4.080148   0.000000
    14  H    7.083293   6.019107   2.457642   0.000000
    15  H    7.827873   6.512763   4.272163   2.471765   0.000000
    16  H    4.436528   3.045590   4.275572   4.924161   4.259630
    17  H    3.847947   3.400657   1.455992   3.909936   5.626579
    18  Cl   2.665840   1.757345   5.344094   6.834299   6.690418
    19  Cl   1.757138   2.735497   6.615282   8.720627   9.210127
    20  Cl   7.255382   5.853033   5.610755   4.876067   2.872411
    21  Cl   2.739909   4.055896   6.273528   8.713454   9.988385
    22  Cl   4.032731   4.568006   4.238955   6.610836   8.472153
                   16         17         18         19         20
    16  H    0.000000
    17  H    4.643498   0.000000
    18  Cl   2.521883   4.977500   0.000000
    19  Cl   5.367660   5.605029   2.996061   0.000000
    20  Cl   2.843029   6.556126   5.261093   8.192626   0.000000
    21  Cl   7.088477   4.867919   5.377218   3.141810   9.846418
    22  Cl   6.942654   2.847142   6.317564   5.453854   9.236808
                   21         22
    21  Cl   0.000000
    22  Cl   3.163607   0.000000
 Stoichiometry    C12H5Cl5
 Framework group  C1[X(C12H5Cl5)]
 Deg. of freedom    60
 Full point group                 C1      NOp   1
 Largest Abelian subgroup         C1      NOp   1
 Largest concise Abelian subgroup C1      NOp   1
                         Standard orientation:                         
 ---------------------------------------------------------------------
 Center     Atomic      Atomic             Coordinates (Angstroms)
 Number     Number       Type             X           Y           Z
 ---------------------------------------------------------------------
      1          6           0       -1.672778    0.659876   -0.000000
      2          6           0       -1.990182    2.029148    0.000003
      3          6           0       -3.318609    2.466141    0.000006
      4          6           0       -4.359983    1.537813    0.000006
      5          6           0       -4.061104    0.174860    0.000000
      6          6           0       -2.731274   -0.264229   -0.000003
      7          6           0       -0.151249    0.319287   -0.000002
      8          6           0        0.671604    1.458494   -0.000002
      9          6           0        2.063399    1.364963   -0.000002
     10          6           0        2.676743    0.114580   -0.000002
     11          6           0        1.888315   -1.037445   -0.000002
     12          6           0        0.485886   -0.960874   -0.000001
     13          1           0       -1.200894    2.754282    0.000005
     14          1           0       -3.537539    3.515922    0.000009
     15          1           0       -5.380208    1.868442    0.000008
     16          1           0       -2.540068   -1.306153   -0.000006
     17          1           0        0.218354    2.429243    0.000001
     18         17           0       -0.328503   -2.518125    0.000002
     19         17           0        2.666053   -2.613090    0.000003
     20         17           0       -5.366989   -1.003939   -0.000004
     21         17           0        4.429418   -0.012800    0.000000
     22         17           0        3.037418    2.828106   -0.000002
 ---------------------------------------------------------------------
 Rotational constants (GHZ):           0.4876694           0.1562310           0.1183243
 Standard basis: 6-311+G(d,p) (5D, 7F)
 There are   461 symmetry adapted cartesian basis functions of A   symmetry.
 There are   444 symmetry adapted basis functions of A   symmetry.
   444 basis functions,   737 primitive gaussians,   461 cartesian basis functions
    81 alpha electrons       81 beta electrons
       nuclear repulsion energy      1692.4917189674 Hartrees.
 NAtoms=   22 NActive=   22 NUniq=   22 SFac= 1.00D+00 NAtFMM=   60 NAOKFM=F Big=F
 Integral buffers will be    131072 words long.
 Raffenetti 2 integral format.
 Two-electron integral symmetry is turned on.
 One-electron integrals computed using PRISM.
 NBasis=   444 RedAO= T EigKep=  1.00D-06  NBF=   444
 NBsUse=   439 1.00D-06 EigRej=  5.07D-07 NBFU=   439
 Initial guess from the checkpoint file:  "/scratch/gour/Gau-47270.chk"
 B after Tr=     0.000000   -0.000000    0.000000
         Rot=    0.999595   -0.000000   -0.000000   -0.028443 Ang=  -3.26 deg.
 ExpMin= 4.38D-02 ExpMax= 1.06D+05 ExpMxC= 3.62D+03 IAcc=3 IRadAn=         5 AccDes= 0.00D+00
 Harris functional with IExCor=  402 and IRadAn=       5 diagonalized for initial guess.
 HarFok:  IExCor=  402 AccDes= 0.00D+00 IRadAn=         5 IDoV= 1 UseB2=F ITyADJ=14
 ICtDFT=  3500011 ScaDFX=  1.000000  1.000000  1.000000  1.000000
 FoFCou: FMM=F IPFlag=           0 FMFlag=      100000 FMFlg1=           0
         NFxFlg=           0 DoJE=T BraDBF=F KetDBF=T FulRan=T
         wScrn=  0.000000 ICntrl=       500 IOpCl=  0 I1Cent=   200000004 NGrid=           0
         NMat0=    1 NMatS0=      1 NMatT0=    0 NMatD0=    1 NMtDS0=    0 NMtDT0=    0
 Petite list used in FoFCou.
 Requested convergence on RMS density matrix=1.00D-08 within  32 cycles.
 Requested convergence on MAX density matrix=1.00D-06.
 Requested convergence on             energy=1.00D-06.
 No special actions if energy rises.
 SCF Done:  E(RB3LYP) =  -2761.48842709     A.U. after   17 cycles
            NFock= 17  Conv=0.70D-08     -V/T= 2.0027
 QCSCF skips out because SCF is already converged.
 Calling FoFJK, ICntrl=      2127 FMM=F ISym2X=0 I1Cent= 0 IOpClX= 0 NMat=1 NMatS=1 NMatT=0.
 ***** Axes restored to original set *****
 -------------------------------------------------------------------
 Center     Atomic                   Forces (Hartrees/Bohr)
 Number     Number              X              Y              Z
 -------------------------------------------------------------------
      1        6          -0.010069569   -0.019328663   -0.000312694
      2        6           0.004807805    0.019977554    0.002168139
      3        6          -0.017174248   -0.003771802    0.004949870
      4        6          -0.004450415   -0.002104615    0.001070726
      5        6           0.003360504   -0.011297491   -0.003228859
      6        6           0.010093199   -0.000527752   -0.003424323
      7        6           0.006389028    0.022387508    0.002099822
      8        6          -0.021603556   -0.014951390    0.004309484
      9        6           0.005520408    0.004014234   -0.001064895
     10        6          -0.006180830   -0.013065243   -0.000417376
     11        6          -0.007254886    0.000691283    0.002520191
     12        6           0.009723121   -0.000745374   -0.003343403
     13        1           0.010077877    0.008175184   -0.001784870
     14        1           0.007156054   -0.000599362   -0.002470150
     15        1           0.003765922    0.006284612   -0.000060382
     16        1          -0.012916051    0.001818407    0.004596730
     17        1          -0.004118510   -0.011428573   -0.000789676
     18       17           0.012634631    0.006313793   -0.002976827
     19       17           0.006915973   -0.003165323   -0.002873098
     20       17           0.000466577   -0.003019962   -0.000720851
     21       17           0.003445448    0.007418513    0.000258068
     22       17          -0.000588482    0.006924463    0.001494377
 -------------------------------------------------------------------
 Cartesian Forces:  Max     0.022387508 RMS     0.008002190

 GradGradGradGradGradGradGradGradGradGradGradGradGradGradGradGradGradGrad
 Berny optimization.
 Using GEDIIS/GDIIS optimizer.
 FormGI is forming the generalized inverse of G from B-inverse, IUseBI=4.
 Internal  Forces:  Max     0.060588780 RMS     0.011836792
 Search for a local minimum.
 Step number   2 out of a maximum of  121
 All quantities printed in internal units (Hartrees-Bohrs-Radians)
 Mixed Optimization -- RFO/linear search
 Update second derivatives using D2CorX and points    1    2
 DE= -3.74D-02 DEPred=-1.47D-01 R= 2.53D-01
 Trust test= 2.53D-01 RLast= 3.00D-01 DXMaxT set to 3.00D-01
 ITU=  0  0
 Use linear search instead of GDIIS.
     Eigenvalues ---    0.00237   0.01479   0.01484   0.02070   0.02070
     Eigenvalues ---    0.02070   0.02070   0.02070   0.02070   0.02070
     Eigenvalues ---    0.02070   0.02070   0.02070   0.02070   0.02070
     Eigenvalues ---    0.02070   0.02070   0.02070   0.02070   0.15967
     Eigenvalues ---    0.16000   0.16000   0.16000   0.16034   0.21996
     Eigenvalues ---    0.23386   0.23473   0.23493   0.24860   0.25000
     Eigenvalues ---    0.25000   0.25000   0.25000   0.25000   0.25000
     Eigenvalues ---    0.25000   0.28452   0.29513   0.29539   0.29539
     Eigenvalues ---    0.29539   0.29539   0.37084   0.37208   0.37230
     Eigenvalues ---    0.37230   0.37230   0.40641   0.41314   0.41559
     Eigenvalues ---    0.41611   0.45038   0.45345   0.45389   0.45389
     Eigenvalues ---    0.45389   0.45389   0.45389   0.45389   2.12446
 RFO step:  Lambda=-1.15439166D-02 EMin= 2.36824243D-03
 Quartic linear search produced a step of -0.34273.
 Iteration  1 RMS(Cart)=  0.13911400 RMS(Int)=  0.00403369
 Iteration  2 RMS(Cart)=  0.00674906 RMS(Int)=  0.00003618
 Iteration  3 RMS(Cart)=  0.00001420 RMS(Int)=  0.00003594
 Iteration  4 RMS(Cart)=  0.00000000 RMS(Int)=  0.00003594
 Variable       Old X    -DE/DX   Delta X   Delta X   Delta X     New X
                                 (Linear)    (Quad)   (Total)
    R1        2.65616   0.01054  -0.00271   0.02278   0.02010   2.67626
    R2        2.65531  -0.00258  -0.00241   0.00307   0.00072   2.65602
    R3        2.94643  -0.00632  -0.01242   0.01753   0.00510   2.95153
    R4        2.64270  -0.00684   0.00191  -0.01434  -0.01247   2.63023
    R5        2.02544  -0.00331  -0.00118  -0.00258  -0.00375   2.02169
    R6        2.63632  -0.00608   0.00409  -0.01979  -0.01576   2.62056
    R7        2.02648   0.00759  -0.00153   0.01701   0.01548   2.04196
    R8        2.63681  -0.01025   0.00393  -0.02564  -0.02174   2.61507
    R9        2.02666   0.00728  -0.00159   0.01664   0.01505   2.04170
   R10        2.64646  -0.00883   0.00062  -0.01453  -0.01388   2.63258
   R11        3.32447  -0.00307   0.00050  -0.00784  -0.00734   3.31712
   R12        2.00183   0.01383   0.00691   0.00552   0.01244   2.01427
   R13        2.65564   0.00444  -0.00253   0.01238   0.00991   2.66555
   R14        2.70221  -0.01840  -0.01849   0.02305   0.00461   2.70682
   R15        2.63604  -0.00927   0.00419  -0.02442  -0.02023   2.61582
   R16        2.02456  -0.00508  -0.00087  -0.00640  -0.00728   2.01728
   R17        2.63184  -0.00146   0.00563  -0.01666  -0.01108   2.62076
   R18        3.32157  -0.00615   0.00149  -0.01695  -0.01546   3.30610
   R19        2.63803  -0.00122   0.00351  -0.01050  -0.00705   2.63098
   R20        3.32081  -0.00818   0.00175  -0.02197  -0.02022   3.30059
   R21        2.65415   0.00592  -0.00202   0.01387   0.01184   2.66600
   R22        3.32051  -0.00692   0.00185  -0.01953  -0.01768   3.30283
   R23        3.32090  -0.00449   0.00172  -0.01400  -0.01228   3.30862
    A1        2.06073  -0.01197   0.01154  -0.05718  -0.04554   2.01519
    A2        2.01879   0.05770   0.02591   0.07970   0.10556   2.12435
    A3        2.20366  -0.04573  -0.03745  -0.02252  -0.06002   2.14364
    A4        2.11638   0.00159  -0.00754   0.02478   0.01723   2.13362
    A5        2.08608   0.01204   0.00285   0.03882   0.04168   2.12775
    A6        2.08073  -0.01363   0.00468  -0.06360  -0.05891   2.02182
    A7        2.09572   0.00507  -0.00045   0.01547   0.01491   2.11063
    A8        2.09420  -0.00234   0.00007  -0.00660  -0.00648   2.08772
    A9        2.09326  -0.00274   0.00039  -0.00886  -0.00842   2.08484
   A10        2.08299  -0.00614   0.00391  -0.02919  -0.02538   2.05762
   A11        2.10013   0.00390  -0.00197   0.01781   0.01589   2.11602
   A12        2.10006   0.00224  -0.00194   0.01138   0.00949   2.10955
   A13        2.10558   0.00589  -0.00383   0.02209   0.01826   2.12384
   A14        2.08922  -0.00187   0.00177  -0.00799  -0.00622   2.08300
   A15        2.08838  -0.00402   0.00206  -0.01410  -0.01204   2.07634
   A16        2.10496   0.00556  -0.00362   0.02403   0.02051   2.12548
   A17        2.10702  -0.00273  -0.00433   0.00203  -0.00234   2.10468
   A18        2.07120  -0.00283   0.00795  -0.02607  -0.01817   2.05303
   A19        1.97612   0.06059   0.04054   0.05237   0.09285   2.06897
   A20        2.25282  -0.04855  -0.05430   0.01404  -0.04031   2.21251
   A21        2.05425  -0.01204   0.01376  -0.06641  -0.05254   2.00171
   A22        2.12923   0.00647  -0.01194   0.04573   0.03385   2.16309
   A23        2.07923   0.00797   0.00520   0.02176   0.02692   2.10615
   A24        2.07472  -0.01443   0.00674  -0.06748  -0.06077   2.01395
   A25        2.09394   0.00404   0.00016   0.01010   0.01021   2.10415
   A26        2.09103  -0.00795   0.00115  -0.02301  -0.02183   2.06920
   A27        2.09822   0.00391  -0.00131   0.01291   0.01162   2.10984
   A28        2.08539  -0.00707   0.00309  -0.02388  -0.02090   2.06449
   A29        2.09938   0.00332  -0.00171   0.01180   0.01015   2.10953
   A30        2.09841   0.00375  -0.00138   0.01207   0.01075   2.10917
   A31        2.11642  -0.00345  -0.00755   0.01110   0.00348   2.11990
   A32        2.08291  -0.00537   0.00394  -0.02376  -0.01979   2.06312
   A33        2.08385   0.00881   0.00361   0.01266   0.01631   2.10016
   A34        2.08715   0.01205   0.00248   0.02337   0.02589   2.11304
   A35        2.19794  -0.02880  -0.03549   0.01624  -0.01926   2.17867
   A36        1.99810   0.01675   0.03300  -0.03961  -0.00663   1.99148
    D1        0.00000  -0.00000  -0.00000  -0.00000  -0.00000   0.00000
    D2        3.14159  -0.00000  -0.00000  -0.00000  -0.00000   3.14159
    D3       -3.14159  -0.00000   0.00000  -0.00000  -0.00000  -3.14159
    D4       -0.00000  -0.00000   0.00000   0.00000   0.00000  -0.00000
    D5       -0.00000   0.00000   0.00000   0.00000   0.00000  -0.00000
    D6        3.14159   0.00000   0.00000   0.00000   0.00000   3.14159
    D7        3.14159  -0.00000  -0.00000   0.00000   0.00000   3.14159
    D8        0.00000  -0.00000   0.00000  -0.00000  -0.00000  -0.00000
    D9       -0.00000  -0.00000   0.00000  -0.00000  -0.00000  -0.00000
   D10        3.14159  -0.00000   0.00000  -0.00000  -0.00000   3.14159
   D11        3.14159  -0.00000   0.00000  -0.00000  -0.00000   3.14159
   D12       -0.00000   0.00000   0.00000  -0.00000  -0.00000  -0.00000
   D13        0.00000  -0.00000   0.00000  -0.00000  -0.00000   0.00000
   D14        3.14159   0.00000   0.00000   0.00000   0.00000   3.14159
   D15       -3.14159  -0.00000   0.00000  -0.00000  -0.00000  -3.14159
   D16        0.00000  -0.00000   0.00000  -0.00000  -0.00000   0.00000
   D17       -0.00000   0.00000  -0.00000   0.00000   0.00000  -0.00000
   D18        3.14159   0.00000  -0.00000   0.00000   0.00000   3.14159
   D19        3.14159   0.00000   0.00000   0.00000   0.00000   3.14159
   D20        0.00000  -0.00000   0.00000  -0.00000  -0.00000   0.00000
   D21        0.00000  -0.00000   0.00000  -0.00000  -0.00000   0.00000
   D22       -3.14159  -0.00000  -0.00000  -0.00000  -0.00000  -3.14159
   D23       -3.14159   0.00000   0.00000   0.00000   0.00000  -3.14159
   D24        0.00000  -0.00000  -0.00000  -0.00000  -0.00000   0.00000
   D25       -0.00000   0.00000  -0.00000   0.00000  -0.00000  -0.00000
   D26        3.14159   0.00000  -0.00000   0.00000   0.00000   3.14159
   D27        3.14159   0.00000   0.00000   0.00000   0.00000   3.14159
   D28       -0.00000   0.00000  -0.00000   0.00000   0.00000  -0.00000
   D29        3.14159  -0.00000  -0.00000   0.00000   0.00000  -3.14159
   D30        0.00000  -0.00000  -0.00000  -0.00000  -0.00000   0.00000
   D31        0.00000  -0.00000  -0.00000  -0.00000  -0.00000   0.00000
   D32       -3.14159  -0.00000   0.00000  -0.00000  -0.00000  -3.14159
   D33       -3.14159  -0.00000  -0.00000  -0.00000  -0.00000   3.14159
   D34        0.00000  -0.00000   0.00000  -0.00000  -0.00000  -0.00000
   D35       -0.00000   0.00000   0.00000   0.00000   0.00000  -0.00000
   D36        3.14159   0.00000   0.00000   0.00000   0.00000   3.14159
   D37       -0.00000  -0.00000   0.00000  -0.00000  -0.00000  -0.00000
   D38        3.14159  -0.00000   0.00000  -0.00000  -0.00000   3.14159
   D39        3.14159   0.00000  -0.00000   0.00000   0.00000   3.14159
   D40       -0.00000   0.00000  -0.00000   0.00000   0.00000  -0.00000
   D41       -0.00000   0.00000   0.00000   0.00000   0.00000   0.00000
   D42       -3.14159  -0.00000   0.00000  -0.00000  -0.00000  -3.14159
   D43        3.14159   0.00000  -0.00000   0.00000   0.00000  -3.14159
   D44        0.00000  -0.00000   0.00000  -0.00000  -0.00000   0.00000
   D45        0.00000   0.00000  -0.00000   0.00000   0.00000   0.00000
   D46       -3.14159  -0.00000   0.00000  -0.00000  -0.00000  -3.14159
   D47        3.14159   0.00000  -0.00000   0.00000   0.00000   3.14159
   D48        0.00000  -0.00000  -0.00000  -0.00000  -0.00000   0.00000
   D49        0.00000  -0.00000  -0.00000  -0.00000  -0.00000  -0.00000
   D50       -3.14159  -0.00000  -0.00000  -0.00000  -0.00000  -3.14159
   D51        3.14159   0.00000  -0.00000   0.00000   0.00000   3.14159
   D52       -0.00000   0.00000  -0.00000   0.00000   0.00000  -0.00000
         Item               Value     Threshold  Converged?
 Maximum Force            0.060589     0.000450     NO 
 RMS     Force            0.011837     0.000300     NO 
 Maximum Displacement     0.505502     0.001800     NO 
 RMS     Displacement     0.140216     0.001200     NO 
 Predicted change in Energy=-7.732644D-03
 GradGradGradGradGradGradGradGradGradGradGradGradGradGradGradGradGradGrad

                          Input orientation:                          
 ---------------------------------------------------------------------
 Center     Atomic      Atomic             Coordinates (Angstroms)
 Number     Number       Type             X           Y           Z
 ---------------------------------------------------------------------
      1          6           0        0.115813    0.309532    0.016717
      2          6           0        1.461956    0.331146   -0.422716
      3          6           0        2.215213    1.501218   -0.451130
      4          6           0        1.670205    2.709827   -0.044588
      5          6           0        0.356110    2.714152    0.389157
      6          6           0       -0.407493    1.549435    0.421986
      7          6           0       -0.718100   -1.010828    0.043480
      8          6           0       -0.102248   -2.205723   -0.383831
[...]
                 (A) (A) (A) (A) (A) (A) (A) (A) (A) (A) (A) (A)
                 (A) (A) (A) (A) (A) (A) (A) (A) (A) (A) (A) (A)
                 (A) (A) (A) (A) (A) (A) (A) (A) (A)
       Virtual   (A) (A) (A) (A) (A) (A) (A) (A) (A) (A) (A) (A)
                 (A) (A) (A) (A) (A) (A) (A) (A) (A) (A) (A) (A)
                 (A) (A) (A) (A) (A) (A) (A) (A) (A) (A) (A) (A)
                 (A) (A) (A) (A) (A) (A) (A) (A) (A) (A) (A) (A)
                 (A) (A) (A) (A) (A) (A) (A) (A) (A) (A) (A) (A)
                 (A) (A) (A) (A) (A) (A) (A) (A) (A) (A) (A) (A)
                 (A) (A) (A) (A) (A) (A) (A) (A) (A) (A) (A) (A)
                 (A) (A) (A) (A) (A) (A) (A) (A) (A) (A) (A) (A)
                 (A) (A) (A) (A) (A) (A) (A) (A) (A) (A) (A) (A)
                 (A) (A) (A) (A) (A) (A) (A) (A) (A) (A) (A) (A)
                 (A) (A) (A) (A) (A) (A) (A) (A) (A) (A) (A) (A)
                 (A) (A) (A) (A) (A) (A) (A) (A) (A) (A) (A) (A)
                 (A) (A) (A) (A) (A) (A) (A) (A) (A) (A) (A) (A)
                 (A) (A) (A) (A) (A) (A) (A) (A) (A) (A) (A) (A)
                 (A) (A) (A) (A) (A) (A) (A) (A) (A) (A) (A) (A)
                 (A) (A) (A) (A) (A) (A) (A) (A) (A) (A) (A) (A)
                 (A) (A) (A) (A) (A) (A) (A) (A) (A) (A) (A) (A)
                 (A) (A) (A) (A) (A) (A) (A) (A) (A) (A) (A) (A)
                 (A) (A) (A) (A) (A) (A) (A) (A) (A) (A) (A) (A)
                 (A) (A) (A) (A) (A) (A) (A) (A) (A) (A) (A) (A)
                 (A) (A) (A) (A) (A) (A) (A) (A) (A) (A) (A) (A)
                 (A) (A) (A) (A) (A) (A) (A) (A) (A) (A) (A) (A)
                 (A) (A) (A) (A) (A) (A) (A) (A) (A) (A) (A) (A)
                 (A) (A) (A) (A) (A) (A) (A) (A) (A) (A) (A) (A)
                 (A) (A) (A) (A) (A) (A) (A) (A) (A) (A) (A) (A)
                 (A) (A) (A) (A) (A) (A) (A) (A) (A) (A) (A) (A)
                 (A) (A) (A) (A) (A) (A) (A) (A) (A) (A) (A) (A)
                 (A) (A) (A) (A) (A) (A) (A) (A) (A) (A) (A) (A)
                 (A) (A) (A) (A) (A) (A) (A) (A) (A) (A) (A) (A)
                 (A) (A) (A) (A) (A) (A) (A) (A) (A) (A) (A)
 The electronic state is 1-A.
 Alpha  occ. eigenvalues -- -101.57954-101.57886-101.57809-101.57607-101.56441
 Alpha  occ. eigenvalues --  -10.28143 -10.28010 -10.27608 -10.27439 -10.25564
 Alpha  occ. eigenvalues --  -10.23441 -10.22061 -10.22009 -10.20651 -10.20501
 Alpha  occ. eigenvalues --  -10.20436 -10.20254  -9.49417  -9.49354  -9.49265
 Alpha  occ. eigenvalues --   -9.49086  -9.47898  -7.25920  -7.25857  -7.25755
 Alpha  occ. eigenvalues --   -7.25575  -7.24898  -7.24836  -7.24813  -7.24747
 Alpha  occ. eigenvalues --   -7.24743  -7.24684  -7.24570  -7.24490  -7.24360
 Alpha  occ. eigenvalues --   -7.23381  -7.23346  -0.96117  -0.91788  -0.91166
 Alpha  occ. eigenvalues --   -0.89593  -0.86874  -0.86215  -0.84476  -0.79788
 Alpha  occ. eigenvalues --   -0.76482  -0.75272  -0.74323  -0.66356  -0.64306
 Alpha  occ. eigenvalues --   -0.62767  -0.60710  -0.55173  -0.54459  -0.52849
 Alpha  occ. eigenvalues --   -0.49825  -0.49643  -0.47941  -0.46878  -0.46229
 Alpha  occ. eigenvalues --   -0.45971  -0.45132  -0.43214  -0.42624  -0.41267
 Alpha  occ. eigenvalues --   -0.40193  -0.38888  -0.38747  -0.37824  -0.35659
 Alpha  occ. eigenvalues --   -0.35496  -0.35265  -0.34896  -0.33641  -0.33469
 Alpha  occ. eigenvalues --   -0.32774  -0.31750  -0.28975  -0.27292  -0.26931
 Alpha  occ. eigenvalues --   -0.26299
 Alpha virt. eigenvalues --   -0.06706  -0.05974  -0.04855  -0.03925  -0.03380
 Alpha virt. eigenvalues --   -0.01033  -0.00218   0.00224   0.00957   0.01591
 Alpha virt. eigenvalues --    0.02065   0.02252   0.02571   0.03365   0.03997
 Alpha virt. eigenvalues --    0.04213   0.04870   0.05511   0.05696   0.06359
 Alpha virt. eigenvalues --    0.06897   0.07459   0.08000   0.08206   0.08361
 Alpha virt. eigenvalues --    0.08698   0.08932   0.09588   0.09841   0.10070
 Alpha virt. eigenvalues --    0.10545   0.11104   0.11520   0.11954   0.12019
 Alpha virt. eigenvalues --    0.12239   0.12554   0.13092   0.13657   0.14000
 Alpha virt. eigenvalues --    0.14283   0.14595   0.14880   0.15398   0.15822
 Alpha virt. eigenvalues --    0.15980   0.16276   0.16686   0.17190   0.18115
 Alpha virt. eigenvalues --    0.18356   0.18568   0.19011   0.19262   0.19742
 Alpha virt. eigenvalues --    0.19854   0.19999   0.20539   0.20875   0.21338
 Alpha virt. eigenvalues --    0.21731   0.22176   0.22551   0.22789   0.23275
 Alpha virt. eigenvalues --    0.23843   0.23966   0.24157   0.24958   0.25023
 Alpha virt. eigenvalues --    0.25748   0.26505   0.26813   0.27267   0.27697
 Alpha virt. eigenvalues --    0.27728   0.28028   0.28538   0.28789   0.29109
 Alpha virt. eigenvalues --    0.29330   0.29435   0.29776   0.30274   0.31447
 Alpha virt. eigenvalues --    0.32850   0.33231   0.33887   0.34722   0.40157
 Alpha virt. eigenvalues --    0.41505   0.42875   0.43000   0.43818   0.44280
 Alpha virt. eigenvalues --    0.45086   0.45133   0.45336   0.45935   0.46614
 Alpha virt. eigenvalues --    0.47005   0.47746   0.48708   0.48837   0.49399
 Alpha virt. eigenvalues --    0.49676   0.50575   0.52072   0.52820   0.54090
 Alpha virt. eigenvalues --    0.54961   0.55695   0.56108   0.56238   0.57454
 Alpha virt. eigenvalues --    0.58144   0.59305   0.59703   0.60399   0.60499
 Alpha virt. eigenvalues --    0.61529   0.61632   0.62351   0.62886   0.63959
 Alpha virt. eigenvalues --    0.65589   0.66211   0.66729   0.67189   0.67778
 Alpha virt. eigenvalues --    0.68078   0.68698   0.69793   0.69994   0.70334
 Alpha virt. eigenvalues --    0.71333   0.72580   0.74864   0.76206   0.78303
 Alpha virt. eigenvalues --    0.79476   0.81110   0.81512   0.81766   0.82511
 Alpha virt. eigenvalues --    0.83661   0.83845   0.84104   0.84364   0.84540
 Alpha virt. eigenvalues --    0.84940   0.85415   0.85586   0.85828   0.86091
 Alpha virt. eigenvalues --    0.86419   0.87040   0.88412   0.89050   0.89785
 Alpha virt. eigenvalues --    0.90210   0.90366   0.91164   0.91809   0.92684
 Alpha virt. eigenvalues --    0.93062   0.93877   0.94419   0.94847   0.95615
 Alpha virt. eigenvalues --    0.96120   0.97230   0.97393   0.98860   0.99325
 Alpha virt. eigenvalues --    1.00854   1.02075   1.02997   1.04077   1.05106
 Alpha virt. eigenvalues --    1.05580   1.09495   1.09921   1.10444   1.13761
 Alpha virt. eigenvalues --    1.15377   1.18455   1.18918   1.20135   1.22518
 Alpha virt. eigenvalues --    1.23882   1.25645   1.26192   1.27484   1.27803
 Alpha virt. eigenvalues --    1.28830   1.29136   1.30118   1.30579   1.35507
 Alpha virt. eigenvalues --    1.36623   1.39257   1.40752   1.43611   1.47843
 Alpha virt. eigenvalues --    1.47951   1.51014   1.51781   1.55231   1.55375
 Alpha virt. eigenvalues --    1.56806   1.58926   1.60954   1.61392   1.64383
 Alpha virt. eigenvalues --    1.64625   1.66214   1.68184   1.68986   1.70594
 Alpha virt. eigenvalues --    1.73130   1.74343   1.76890   1.80080   1.80423
 Alpha virt. eigenvalues --    1.82915   1.84141   1.85105   1.87039   1.87377
 Alpha virt. eigenvalues --    1.89522   1.90763   1.91361   1.92596   1.95343
 Alpha virt. eigenvalues --    1.96687   1.96987   1.98941   1.99762   2.01673
 Alpha virt. eigenvalues --    2.03452   2.05961   2.09693   2.11926   2.12655
 Alpha virt. eigenvalues --    2.17128   2.21323   2.22510   2.24030   2.24474
 Alpha virt. eigenvalues --    2.26997   2.27671   2.27963   2.28499   2.30452
 Alpha virt. eigenvalues --    2.31773   2.33119   2.35277   2.37633   2.39037
 Alpha virt. eigenvalues --    2.39687   2.41155   2.42422   2.42765   2.45770
 Alpha virt. eigenvalues --    2.48072   2.49707   2.52032   2.52997   2.53962
 Alpha virt. eigenvalues --    2.56327   2.59366   2.63273   2.64635   2.64840
 Alpha virt. eigenvalues --    2.67205   2.67995   2.68732   2.69442   2.74089
 Alpha virt. eigenvalues --    2.74671   2.75679   2.75936   2.77789   2.79108
 Alpha virt. eigenvalues --    2.79472   2.80422   2.82749   2.83896   2.85053
 Alpha virt. eigenvalues --    2.87987   2.91656   2.97003   2.99321   3.05862
 Alpha virt. eigenvalues --    3.06305   3.08416   3.11090   3.13239   3.15527
 Alpha virt. eigenvalues --    3.16695   3.20178   3.21342   3.25264   3.34878
 Alpha virt. eigenvalues --    3.35423   3.38046   3.49523   3.49967   3.58336
 Alpha virt. eigenvalues --    3.64595   3.66251   3.75058   3.78684   3.90650
 Alpha virt. eigenvalues --    3.99315   4.02671   4.10229   4.12604   4.35372
 Alpha virt. eigenvalues --    4.80140   4.83086   9.72979   9.77807   9.78429
 Alpha virt. eigenvalues --    9.80558   9.81884  23.33040  23.58801  23.79471
 Alpha virt. eigenvalues --   23.84719  23.89759  23.92050  23.94209  23.97423
 Alpha virt. eigenvalues --   24.03968  24.05799  24.10021  24.16133  25.76718
 Alpha virt. eigenvalues --   25.80344  25.82919  25.86278  25.92663  26.08222
 Alpha virt. eigenvalues --   26.10195  26.12797  26.17160  26.29280  26.44889
 Alpha virt. eigenvalues --   26.59698  26.60329  26.73566  26.93342 215.71806
 Alpha virt. eigenvalues --  215.77020 215.77841 215.80365 215.82026
          Condensed to atoms (all electrons):
               1          2          3          4          5          6
     1  C   23.001462  -5.444441  -1.646256  -1.569005  -5.336356   5.875694
     2  C   -5.444441  22.924763  -1.986944   2.590777  -2.335632 -13.518431
     3  C   -1.646256  -1.986944  10.396840  -0.181541   0.313504  -1.884361
     4  C   -1.569005   2.590777  -0.181541  17.004322  -2.473893  -8.583829
     5  C   -5.336356  -2.335632   0.313504  -2.473893  22.592049 -12.421957
     6  C    5.875694 -13.518431  -1.884361  -8.583829 -12.421957  50.899296
     7  C   -1.428907   2.486013   0.384414  -0.304028   4.314281 -10.508126
     8  C   -1.951468   0.181241   0.265908  -0.077390   0.045335   0.367776
     9  C   -2.164137  -0.090457   0.189095  -0.146419   0.619771  -1.005762
    10  C    0.099372   0.118629  -0.156543   0.102468  -0.153334   0.277664
    11  C   -0.391542  -0.383020  -0.008830   0.011281  -0.156658   0.989510
    12  C   -2.432547   1.518659  -0.070110   0.352102   0.351251  -2.601999
    13  H    0.030820   0.319089  -0.035858  -0.007501  -0.003252   0.017449
    14  H    0.009404   0.030244   0.360371   0.003768  -0.014327  -0.047070
    15  H    0.039949  -0.057251   0.002007   0.279607   0.075296   0.007371
    16  H    0.058778   0.072131  -0.020980   0.056343   0.018729   0.124437
    17  H    0.036538   0.068952  -0.009892   0.010638  -0.027369   0.005680
    18  Cl  -0.792154  -0.163225   0.127189  -0.185964   0.919625  -1.259956
    19  Cl   0.015700  -0.024215  -0.001342  -0.001240   0.015642   0.050518
    20  Cl  -0.339631   0.061430   0.201056  -0.204816  -1.079750   0.667626
    21  Cl  -0.059516   0.020698   0.002174  -0.000876   0.004387  -0.030710
    22  Cl  -0.183605   0.039013   0.032192  -0.007557   0.023194  -0.089602
               7          8          9         10         11         12
     1  C   -1.428907  -1.951468  -2.164137   0.099372  -0.391542  -2.432547
     2  C    2.486013   0.181241  -0.090457   0.118629  -0.383020   1.518659
     3  C    0.384414   0.265908   0.189095  -0.156543  -0.008830  -0.070110
     4  C   -0.304028  -0.077390  -0.146419   0.102468   0.011281   0.352102
     5  C    4.314281   0.045335   0.619771  -0.153334  -0.156658   0.351251
     6  C  -10.508126   0.367776  -1.005762   0.277664   0.989510  -2.601999
     7  C   21.170661  -2.147279  -6.668023   4.184940  -1.606390  -3.110967
     8  C   -2.147279   8.879370   1.709354  -4.064825   1.380571   1.458246
     9  C   -6.668023   1.709354  18.397792  -7.059494  -2.812936   5.069405
    10  C    4.184940  -4.064825  -7.059494  21.221842   0.281225  -7.381110
    11  C   -1.606390   1.380571  -2.812936   0.281225  11.827267  -2.275899
    12  C   -3.110967   1.458246   5.069405  -7.381110  -2.275899  15.579613
    13  H   -0.006890   0.018116  -0.007305   0.003246   0.002764   0.022039
    14  H    0.008575  -0.003749  -0.000973   0.000042  -0.000108   0.001954
    15  H    0.008358  -0.001124  -0.000045  -0.000004  -0.000046  -0.000382
    16  H    0.035816  -0.013318  -0.008548   0.001676  -0.004794   0.040773
    17  H   -0.004327   0.402375  -0.100683  -0.003738   0.004545  -0.031749
    18  Cl   0.047550   0.124211   0.743087  -0.775126   0.027068  -0.225601
    19  Cl  -0.381750   0.117436   0.027430  -0.279820  -0.636592   0.560597
    20  Cl  -0.022690   0.012476   0.007896  -0.005358  -0.000986  -0.039522
    21  Cl   0.248959  -0.177771  -0.857558   0.421447   0.483444  -0.696390
    22  Cl  -0.768205   0.260551   0.392255  -0.667149  -0.270305   0.452573
              13         14         15         16         17         18
     1  C    0.030820   0.009404   0.039949   0.058778   0.036538  -0.792154
     2  C    0.319089   0.030244  -0.057251   0.072131   0.068952  -0.163225
     3  C   -0.035858   0.360371   0.002007  -0.020980  -0.009892   0.127189
     4  C   -0.007501   0.003768   0.279607   0.056343   0.010638  -0.185964
     5  C   -0.003252  -0.014327   0.075296   0.018729  -0.027369   0.919625
     6  C    0.017449  -0.047070   0.007371   0.124437   0.005680  -1.259956
     7  C   -0.006890   0.008575   0.008358   0.035816  -0.004327   0.047550
     8  C    0.018116  -0.003749  -0.001124  -0.013318   0.402375   0.124211
     9  C   -0.007305  -0.000973  -0.000045  -0.008548  -0.100683   0.743087
    10  C    0.003246   0.000042  -0.000004   0.001676  -0.003738  -0.775126
    11  C    0.002764  -0.000108  -0.000046  -0.004794   0.004545   0.027068
    12  C    0.022039   0.001954  -0.000382   0.040773  -0.031749  -0.225601
    13  H    0.526825  -0.007108  -0.000191  -0.000134  -0.000487  -0.001819
    14  H   -0.007108   0.528746  -0.007980   0.000063   0.000024  -0.000356
    15  H   -0.000191  -0.007980   0.509773  -0.000251  -0.000002   0.000203
    16  H   -0.000134   0.000063  -0.000251   0.499218   0.000028  -0.002476
    17  H   -0.000487   0.000024  -0.000002   0.000028   0.499903  -0.003126
    18  Cl  -0.001819  -0.000356   0.000203  -0.002476  -0.003126  17.966388
    19  Cl  -0.000186   0.000001  -0.000000   0.000403   0.001021  -0.178944
    20  Cl   0.000167   0.000654  -0.007605  -0.009622  -0.000107   0.005182
    21  Cl   0.000114  -0.000000   0.000000  -0.000098   0.000020  -0.022013
    22  Cl   0.000203  -0.000004   0.000001  -0.000103  -0.004983   0.013502
              19         20         21         22
     1  C    0.015700  -0.339631  -0.059516  -0.183605
     2  C   -0.024215   0.061430   0.020698   0.039013
     3  C   -0.001342   0.201056   0.002174   0.032192
     4  C   -0.001240  -0.204816  -0.000876  -0.007557
     5  C    0.015642  -1.079750   0.004387   0.023194
     6  C    0.050518   0.667626  -0.030710  -0.089602
     7  C   -0.381750  -0.022690   0.248959  -0.768205
     8  C    0.117436   0.012476  -0.177771   0.260551
     9  C    0.027430   0.007896  -0.857558   0.392255
    10  C   -0.279820  -0.005358   0.421447  -0.667149
    11  C   -0.636592  -0.000986   0.483444  -0.270305
    12  C    0.560597  -0.039522  -0.696390   0.452573
    13  H   -0.000186   0.000167   0.000114   0.000203
    14  H    0.000001   0.000654  -0.000000  -0.000004
    15  H   -0.000000  -0.007605   0.000000   0.000001
    16  H    0.000403  -0.009622  -0.000098  -0.000103
    17  H    0.001021  -0.000107   0.000020  -0.004983
    18  Cl  -0.178944   0.005182  -0.022013   0.013502
    19  Cl  17.360181   0.000434  -0.232500   0.004952
    20  Cl   0.000434  17.344100   0.000069   0.000137
    21  Cl  -0.232500   0.000069  17.460679  -0.196527
    22  Cl   0.004952   0.000137  -0.196527  17.422445
 Mulliken charges:
               1
     1  C    0.571846
     2  C   -0.428023
     3  C   -0.272094
     4  C   -0.667246
     5  C    0.709465
     6  C   -1.331219
     7  C    0.068015
     8  C   -0.786042
     9  C   -0.233748
    10  C   -0.166049
    11  C   -0.459568
    12  C   -0.540934
    13  H    0.129900
    14  H    0.137829
    15  H    0.152315
    16  H    0.151930
    17  H    0.156739
    18  Cl   0.636754
    19  Cl   0.582276
    20  Cl   0.408859
    21  Cl   0.631969
    22  Cl   0.547025
 Sum of Mulliken charges =  -0.00000
 Mulliken charges with hydrogens summed into heavy atoms:
               1
     1  C    0.571846
     2  C   -0.298123
     3  C   -0.134265
     4  C   -0.514931
     5  C    0.709465
     6  C   -1.179289
     7  C    0.068015
     8  C   -0.629302
     9  C   -0.233748
    10  C   -0.166049
    11  C   -0.459568
    12  C   -0.540934
    18  Cl   0.636754
    19  Cl   0.582276
    20  Cl   0.408859
    21  Cl   0.631969
    22  Cl   0.547025
 Electronic spatial extent (au):  <R**2>=           7608.9046
 Charge=             -0.0000 electrons
 Dipole moment (field-independent basis, Debye):
    X=             -1.0992    Y=              1.6923    Z=             -1.2966  Tot=              2.3986
 Quadrupole moment (field-independent basis, Debye-Ang):
   XX=           -135.7610   YY=           -131.7133   ZZ=           -130.7567
   XY=             -5.0382   XZ=              5.7039   YZ=             -4.0831
 Traceless Quadrupole moment (field-independent basis, Debye-Ang):
   XX=             -3.0173   YY=              1.0304   ZZ=              1.9870
   XY=             -5.0382   XZ=              5.7039   YZ=             -4.0831
 Octapole moment (field-independent basis, Debye-Ang**2):
  XXX=             15.8578  YYY=            -14.4889  ZZZ=              2.0320  XYY=              3.8676
  XXY=              9.8376  XXZ=            -25.5035  XZZ=              1.0932  YZZ=              1.7417
  YYZ=             -3.2488  XYZ=             11.9187
 Hexadecapole moment (field-independent basis, Debye-Ang**3):
 XXXX=          -7213.4851 YYYY=          -2064.9021 ZZZZ=           -615.7846 XXXY=            -85.7345
 XXXZ=            127.4385 YYYX=             26.1963 YYYZ=             12.2356 ZZZX=             -8.1363
 ZZZY=            -17.0681 XXYY=          -1550.0309 XXZZ=          -1314.0895 YYZZ=           -447.1124
 XXYZ=            -45.1333 YYXZ=             15.7105 ZZXY=            -10.1870
 N-N= 1.706952690597D+03 E-N=-9.950495418944D+03  KE= 2.754120592950D+03
 1\1\GINC-LOCALHOST\FOpt\RB3LYP\6-311+G(d,p)\C12H5Cl5\GOUR\16-Mar-2022\
 0\\# opt b3lyp/6-311+g(d,p) scf=xqc\\Title Card Required\\0,1\C,0.0699
 497516,0.2843615256,-0.0365510373\C,1.0172013278,0.4994045967,-1.04306
 08538\C,1.7553215505,1.6804674276,-1.0728652514\C,1.5677234144,2.65769
 31047,-0.0995444798\C,0.6275581771,2.4317938157,0.9017298465\C,-0.1223
 472759,1.2630602173,0.9450479579\C,-0.6838206185,-1.0016873211,0.01317
 64966\C,0.0341214995,-2.1867094271,0.1803136792\C,-0.6012123305,-3.419
 5739996,0.2364210015\C,-1.9925273904,-3.5040351283,0.1256915825\C,-2.7
 327160582,-2.3234161204,-0.0515726323\C,-2.0790954341,-1.0833754038,-0
 .1101238138\H,1.1650509068,-0.2517762198,-1.8100148173\H,2.481343179,1
 .8438521165,-1.8607803952\H,2.1375906718,3.5777027174,-0.1137236865\H,
 -0.8431892265,1.1143935802,1.7381815194\H,1.109996638,-2.1443346709,0.
 285901384\Cl,-3.0101418516,0.3671193337,-0.3873145395\Cl,-4.4606715083
 ,-2.4092386838,-0.2102155889\Cl,0.3850896344,3.6497363529,2.1460123972
 \Cl,-2.7902713003,-5.0434073612,0.2040658142\Cl,0.3770935647,-4.847538
 6029,0.4566836306\\Version=EM64L-G16RevB.01\State=1-A\HF=-2761.5122825
 \RMSD=4.023e-09\RMSF=1.362e-05\Dipole=0.8098508,0.1689337,-0.4540574\Q
 uadrupole=3.5095262,-4.0718939,0.5623677,1.9565572,-4.2144422,-2.98904
 74\PG=C01 [X(C12H5Cl5)]\\@


 Make no judgements where you have no compassion.
                               -- Anne McCaffrey
 Job cpu time:       0 days 11 hours 26 minutes 37.2 seconds.
 Elapsed time:       0 days  2 hours 52 minutes  9.3 seconds.
 File lengths (MBytes):  RWF=    133 Int=      0 D2E=      0 Chk=     20 Scr=      1
 Normal termination of Gaussian 16 at Wed Mar 16 14:47:37 2022.
