 Entering Gaussian System, Link 0=g16
 Input=2,3,6-Trichlorobiphenyl.gjf
 Output=2,3,6-Trichlorobiphenyl.log
 Initial command:
 /usr/local/g16/l1.exe "/scratch/pkc/Gau-18344.inp" -scrdir="/scratch/pkc/"
 Entering Link 1 = /usr/local/g16/l1.exe PID=     18345.
  
 Copyright (c) 1988-2017, Gaussian, Inc.  All Rights Reserved.
  
 This is part of the Gaussian(R) 16 program.  It is based on
 the Gaussian(R) 09 system (copyright 2009, Gaussian, Inc.),
 the Gaussian(R) 03 system (copyright 2003, Gaussian, Inc.),
 the Gaussian(R) 98 system (copyright 1998, Gaussian, Inc.),
 the Gaussian(R) 94 system (copyright 1995, Gaussian, Inc.),
 the Gaussian 92(TM) system (copyright 1992, Gaussian, Inc.),
 the Gaussian 90(TM) system (copyright 1990, Gaussian, Inc.),
 the Gaussian 88(TM) system (copyright 1988, Gaussian, Inc.),
 the Gaussian 86(TM) system (copyright 1986, Carnegie Mellon
 University), and the Gaussian 82(TM) system (copyright 1983,
 Carnegie Mellon University). Gaussian is a federally registered
 trademark of Gaussian, Inc.
  
 This software contains proprietary and confidential information,
 including trade secrets, belonging to Gaussian, Inc.
  
 This software is provided under written license and may be
 used, copied, transmitted, or stored only in accord with that
 written license.
  
 The following legend is applicable only to US Government
 contracts under FAR:
  
                    RESTRICTED RIGHTS LEGEND
  
 Use, reproduction and disclosure by the US Government is
 subject to restrictions as set forth in subparagraphs (a)
 and (c) of the Commercial Computer Software - Restricted
 Rights clause in FAR 52.227-19.
  
 Gaussian, Inc.
 340 Quinnipiac St., Bldg. 40, Wallingford CT 06492
  
  
 ---------------------------------------------------------------
 Warning -- This program may not be used in any manner that
 competes with the business of Gaussian, Inc. or will provide
 assistance to any competitor of Gaussian, Inc.  The licensee
 of this program is prohibited from giving any competitor of
 Gaussian, Inc. access to this program.  By using this program,
 the user acknowledges that Gaussian, Inc. is engaged in the
 business of creating and licensing software in the field of
 computational chemistry and represents and warrants to the
 licensee that it is not a competitor of Gaussian, Inc. and that
 it will not use this program in any manner prohibited above.
 ---------------------------------------------------------------
  

 Cite this work as:
 Gaussian 16, Revision B.01,
 M. J. Frisch, G. W. Trucks, H. B. Schlegel, G. E. Scuseria, 
 M. A. Robb, J. R. Cheeseman, G. Scalmani, V. Barone, 
 G. A. Petersson, H. Nakatsuji, X. Li, M. Caricato, A. V. Marenich, 
 J. Bloino, B. G. Janesko, R. Gomperts, B. Mennucci, H. P. Hratchian, 
 J. V. Ortiz, A. F. Izmaylov, J. L. Sonnenberg, D. Williams-Young, 
 F. Ding, F. Lipparini, F. Egidi, J. Goings, B. Peng, A. Petrone, 
 T. Henderson, D. Ranasinghe, V. G. Zakrzewski, J. Gao, N. Rega, 
 G. Zheng, W. Liang, M. Hada, M. Ehara, K. Toyota, R. Fukuda, 
 J. Hasegawa, M. Ishida, T. Nakajima, Y. Honda, O. Kitao, H. Nakai, 
 T. Vreven, K. Throssell, J. A. Montgomery, Jr., J. E. Peralta, 
 F. Ogliaro, M. J. Bearpark, J. J. Heyd, E. N. Brothers, K. N. Kudin, 
 V. N. Staroverov, T. A. Keith, R. Kobayashi, J. Normand, 
 K. Raghavachari, A. P. Rendell, J. C. Burant, S. S. Iyengar, 
 J. Tomasi, M. Cossi, J. M. Millam, M. Klene, C. Adamo, R. Cammi, 
 J. W. Ochterski, R. L. Martin, K. Morokuma, O. Farkas, 
 J. B. Foresman, and D. J. Fox, Gaussian, Inc., Wallingford CT, 2016.
 
 ******************************************
 Gaussian 16:  EM64L-G16RevB.01 20-Dec-2017
                15-Mar-2022 
 ******************************************
 %mem=10GB
 %nprocshared=4
 Will use up to    4 processors via shared memory.
 --------------------------------
 # opt b3lyp/6-311+g(d,p) scf=xqc
 --------------------------------
 1/18=20,19=15,26=3,38=1/1,3;
 2/9=110,12=2,17=6,18=5,40=1/2;
 3/5=4,6=6,7=111,11=2,25=1,30=1,71=1,74=-5/1,2,3;
 4//1;
 5/5=2,8=3,13=1,38=5/2,8;
 6/7=2,8=2,9=2,10=2,28=1/1;
 7//1,2,3,16;
 1/18=20,19=15,26=3/3(2);
 2/9=110/2;
 99//99;
 2/9=110/2;
 3/5=4,6=6,7=111,11=2,25=1,30=1,71=1,74=-5/1,2,3;
 4/5=5,16=3,69=1/1;
 5/5=2,8=3,13=1,38=5/2,8;
 7//1,2,3,16;
 1/18=20,19=15,26=3/3(-5);
 2/9=110/2;
 6/7=2,8=2,9=2,10=2,19=2,28=1/1;
 99/9=1/99;
 -------------------
 Title Card Required
 -------------------
 Symbolic Z-matrix:
 Charge =  0 Multiplicity = 1
 C                    -0.40196   1.85669   0.26703 
 C                     0.93042   1.88658  -0.16632 
 C                     1.63832   3.09603  -0.17239 
 C                     1.01383   4.27559   0.25489 
 C                    -0.31855   4.24571   0.68823 
 C                    -1.02645   3.03626   0.6943 
 C                    -1.17986   0.52763   0.2737 
 C                    -0.55538  -0.65194  -0.15357 
 C                    -1.26327  -1.86139  -0.1475 
 C                    -2.59565  -1.89128   0.28585 
 C                    -3.22014  -0.71171   0.71313 
 C                    -2.51224   0.49774   0.70705 
 H                     1.40723   0.98595  -0.49255 
 H                     2.65562   3.11885  -0.50326 
 H                     1.55432   5.19904   0.25025 
 H                    -0.79536   5.14633   1.01446 
 H                    -2.04375   3.01344   1.02517 
 H                    -0.78646  -2.76201  -0.47373 
 H                    -3.13614  -2.81472   0.29049 
 Cl                   -3.29653   1.97914   1.24367 
 Cl                   -4.89345  -0.74925   1.25737 
 Cl                    1.11794  -0.61441  -0.6978 
 

 GradGradGradGradGradGradGradGradGradGradGradGradGradGradGradGradGradGrad
 Berny optimization.
 Initialization pass.
                           ----------------------------
                           !    Initial Parameters    !
                           ! (Angstroms and Degrees)  !
 --------------------------                            --------------------------
 ! Name  Definition              Value          Derivative Info.                !
 --------------------------------------------------------------------------------
 ! R1    R(1,2)                  1.4014         estimate D2E/DX2                !
 ! R2    R(1,6)                  1.4014         estimate D2E/DX2                !
 ! R3    R(1,7)                  1.54           estimate D2E/DX2                !
 ! R4    R(2,3)                  1.4014         estimate D2E/DX2                !
 ! R5    R(2,13)                 1.07           estimate D2E/DX2                !
 ! R6    R(3,4)                  1.4014         estimate D2E/DX2                !
 ! R7    R(3,14)                 1.07           estimate D2E/DX2                !
 ! R8    R(4,5)                  1.4014         estimate D2E/DX2                !
 ! R9    R(4,15)                 1.07           estimate D2E/DX2                !
 ! R10   R(5,6)                  1.4014         estimate D2E/DX2                !
 ! R11   R(5,16)                 1.07           estimate D2E/DX2                !
 ! R12   R(6,17)                 1.07           estimate D2E/DX2                !
 ! R13   R(7,8)                  1.4014         estimate D2E/DX2                !
 ! R14   R(7,12)                 1.4014         estimate D2E/DX2                !
 ! R15   R(8,9)                  1.4014         estimate D2E/DX2                !
 ! R16   R(8,22)                 1.76           estimate D2E/DX2                !
 ! R17   R(9,10)                 1.4014         estimate D2E/DX2                !
 ! R18   R(9,18)                 1.07           estimate D2E/DX2                !
 ! R19   R(10,11)                1.4014         estimate D2E/DX2                !
 ! R20   R(10,19)                1.07           estimate D2E/DX2                !
 ! R21   R(11,12)                1.4014         estimate D2E/DX2                !
 ! R22   R(11,21)                1.76           estimate D2E/DX2                !
 ! R23   R(12,20)                1.76           estimate D2E/DX2                !
 ! A1    A(2,1,6)              120.0            estimate D2E/DX2                !
 ! A2    A(2,1,7)              120.0            estimate D2E/DX2                !
 ! A3    A(6,1,7)              120.0            estimate D2E/DX2                !
 ! A4    A(1,2,3)              120.0            estimate D2E/DX2                !
 ! A5    A(1,2,13)             120.0            estimate D2E/DX2                !
 ! A6    A(3,2,13)             120.0            estimate D2E/DX2                !
 ! A7    A(2,3,4)              120.0            estimate D2E/DX2                !
 ! A8    A(2,3,14)             120.0            estimate D2E/DX2                !
 ! A9    A(4,3,14)             120.0            estimate D2E/DX2                !
 ! A10   A(3,4,5)              120.0            estimate D2E/DX2                !
 ! A11   A(3,4,15)             120.0            estimate D2E/DX2                !
 ! A12   A(5,4,15)             120.0            estimate D2E/DX2                !
 ! A13   A(4,5,6)              120.0            estimate D2E/DX2                !
 ! A14   A(4,5,16)             120.0            estimate D2E/DX2                !
 ! A15   A(6,5,16)             120.0            estimate D2E/DX2                !
 ! A16   A(1,6,5)              120.0            estimate D2E/DX2                !
 ! A17   A(1,6,17)             120.0            estimate D2E/DX2                !
 ! A18   A(5,6,17)             120.0            estimate D2E/DX2                !
 ! A19   A(1,7,8)              120.0            estimate D2E/DX2                !
 ! A20   A(1,7,12)             120.0            estimate D2E/DX2                !
 ! A21   A(8,7,12)             120.0            estimate D2E/DX2                !
 ! A22   A(7,8,9)              120.0            estimate D2E/DX2                !
 ! A23   A(7,8,22)             120.0            estimate D2E/DX2                !
 ! A24   A(9,8,22)             120.0            estimate D2E/DX2                !
 ! A25   A(8,9,10)             120.0            estimate D2E/DX2                !
 ! A26   A(8,9,18)             120.0            estimate D2E/DX2                !
 ! A27   A(10,9,18)            120.0            estimate D2E/DX2                !
 ! A28   A(9,10,11)            120.0            estimate D2E/DX2                !
 ! A29   A(9,10,19)            120.0            estimate D2E/DX2                !
 ! A30   A(11,10,19)           120.0            estimate D2E/DX2                !
 ! A31   A(10,11,12)           120.0            estimate D2E/DX2                !
 ! A32   A(10,11,21)           120.0            estimate D2E/DX2                !
 ! A33   A(12,11,21)           120.0            estimate D2E/DX2                !
 ! A34   A(7,12,11)            120.0            estimate D2E/DX2                !
 ! A35   A(7,12,20)            120.0            estimate D2E/DX2                !
 ! A36   A(11,12,20)           120.0            estimate D2E/DX2                !
 ! D1    D(6,1,2,3)              0.0001         estimate D2E/DX2                !
 ! D2    D(6,1,2,13)           180.0            estimate D2E/DX2                !
 ! D3    D(7,1,2,3)           -180.0            estimate D2E/DX2                !
 ! D4    D(7,1,2,13)            -0.0001         estimate D2E/DX2                !
 ! D5    D(2,1,6,5)             -0.0001         estimate D2E/DX2                !
 ! D6    D(2,1,6,17)           180.0            estimate D2E/DX2                !
 ! D7    D(7,1,6,5)            180.0            estimate D2E/DX2                !
 ! D8    D(7,1,6,17)             0.0            estimate D2E/DX2                !
 ! D9    D(2,1,7,8)             -0.0001         estimate D2E/DX2                !
 ! D10   D(2,1,7,12)           179.9998         estimate D2E/DX2                !
 ! D11   D(6,1,7,8)            179.9999         estimate D2E/DX2                !
 ! D12   D(6,1,7,12)            -0.0002         estimate D2E/DX2                !
 ! D13   D(1,2,3,4)              0.0            estimate D2E/DX2                !
 ! D14   D(1,2,3,14)           180.0            estimate D2E/DX2                !
 ! D15   D(13,2,3,4)          -179.9999         estimate D2E/DX2                !
 ! D16   D(13,2,3,14)            0.0001         estimate D2E/DX2                !
 ! D17   D(2,3,4,5)             -0.0001         estimate D2E/DX2                !
 ! D18   D(2,3,4,15)           180.0            estimate D2E/DX2                !
 ! D19   D(14,3,4,5)           179.9999         estimate D2E/DX2                !
 ! D20   D(14,3,4,15)            0.0            estimate D2E/DX2                !
 ! D21   D(3,4,5,6)              0.0001         estimate D2E/DX2                !
 ! D22   D(3,4,5,16)          -179.9999         estimate D2E/DX2                !
 ! D23   D(15,4,5,6)          -180.0            estimate D2E/DX2                !
 ! D24   D(15,4,5,16)            0.0            estimate D2E/DX2                !
 ! D25   D(4,5,6,1)              0.0            estimate D2E/DX2                !
 ! D26   D(4,5,6,17)           179.9999         estimate D2E/DX2                !
 ! D27   D(16,5,6,1)           180.0            estimate D2E/DX2                !
 ! D28   D(16,5,6,17)           -0.0001         estimate D2E/DX2                !
 ! D29   D(1,7,8,9)            179.9999         estimate D2E/DX2                !
 ! D30   D(1,7,8,22)             0.0001         estimate D2E/DX2                !
 ! D31   D(12,7,8,9)             0.0001         estimate D2E/DX2                !
 ! D32   D(12,7,8,22)         -179.9998         estimate D2E/DX2                !
 ! D33   D(1,7,12,11)         -179.9999         estimate D2E/DX2                !
 ! D34   D(1,7,12,20)            0.0            estimate D2E/DX2                !
 ! D35   D(8,7,12,11)           -0.0001         estimate D2E/DX2                !
 ! D36   D(8,7,12,20)          179.9999         estimate D2E/DX2                !
 ! D37   D(7,8,9,10)             0.0            estimate D2E/DX2                !
 ! D38   D(7,8,9,18)           180.0            estimate D2E/DX2                !
 ! D39   D(22,8,9,10)          179.9998         estimate D2E/DX2                !
 ! D40   D(22,8,9,18)           -0.0002         estimate D2E/DX2                !
 ! D41   D(8,9,10,11)            0.0            estimate D2E/DX2                !
 ! D42   D(8,9,10,19)         -179.9999         estimate D2E/DX2                !
 ! D43   D(18,9,10,11)         180.0            estimate D2E/DX2                !
 ! D44   D(18,9,10,19)           0.0001         estimate D2E/DX2                !
 ! D45   D(9,10,11,12)           0.0            estimate D2E/DX2                !
 ! D46   D(9,10,11,21)        -179.9998         estimate D2E/DX2                !
 ! D47   D(19,10,11,12)        179.9999         estimate D2E/DX2                !
 ! D48   D(19,10,11,21)          0.0001         estimate D2E/DX2                !
 ! D49   D(10,11,12,7)           0.0            estimate D2E/DX2                !
 ! D50   D(10,11,12,20)       -179.9999         estimate D2E/DX2                !
 ! D51   D(21,11,12,7)         179.9999         estimate D2E/DX2                !
 ! D52   D(21,11,12,20)         -0.0001         estimate D2E/DX2                !
 --------------------------------------------------------------------------------
 Trust Radius=3.00D-01 FncErr=1.00D-07 GrdErr=1.00D-06 EigMax=2.50D+02 EigMin=1.00D-04
 Number of steps in this run=    121 maximum allowed number of steps=    132.
 GradGradGradGradGradGradGradGradGradGradGradGradGradGradGradGradGradGrad

                          Input orientation:                          
 ---------------------------------------------------------------------
 Center     Atomic      Atomic             Coordinates (Angstroms)
 Number     Number       Type             X           Y           Z
 ---------------------------------------------------------------------
      1          6           0       -0.401959    1.856693    0.267030
      2          6           0        0.930422    1.886579   -0.166316
      3          6           0        1.638316    3.096030   -0.172388
      4          6           0        1.013828    4.275595    0.254886
      5          6           0       -0.318553    4.245709    0.688231
      6          6           0       -1.026447    3.036258    0.694303
      7          6           0       -1.179864    0.527626    0.273704
      8          6           0       -0.555376   -0.651939   -0.153571
      9          6           0       -1.263269   -1.861391   -0.147496
     10          6           0       -2.595649   -1.891277    0.285854
     11          6           0       -3.220137   -0.711712    0.713129
     12          6           0       -2.512244    0.497739    0.707055
     13          1           0        1.407233    0.985954   -0.492548
     14          1           0        2.655619    3.118848   -0.503258
     15          1           0        1.554321    5.199038    0.250250
     16          1           0       -0.795364    5.146334    1.014463
     17          1           0       -2.043750    3.013440    1.025173
     18          1           0       -0.786459   -2.762015   -0.473730
     19          1           0       -3.136141   -2.814720    0.290493
     20         17           0       -3.296528    1.979139    1.243666
     21         17           0       -4.893454   -0.749247    1.257371
     22         17           0        1.117944   -0.614406   -0.697805
 ---------------------------------------------------------------------
                    Distance matrix (angstroms):
                    1          2          3          4          5
     1  C    0.000000
     2  C    1.401400   0.000000
     3  C    2.427296   1.401400   0.000000
     4  C    2.802800   2.427296   1.401400   0.000000
     5  C    2.427296   2.802800   2.427296   1.401400   0.000000
     6  C    1.401400   2.427296   2.802800   2.427296   1.401400
     7  C    1.540000   2.548270   3.838989   4.342800   3.838989
     8  C    2.548270   2.941400   4.342800   5.187469   4.975106
     9  C    3.838989   4.342800   5.744200   6.558176   6.235992
    10  C    4.342800   5.187469   6.558176   7.145600   6.558176
    11  C    3.838989   4.975106   6.235992   6.558176   5.744200
    12  C    2.548270   3.813607   4.975106   5.187469   4.342800
    13  H    2.146700   1.070000   2.146700   3.396345   3.872800
    14  H    3.396345   2.146700   1.070000   2.146700   3.396345
    15  H    3.872800   3.396345   2.146700   1.070000   2.146700
    16  H    3.396345   3.872800   3.396345   2.146700   1.070000
    17  H    2.146700   3.396345   3.872800   3.396345   2.146700
    18  H    4.693509   4.965039   6.347206   7.300676   7.118798
    19  H    5.412800   6.232802   7.612271   8.215600   7.612271
    20  Cl   3.057342   4.456874   5.254079   4.983028   3.783409
    21  Cl   5.286324   6.549198   7.713260   7.819846   6.797295
    22  Cl   3.057342   2.563702   3.783409   4.983028   5.254079
                    6          7          8          9         10
     6  C    0.000000
     7  C    2.548270   0.000000
     8  C    3.813607   1.401400   0.000000
     9  C    4.975106   2.427296   1.401400   0.000000
    10  C    5.187469   2.802800   2.427296   1.401400   0.000000
    11  C    4.342800   2.427296   2.802800   2.427296   1.401400
    12  C    2.941400   1.401400   2.427296   2.802800   2.427296
    13  H    3.396345   2.736837   2.578650   3.918930   4.990735
    14  H    3.872800   4.693509   4.965039   6.347206   7.300676
    15  H    3.396345   5.412800   6.232802   7.612271   8.215600
    16  H    2.146700   4.693509   5.919617   7.118798   7.300676
    17  H    1.070000   2.736837   4.127917   5.074276   4.990735
    18  H    5.919617   3.396345   2.146700   1.070000   2.146700
    19  H    6.232802   3.872800   3.396345   2.146700   1.070000
    20  Cl   2.563702   2.743718   4.048303   4.562800   4.048303
    21  Cl   5.440665   4.048303   4.562800   4.048303   2.743718
    22  Cl   4.456874   2.743718   1.760000   2.743718   4.048303
                   11         12         13         14         15
    11  C    0.000000
    12  C    1.401400   0.000000
    13  H    5.074276   4.127917   0.000000
    14  H    7.118798   5.919617   2.471400   0.000000
    15  H    7.612271   6.232802   4.280590   2.471400   0.000000
    16  H    6.347206   4.965039   4.942800   4.280590   2.471400
    17  H    3.918930   2.578650   4.280590   4.942800   4.280590
    18  H    3.396345   3.872800   4.342800   6.814200   8.329571
    19  H    2.146700   3.396345   5.974992   8.329571   9.285600
    20  Cl   2.743718   1.760000   5.111382   6.307038   5.906383
    21  Cl   1.760000   2.743718   6.765486   8.663168   8.830073
    22  Cl   4.562800   4.048303   1.639199   4.042212   5.906383
                   16         17         18         19         20
    16  H    0.000000
    17  H    2.471400   0.000000
    18  H    8.047159   6.097816   0.000000
    19  H    8.329571   5.974992   2.471400   0.000000
    20  Cl   4.042212   1.639199   5.632800   4.890332   0.000000
    21  Cl   7.184095   4.725732   4.890332   2.879094   3.161400
    22  Cl   6.307038   5.111382   2.879094   4.890332   5.475705
                   21         22
    21  Cl   0.000000
    22  Cl   6.322800   0.000000
 Stoichiometry    C12H7Cl3
 Framework group  C1[X(C12H7Cl3)]
 Deg. of freedom    60
 Full point group                 C1      NOp   1
 Largest Abelian subgroup         C1      NOp   1
 Largest concise Abelian subgroup C1      NOp   1
                         Standard orientation:                         
 ---------------------------------------------------------------------
 Center     Atomic      Atomic             Coordinates (Angstroms)
 Number     Number       Type             X           Y           Z
 ---------------------------------------------------------------------
      1          6           0        1.389262   -0.275671    0.000002
      2          6           0        2.539717    0.524562   -0.000001
      3          6           0        3.807968   -0.071644   -0.000003
      4          6           0        3.925763   -1.468085   -0.000003
      5          6           0        2.775307   -2.268319    0.000002
      6          6           0        1.507057   -1.672112    0.000004
      7          6           0       -0.004420    0.379501    0.000003
      8          6           0       -0.122216    1.775941    0.000003
      9          6           0       -1.390466    2.372148    0.000002
     10          6           0       -2.540922    1.571914    0.000002
     11          6           0       -2.423126    0.175473    0.000002
     12          6           0       -1.154876   -0.420733    0.000002
     13          1           0        2.449778    1.590776   -0.000004
     14          1           0        4.686366    0.539352   -0.000006
     15          1           0        4.894100   -1.923302   -0.000005
     16          1           0        2.865247   -3.334532    0.000005
     17          1           0        0.628659   -2.283108    0.000007
     18          1           0       -1.480405    3.438361    0.000002
     19          1           0       -3.509259    2.027131    0.000000
     20         17           0       -1.006938   -2.174505   -0.000000
     21         17           0       -3.867968   -0.829530   -0.000003
     22         17           0        1.322626    2.780945   -0.000001
 ---------------------------------------------------------------------
 Rotational constants (GHZ):           0.6633249           0.3454634           0.2271581
 Standard basis: 6-311+G(d,p) (5D, 7F)
 There are   411 symmetry adapted cartesian basis functions of A   symmetry.
 There are   396 symmetry adapted basis functions of A   symmetry.
   396 basis functions,   647 primitive gaussians,   411 cartesian basis functions
    65 alpha electrons       65 beta electrons
       nuclear repulsion energy      1248.5561629780 Hartrees.
 NAtoms=   22 NActive=   22 NUniq=   22 SFac= 1.00D+00 NAtFMM=   60 NAOKFM=F Big=F
 Integral buffers will be    131072 words long.
 Raffenetti 2 integral format.
 Two-electron integral symmetry is turned on.
 One-electron integrals computed using PRISM.
 NBasis=   396 RedAO= T EigKep=  1.24D-06  NBF=   396
 NBsUse=   391 1.00D-06 EigRej=  6.51D-07 NBFU=   391
 ExpMin= 4.38D-02 ExpMax= 1.06D+05 ExpMxC= 3.62D+03 IAcc=3 IRadAn=         5 AccDes= 0.00D+00
 Harris functional with IExCor=  402 and IRadAn=       5 diagonalized for initial guess.
 HarFok:  IExCor=  402 AccDes= 0.00D+00 IRadAn=         5 IDoV= 1 UseB2=F ITyADJ=14
 ICtDFT=  3500011 ScaDFX=  1.000000  1.000000  1.000000  1.000000
 FoFCou: FMM=F IPFlag=           0 FMFlag=      100000 FMFlg1=           0
         NFxFlg=           0 DoJE=T BraDBF=F KetDBF=T FulRan=T
         wScrn=  0.000000 ICntrl=       500 IOpCl=  0 I1Cent=   200000004 NGrid=           0
         NMat0=    1 NMatS0=      1 NMatT0=    0 NMatD0=    1 NMtDS0=    0 NMtDT0=    0
 Petite list used in FoFCou.
 Requested convergence on RMS density matrix=1.00D-08 within  32 cycles.
 Requested convergence on MAX density matrix=1.00D-06.
 Requested convergence on             energy=1.00D-06.
 No special actions if energy rises.
 SCF Done:  E(RB3LYP) =  -1842.15706384     A.U. after   16 cycles
            NFock= 16  Conv=0.56D-08     -V/T= 2.0025
 QCSCF skips out because SCF is already converged.

 **********************************************************************

            Population analysis using the SCF Density.

 **********************************************************************

 Orbital symmetries:
       Occupied  (A) (A) (A) (A) (A) (A) (A) (A) (A) (A) (A) (A)
                 (A) (A) (A) (A) (A) (A) (A) (A) (A) (A) (A) (A)
                 (A) (A) (A) (A) (A) (A) (A) (A) (A) (A) (A) (A)
                 (A) (A) (A) (A) (A) (A) (A) (A) (A) (A) (A) (A)
                 (A) (A) (A) (A) (A) (A) (A) (A) (A) (A) (A) (A)
                 (A) (A) (A) (A) (A)
       Virtual   (A) (A) (A) (A) (A) (A) (A) (A) (A) (A) (A) (A)
                 (A) (A) (A) (A) (A) (A) (A) (A) (A) (A) (A) (A)
                 (A) (A) (A) (A) (A) (A) (A) (A) (A) (A) (A) (A)
                 (A) (A) (A) (A) (A) (A) (A) (A) (A) (A) (A) (A)
                 (A) (A) (A) (A) (A) (A) (A) (A) (A) (A) (A) (A)
                 (A) (A) (A) (A) (A) (A) (A) (A) (A) (A) (A) (A)
                 (A) (A) (A) (A) (A) (A) (A) (A) (A) (A) (A) (A)
                 (A) (A) (A) (A) (A) (A) (A) (A) (A) (A) (A) (A)
                 (A) (A) (A) (A) (A) (A) (A) (A) (A) (A) (A) (A)
                 (A) (A) (A) (A) (A) (A) (A) (A) (A) (A) (A) (A)
                 (A) (A) (A) (A) (A) (A) (A) (A) (A) (A) (A) (A)
                 (A) (A) (A) (A) (A) (A) (A) (A) (A) (A) (A) (A)
                 (A) (A) (A) (A) (A) (A) (A) (A) (A) (A) (A) (A)
                 (A) (A) (A) (A) (A) (A) (A) (A) (A) (A) (A) (A)
                 (A) (A) (A) (A) (A) (A) (A) (A) (A) (A) (A) (A)
                 (A) (A) (A) (A) (A) (A) (A) (A) (A) (A) (A) (A)
                 (A) (A) (A) (A) (A) (A) (A) (A) (A) (A) (A) (A)
                 (A) (A) (A) (A) (A) (A) (A) (A) (A) (A) (A) (A)
                 (A) (A) (A) (A) (A) (A) (A) (A) (A) (A) (A) (A)
                 (A) (A) (A) (A) (A) (A) (A) (A) (A) (A) (A) (A)
                 (A) (A) (A) (A) (A) (A) (A) (A) (A) (A) (A) (A)
                 (A) (A) (A) (A) (A) (A) (A) (A) (A) (A) (A) (A)
                 (A) (A) (A) (A) (A) (A) (A) (A) (A) (A) (A) (A)
                 (A) (A) (A) (A) (A) (A) (A) (A) (A) (A) (A) (A)
                 (A) (A) (A) (A) (A) (A) (A) (A) (A) (A) (A) (A)
                 (A) (A) (A) (A) (A) (A) (A) (A) (A) (A) (A) (A)
                 (A) (A) (A) (A) (A) (A) (A) (A) (A) (A) (A) (A)
                 (A) (A)
 The electronic state is 1-A.
 Alpha  occ. eigenvalues -- -101.57411-101.57334-101.57213 -10.27280 -10.27101
 Alpha  occ. eigenvalues --  -10.26796 -10.23408 -10.21765 -10.21657 -10.19980
 Alpha  occ. eigenvalues --  -10.17649 -10.17418 -10.17388 -10.15926 -10.15846
 Alpha  occ. eigenvalues --   -9.49189  -9.49120  -9.48641  -7.25597  -7.25544
 Alpha  occ. eigenvalues --   -7.25132  -7.24640  -7.24621  -7.24574  -7.24527
 Alpha  occ. eigenvalues --   -7.24123  -7.24063  -0.94663  -0.91407  -0.88684
 Alpha  occ. eigenvalues --   -0.85355  -0.84797  -0.79217  -0.75739  -0.74514
 Alpha  occ. eigenvalues --   -0.74023  -0.65154  -0.63163  -0.61862  -0.60213
 Alpha  occ. eigenvalues --   -0.54223  -0.53606  -0.52147  -0.48492  -0.48318
 Alpha  occ. eigenvalues --   -0.47662  -0.44989  -0.44910  -0.44664  -0.44471
 Alpha  occ. eigenvalues --   -0.40918  -0.40767  -0.39846  -0.37912  -0.37758
 Alpha  occ. eigenvalues --   -0.37421  -0.36004  -0.33851  -0.33374  -0.30050
 Alpha  occ. eigenvalues --   -0.28399  -0.27038  -0.26907  -0.25300  -0.24531
 Alpha virt. eigenvalues --   -0.06276  -0.05349  -0.03712  -0.01523  -0.00814
 Alpha virt. eigenvalues --   -0.00111   0.00149   0.01214   0.01665   0.02367
 Alpha virt. eigenvalues --    0.02806   0.03988   0.04710   0.04952   0.05470
 Alpha virt. eigenvalues --    0.05957   0.06049   0.06804   0.06890   0.08184
 Alpha virt. eigenvalues --    0.08264   0.09075   0.09123   0.09419   0.09716
 Alpha virt. eigenvalues --    0.10897   0.11290   0.11749   0.12382   0.12860
 Alpha virt. eigenvalues --    0.12930   0.13157   0.13878   0.14129   0.14783
 Alpha virt. eigenvalues --    0.14856   0.15518   0.16309   0.16533   0.17049
 Alpha virt. eigenvalues --    0.17402   0.17827   0.17948   0.17971   0.18096
 Alpha virt. eigenvalues --    0.18565   0.19180   0.19954   0.20198   0.20850
 Alpha virt. eigenvalues --    0.20856   0.21500   0.21657   0.22491   0.22531
 Alpha virt. eigenvalues --    0.23111   0.23370   0.23674   0.23973   0.24811
 Alpha virt. eigenvalues --    0.25041   0.25586   0.26322   0.26769   0.27227
 Alpha virt. eigenvalues --    0.27608   0.28763   0.29206   0.29685   0.30762
 Alpha virt. eigenvalues --    0.31458   0.31559   0.32008   0.33276   0.33416
 Alpha virt. eigenvalues --    0.33985   0.35061   0.36255   0.36631   0.39563
 Alpha virt. eigenvalues --    0.41335   0.41614   0.43213   0.43316   0.44116
 Alpha virt. eigenvalues --    0.44557   0.45941   0.46871   0.47071   0.47268
 Alpha virt. eigenvalues --    0.50098   0.51040   0.51629   0.51958   0.53060
 Alpha virt. eigenvalues --    0.53814   0.54365   0.54865   0.55160   0.55860
 Alpha virt. eigenvalues --    0.57195   0.57832   0.57912   0.59200   0.59421
 Alpha virt. eigenvalues --    0.59798   0.60880   0.61328   0.62740   0.64011
 Alpha virt. eigenvalues --    0.64491   0.65067   0.65082   0.65629   0.66904
 Alpha virt. eigenvalues --    0.67699   0.69539   0.69665   0.70130   0.71129
 Alpha virt. eigenvalues --    0.73675   0.74943   0.77620   0.78948   0.79864
 Alpha virt. eigenvalues --    0.80265   0.81844   0.82474   0.82855   0.83622
 Alpha virt. eigenvalues --    0.83653   0.84197   0.84717   0.85043   0.86007
 Alpha virt. eigenvalues --    0.86470   0.86799   0.87364   0.89522   0.90100
 Alpha virt. eigenvalues --    0.90432   0.90603   0.93346   0.93641   0.94300
 Alpha virt. eigenvalues --    0.94810   0.95416   0.95611   0.96322   0.96758
 Alpha virt. eigenvalues --    0.98747   0.99246   0.99857   1.00775   1.01428
 Alpha virt. eigenvalues --    1.02692   1.03888   1.06270   1.08892   1.09402
 Alpha virt. eigenvalues --    1.10169   1.11831   1.13372   1.14411   1.14603
 Alpha virt. eigenvalues --    1.14853   1.19431   1.21658   1.22867   1.25414
 Alpha virt. eigenvalues --    1.26759   1.28684   1.29029   1.32476   1.33060
 Alpha virt. eigenvalues --    1.35582   1.36815   1.40532   1.45265   1.47347
 Alpha virt. eigenvalues --    1.48727   1.50619   1.51172   1.52347   1.55355
 Alpha virt. eigenvalues --    1.56311   1.56465   1.56963   1.59565   1.60565
 Alpha virt. eigenvalues --    1.62675   1.65015   1.66458   1.66843   1.67210
 Alpha virt. eigenvalues --    1.69999   1.72645   1.75129   1.75379   1.79109
 Alpha virt. eigenvalues --    1.79766   1.83623   1.83931   1.85156   1.86254
 Alpha virt. eigenvalues --    1.86657   1.88054   1.88857   1.89754   1.92383
 Alpha virt. eigenvalues --    1.94164   1.95177   1.95250   1.96638   1.97145
 Alpha virt. eigenvalues --    1.97207   2.01232   2.06107   2.07335   2.08217
 Alpha virt. eigenvalues --    2.08499   2.08867   2.13678   2.13752   2.21966
 Alpha virt. eigenvalues --    2.23171   2.23473   2.26199   2.26405   2.27905
 Alpha virt. eigenvalues --    2.28500   2.34719   2.36897   2.36982   2.37109
 Alpha virt. eigenvalues --    2.40160   2.41372   2.42669   2.44380   2.45425
 Alpha virt. eigenvalues --    2.48876   2.51978   2.53050   2.54878   2.58478
 Alpha virt. eigenvalues --    2.60656   2.65707   2.66195   2.67055   2.68062
 Alpha virt. eigenvalues --    2.70334   2.71149   2.72294   2.73354   2.73821
 Alpha virt. eigenvalues --    2.74441   2.75149   2.75449   2.77514   2.78512
 Alpha virt. eigenvalues --    2.80682   2.81461   2.81981   2.84488   2.84648
 Alpha virt. eigenvalues --    2.87377   2.92653   2.93921   2.94628   3.03863
 Alpha virt. eigenvalues --    3.05438   3.08882   3.08945   3.12874   3.14865
 Alpha virt. eigenvalues --    3.17396   3.20873   3.22271   3.26757   3.34585
 Alpha virt. eigenvalues --    3.37495   3.38059   3.40590   3.53963   3.54173
 Alpha virt. eigenvalues --    3.56085   3.63468   3.67550   3.71396   3.84848
 Alpha virt. eigenvalues --    3.99590   4.03912   4.05899   4.06315   4.18553
 Alpha virt. eigenvalues --    4.23827   4.46827   4.79765   4.85439   9.77431
 Alpha virt. eigenvalues --    9.85947   9.87463  23.38166  23.66839  23.81665
 Alpha virt. eigenvalues --   23.87389  23.92869  23.96639  23.99324  23.99863
 Alpha virt. eigenvalues --   24.07101  24.09049  24.09846  24.18904  25.78372
 Alpha virt. eigenvalues --   25.84016  25.88148  26.14557  26.48027  26.63736
 Alpha virt. eigenvalues --   26.72112  26.78309  26.89825 215.76787 215.88134
 Alpha virt. eigenvalues --  215.89734
          Condensed to atoms (all electrons):
               1          2          3          4          5          6
     1  C   18.657809  -1.192120  -1.728614  -1.126302  -1.830565  -0.533578
     2  C   -1.192120  17.387267  -0.285892  -0.748577   0.264684  -9.766655
     3  C   -1.728614  -0.285892  10.233192   1.106613  -1.509164   0.242951
     4  C   -1.126302  -0.748577   1.106613   6.048438   1.147733   0.033173
     5  C   -1.830565   0.264684  -1.509164   1.147733   9.380434   0.821053
     6  C   -0.533578  -9.766655   0.242951   0.033173   0.821053  21.292760
     7  C    7.511408  -2.817446  -1.498041  -0.611897  -0.766010   1.539397
     8  C   -4.209311   7.330760   0.547230  -0.131612  -1.201749  -9.070523
     9  C   -4.579078   0.169821   0.186274   0.016399  -0.189496  -0.816004
    10  C    0.283601   1.174402   0.197016   0.043145   0.063687  -0.165600
    11  C   -3.027515  -0.753112  -0.289896  -0.053068   0.109288  -0.697866
    12  C   -3.636814  -4.070588  -0.656592   0.083579   0.275316   5.034768
    13  H   -0.333379   0.502845   0.168346   0.026856  -0.056708  -0.009607
    14  H    0.072281  -0.001133   0.308836  -0.023266   0.004526  -0.016361
    15  H    0.029892   0.031807  -0.074703   0.383668  -0.067544   0.023424
    16  H    0.055431  -0.020963   0.002371  -0.016490   0.317167  -0.006869
    17  H   -0.392114  -0.076355  -0.047955   0.047083   0.212255   0.722056
    18  H    0.013238   0.008530   0.000241   0.000041   0.000180  -0.000286
    19  H    0.000276  -0.000721  -0.000009   0.000015   0.000016   0.001161
    20  Cl   1.182832   0.724173   0.093491  -0.106430  -0.882690  -2.427737
    21  Cl  -0.279950  -0.096977  -0.008864  -0.000497   0.018451   0.107786
    22  Cl   1.001030  -1.310182  -0.744001  -0.054815   0.114561   0.349713
               7          8          9         10         11         12
     1  C    7.511408  -4.209311  -4.579078   0.283601  -3.027515  -3.636814
     2  C   -2.817446   7.330760   0.169821   1.174402  -0.753112  -4.070588
     3  C   -1.498041   0.547230   0.186274   0.197016  -0.289896  -0.656592
     4  C   -0.611897  -0.131612   0.016399   0.043145  -0.053068   0.083579
     5  C   -0.766010  -1.201749  -0.189496   0.063687   0.109288   0.275316
     6  C    1.539397  -9.070523  -0.816004  -0.165600  -0.697866   5.034768
     7  C   19.980241  -5.628060  -6.444073   1.853022  -5.820393  -0.657198
     8  C   -5.628060  21.278707  -0.252455  -2.651530   2.684832  -2.474433
     9  C   -6.444073  -0.252455  15.052902   0.843831  -0.218160   1.375206
    10  C    1.853022  -2.651530   0.843831  14.585803  -6.246919  -3.086012
    11  C   -5.820393   2.684832  -0.218160  -6.246919  17.110813   2.487257
    12  C   -0.657198  -2.474433   1.375206  -3.086012   2.487257  12.778678
    13  H   -0.111162   0.101865   0.134260   0.034930  -0.000235   0.006628
    14  H    0.004399  -0.001859  -0.001889  -0.000092  -0.000139   0.001438
    15  H    0.014046   0.002006   0.000161  -0.000066   0.000142   0.000727
    16  H    0.010994   0.001861   0.000349   0.000076   0.000199   0.003169
    17  H   -0.102450  -0.078679  -0.005848  -0.001347   0.019697   0.187648
    18  H    0.080602   0.008561   0.339140  -0.010868  -0.057952  -0.012205
    19  H    0.011465   0.026333  -0.080138   0.365230   0.007028   0.017440
    20  Cl  -0.017552   1.012259   0.385762   0.424540  -0.070452  -1.930787
    21  Cl  -0.663290  -0.011109   0.207690  -0.530800  -0.006697   0.640584
    22  Cl   0.519343  -1.247571  -0.155248  -0.359562   0.243920   0.208076
              13         14         15         16         17         18
     1  C   -0.333379   0.072281   0.029892   0.055431  -0.392114   0.013238
     2  C    0.502845  -0.001133   0.031807  -0.020963  -0.076355   0.008530
     3  C    0.168346   0.308836  -0.074703   0.002371  -0.047955   0.000241
     4  C    0.026856  -0.023266   0.383668  -0.016490   0.047083   0.000041
     5  C   -0.056708   0.004526  -0.067544   0.317167   0.212255   0.000180
     6  C   -0.009607  -0.016361   0.023424  -0.006869   0.722056  -0.000286
     7  C   -0.111162   0.004399   0.014046   0.010994  -0.102450   0.080602
     8  C    0.101865  -0.001859   0.002006   0.001861  -0.078679   0.008561
     9  C    0.134260  -0.001889   0.000161   0.000349  -0.005848   0.339140
    10  C    0.034930  -0.000092  -0.000066   0.000076  -0.001347  -0.010868
    11  C   -0.000235  -0.000139   0.000142   0.000199   0.019697  -0.057952
    12  C    0.006628   0.001438   0.000727   0.003169   0.187648  -0.012205
    13  H    0.733135  -0.014328  -0.000586   0.000176  -0.000484   0.000038
    14  H   -0.014328   0.553262  -0.007121  -0.000365   0.000170   0.000000
    15  H   -0.000586  -0.007121   0.549187  -0.007096  -0.000582  -0.000000
    16  H    0.000176  -0.000365  -0.007096   0.553363  -0.014625   0.000000
    17  H   -0.000484   0.000170  -0.000582  -0.014625   0.739702  -0.000000
    18  H    0.000038   0.000000  -0.000000   0.000000  -0.000000   0.506003
    19  H   -0.000005  -0.000000   0.000000  -0.000000   0.000003  -0.007545
    20  Cl   0.002890  -0.000330   0.000529   0.004162  -0.332693   0.000737
    21  Cl   0.000084  -0.000001   0.000000  -0.000005   0.006088  -0.000354
    22  Cl  -0.304842   0.004497   0.000620  -0.000354   0.003215  -0.020708
              19         20         21         22
     1  C    0.000276   1.182832  -0.279950   1.001030
     2  C   -0.000721   0.724173  -0.096977  -1.310182
     3  C   -0.000009   0.093491  -0.008864  -0.744001
     4  C    0.000015  -0.106430  -0.000497  -0.054815
     5  C    0.000016  -0.882690   0.018451   0.114561
     6  C    0.001161  -2.427737   0.107786   0.349713
     7  C    0.011465  -0.017552  -0.663290   0.519343
     8  C    0.026333   1.012259  -0.011109  -1.247571
     9  C   -0.080138   0.385762   0.207690  -0.155248
    10  C    0.365230   0.424540  -0.530800  -0.359562
    11  C    0.007028  -0.070452  -0.006697   0.243920
    12  C    0.017440  -1.930787   0.640584   0.208076
    13  H   -0.000005   0.002890   0.000084  -0.304842
    14  H   -0.000000  -0.000330  -0.000001   0.004497
    15  H    0.000000   0.000529   0.000000   0.000620
    16  H   -0.000000   0.004162  -0.000005  -0.000354
    17  H    0.000003  -0.332693   0.006088   0.003215
    18  H   -0.007545   0.000737  -0.000354  -0.020708
    19  H    0.503051   0.000386  -0.002953   0.002703
    20  Cl   0.000386  18.491475  -0.227629  -0.042198
    21  Cl  -0.002953  -0.227629  17.323849  -0.003693
    22  Cl   0.002703  -0.042198  -0.003693  18.152183
 Mulliken charges:
               1
     1  C    0.061545
     2  C   -0.453568
     3  C   -0.242831
     4  C   -0.063790
     5  C   -0.225425
     6  C   -0.657157
     7  C   -0.387347
     8  C   -0.035525
     9  C    0.030592
    10  C   -0.816487
    11  C    0.579229
    12  C   -0.575885
    13  H    0.119284
    14  H    0.117475
    15  H    0.121488
    16  H    0.117449
    17  H    0.115215
    18  H    0.152608
    19  H    0.156266
    20  Cl   0.715263
    21  Cl   0.528287
    22  Cl   0.643313
 Sum of Mulliken charges =  -0.00000
 Mulliken charges with hydrogens summed into heavy atoms:
               1
     1  C    0.061545
     2  C   -0.334285
     3  C   -0.125356
     4  C    0.057698
     5  C   -0.107976
     6  C   -0.541941
     7  C   -0.387347
     8  C   -0.035525
     9  C    0.183200
    10  C   -0.660221
    11  C    0.579229
    12  C   -0.575885
    20  Cl   0.715263
    21  Cl   0.528287
    22  Cl   0.643313
 Electronic spatial extent (au):  <R**2>=           4356.4580
 Charge=             -0.0000 electrons
 Dipole moment (field-independent basis, Debye):
    X=             -0.0990    Y=              1.2686    Z=             -0.0000  Tot=              1.2724
 Quadrupole moment (field-independent basis, Debye-Ang):
   XX=           -103.0564   YY=            -99.7163   ZZ=           -112.5911
   XY=             -5.2872   XZ=             -0.0000   YZ=             -0.0000
 Traceless Quadrupole moment (field-independent basis, Debye-Ang):
   XX=              2.0649   YY=              5.4050   ZZ=             -7.4698
   XY=             -5.2872   XZ=             -0.0000   YZ=             -0.0000
 Octapole moment (field-independent basis, Debye-Ang**2):
  XXX=             11.2205  YYY=             -8.3139  ZZZ=             -0.0000  XYY=             -7.3948
  XXY=             14.9384  XXZ=             -0.0001  XZZ=            -12.7084  YZZ=              0.2741
  YYZ=              0.0000  XYZ=             -0.0000
 Hexadecapole moment (field-independent basis, Debye-Ang**3):
 XXXX=          -3605.1733 YYYY=          -1867.0288 ZZZZ=           -133.1608 XXXY=             11.6183
 XXXZ=             -0.0003 YYYX=             -9.4014 YYYZ=             -0.0001 ZZZX=              0.0001
 ZZZY=             -0.0000 XXYY=           -878.8200 XXZZ=           -706.9074 YYZZ=           -371.2774
 XXYZ=             -0.0000 YYXZ=              0.0000 ZZXY=             29.2828
 N-N= 1.248556162978D+03 E-N=-6.849394128846D+03  KE= 1.837494044782D+03
 Calling FoFJK, ICntrl=      2127 FMM=F ISym2X=0 I1Cent= 0 IOpClX= 0 NMat=1 NMatS=1 NMatT=0.
 ***** Axes restored to original set *****
 -------------------------------------------------------------------
 Center     Atomic                   Forces (Hartrees/Bohr)
 Number     Number              X              Y              Z
 -------------------------------------------------------------------
      1        6          -0.014968300   -0.023248087    0.000565087
      2        6           0.008196309    0.050551692    0.006793921
      3        6          -0.022274901    0.002996174    0.007901398
      4        6          -0.005791059   -0.009837394    0.000060111
      5        6           0.013663347   -0.018042510   -0.007889941
      6        6           0.040644739    0.032810378   -0.007228733
      7        6           0.027254760    0.042327718   -0.001029587
      8        6          -0.017484948   -0.006819309    0.004479902
      9        6          -0.002776492    0.012751264    0.003309470
     10        6           0.009714653    0.015173117   -0.000350880
     11        6          -0.002231168    0.000571875    0.000842670
     12        6          -0.001344304   -0.008677752   -0.001186959
     13        1           0.003766176    0.052122966    0.008548364
     14        1           0.009610991   -0.000277923   -0.003218574
     15        1           0.005510711    0.009371375   -0.000055478
     16        1          -0.004916189    0.008281168    0.003174977
     17        1           0.043916165    0.028588967   -0.009099515
     18        1           0.003874894   -0.007392746   -0.002665001
     19        1          -0.004716292   -0.006667902    0.000301472
     20       17          -0.084753778   -0.062183386    0.016244483
     21       17           0.005986192   -0.004222157   -0.002765250
     22       17          -0.010881505   -0.108177527   -0.016731937
 -------------------------------------------------------------------
 Cartesian Forces:  Max     0.108177527 RMS     0.024790406

 GradGradGradGradGradGradGradGradGradGradGradGradGradGradGradGradGradGrad
 Berny optimization.
 FormGI is forming the generalized inverse of G from B-inverse, IUseBI=4.
 Internal  Forces:  Max     0.202848316 RMS     0.050783050
 Search for a local minimum.
 Step number   1 out of a maximum of  121
 All quantities printed in internal units (Hartrees-Bohrs-Radians)
 Mixed Optimization -- RFO/linear search
 Second derivative matrix not updated -- first step.
 ITU=  0
     Eigenvalues ---    0.00237   0.01506   0.01506   0.02070   0.02070
     Eigenvalues ---    0.02070   0.02070   0.02070   0.02070   0.02070
     Eigenvalues ---    0.02070   0.02070   0.02070   0.02070   0.02070
     Eigenvalues ---    0.02070   0.02070   0.02070   0.02070   0.16000
     Eigenvalues ---    0.16000   0.16000   0.16000   0.16000   0.16000
     Eigenvalues ---    0.16000   0.22000   0.22000   0.22489   0.23485
     Eigenvalues ---    0.24492   0.25000   0.25000   0.25000   0.25000
     Eigenvalues ---    0.25000   0.25000   0.28519   0.29539   0.29539
     Eigenvalues ---    0.29539   0.37230   0.37230   0.37230   0.37230
     Eigenvalues ---    0.37230   0.37230   0.37230   0.41268   0.41459
     Eigenvalues ---    0.41540   0.41720   0.45389   0.45389   0.45389
     Eigenvalues ---    0.45389   0.45389   0.45389   0.45389   0.45389
 RFO step:  Lambda=-4.11361537D-01 EMin= 2.36824195D-03
 Linear search not attempted -- first point.
 Maximum step size (   0.300) exceeded in Quadratic search.
    -- Step size scaled by   0.388
 Iteration  1 RMS(Cart)=  0.09871555 RMS(Int)=  0.00387407
 Iteration  2 RMS(Cart)=  0.00444049 RMS(Int)=  0.00016014
 Iteration  3 RMS(Cart)=  0.00000798 RMS(Int)=  0.00016011
 Iteration  4 RMS(Cart)=  0.00000000 RMS(Int)=  0.00016011
 Variable       Old X    -DE/DX   Delta X   Delta X   Delta X     New X
                                 (Linear)    (Quad)   (Total)
    R1        2.64826   0.03513   0.00000   0.01629   0.01644   2.66470
    R2        2.64826   0.03525   0.00000   0.01635   0.01649   2.66476
    R3        2.91018   0.15413   0.00000   0.08595   0.08595   2.99613
    R4        2.64826  -0.00438   0.00000  -0.00197  -0.00197   2.64629
    R5        2.02201  -0.04480   0.00000  -0.02220  -0.02220   1.99980
    R6        2.64826  -0.04005   0.00000  -0.01850  -0.01865   2.62961
    R7        2.02201   0.01013   0.00000   0.00502   0.00502   2.02703
    R8        2.64826  -0.04002   0.00000  -0.01848  -0.01864   2.62963
    R9        2.02201   0.01087   0.00000   0.00539   0.00539   2.02740
   R10        2.64826  -0.00422   0.00000  -0.00189  -0.00189   2.64637
   R11        2.02201   0.01013   0.00000   0.00502   0.00502   2.02703
   R12        2.02201  -0.04518   0.00000  -0.02239  -0.02239   1.99962
   R13        2.64826   0.14200   0.00000   0.06565   0.06596   2.71423
   R14        2.64826   0.14385   0.00000   0.06666   0.06697   2.71523
   R15        2.64826  -0.01171   0.00000  -0.00543  -0.00544   2.64282
   R16        3.32592  -0.00748   0.00000  -0.00411  -0.00411   3.32181
   R17        2.64826  -0.06486   0.00000  -0.03120  -0.03152   2.61674
   R18        2.02201   0.00876   0.00000   0.00434   0.00434   2.02635
   R19        2.64826  -0.06324   0.00000  -0.03030  -0.03062   2.61764
   R20        2.02201   0.00814   0.00000   0.00403   0.00403   2.02604
   R21        2.64826  -0.00209   0.00000  -0.00076  -0.00077   2.64750
   R22        3.32592  -0.00646   0.00000  -0.00355  -0.00355   3.32237
   R23        3.32592  -0.00962   0.00000  -0.00529  -0.00529   3.32063
    A1        2.09440  -0.11390   0.00000  -0.06600  -0.06569   2.02871
    A2        2.09440   0.05494   0.00000   0.03182   0.03166   2.12606
    A3        2.09440   0.05896   0.00000   0.03418   0.03402   2.12842
    A4        2.09440   0.05456   0.00000   0.03377   0.03392   2.12831
    A5        2.09440   0.00126   0.00000   0.00252   0.00244   2.09684
    A6        2.09440  -0.05582   0.00000  -0.03629  -0.03636   2.05803
    A7        2.09440   0.01514   0.00000   0.00806   0.00791   2.10230
    A8        2.09440  -0.00808   0.00000  -0.00438  -0.00430   2.09010
    A9        2.09440  -0.00706   0.00000  -0.00369  -0.00361   2.09079
   A10        2.09440  -0.02541   0.00000  -0.01761  -0.01792   2.07648
   A11        2.09440   0.01268   0.00000   0.00879   0.00894   2.10334
   A12        2.09440   0.01273   0.00000   0.00882   0.00898   2.10337
   A13        2.09440   0.01521   0.00000   0.00811   0.00796   2.10235
   A14        2.09440  -0.00712   0.00000  -0.00373  -0.00365   2.09075
   A15        2.09440  -0.00809   0.00000  -0.00438  -0.00431   2.09009
   A16        2.09440   0.05439   0.00000   0.03367   0.03382   2.12822
   A17        2.09440   0.00118   0.00000   0.00246   0.00238   2.09677
   A18        2.09440  -0.05557   0.00000  -0.03613  -0.03620   2.05819
   A19        2.09440   0.07116   0.00000   0.03916   0.03882   2.13322
   A20        2.09440   0.07339   0.00000   0.04047   0.04013   2.13453
   A21        2.09440  -0.14456   0.00000  -0.07962  -0.07896   2.01544
   A22        2.09440   0.04068   0.00000   0.02614   0.02646   2.12085
   A23        2.09440   0.16217   0.00000   0.09412   0.09396   2.18835
   A24        2.09440  -0.20285   0.00000  -0.12026  -0.12042   1.97398
   A25        2.09440   0.04014   0.00000   0.02146   0.02113   2.11553
   A26        2.09440  -0.02003   0.00000  -0.01070  -0.01054   2.08385
   A27        2.09440  -0.02010   0.00000  -0.01075  -0.01059   2.08380
   A28        2.09440  -0.01213   0.00000  -0.01312  -0.01376   2.08063
   A29        2.09440   0.00682   0.00000   0.00707   0.00740   2.10179
   A30        2.09440   0.00530   0.00000   0.00604   0.00637   2.10076
   A31        2.09440   0.04114   0.00000   0.02179   0.02146   2.11585
   A32        2.09440  -0.02794   0.00000  -0.01522  -0.01505   2.07934
   A33        2.09440  -0.01320   0.00000  -0.00657  -0.00640   2.08799
   A34        2.09440   0.03472   0.00000   0.02335   0.02367   2.11807
   A35        2.09440   0.15880   0.00000   0.09178   0.09162   2.18602
   A36        2.09440  -0.19352   0.00000  -0.11514  -0.11529   1.97910
    D1        0.00000   0.00000   0.00000   0.00000   0.00000   0.00000
    D2        3.14159  -0.00000   0.00000   0.00000   0.00000   3.14159
    D3       -3.14159  -0.00000   0.00000  -0.00000  -0.00000  -3.14159
    D4       -0.00000  -0.00000   0.00000  -0.00000  -0.00000  -0.00000
    D5       -0.00000  -0.00000   0.00000  -0.00000  -0.00000  -0.00000
    D6        3.14159  -0.00000   0.00000  -0.00000  -0.00000   3.14159
    D7        3.14159   0.00000   0.00000   0.00000   0.00000   3.14159
    D8        0.00000  -0.00000   0.00000  -0.00000  -0.00000  -0.00000
    D9       -0.00000  -0.00000   0.00000  -0.00000  -0.00000  -0.00000
   D10        3.14159  -0.00000   0.00000  -0.00000  -0.00000   3.14159
   D11        3.14159  -0.00000   0.00000  -0.00000  -0.00000   3.14159
   D12       -0.00000  -0.00000   0.00000  -0.00000  -0.00000  -0.00000
   D13        0.00000  -0.00000   0.00000  -0.00000  -0.00000   0.00000
   D14        3.14159  -0.00000   0.00000  -0.00000  -0.00000   3.14159
   D15       -3.14159  -0.00000   0.00000  -0.00000  -0.00000  -3.14159
   D16        0.00000  -0.00000   0.00000  -0.00000  -0.00000   0.00000
   D17       -0.00000  -0.00000   0.00000   0.00000   0.00000  -0.00000
   D18        3.14159   0.00000   0.00000   0.00000   0.00000   3.14159
   D19        3.14159  -0.00000   0.00000  -0.00000  -0.00000   3.14159
   D20        0.00000  -0.00000   0.00000  -0.00000  -0.00000   0.00000
   D21        0.00000   0.00000   0.00000   0.00000   0.00000   0.00000
   D22       -3.14159   0.00000   0.00000   0.00000   0.00000  -3.14159
   D23       -3.14159  -0.00000   0.00000  -0.00000  -0.00000  -3.14159
   D24        0.00000   0.00000   0.00000   0.00000   0.00000   0.00000
   D25       -0.00000   0.00000   0.00000   0.00000   0.00000  -0.00000
   D26        3.14159   0.00000   0.00000   0.00000   0.00000   3.14159
   D27        3.14159   0.00000   0.00000  -0.00000  -0.00000   3.14159
   D28       -0.00000   0.00000   0.00000   0.00000   0.00000  -0.00000
   D29        3.14159   0.00000   0.00000   0.00000   0.00000   3.14159
   D30        0.00000   0.00000   0.00000   0.00000   0.00000   0.00000
   D31        0.00000   0.00000   0.00000   0.00000   0.00000   0.00000
   D32       -3.14159  -0.00000   0.00000  -0.00000  -0.00000  -3.14159
   D33       -3.14159  -0.00000   0.00000  -0.00000  -0.00000  -3.14159
   D34        0.00000  -0.00000   0.00000  -0.00000  -0.00000  -0.00000
   D35       -0.00000   0.00000   0.00000   0.00000   0.00000  -0.00000
   D36        3.14159  -0.00000   0.00000  -0.00000  -0.00000   3.14159
   D37       -0.00000  -0.00000   0.00000  -0.00000  -0.00000  -0.00000
   D38        3.14159  -0.00000   0.00000  -0.00000  -0.00000   3.14159
   D39        3.14159   0.00000   0.00000   0.00000   0.00000   3.14159
   D40       -0.00000   0.00000   0.00000   0.00000   0.00000  -0.00000
   D41       -0.00000   0.00000   0.00000   0.00000   0.00000  -0.00000
   D42       -3.14159  -0.00000   0.00000  -0.00000  -0.00000  -3.14159
   D43        3.14159   0.00000   0.00000   0.00000   0.00000   3.14159
   D44        0.00000   0.00000   0.00000   0.00000   0.00000   0.00000
   D45        0.00000   0.00000   0.00000   0.00000   0.00000   0.00000
   D46       -3.14159  -0.00000   0.00000  -0.00000  -0.00000  -3.14159
   D47        3.14159   0.00000   0.00000   0.00000   0.00000   3.14159
   D48        0.00000  -0.00000   0.00000  -0.00000  -0.00000   0.00000
   D49        0.00000  -0.00000   0.00000  -0.00000  -0.00000   0.00000
   D50       -3.14159   0.00000   0.00000   0.00000   0.00000  -3.14159
   D51        3.14159   0.00000   0.00000   0.00000   0.00000   3.14159
   D52       -0.00000   0.00000   0.00000   0.00000   0.00000  -0.00000
         Item               Value     Threshold  Converged?
 Maximum Force            0.202848     0.000450     NO 
 RMS     Force            0.050783     0.000300     NO 
 Maximum Displacement     0.535675     0.001800     NO 
 RMS     Displacement     0.100114     0.001200     NO 
 Predicted change in Energy=-1.472376D-01
 GradGradGradGradGradGradGradGradGradGradGradGradGradGradGradGradGradGrad

                          Input orientation:                          
 ---------------------------------------------------------------------
 Center     Atomic      Atomic             Coordinates (Angstroms)
 Number     Number       Type             X           Y           Z
 ---------------------------------------------------------------------
      1          6           0       -0.379216    1.899753    0.267625
      2          6           0        0.962295    1.972981   -0.160589
      3          6           0        1.672830    3.179666   -0.168051
      4          6           0        1.065310    4.358470    0.253490
      5          6           0       -0.258006    4.318931    0.682035
      6          6           0       -0.966244    3.110845    0.688477
      7          6           0       -1.180800    0.531846    0.274806
      8          6           0       -0.588778   -0.705031   -0.152537
      9          6           0       -1.309721   -1.903342   -0.140072
     10          6           0       -2.626589   -1.944071    0.286132
     11          6           0       -3.237387   -0.774237    0.707070
     12          6           0       -2.547758    0.445269    0.708901
     13          1           0        1.463445    1.100875   -0.489484
     14          1           0        2.692370    3.195036   -0.501056
     15          1           0        1.608776    5.283471    0.248167
     16          1           0       -0.739202    5.219840    1.009764
     17          1           0       -1.970251    3.126774    1.022242
     18          1           0       -0.834028   -2.807198   -0.466545
     19          1           0       -3.167452   -2.869771    0.290469
     20         17           0       -3.517301    1.794224    1.281674
     21         17           0       -4.909418   -0.828181    1.247807
     22         17           0        1.059611   -0.897873   -0.731825
 ---------------------------------------------------------------------
                    Distance matrix (angstroms):
                    1          2          3          4          5
     1  C    0.000000
     2  C    1.410099   0.000000
     3  C    2.457414   1.400359   0.000000
     4  C    2.851692   2.423352   1.391531   0.000000
     5  C    2.457408   2.775362   2.397645   1.391539   0.000000
     6  C    1.410128   2.394767   2.775443   2.423426   1.400398
     7  C    1.585483   2.619024   3.917942   4.437174   3.919107
     8  C    2.646762   3.094775   4.495106   5.342275   5.103539
     9  C    3.936443   4.493145   5.893501   6.708648   6.363855
    10  C    4.452641   5.331317   6.704026   7.304328   6.707617
    11  C    3.938589   5.092874   6.364701   6.712944   5.900653
    12  C    2.648174   3.925607   5.104835   5.345541   4.499883
    13  H    2.146350   1.058250   2.113890   3.364885   3.832981
    14  H    3.421005   2.145344   1.072656   2.137813   3.371582
    15  H    3.924543   3.397700   2.145539   1.072851   2.145566
    16  H    3.421015   3.847975   3.371566   2.137796   1.072657
    17  H    2.146257   3.366029   3.832966   3.364920   2.113945
    18  H    4.785524   5.115710   6.497382   7.448002   7.241046
    19  H    5.524775   6.380478   7.761073   8.376462   7.765027
    20  Cl   3.299547   4.709443   5.564046   5.350967   4.166139
    21  Cl   5.378207   6.656358   7.835399   7.974170   6.960496
    22  Cl   3.300884   2.928751   4.161754   5.347899   5.563287
                    6          7          8          9         10
     6  C    0.000000
     7  C    2.620761   0.000000
     8  C    3.925645   1.436306   0.000000
     9  C    5.093775   2.473639   1.398522   0.000000
    10  C    5.335804   2.867159   2.424938   1.384721   0.000000
    11  C    4.500256   2.474320   2.785471   2.389231   1.385198
    12  C    3.099500   1.436840   2.429582   2.787376   2.427734
    13  H    3.366149   2.810687   2.754350   4.103396   5.157679
    14  H    3.848056   4.764031   5.108613   6.491572   7.437837
    15  H    3.397779   5.510025   6.391554   7.766507   8.377178
    16  H    2.145375   4.765759   6.039674   7.237910   7.443621
    17  H    1.058151   2.813457   4.239257   5.204742   5.165859
    18  H    6.031151   3.437887   2.139592   1.072298   2.127155
    19  H    6.385256   3.939294   3.395868   2.137877   1.072135
    20  Cl   2.931427   2.840179   4.108464   4.535059   3.969800
    21  Cl   5.601553   4.086442   4.543574   4.004997   2.716862
    22  Cl   4.710750   2.841979   1.757825   2.640998   3.964699
                   11         12         13         14         15
    11  C    0.000000
    12  C    1.400995   0.000000
    13  H    5.200540   4.237416   0.000000
    14  H    7.237177   6.040213   2.428148   0.000000
    15  H    7.771211   6.395096   4.249631   2.469225   0.000000
    16  H    6.500886   5.114482   4.905637   4.261232   2.469227
    17  H    4.113740   2.760827   4.263783   4.905622   4.249702
    18  H    3.359529   3.859674   4.533425   6.961572   8.481570
    19  H    2.137688   3.398322   6.149761   8.470296   9.449312
    20  Cl   2.646793   1.757202   5.331563   6.610629   6.286465
    21  Cl   1.758122   2.736701   6.881339   8.776787   8.991019
    22  Cl   4.533200   4.110089   2.053486   4.412603   6.282593
                   16         17         18         19         20
    16  H    0.000000
    17  H    2.428284   0.000000
    18  H    8.162219   6.222500   0.000000
    19  H    8.476768   6.158517   2.453947   0.000000
    20  Cl   4.418893   2.058242   5.606184   4.780976   0.000000
    21  Cl   7.350233   4.932672   4.843998   2.849392   2.969199
    22  Cl   6.610240   5.334285   2.702177   4.775095   5.678880
                   21         22
    21  Cl   0.000000
    22  Cl   6.289127   0.000000
 Stoichiometry    C12H7Cl3
 Framework group  C1[X(C12H7Cl3)]
 Deg. of freedom    60
 Full point group                 C1      NOp   1
 Largest Abelian subgroup         C1      NOp   1
 Largest concise Abelian subgroup C1      NOp   1
                         Standard orientation:                         
 ---------------------------------------------------------------------
 Center     Atomic      Atomic             Coordinates (Angstroms)
 Number     Number       Type             X           Y           Z
 ---------------------------------------------------------------------
      1          6           0        1.501347   -0.290534    0.000002
      2          6           0        2.662881    0.508978   -0.000002
      3          6           0        3.946938   -0.049771   -0.000004
      4          6           0        4.115007   -1.431115   -0.000003
      5          6           0        2.987952   -2.247281    0.000003
      6          6           0        1.705010   -1.685877    0.000005
      7          6           0        0.048972    0.345361    0.000003
      8          6           0       -0.165289    1.765597    0.000002
      9          6           0       -1.453237    2.310623    0.000002
     10          6           0       -2.575594    1.499595    0.000002
     11          6           0       -2.415399    0.123691    0.000002
     12          6           0       -1.141446   -0.459260    0.000002
     13          1           0        2.581682    1.564108   -0.000005
     14          1           0        4.806628    0.591731   -0.000007
     15          1           0        5.098314   -1.860205   -0.000004
     16          1           0        3.102301   -3.313825    0.000006
     17          1           0        0.876209   -2.343732    0.000008
     18          1           0       -1.573865    3.376115    0.000003
     19          1           0       -3.557129    1.930943    0.000001
     20         17           0       -1.178070   -2.216080   -0.000001
     21         17           0       -3.841735   -0.904199   -0.000003
     22         17           0        1.099982    2.985857   -0.000001
 ---------------------------------------------------------------------
 Rotational constants (GHZ):           0.6282059           0.3313899           0.2169467
 Standard basis: 6-311+G(d,p) (5D, 7F)
 There are   411 symmetry adapted cartesian basis functions of A   symmetry.
 There are   396 symmetry adapted basis functions of A   symmetry.
   396 basis functions,   647 primitive gaussians,   411 cartesian basis functions
    65 alpha electrons       65 beta electrons
       nuclear repulsion energy      1227.4463112284 Hartrees.
 NAtoms=   22 NActive=   22 NUniq=   22 SFac= 1.00D+00 NAtFMM=   60 NAOKFM=F Big=F
 Integral buffers will be    131072 words long.
 Raffenetti 2 integral format.
 Two-electron integral symmetry is turned on.
 One-electron integrals computed using PRISM.
 NBasis=   396 RedAO= T EigKep=  1.61D-06  NBF=   396
 NBsUse=   391 1.00D-06 EigRej=  6.63D-07 NBFU=   391
 Initial guess from the checkpoint file:  "/scratch/pkc/Gau-18345.chk"
 B after Tr=    -0.000000   -0.000000    0.000000
         Rot=    0.999922   -0.000000   -0.000000   -0.012499 Ang=  -1.43 deg.
 ExpMin= 4.38D-02 ExpMax= 1.06D+05 ExpMxC= 3.62D+03 IAcc=3 IRadAn=         5 AccDes= 0.00D+00
 Harris functional with IExCor=  402 and IRadAn=       5 diagonalized for initial guess.
 HarFok:  IExCor=  402 AccDes= 0.00D+00 IRadAn=         5 IDoV= 1 UseB2=F ITyADJ=14
 ICtDFT=  3500011 ScaDFX=  1.000000  1.000000  1.000000  1.000000
 FoFCou: FMM=F IPFlag=           0 FMFlag=      100000 FMFlg1=           0
         NFxFlg=           0 DoJE=T BraDBF=F KetDBF=T FulRan=T
         wScrn=  0.000000 ICntrl=       500 IOpCl=  0 I1Cent=   200000004 NGrid=           0
         NMat0=    1 NMatS0=      1 NMatT0=    0 NMatD0=    1 NMtDS0=    0 NMtDT0=    0
 Petite list used in FoFCou.
 Requested convergence on RMS density matrix=1.00D-08 within  32 cycles.
 Requested convergence on MAX density matrix=1.00D-06.
 Requested convergence on             energy=1.00D-06.
 No special actions if energy rises.
 SCF Done:  E(RB3LYP) =  -1842.23467475     A.U. after   14 cycles
            NFock= 14  Conv=0.76D-08     -V/T= 2.0029
 QCSCF skips out because SCF is already converged.
 Calling FoFJK, ICntrl=      2127 FMM=F ISym2X=0 I1Cent= 0 IOpClX= 0 NMat=1 NMatS=1 NMatT=0.
 ***** Axes restored to original set *****
 -------------------------------------------------------------------
 Center     Atomic                   Forces (Hartrees/Bohr)
 Number     Number              X              Y              Z
 -------------------------------------------------------------------
      1        6          -0.013355851   -0.020829101    0.000488168
      2        6          -0.002292332    0.016467325    0.003848080
      3        6          -0.014203504   -0.003179020    0.004082476
      4        6          -0.003753095   -0.006335758    0.000046337
      5        6           0.004218428   -0.014021064   -0.004023011
      6        6           0.015799875    0.006441287   -0.003995656
      7        6           0.017886227    0.025605740   -0.001083573
      8        6          -0.018233923    0.005524024    0.007044838
      9        6          -0.001232283    0.009713821    0.002230240
     10        6           0.003817760    0.005375037   -0.000248273
     11        6          -0.003493082    0.002720667    0.001661961
     12        6           0.008618689   -0.004750414   -0.003731719
     13        1           0.006065997    0.001580214   -0.001701738
     14        1           0.007453261   -0.001584840   -0.002753148
     15        1           0.004123692    0.006995751   -0.000044687
     16        1          -0.004988289    0.005767129    0.002726575
     17        1          -0.001701006    0.005802183    0.001649990
     18        1           0.003880691   -0.005122146   -0.002240474
     19        1          -0.003840481   -0.005523310    0.000227892
     20       17          -0.005499283   -0.005101839    0.000853656
     21       17           0.002412384   -0.008747168   -0.002437666
     22       17          -0.001683874   -0.016798515   -0.002600268
 -------------------------------------------------------------------
 Cartesian Forces:  Max     0.025605740 RMS     0.007975639

 GradGradGradGradGradGradGradGradGradGradGradGradGradGradGradGradGradGrad
 Berny optimization.
 Using GEDIIS/GDIIS optimizer.
 FormGI is forming the generalized inverse of G from B-inverse, IUseBI=4.
 Internal  Forces:  Max     0.034416191 RMS     0.006944011
 Search for a local minimum.
 Step number   2 out of a maximum of  121
 All quantities printed in internal units (Hartrees-Bohrs-Radians)
 Mixed Optimization -- RFO/linear search
 Update second derivatives using D2CorX and points    1    2
 DE= -7.76D-02 DEPred=-1.47D-01 R= 5.27D-01
 TightC=F SS=  1.41D+00  RLast= 3.00D-01 DXNew= 5.0454D-01 8.9996D-01
 Trust test= 5.27D-01 RLast= 3.00D-01 DXMaxT set to 5.05D-01
 ITU=  1  0
 Use linear search instead of GDIIS.
     Eigenvalues ---    0.00237   0.01460   0.01467   0.02070   0.02070
     Eigenvalues ---    0.02070   0.02070   0.02070   0.02070   0.02070
     Eigenvalues ---    0.02070   0.02070   0.02070   0.02070   0.02070
     Eigenvalues ---    0.02070   0.02070   0.02070   0.02070   0.15999
     Eigenvalues ---    0.16000   0.16000   0.16000   0.16000   0.16000
     Eigenvalues ---    0.16085   0.22000   0.22001   0.22522   0.23666
     Eigenvalues ---    0.24492   0.24902   0.25000   0.25000   0.25000
     Eigenvalues ---    0.25000   0.27882   0.29536   0.29538   0.29539
     Eigenvalues ---    0.36175   0.37179   0.37230   0.37230   0.37230
     Eigenvalues ---    0.37230   0.37230   0.38236   0.41096   0.41516
     Eigenvalues ---    0.41638   0.45069   0.45365   0.45389   0.45389
     Eigenvalues ---    0.45389   0.45389   0.45389   0.45389   1.62296
 RFO step:  Lambda=-1.08960319D-02 EMin= 2.36824195D-03
 Quartic linear search produced a step of  0.25677.
 Iteration  1 RMS(Cart)=  0.04035863 RMS(Int)=  0.00140049
 Iteration  2 RMS(Cart)=  0.00151201 RMS(Int)=  0.00008778
 Iteration  3 RMS(Cart)=  0.00000068 RMS(Int)=  0.00008778
 Variable       Old X    -DE/DX   Delta X   Delta X   Delta X     New X
                                 (Linear)    (Quad)   (Total)
    R1        2.66470   0.00339   0.00422  -0.00264   0.00164   2.66634
    R2        2.66476   0.00339   0.00424  -0.00268   0.00162   2.66638
    R3        2.99613  -0.00383   0.02207  -0.08619  -0.06412   2.93201
    R4        2.64629  -0.00715  -0.00051  -0.01787  -0.01837   2.62792
    R5        1.99980   0.00210  -0.00570   0.02402   0.01831   2.01812
    R6        2.62961  -0.00629  -0.00479  -0.00354  -0.00840   2.62122
    R7        2.02703   0.00792   0.00129   0.02208   0.02337   2.05040
    R8        2.62963  -0.00630  -0.00478  -0.00358  -0.00843   2.62119
    R9        2.02740   0.00812   0.00138   0.02247   0.02385   2.05124
   R10        2.64637  -0.00712  -0.00049  -0.01782  -0.01830   2.62806
   R11        2.02703   0.00791   0.00129   0.02207   0.02336   2.05039
   R12        1.99962   0.00222  -0.00575   0.02456   0.01881   2.01843
   R13        2.71423   0.00817   0.01694  -0.02625  -0.00911   2.70512
   R14        2.71523   0.01142   0.01720  -0.01652   0.00080   2.71603
   R15        2.64282  -0.00795  -0.00140  -0.01902  -0.02034   2.62249
   R16        3.32181   0.00112  -0.00106   0.00792   0.00686   3.32867
   R17        2.61674  -0.01365  -0.00809  -0.01593  -0.02414   2.59260
   R18        2.02635   0.00672   0.00112   0.01868   0.01980   2.04615
   R19        2.61764  -0.01105  -0.00786  -0.00796  -0.01603   2.60161
   R20        2.02604   0.00671   0.00104   0.01888   0.01991   2.04595
   R21        2.64750   0.00816  -0.00020   0.02423   0.02395   2.67145
   R22        3.32237  -0.00278  -0.00091  -0.00852  -0.00943   3.31294
   R23        3.32063  -0.00060  -0.00136   0.00179   0.00043   3.32107
    A1        2.02871  -0.01505  -0.01687  -0.01704  -0.03377   1.99494
    A2        2.12606   0.00722   0.00813   0.00803   0.01609   2.14215
    A3        2.12842   0.00784   0.00874   0.00902   0.01768   2.14610
    A4        2.12831   0.00706   0.00871   0.00861   0.01738   2.14570
    A5        2.09684   0.00262   0.00063   0.02246   0.02306   2.11989
    A6        2.05803  -0.00968  -0.00934  -0.03107  -0.04044   2.01759
    A7        2.10230   0.00313   0.00203   0.00807   0.01004   2.11234
    A8        2.09010  -0.00331  -0.00110  -0.01657  -0.01764   2.07246
    A9        2.09079   0.00018  -0.00093   0.00849   0.00760   2.09838
   A10        2.07648  -0.00531  -0.00460  -0.01632  -0.02105   2.05542
   A11        2.10334   0.00264   0.00230   0.00808   0.01044   2.11378
   A12        2.10337   0.00267   0.00230   0.00824   0.01061   2.11398
   A13        2.10235   0.00312   0.00204   0.00801   0.00999   2.11234
   A14        2.09075   0.00017  -0.00094   0.00845   0.00755   2.09829
   A15        2.09009  -0.00330  -0.00111  -0.01646  -0.01753   2.07256
   A16        2.12822   0.00705   0.00868   0.00867   0.01742   2.14564
   A17        2.09677   0.00233   0.00061   0.02043   0.02101   2.11778
   A18        2.05819  -0.00939  -0.00930  -0.02910  -0.03843   2.01977
   A19        2.13322   0.01221   0.00997   0.02318   0.03297   2.16618
   A20        2.13453   0.01024   0.01030   0.01262   0.02274   2.15727
   A21        2.01544  -0.02244  -0.02027  -0.03579  -0.05571   1.95973
   A22        2.12085   0.01221   0.00679   0.03549   0.04257   2.16342
   A23        2.18835   0.02220   0.02413   0.02869   0.05268   2.24103
   A24        1.97398  -0.03442  -0.03092  -0.06418  -0.09524   1.87873
   A25        2.11553   0.00526   0.00543   0.00234   0.00771   2.12324
   A26        2.08385  -0.00371  -0.00271  -0.00915  -0.01183   2.07203
   A27        2.08380  -0.00155  -0.00272   0.00681   0.00412   2.08792
   A28        2.08063  -0.00409  -0.00353  -0.01687  -0.02075   2.05988
   A29        2.10179   0.00262   0.00190   0.01217   0.01424   2.11603
   A30        2.10076   0.00147   0.00163   0.00471   0.00651   2.10727
   A31        2.11585   0.00290   0.00551  -0.00256   0.00266   2.11851
   A32        2.07934  -0.01636  -0.00387  -0.06689  -0.07061   2.00873
   A33        2.08799   0.01346  -0.00164   0.06945   0.06795   2.15594
   A34        2.11807   0.00617   0.00608   0.01739   0.02352   2.14159
   A35        2.18602   0.00941   0.02353  -0.03529  -0.01179   2.17423
   A36        1.97910  -0.01558  -0.02960   0.01789  -0.01173   1.96737
    D1        0.00000  -0.00000   0.00000  -0.00000  -0.00000   0.00000
    D2        3.14159   0.00000   0.00000   0.00000   0.00000  -3.14159
    D3       -3.14159  -0.00000  -0.00000  -0.00000  -0.00000   3.14159
    D4       -0.00000  -0.00000  -0.00000   0.00000   0.00000  -0.00000
    D5       -0.00000   0.00000  -0.00000   0.00000   0.00000  -0.00000
    D6        3.14159  -0.00000  -0.00000  -0.00000  -0.00000   3.14159
    D7        3.14159   0.00000   0.00000   0.00000   0.00000  -3.14159
    D8       -0.00000  -0.00000  -0.00000  -0.00000  -0.00000  -0.00000
    D9       -0.00000  -0.00000  -0.00000  -0.00001  -0.00001  -0.00002
   D10        3.14159  -0.00000  -0.00000  -0.00001  -0.00001   3.14158
   D11        3.14159  -0.00000  -0.00000  -0.00002  -0.00002   3.14157
   D12       -0.00000  -0.00000  -0.00000  -0.00001  -0.00001  -0.00002
   D13        0.00000  -0.00000  -0.00000  -0.00000  -0.00000  -0.00000
   D14        3.14159   0.00000  -0.00000   0.00000   0.00000   3.14159
   D15       -3.14159  -0.00000  -0.00000  -0.00000  -0.00000  -3.14159
   D16        0.00000  -0.00000  -0.00000  -0.00000  -0.00000   0.00000
   D17       -0.00000   0.00000   0.00000   0.00000   0.00000  -0.00000
   D18        3.14159   0.00000   0.00000   0.00000   0.00000   3.14159
   D19        3.14159   0.00000  -0.00000   0.00000   0.00000   3.14159
   D20        0.00000  -0.00000  -0.00000  -0.00000  -0.00000  -0.00000
   D21        0.00000  -0.00000   0.00000  -0.00000  -0.00000   0.00000
   D22       -3.14159  -0.00000   0.00000  -0.00000  -0.00000  -3.14159
   D23       -3.14159  -0.00000  -0.00000  -0.00000  -0.00000  -3.14159
   D24        0.00000   0.00000   0.00000   0.00000   0.00000   0.00000
   D25       -0.00000   0.00000   0.00000   0.00000   0.00000   0.00000
   D26        3.14159   0.00000   0.00000   0.00000   0.00000  -3.14159
   D27        3.14159   0.00000  -0.00000   0.00000   0.00000   3.14159
   D28       -0.00000   0.00000   0.00000   0.00000   0.00000   0.00000
   D29        3.14159   0.00000   0.00000   0.00000   0.00000  -3.14159
   D30        0.00000  -0.00000   0.00000  -0.00000  -0.00000   0.00000
   D31        0.00000   0.00000   0.00000   0.00000   0.00000   0.00000
   D32       -3.14159  -0.00000  -0.00000  -0.00000  -0.00000   3.14159
   D33       -3.14159  -0.00000  -0.00000  -0.00000  -0.00000   3.14159
   D34       -0.00000  -0.00000  -0.00000  -0.00000  -0.00000  -0.00000
   D35       -0.00000   0.00000   0.00000   0.00000   0.00000  -0.00000
   D36        3.14159  -0.00000  -0.00000   0.00000   0.00000   3.14159
   D37       -0.00000  -0.00000  -0.00000  -0.00000  -0.00000  -0.00000
   D38        3.14159  -0.00000  -0.00000  -0.00000  -0.00000   3.14159
   D39        3.14159   0.00000   0.00000   0.00000   0.00000  -3.14159
   D40       -0.00000   0.00000   0.00000   0.00000   0.00000   0.00000
   D41       -0.00000   0.00000   0.00000   0.00000   0.00000  -0.00000
   D42       -3.14159  -0.00000  -0.00000  -0.00000  -0.00000  -3.14159
   D43        3.14159   0.00000   0.00000   0.00000   0.00000  -3.14159
   D44        0.00000  -0.00000   0.00000  -0.00000  -0.00000   0.00000
   D45        0.00000   0.00000   0.00000   0.00000   0.00000   0.00000
   D46       -3.14159  -0.00000  -0.00000  -0.00000  -0.00000  -3.14159
   D47        3.14159   0.00000   0.00000   0.00000   0.00000  -3.14159
   D48        0.00000  -0.00000  -0.00000  -0.00000  -0.00000   0.00000
   D49        0.00000  -0.00000  -0.00000  -0.00000  -0.00000  -0.00000
   D50       -3.14159  -0.00000   0.00000  -0.00000  -0.00000  -3.14159
   D51        3.14159   0.00000   0.00000   0.00000   0.00000   3.14159
   D52       -0.00000   0.00000   0.00000   0.00000   0.00000   0.00000
         Item               Value     Threshold  Converged?
 Maximum Force            0.034416     0.000450     NO 
 RMS     Force            0.006944     0.000300     NO 
 Maximum Displacement     0.255636     0.001800     NO 
 RMS     Displacement     0.040635     0.001200     NO 
 Predicted change in Energy=-4.040819D-03
 GradGradGradGradGradGradGradGradGradGradGradGradGradGradGradGradGradGrad

                          Input orientation:                          
 ---------------------------------------------------------------------
 Center     Atomic      Atomic             Coordinates (Angstroms)
 Number     Number       Type             X           Y           Z
 ---------------------------------------------------------------------
      1          6           0       -0.383688    1.902160    0.269554
      2          6           0        0.958604    1.995857   -0.155065
      3          6           0        1.667171    3.192405   -0.163785
      4          6           0        1.076515    4.376181    0.253122
      5          6           0       -0.242833    4.325356    0.678232
      6          6           0       -0.947988    3.126697    0.685432
      7          6           0       -1.169814    0.564526    0.277329
      8          6           0       -0.622249   -0.690909   -0.138861
      9          6           0       -1.328471   -1.885504   -0.130551
     10          6           0       -2.633604   -1.947394    0.287817
     11          6           0       -3.235086   -0.781399    0.704974
     12          6           0       -2.536759    0.447745    0.705752
     13          1           0        1.497276    1.138118   -0.493614
     14          1           0        2.697350    3.186282   -0.504325
     15          1           0        1.628336    5.310903    0.246869
     16          1           0       -0.743997    5.227669    1.012795
     17          1           0       -1.957659    3.184860    1.028987
     18          1           0       -0.829940   -2.786953   -0.464105
     19          1           0       -3.178282   -2.883070    0.291533
     20         17           0       -3.519452    1.786419    1.280936
     21         17           0       -4.901680   -0.948524    1.222665
     22         17           0        0.998736   -1.033150   -0.737194
[...]
     21         17           0       -3.815150   -1.016654   -0.000002
     22         17           0        1.118925    2.855780   -0.000033
 ---------------------------------------------------------------------
 Rotational constants (GHZ):           0.6543481           0.3312586           0.2382489

 **********************************************************************

            Population analysis using the SCF Density.

 **********************************************************************

 Orbital symmetries:
       Occupied  (A) (A) (A) (A) (A) (A) (A) (A) (A) (A) (A) (A)
                 (A) (A) (A) (A) (A) (A) (A) (A) (A) (A) (A) (A)
                 (A) (A) (A) (A) (A) (A) (A) (A) (A) (A) (A) (A)
                 (A) (A) (A) (A) (A) (A) (A) (A) (A) (A) (A) (A)
                 (A) (A) (A) (A) (A) (A) (A) (A) (A) (A) (A) (A)
                 (A) (A) (A) (A) (A)
       Virtual   (A) (A) (A) (A) (A) (A) (A) (A) (A) (A) (A) (A)
                 (A) (A) (A) (A) (A) (A) (A) (A) (A) (A) (A) (A)
                 (A) (A) (A) (A) (A) (A) (A) (A) (A) (A) (A) (A)
                 (A) (A) (A) (A) (A) (A) (A) (A) (A) (A) (A) (A)
                 (A) (A) (A) (A) (A) (A) (A) (A) (A) (A) (A) (A)
                 (A) (A) (A) (A) (A) (A) (A) (A) (A) (A) (A) (A)
                 (A) (A) (A) (A) (A) (A) (A) (A) (A) (A) (A) (A)
                 (A) (A) (A) (A) (A) (A) (A) (A) (A) (A) (A) (A)
                 (A) (A) (A) (A) (A) (A) (A) (A) (A) (A) (A) (A)
                 (A) (A) (A) (A) (A) (A) (A) (A) (A) (A) (A) (A)
                 (A) (A) (A) (A) (A) (A) (A) (A) (A) (A) (A) (A)
                 (A) (A) (A) (A) (A) (A) (A) (A) (A) (A) (A) (A)
                 (A) (A) (A) (A) (A) (A) (A) (A) (A) (A) (A) (A)
                 (A) (A) (A) (A) (A) (A) (A) (A) (A) (A) (A) (A)
                 (A) (A) (A) (A) (A) (A) (A) (A) (A) (A) (A) (A)
                 (A) (A) (A) (A) (A) (A) (A) (A) (A) (A) (A) (A)
                 (A) (A) (A) (A) (A) (A) (A) (A) (A) (A) (A) (A)
                 (A) (A) (A) (A) (A) (A) (A) (A) (A) (A) (A) (A)
                 (A) (A) (A) (A) (A) (A) (A) (A) (A) (A) (A) (A)
                 (A) (A) (A) (A) (A) (A) (A) (A) (A) (A) (A) (A)
                 (A) (A) (A) (A) (A) (A) (A) (A) (A) (A) (A) (A)
                 (A) (A) (A) (A) (A) (A) (A) (A) (A) (A) (A) (A)
                 (A) (A) (A) (A) (A) (A) (A) (A) (A) (A) (A) (A)
                 (A) (A) (A) (A) (A) (A) (A) (A) (A) (A) (A) (A)
                 (A) (A) (A) (A) (A) (A) (A) (A) (A) (A) (A) (A)
                 (A) (A) (A) (A) (A) (A) (A) (A) (A) (A) (A) (A)
                 (A) (A) (A) (A) (A) (A) (A) (A) (A) (A) (A) (A)
                 (A) (A) (A) (A)
 The electronic state is 1-A.
 Alpha  occ. eigenvalues -- -101.56884-101.56698-101.56502 -10.26712 -10.26269
 Alpha  occ. eigenvalues --  -10.26038 -10.22638 -10.21219 -10.20930 -10.20204
 Alpha  occ. eigenvalues --  -10.18738 -10.18737 -10.18588 -10.18558 -10.18509
 Alpha  occ. eigenvalues --   -9.48343  -9.48171  -9.47969  -7.24826  -7.24656
 Alpha  occ. eigenvalues --   -7.24440  -7.23823  -7.23767  -7.23660  -7.23576
 Alpha  occ. eigenvalues --   -7.23455  -7.23398  -0.93964  -0.89796  -0.87845
 Alpha  occ. eigenvalues --   -0.86584  -0.83567  -0.79586  -0.76023  -0.74751
 Alpha  occ. eigenvalues --   -0.73531  -0.65601  -0.62040  -0.61999  -0.59976
 Alpha  occ. eigenvalues --   -0.54331  -0.52425  -0.52066  -0.48423  -0.47359
 Alpha  occ. eigenvalues --   -0.46853  -0.45656  -0.44407  -0.43746  -0.43226
 Alpha  occ. eigenvalues --   -0.41117  -0.40876  -0.38587  -0.37810  -0.36404
 Alpha  occ. eigenvalues --   -0.36286  -0.35703  -0.34052  -0.32756  -0.32756
 Alpha  occ. eigenvalues --   -0.31925  -0.27621  -0.26723  -0.26413  -0.25786
 Alpha virt. eigenvalues --   -0.04807  -0.04649  -0.02895  -0.02389  -0.02246
 Alpha virt. eigenvalues --   -0.00306   0.00474   0.01145   0.02066   0.02528
 Alpha virt. eigenvalues --    0.02876   0.03097   0.04218   0.04508   0.04860
 Alpha virt. eigenvalues --    0.05685   0.06391   0.06638   0.06988   0.07092
 Alpha virt. eigenvalues --    0.08115   0.08368   0.08905   0.09330   0.09846
 Alpha virt. eigenvalues --    0.09991   0.11183   0.11716   0.11752   0.12102
 Alpha virt. eigenvalues --    0.12795   0.13060   0.13467   0.13934   0.14566
 Alpha virt. eigenvalues --    0.14721   0.15252   0.15641   0.15816   0.16311
 Alpha virt. eigenvalues --    0.16583   0.16790   0.17146   0.17457   0.17771
 Alpha virt. eigenvalues --    0.18214   0.18654   0.18698   0.19819   0.20270
 Alpha virt. eigenvalues --    0.20549   0.20717   0.21390   0.21665   0.21916
 Alpha virt. eigenvalues --    0.22203   0.22353   0.23029   0.23406   0.23489
 Alpha virt. eigenvalues --    0.24195   0.24648   0.24863   0.25340   0.25908
 Alpha virt. eigenvalues --    0.26169   0.26348   0.26473   0.27149   0.28151
 Alpha virt. eigenvalues --    0.28291   0.29418   0.29998   0.30305   0.30925
 Alpha virt. eigenvalues --    0.31936   0.32335   0.32919   0.33376   0.34512
 Alpha virt. eigenvalues --    0.35534   0.36331   0.41649   0.42714   0.43888
 Alpha virt. eigenvalues --    0.44468   0.45288   0.46669   0.47100   0.47303
 Alpha virt. eigenvalues --    0.48490   0.49729   0.50630   0.51732   0.52223
 Alpha virt. eigenvalues --    0.53154   0.53301   0.53735   0.53828   0.54037
 Alpha virt. eigenvalues --    0.56181   0.57492   0.57983   0.58526   0.58697
 Alpha virt. eigenvalues --    0.59445   0.60251   0.60648   0.61593   0.62380
 Alpha virt. eigenvalues --    0.63250   0.64767   0.65140   0.65469   0.66657
 Alpha virt. eigenvalues --    0.67460   0.68515   0.69221   0.70230   0.70309
 Alpha virt. eigenvalues --    0.70708   0.71142   0.71952   0.72519   0.74190
 Alpha virt. eigenvalues --    0.75568   0.77157   0.79185   0.80584   0.80766
 Alpha virt. eigenvalues --    0.82370   0.82596   0.82872   0.83727   0.84358
 Alpha virt. eigenvalues --    0.84993   0.85169   0.85438   0.85696   0.85855
 Alpha virt. eigenvalues --    0.87014   0.87043   0.87602   0.88267   0.89280
 Alpha virt. eigenvalues --    0.89978   0.93833   0.94886   0.95844   0.96223
 Alpha virt. eigenvalues --    0.96649   0.96897   0.97358   0.99154   0.99938
 Alpha virt. eigenvalues --    1.00894   1.01411   1.01465   1.02524   1.04638
 Alpha virt. eigenvalues --    1.05635   1.05969   1.06483   1.07401   1.12651
 Alpha virt. eigenvalues --    1.13447   1.14992   1.19566   1.21115   1.22904
 Alpha virt. eigenvalues --    1.23395   1.26955   1.28047   1.29345   1.30837
 Alpha virt. eigenvalues --    1.31750   1.34858   1.36431   1.39290   1.41145
 Alpha virt. eigenvalues --    1.42688   1.48526   1.49275   1.50056   1.50351
 Alpha virt. eigenvalues --    1.50891   1.55731   1.56855   1.56950   1.57313
 Alpha virt. eigenvalues --    1.59240   1.61303   1.64072   1.65374   1.66093
 Alpha virt. eigenvalues --    1.66599   1.68205   1.70035   1.71467   1.71982
 Alpha virt. eigenvalues --    1.74431   1.76828   1.77628   1.81178   1.81801
 Alpha virt. eigenvalues --    1.83145   1.84639   1.85670   1.86192   1.88642
 Alpha virt. eigenvalues --    1.90573   1.92246   1.94543   1.94590   1.95453
 Alpha virt. eigenvalues --    1.95612   1.98067   1.98324   1.99653   2.02125
 Alpha virt. eigenvalues --    2.05482   2.07404   2.07997   2.08610   2.13850
 Alpha virt. eigenvalues --    2.14687   2.19504   2.23991   2.25262   2.27294
 Alpha virt. eigenvalues --    2.27845   2.28230   2.30458   2.34817   2.37152
 Alpha virt. eigenvalues --    2.37566   2.39158   2.39816   2.40312   2.40854
 Alpha virt. eigenvalues --    2.42395   2.43917   2.47737   2.52212   2.53001
 Alpha virt. eigenvalues --    2.55935   2.57018   2.58773   2.63103   2.63444
 Alpha virt. eigenvalues --    2.66300   2.68408   2.69093   2.70087   2.70451
 Alpha virt. eigenvalues --    2.71422   2.72545   2.74925   2.75533   2.75680
 Alpha virt. eigenvalues --    2.75863   2.77501   2.79556   2.79920   2.84370
 Alpha virt. eigenvalues --    2.85541   2.85567   2.86440   2.88763   2.91785
 Alpha virt. eigenvalues --    2.92561   2.98307   3.01490   3.08772   3.10767
 Alpha virt. eigenvalues --    3.10859   3.13314   3.16248   3.19678   3.24417
 Alpha virt. eigenvalues --    3.28277   3.33716   3.37598   3.38364   3.41866
 Alpha virt. eigenvalues --    3.48647   3.54309   3.58652   3.63468   3.64919
 Alpha virt. eigenvalues --    3.77673   3.85114   3.97805   3.99424   4.03854
 Alpha virt. eigenvalues --    4.05006   4.14228   4.15205   4.35685   4.81177
 Alpha virt. eigenvalues --    4.84165   9.77703   9.80887   9.83916  23.40432
 Alpha virt. eigenvalues --   23.65964  23.82725  23.89126  23.93052  23.95159
 Alpha virt. eigenvalues --   23.98562  24.01019  24.08841  24.10421  24.13156
 Alpha virt. eigenvalues --   24.19338  25.80406  25.86724  25.92714  26.13786
 Alpha virt. eigenvalues --   26.21680  26.29422  26.54301  26.66187  26.90014
 Alpha virt. eigenvalues --  215.76990 215.80603 215.84388
          Condensed to atoms (all electrons):
               1          2          3          4          5          6
     1  C   15.001626   0.787735  -1.657035  -1.623428  -1.657121   0.787721
     2  C    0.787735  15.908054  -1.776020   1.980912  -3.032856  -2.339894
     3  C   -1.657035  -1.776020   9.933790  -1.469255   1.691993  -3.032963
     4  C   -1.623428   1.980912  -1.469255   8.649402  -1.469371   1.981148
     5  C   -1.657121  -3.032856   1.691993  -1.469371   9.934180  -1.776795
     6  C    0.787721  -2.339894  -3.032963   1.981148  -1.776795  15.908931
     7  C    2.633918  -2.018055   1.422130  -1.515061   1.422193  -2.018323
     8  C   -2.148731  -1.176769   0.314015  -0.239842   0.314259  -1.176302
     9  C   -2.620480  -0.359882  -0.002101  -0.006595  -0.002075  -0.360047
    10  C    0.231830   0.232777  -0.087353   0.056871  -0.087336   0.232943
    11  C   -3.067661  -0.991522   0.298737  -0.181113   0.298846  -0.991382
    12  C   -1.294417  -0.629901   0.081756  -0.179522   0.081757  -0.630339
    13  H   -0.000666   0.292938  -0.045620  -0.024425  -0.000168  -0.013074
    14  H    0.037328  -0.022422   0.354403  -0.000746  -0.016896  -0.002913
    15  H    0.033132  -0.035649   0.011345   0.351741   0.011345  -0.035652
    16  H    0.037327  -0.002916  -0.016894  -0.000748   0.354404  -0.022419
    17  H   -0.000669  -0.013073  -0.000169  -0.024424  -0.045620   0.292943
    18  H    0.017944   0.000176  -0.000201  -0.000003  -0.000201   0.000175
    19  H    0.006382  -0.000204  -0.000071   0.000005  -0.000071  -0.000204
    20  Cl  -0.334156   0.021289   0.158246  -0.090640   0.158299   0.021202
    21  Cl  -0.137153  -0.031011   0.008573  -0.004632   0.008575  -0.031014
    22  Cl   0.230747  -0.055722   0.174346  -0.103839   0.174304  -0.055683
               7          8          9         10         11         12
     1  C    2.633918  -2.148731  -2.620480   0.231830  -3.067661  -1.294417
     2  C   -2.018055  -1.176769  -0.359882   0.232777  -0.991522  -0.629901
     3  C    1.422130   0.314015  -0.002101  -0.087353   0.298737   0.081756
     4  C   -1.515061  -0.239842  -0.006595   0.056871  -0.181113  -0.179522
     5  C    1.422193   0.314259  -0.002075  -0.087336   0.298846   0.081757
     6  C   -2.018323  -1.176302  -0.360047   0.232943  -0.991382  -0.630339
     7  C   14.898593  -3.549693  -3.161809  -0.050732  -3.566420   1.965916
     8  C   -3.549693  18.782902  -2.726666  -0.143827   3.513512  -5.641553
     9  C   -3.161809  -2.726666  12.573664   1.881858  -1.204291   2.075287
    10  C   -0.050732  -0.143827   1.881858  11.486616  -2.645542  -4.902367
    11  C   -3.566420   3.513512  -1.204291  -2.645542  15.807342  -1.714899
    12  C    1.965916  -5.641553   2.075287  -4.902367  -1.714899  18.466556
    13  H    0.045550   0.035277   0.010968  -0.001086   0.007251   0.047222
    14  H   -0.003994   0.002084   0.000335   0.000085  -0.000264   0.002299
    15  H    0.011702   0.001052   0.000040  -0.000004   0.000202   0.000975
    16  H   -0.003994   0.002084   0.000335   0.000085  -0.000264   0.002299
    17  H    0.045548   0.035268   0.010971  -0.001087   0.007248   0.047232
    18  H    0.052603   0.058707   0.306146  -0.043816  -0.025251  -0.015307
    19  H    0.021014   0.013366  -0.079402   0.355238   0.002354   0.030553
    20  Cl  -0.149209  -0.542926   0.495160   0.454299  -0.279628  -0.845488
    21  Cl  -0.526039   0.063251   0.087249  -0.345037  -0.395973   0.737786
    22  Cl  -0.276556   0.237344  -0.547398  -0.018530   0.158584  -0.575385
              13         14         15         16         17         18
     1  C   -0.000666   0.037328   0.033132   0.037327  -0.000669   0.017944
     2  C    0.292938  -0.022422  -0.035649  -0.002916  -0.013073   0.000176
     3  C   -0.045620   0.354403   0.011345  -0.016894  -0.000169  -0.000201
     4  C   -0.024425  -0.000746   0.351741  -0.000748  -0.024424  -0.000003
     5  C   -0.000168  -0.016896   0.011345   0.354404  -0.045620  -0.000201
     6  C   -0.013074  -0.002913  -0.035652  -0.022419   0.292943   0.000175
     7  C    0.045550  -0.003994   0.011702  -0.003994   0.045548   0.052603
     8  C    0.035277   0.002084   0.001052   0.002084   0.035268   0.058707
     9  C    0.010968   0.000335   0.000040   0.000335   0.010971   0.306146
    10  C   -0.001086   0.000085  -0.000004   0.000085  -0.001087  -0.043816
    11  C    0.007251  -0.000264   0.000202  -0.000264   0.007248  -0.025251
    12  C    0.047222   0.002299   0.000975   0.002299   0.047232  -0.015307
    13  H    0.542850  -0.007478  -0.000238   0.000078  -0.000076   0.000002
    14  H   -0.007478   0.538809  -0.007819  -0.000248   0.000078   0.000000
    15  H   -0.000238  -0.007819   0.537503  -0.007819  -0.000238  -0.000000
    16  H    0.000078  -0.000248  -0.007819   0.538810  -0.007478   0.000000
    17  H   -0.000076   0.000078  -0.000238  -0.007478   0.542849   0.000002
    18  H    0.000002   0.000000  -0.000000   0.000000   0.000002   0.506400
    19  H   -0.000002  -0.000000  -0.000000  -0.000000  -0.000002  -0.007584
    20  Cl  -0.004442  -0.000837  -0.000230  -0.000837  -0.004441   0.000601
    21  Cl   0.000324  -0.000001   0.000001  -0.000001   0.000325  -0.000378
    22  Cl  -0.003671  -0.000846  -0.000098  -0.000845  -0.003672  -0.005641
              19         20         21         22
     1  C    0.006382  -0.334156  -0.137153   0.230747
     2  C   -0.000204   0.021289  -0.031011  -0.055722
     3  C   -0.000071   0.158246   0.008573   0.174346
     4  C    0.000005  -0.090640  -0.004632  -0.103839
     5  C   -0.000071   0.158299   0.008575   0.174304
     6  C   -0.000204   0.021202  -0.031014  -0.055683
     7  C    0.021014  -0.149209  -0.526039  -0.276556
     8  C    0.013366  -0.542926   0.063251   0.237344
     9  C   -0.079402   0.495160   0.087249  -0.547398
    10  C    0.355238   0.454299  -0.345037  -0.018530
    11  C    0.002354  -0.279628  -0.395973   0.158584
    12  C    0.030553  -0.845488   0.737786  -0.575385
    13  H   -0.000002  -0.004442   0.000324  -0.003671
    14  H   -0.000000  -0.000837  -0.000001  -0.000846
    15  H   -0.000000  -0.000230   0.000001  -0.000098
    16  H   -0.000000  -0.000837  -0.000001  -0.000845
    17  H   -0.000002  -0.004441   0.000325  -0.003672
    18  H   -0.007584   0.000601  -0.000378  -0.005641
    19  H    0.504214  -0.001145  -0.001894   0.000679
    20  Cl  -0.001145  17.626644  -0.173193  -0.065170
    21  Cl  -0.001894  -0.173193  17.288331  -0.011625
    22  Cl   0.000679  -0.065170  -0.011625  17.331463
 Mulliken charges:
               1
     1  C    0.735827
     2  C   -0.737987
     3  C   -0.361651
     4  C   -0.086434
     5  C   -0.361645
     6  C   -0.738057
     7  C    0.320719
     8  C   -0.026812
     9  C   -0.371265
    10  C   -0.605885
    11  C    0.970134
    12  C   -1.110460
    13  H    0.118484
    14  H    0.129045
    15  H    0.128707
    16  H    0.129045
    17  H    0.118484
    18  H    0.155624
    19  H    0.156776
    20  Cl   0.556602
    21  Cl   0.463538
    22  Cl   0.417214
 Sum of Mulliken charges =  -0.00000
 Mulliken charges with hydrogens summed into heavy atoms:
               1
     1  C    0.735827
     2  C   -0.619503
     3  C   -0.232606
     4  C    0.042273
     5  C   -0.232600
     6  C   -0.619574
     7  C    0.320719
     8  C   -0.026812
     9  C   -0.215642
    10  C   -0.449109
    11  C    0.970134
    12  C   -1.110460
    20  Cl   0.556602
    21  Cl   0.463538
    22  Cl   0.417214
 Electronic spatial extent (au):  <R**2>=           4328.1288
 Charge=              0.0000 electrons
 Dipole moment (field-independent basis, Debye):
    X=              0.4832    Y=              0.9423    Z=             -0.0000  Tot=              1.0590
 Quadrupole moment (field-independent basis, Debye-Ang):
   XX=           -101.0842   YY=           -108.4250   ZZ=           -104.2631
   XY=             -9.6186   XZ=              0.0003   YZ=              0.0005
 Traceless Quadrupole moment (field-independent basis, Debye-Ang):
   XX=              3.5066   YY=             -3.8342   ZZ=              0.3277
   XY=             -9.6186   XZ=              0.0003   YZ=              0.0005
 Octapole moment (field-independent basis, Debye-Ang**2):
  XXX=             11.1471  YYY=              7.6112  ZZZ=              0.0000  XYY=            -20.5102
  XXY=             -4.2793  XXZ=              0.0010  XZZ=             10.5901  YZZ=             -6.7121
  YYZ=             -0.0010  XYZ=              0.0016
 Hexadecapole moment (field-independent basis, Debye-Ang**3):
 XXXX=          -3558.2761 YYYY=          -1693.6324 ZZZZ=           -355.8712 XXXY=            -81.6399
 XXXZ=              0.0064 YYYX=             29.8631 YYYZ=             -0.0010 ZZZX=              0.0012
 ZZZY=              0.0031 XXYY=           -869.4185 XXZZ=           -664.1671 YYZZ=           -367.1206
 XXYZ=              0.0035 YYXZ=             -0.0033 ZZXY=              2.1221
 N-N= 1.237340247218D+03 E-N=-6.826949189636D+03  KE= 1.836978405156D+03
 1\1\GINC-DAMODAR\FOpt\RB3LYP\6-311+G(d,p)\C12H7Cl3\PKC\15-Mar-2022\0\\
 # opt b3lyp/6-311+g(d,p) scf=xqc\\Title Card Required\\0,1\C,-0.410538
 9908,1.8539643662,0.2757835591\C,0.2460862593,2.2690528028,-0.88590870
 79\C,0.954347127,3.4683318,-0.9021973386\C,1.0125192432,4.2623594241,0
 .2416891217\C,0.3596722079,3.8523394791,1.402732364\C,-0.3489470599,2.
 6532962114,1.4204563761\C,-1.1659043619,0.564864438,0.2956830823\C,-0.
 5487112421,-0.6400926196,0.6556103672\C,-1.2403888442,-1.8469750016,0.
 678240796\C,-2.5840429905,-1.8714802841,0.3357651825\C,-3.2334110887,-
 0.6958323933,-0.0275645115\C,-2.5300156596,0.5136785575,-0.0476399657\
 H,0.2016955052,1.6526916032,-1.776739477\H,1.4602013492,3.7813472081,-
 1.8085560968\H,1.5638698459,5.195712263,0.2284402456\H,0.4012028336,4.
 4651938855,2.296062607\H,-0.856394154,2.3359514314,2.3244696392\H,-0.7
 2976266,-2.7576642604,0.9616519289\H,-3.1364633571,-2.8019507956,0.348
 2831466\Cl,-3.3460171274,1.9881404622,-0.5037321187\Cl,-4.9268120806,-
 0.7766253745,-0.4508779834\Cl,1.1503029553,-0.6580272435,1.0968440333\
 \Version=EM64L-G16RevB.01\State=1-A\HF=-1842.2760398\RMSD=5.489e-09\RM
 SF=2.352e-06\Dipole=0.3629821,-0.1648605,0.1210909\Quadrupole=-5.82982
 7,6.1835354,-0.3537084,4.1641261,-2.2605369,0.0847929\PG=C01 [X(C12H7C
 l3)]\\@


 THE TEST OF A FIRST RATE INTELLIGENCE IS THE ABILITY TO HOLD TWO OPPOSED
 IDEAS IN THE MIND AT THE SAME TIME, AND STILL RETAIN THE ABILITY TO FUNCTION.
 ONE SHOULD, FOR EXAMPLE, BE ABLE TO SEE THAT THINGS ARE HOPELESS AND YET BE
 DETERMINED TO MAKE THEM OTHERWISE.

                                                       -- F. SCOTT FITZGERALD
 Job cpu time:       0 days 18 hours 24 minutes 26.2 seconds.
 Elapsed time:       0 days  5 hours  8 minutes 43.4 seconds.
 File lengths (MBytes):  RWF=    108 Int=      0 D2E=      0 Chk=     17 Scr=      1
 Normal termination of Gaussian 16 at Tue Mar 15 05:22:06 2022.
