 Entering Gaussian System, Link 0=g16
 Input=2,3,3prime,4,4prime,5,5prime,6-Octachlorobiphenyl.gjf
 Output=2,3,3prime,4,4prime,5,5prime,6-Octachlorobiphenyl.log
 Initial command:
 /home/apps/g16/l1.exe "./Gau-80079.inp" -scrdir="./"
 Entering Link 1 = /home/apps/g16/l1.exe PID=     80080.
  
 Copyright (c) 1988-2017, Gaussian, Inc.  All Rights Reserved.
  
 This is part of the Gaussian(R) 16 program.  It is based on
 the Gaussian(R) 09 system (copyright 2009, Gaussian, Inc.),
 the Gaussian(R) 03 system (copyright 2003, Gaussian, Inc.),
 the Gaussian(R) 98 system (copyright 1998, Gaussian, Inc.),
 the Gaussian(R) 94 system (copyright 1995, Gaussian, Inc.),
 the Gaussian 92(TM) system (copyright 1992, Gaussian, Inc.),
 the Gaussian 90(TM) system (copyright 1990, Gaussian, Inc.),
 the Gaussian 88(TM) system (copyright 1988, Gaussian, Inc.),
 the Gaussian 86(TM) system (copyright 1986, Carnegie Mellon
 University), and the Gaussian 82(TM) system (copyright 1983,
 Carnegie Mellon University). Gaussian is a federally registered
 trademark of Gaussian, Inc.
  
 This software contains proprietary and confidential information,
 including trade secrets, belonging to Gaussian, Inc.
  
 This software is provided under written license and may be
 used, copied, transmitted, or stored only in accord with that
 written license.
  
 The following legend is applicable only to US Government
 contracts under FAR:
  
                    RESTRICTED RIGHTS LEGEND
  
 Use, reproduction and disclosure by the US Government is
 subject to restrictions as set forth in subparagraphs (a)
 and (c) of the Commercial Computer Software - Restricted
 Rights clause in FAR 52.227-19.
  
 Gaussian, Inc.
 340 Quinnipiac St., Bldg. 40, Wallingford CT 06492
  
  
 ---------------------------------------------------------------
 Warning -- This program may not be used in any manner that
 competes with the business of Gaussian, Inc. or will provide
 assistance to any competitor of Gaussian, Inc.  The licensee
 of this program is prohibited from giving any competitor of
 Gaussian, Inc. access to this program.  By using this program,
 the user acknowledges that Gaussian, Inc. is engaged in the
 business of creating and licensing software in the field of
 computational chemistry and represents and warrants to the
 licensee that it is not a competitor of Gaussian, Inc. and that
 it will not use this program in any manner prohibited above.
 ---------------------------------------------------------------
  

 Cite this work as:
 Gaussian 16, Revision B.01,
 M. J. Frisch, G. W. Trucks, H. B. Schlegel, G. E. Scuseria, 
 M. A. Robb, J. R. Cheeseman, G. Scalmani, V. Barone, 
 G. A. Petersson, H. Nakatsuji, X. Li, M. Caricato, A. V. Marenich, 
 J. Bloino, B. G. Janesko, R. Gomperts, B. Mennucci, H. P. Hratchian, 
 J. V. Ortiz, A. F. Izmaylov, J. L. Sonnenberg, D. Williams-Young, 
 F. Ding, F. Lipparini, F. Egidi, J. Goings, B. Peng, A. Petrone, 
 T. Henderson, D. Ranasinghe, V. G. Zakrzewski, J. Gao, N. Rega, 
 G. Zheng, W. Liang, M. Hada, M. Ehara, K. Toyota, R. Fukuda, 
 J. Hasegawa, M. Ishida, T. Nakajima, Y. Honda, O. Kitao, H. Nakai, 
 T. Vreven, K. Throssell, J. A. Montgomery, Jr., J. E. Peralta, 
 F. Ogliaro, M. J. Bearpark, J. J. Heyd, E. N. Brothers, K. N. Kudin, 
 V. N. Staroverov, T. A. Keith, R. Kobayashi, J. Normand, 
 K. Raghavachari, A. P. Rendell, J. C. Burant, S. S. Iyengar, 
 J. Tomasi, M. Cossi, J. M. Millam, M. Klene, C. Adamo, R. Cammi, 
 J. W. Ochterski, R. L. Martin, K. Morokuma, O. Farkas, 
 J. B. Foresman, and D. J. Fox, Gaussian, Inc., Wallingford CT, 2016.
 
 ******************************************
 Gaussian 16:  EM64L-G16RevB.01 20-Dec-2017
                28-Mar-2022 
 ******************************************
 %mem=10GB
 %nprocshared=4
 Will use up to    4 processors via shared memory.
 --------------------------------
 # opt b3lyp/6-311+g(d,p) scf=xqc
 --------------------------------
 1/18=20,19=15,26=3,38=1/1,3;
 2/9=110,12=2,17=6,18=5,40=1/2;
 3/5=4,6=6,7=111,11=2,25=1,30=1,71=1,74=-5/1,2,3;
 4//1;
 5/5=2,8=3,13=1,38=5/2,8;
 6/7=2,8=2,9=2,10=2,28=1/1;
 7//1,2,3,16;
 1/18=20,19=15,26=3/3(2);
 2/9=110/2;
 99//99;
 2/9=110/2;
 3/5=4,6=6,7=111,11=2,25=1,30=1,71=1,74=-5/1,2,3;
 4/5=5,16=3,69=1/1;
 5/5=2,8=3,13=1,38=5/2,8;
 7//1,2,3,16;
 1/18=20,19=15,26=3/3(-5);
 2/9=110/2;
 6/7=2,8=2,9=2,10=2,19=2,28=1/1;
 99/9=1/99;
 -------------------
 Title Card Required
 -------------------
 Symbolic Z-matrix:
 Charge =  0 Multiplicity = 1
 C                     0.14914  -0.63784  -0.00285 
 C                     1.48152  -0.60795  -0.4362 
 C                     2.18941   0.6015   -0.44227 
 C                     1.56492   1.78107  -0.015 
 C                     0.23254   1.75118   0.41835 
 C                    -0.47535   0.54173   0.42442 
 C                    -0.62877  -1.9669    0.00382 
 C                    -0.00428  -3.14647  -0.42345 
 C                    -0.71217  -4.35592  -0.41738 
 C                    -2.04455  -4.38581   0.01597 
 C                    -2.66904  -3.20624   0.44325 
 C                    -1.96115  -1.99679   0.43717 
 H                     1.95833  -1.50857  -0.76243 
 H                    -1.49265   0.51891   0.75529 
 Cl                   -2.74543  -0.51539   0.97378 
 Cl                   -4.34236  -3.24378   0.98749 
 Cl                   -0.55174   3.23258   0.95495 
 Cl                   -2.93359  -5.90474   0.0236 
 Cl                    2.45396   3.3      -0.02262 
 Cl                    0.07211  -5.83732  -0.95399 
 Cl                    3.86273   0.63903  -0.9865 
 Cl                    1.66904  -3.10894  -0.96769 
 

 GradGradGradGradGradGradGradGradGradGradGradGradGradGradGradGradGradGrad
 Berny optimization.
 Initialization pass.
                           ----------------------------
                           !    Initial Parameters    !
                           ! (Angstroms and Degrees)  !
 --------------------------                            --------------------------
 ! Name  Definition              Value          Derivative Info.                !
 --------------------------------------------------------------------------------
 ! R1    R(1,2)                  1.4014         estimate D2E/DX2                !
 ! R2    R(1,6)                  1.4014         estimate D2E/DX2                !
 ! R3    R(1,7)                  1.54           estimate D2E/DX2                !
 ! R4    R(2,3)                  1.4014         estimate D2E/DX2                !
 ! R5    R(2,13)                 1.07           estimate D2E/DX2                !
 ! R6    R(3,4)                  1.4014         estimate D2E/DX2                !
 ! R7    R(3,21)                 1.76           estimate D2E/DX2                !
 ! R8    R(4,5)                  1.4014         estimate D2E/DX2                !
 ! R9    R(4,19)                 1.76           estimate D2E/DX2                !
 ! R10   R(5,6)                  1.4014         estimate D2E/DX2                !
 ! R11   R(5,17)                 1.76           estimate D2E/DX2                !
 ! R12   R(6,14)                 1.07           estimate D2E/DX2                !
 ! R13   R(7,8)                  1.4014         estimate D2E/DX2                !
 ! R14   R(7,12)                 1.4014         estimate D2E/DX2                !
 ! R15   R(8,9)                  1.4014         estimate D2E/DX2                !
 ! R16   R(8,22)                 1.76           estimate D2E/DX2                !
 ! R17   R(9,10)                 1.4014         estimate D2E/DX2                !
 ! R18   R(9,20)                 1.76           estimate D2E/DX2                !
 ! R19   R(10,11)                1.4014         estimate D2E/DX2                !
 ! R20   R(10,18)                1.76           estimate D2E/DX2                !
 ! R21   R(11,12)                1.4014         estimate D2E/DX2                !
 ! R22   R(11,16)                1.76           estimate D2E/DX2                !
 ! R23   R(12,15)                1.76           estimate D2E/DX2                !
 ! A1    A(2,1,6)              120.0            estimate D2E/DX2                !
 ! A2    A(2,1,7)              120.0            estimate D2E/DX2                !
 ! A3    A(6,1,7)              120.0            estimate D2E/DX2                !
 ! A4    A(1,2,3)              120.0            estimate D2E/DX2                !
 ! A5    A(1,2,13)             120.0            estimate D2E/DX2                !
 ! A6    A(3,2,13)             120.0            estimate D2E/DX2                !
 ! A7    A(2,3,4)              120.0            estimate D2E/DX2                !
 ! A8    A(2,3,21)             120.0            estimate D2E/DX2                !
 ! A9    A(4,3,21)             120.0            estimate D2E/DX2                !
 ! A10   A(3,4,5)              120.0            estimate D2E/DX2                !
 ! A11   A(3,4,19)             120.0            estimate D2E/DX2                !
 ! A12   A(5,4,19)             120.0            estimate D2E/DX2                !
 ! A13   A(4,5,6)              120.0            estimate D2E/DX2                !
 ! A14   A(4,5,17)             120.0            estimate D2E/DX2                !
 ! A15   A(6,5,17)             120.0            estimate D2E/DX2                !
 ! A16   A(1,6,5)              120.0            estimate D2E/DX2                !
 ! A17   A(1,6,14)             120.0            estimate D2E/DX2                !
 ! A18   A(5,6,14)             120.0            estimate D2E/DX2                !
 ! A19   A(1,7,8)              120.0            estimate D2E/DX2                !
 ! A20   A(1,7,12)             120.0            estimate D2E/DX2                !
 ! A21   A(8,7,12)             120.0            estimate D2E/DX2                !
 ! A22   A(7,8,9)              120.0            estimate D2E/DX2                !
 ! A23   A(7,8,22)             120.0            estimate D2E/DX2                !
 ! A24   A(9,8,22)             120.0            estimate D2E/DX2                !
 ! A25   A(8,9,10)             120.0            estimate D2E/DX2                !
 ! A26   A(8,9,20)             120.0            estimate D2E/DX2                !
 ! A27   A(10,9,20)            120.0            estimate D2E/DX2                !
 ! A28   A(9,10,11)            120.0            estimate D2E/DX2                !
 ! A29   A(9,10,18)            120.0            estimate D2E/DX2                !
 ! A30   A(11,10,18)           120.0            estimate D2E/DX2                !
 ! A31   A(10,11,12)           120.0            estimate D2E/DX2                !
 ! A32   A(10,11,16)           120.0            estimate D2E/DX2                !
 ! A33   A(12,11,16)           120.0            estimate D2E/DX2                !
 ! A34   A(7,12,11)            120.0            estimate D2E/DX2                !
 ! A35   A(7,12,15)            120.0            estimate D2E/DX2                !
 ! A36   A(11,12,15)           120.0            estimate D2E/DX2                !
 ! D1    D(6,1,2,3)              0.0001         estimate D2E/DX2                !
 ! D2    D(6,1,2,13)           180.0            estimate D2E/DX2                !
 ! D3    D(7,1,2,3)           -180.0            estimate D2E/DX2                !
 ! D4    D(7,1,2,13)            -0.0001         estimate D2E/DX2                !
 ! D5    D(2,1,6,5)             -0.0001         estimate D2E/DX2                !
 ! D6    D(2,1,6,14)           180.0            estimate D2E/DX2                !
 ! D7    D(7,1,6,5)            180.0            estimate D2E/DX2                !
 ! D8    D(7,1,6,14)             0.0            estimate D2E/DX2                !
 ! D9    D(2,1,7,8)             -0.0001         estimate D2E/DX2                !
 ! D10   D(2,1,7,12)           179.9998         estimate D2E/DX2                !
 ! D11   D(6,1,7,8)            179.9999         estimate D2E/DX2                !
 ! D12   D(6,1,7,12)            -0.0002         estimate D2E/DX2                !
 ! D13   D(1,2,3,4)              0.0            estimate D2E/DX2                !
 ! D14   D(1,2,3,21)           180.0            estimate D2E/DX2                !
 ! D15   D(13,2,3,4)          -179.9999         estimate D2E/DX2                !
 ! D16   D(13,2,3,21)            0.0001         estimate D2E/DX2                !
 ! D17   D(2,3,4,5)             -0.0001         estimate D2E/DX2                !
 ! D18   D(2,3,4,19)           180.0            estimate D2E/DX2                !
 ! D19   D(21,3,4,5)           179.9999         estimate D2E/DX2                !
 ! D20   D(21,3,4,19)            0.0            estimate D2E/DX2                !
 ! D21   D(3,4,5,6)              0.0001         estimate D2E/DX2                !
 ! D22   D(3,4,5,17)          -179.9999         estimate D2E/DX2                !
 ! D23   D(19,4,5,6)          -180.0            estimate D2E/DX2                !
 ! D24   D(19,4,5,17)            0.0            estimate D2E/DX2                !
 ! D25   D(4,5,6,1)              0.0            estimate D2E/DX2                !
 ! D26   D(4,5,6,14)           179.9999         estimate D2E/DX2                !
 ! D27   D(17,5,6,1)           180.0            estimate D2E/DX2                !
 ! D28   D(17,5,6,14)           -0.0001         estimate D2E/DX2                !
 ! D29   D(1,7,8,9)            179.9999         estimate D2E/DX2                !
 ! D30   D(1,7,8,22)             0.0001         estimate D2E/DX2                !
 ! D31   D(12,7,8,9)             0.0001         estimate D2E/DX2                !
 ! D32   D(12,7,8,22)         -179.9998         estimate D2E/DX2                !
 ! D33   D(1,7,12,11)         -179.9999         estimate D2E/DX2                !
 ! D34   D(1,7,12,15)            0.0            estimate D2E/DX2                !
 ! D35   D(8,7,12,11)           -0.0001         estimate D2E/DX2                !
 ! D36   D(8,7,12,15)          179.9999         estimate D2E/DX2                !
 ! D37   D(7,8,9,10)             0.0            estimate D2E/DX2                !
 ! D38   D(7,8,9,20)           180.0            estimate D2E/DX2                !
 ! D39   D(22,8,9,10)          179.9998         estimate D2E/DX2                !
 ! D40   D(22,8,9,20)           -0.0002         estimate D2E/DX2                !
 ! D41   D(8,9,10,11)            0.0            estimate D2E/DX2                !
 ! D42   D(8,9,10,18)         -179.9999         estimate D2E/DX2                !
 ! D43   D(20,9,10,11)         180.0            estimate D2E/DX2                !
 ! D44   D(20,9,10,18)           0.0001         estimate D2E/DX2                !
 ! D45   D(9,10,11,12)           0.0            estimate D2E/DX2                !
 ! D46   D(9,10,11,16)        -179.9998         estimate D2E/DX2                !
 ! D47   D(18,10,11,12)        179.9999         estimate D2E/DX2                !
 ! D48   D(18,10,11,16)          0.0001         estimate D2E/DX2                !
 ! D49   D(10,11,12,7)           0.0            estimate D2E/DX2                !
 ! D50   D(10,11,12,15)       -179.9999         estimate D2E/DX2                !
 ! D51   D(16,11,12,7)         179.9999         estimate D2E/DX2                !
 ! D52   D(16,11,12,15)         -0.0001         estimate D2E/DX2                !
 --------------------------------------------------------------------------------
 Trust Radius=3.00D-01 FncErr=1.00D-07 GrdErr=1.00D-06 EigMax=2.50D+02 EigMin=1.00D-04
 Number of steps in this run=    121 maximum allowed number of steps=    132.
 GradGradGradGradGradGradGradGradGradGradGradGradGradGradGradGradGradGrad

                          Input orientation:                          
 ---------------------------------------------------------------------
 Center     Atomic      Atomic             Coordinates (Angstroms)
 Number     Number       Type             X           Y           Z
 ---------------------------------------------------------------------
      1          6           0        0.149137   -0.637836   -0.002851
      2          6           0        1.481518   -0.607950   -0.436198
      3          6           0        2.189412    0.601501   -0.442270
      4          6           0        1.564925    1.781066   -0.014995
      5          6           0        0.232543    1.751180    0.418349
      6          6           0       -0.475351    0.541729    0.424422
      7          6           0       -0.628767   -1.966903    0.003823
      8          6           0       -0.004280   -3.146468   -0.423452
      9          6           0       -0.712173   -4.355920   -0.417378
     10          6           0       -2.044553   -4.385806    0.015972
     11          6           0       -2.669040   -3.206241    0.443247
     12          6           0       -1.961147   -1.996790    0.437173
     13          1           0        1.958329   -1.508575   -0.762430
     14          1           0       -1.492653    0.518911    0.755291
     15         17           0       -2.745432   -0.515390    0.973785
     16         17           0       -4.342358   -3.243776    0.987490
     17         17           0       -0.551744    3.232581    0.954955
     18         17           0       -2.933586   -5.904741    0.023603
     19         17           0        2.453959    3.299999   -0.022621
     20         17           0        0.072112   -5.837320   -0.953987
     21         17           0        3.862732    0.639034   -0.986504
     22         17           0        1.669040   -3.108935   -0.967686
 ---------------------------------------------------------------------
                    Distance matrix (angstroms):
                    1          2          3          4          5
     1  C    0.000000
     2  C    1.401400   0.000000
     3  C    2.427296   1.401400   0.000000
     4  C    2.802800   2.427296   1.401400   0.000000
     5  C    2.427296   2.802800   2.427296   1.401400   0.000000
     6  C    1.401400   2.427296   2.802800   2.427296   1.401400
     7  C    1.540000   2.548270   3.838989   4.342800   3.838989
     8  C    2.548270   2.941400   4.342800   5.187469   4.975106
     9  C    3.838989   4.342800   5.744200   6.558176   6.235992
    10  C    4.342800   5.187469   6.558176   7.145600   6.558176
    11  C    3.838989   4.975106   6.235992   6.558176   5.744200
    12  C    2.548270   3.813607   4.975106   5.187469   4.342800
    13  H    2.146700   1.070000   2.146700   3.396345   3.872800
    14  H    2.146700   3.396345   3.872800   3.396345   2.146700
    15  Cl   3.057342   4.456874   5.254079   4.983028   3.783409
    16  Cl   5.286324   6.549198   7.713260   7.819846   6.797295
    17  Cl   4.048303   4.562800   4.048303   2.743718   1.760000
    18  Cl   6.102800   6.910901   8.294174   8.905600   8.294174
    19  Cl   4.562800   4.048303   2.743718   1.760000   2.743718
    20  Cl   5.286324   5.440665   6.797295   7.819846   7.713260
    21  Cl   4.048303   2.743718   1.760000   2.743718   4.048303
    22  Cl   3.057342   2.563702   3.783409   4.983028   5.254079
                    6          7          8          9         10
     6  C    0.000000
     7  C    2.548270   0.000000
     8  C    3.813607   1.401400   0.000000
     9  C    4.975106   2.427296   1.401400   0.000000
    10  C    5.187469   2.802800   2.427296   1.401400   0.000000
    11  C    4.342800   2.427296   2.802800   2.427296   1.401400
    12  C    2.941400   1.401400   2.427296   2.802800   2.427296
    13  H    3.396345   2.736837   2.578650   3.918930   4.990735
    14  H    1.070000   2.736837   4.127917   5.074276   4.990735
    15  Cl   2.563702   2.743718   4.048303   4.562800   4.048303
    16  Cl   5.440665   4.048303   4.562800   4.048303   2.743718
    17  Cl   2.743718   5.286324   6.549198   7.713260   7.819846
    18  Cl   6.910901   4.562800   4.048303   2.743718   1.760000
    19  Cl   4.048303   6.102800   6.910901   8.294174   8.905600
    20  Cl   6.549198   4.048303   2.743718   1.760000   2.743718
    21  Cl   4.562800   5.286324   5.440665   6.797295   7.819846
    22  Cl   4.456874   2.743718   1.760000   2.743718   4.048303
                   11         12         13         14         15
    11  C    0.000000
    12  C    1.401400   0.000000
    13  H    5.074276   4.127917   0.000000
    14  H    3.918930   2.578650   4.280590   0.000000
    15  Cl   2.743718   1.760000   5.111382   1.639199   0.000000
    16  Cl   1.760000   2.743718   6.765486   4.725732   3.161400
    17  Cl   6.797295   5.440665   5.632800   2.879094   4.342800
    18  Cl   2.743718   4.048303   6.623817   6.623817   5.475705
    19  Cl   8.294174   6.910901   4.890332   4.890332   6.525618
    20  Cl   4.048303   4.562800   4.725732   6.765486   6.322800
    21  Cl   7.713260   6.549198   2.879094   5.632800   6.988795
    22  Cl   4.562800   4.048303   1.639199   5.111382   5.475705
                   16         17         18         19         20
    16  Cl   0.000000
    17  Cl   7.504200   0.000000
    18  Cl   3.161400   9.488480   0.000000
    19  Cl   9.488480   3.161400  10.665600   0.000000
    20  Cl   5.475705   9.289584   3.161400   9.488480   0.000000
    21  Cl   9.289584   5.475705   9.488480   3.161400   7.504200
    22  Cl   6.322800   6.988795   5.475705   6.525618   3.161400
                   21         22
    21  Cl   0.000000
    22  Cl   4.342800   0.000000
 Stoichiometry    C12H2Cl8
 Framework group  C1[X(C12H2Cl8)]
 Deg. of freedom    60
 Full point group                 C1      NOp   1
 Largest Abelian subgroup         C1      NOp   1
 Largest concise Abelian subgroup C1      NOp   1
                         Standard orientation:                         
 ---------------------------------------------------------------------
 Center     Atomic      Atomic             Coordinates (Angstroms)
 Number     Number       Type             X           Y           Z
 ---------------------------------------------------------------------
      1          6           0       -0.856726    0.000000    0.000002
      2          6           0       -1.557426   -1.213648    0.000000
      3          6           0       -2.958826   -1.213648   -0.000001
      4          6           0       -3.659526    0.000000   -0.000001
      5          6           0       -2.958826    1.213648    0.000003
      6          6           0       -1.557426    1.213648    0.000004
      7          6           0        0.683274    0.000000    0.000003
      8          6           0        1.383974   -1.213648    0.000003
      9          6           0        2.785374   -1.213648    0.000003
     10          6           0        3.486074    0.000000    0.000001
     11          6           0        2.785374    1.213648    0.000001
     12          6           0        1.383974    1.213648    0.000001
     13          1           0       -1.022426   -2.140295   -0.000002
     14          1           0       -1.022426    2.140295    0.000006
     15         17           0        0.503974    2.737853   -0.000002
     16         17           0        3.665374    2.737853   -0.000006
     17         17           0       -3.838826    2.737853    0.000006
     18         17           0        5.246074    0.000000   -0.000002
     19         17           0       -5.419526    0.000000   -0.000004
     20         17           0        3.665374   -2.737853    0.000004
     21         17           0       -3.838826   -2.737853   -0.000005
     22         17           0        0.503974   -2.737853    0.000001
 ---------------------------------------------------------------------
 Rotational constants (GHZ):           0.2932520           0.1052649           0.0774601
 Standard basis: 6-311+G(d,p) (5D, 7F)
 There are   536 symmetry adapted cartesian basis functions of A   symmetry.
 There are   516 symmetry adapted basis functions of A   symmetry.
   516 basis functions,   872 primitive gaussians,   536 cartesian basis functions
   105 alpha electrons      105 beta electrons
       nuclear repulsion energy      2651.3536962895 Hartrees.
 NAtoms=   22 NActive=   22 NUniq=   22 SFac= 1.00D+00 NAtFMM=   60 NAOKFM=F Big=F
 Integral buffers will be    131072 words long.
 Raffenetti 2 integral format.
 Two-electron integral symmetry is turned on.
 One-electron integrals computed using PRISM.
 NBasis=   516 RedAO= T EigKep=  1.21D-06  NBF=   516
 NBsUse=   508 1.00D-06 EigRej=  7.07D-07 NBFU=   508
 ExpMin= 4.38D-02 ExpMax= 1.06D+05 ExpMxC= 3.62D+03 IAcc=3 IRadAn=         5 AccDes= 0.00D+00
 Harris functional with IExCor=  402 and IRadAn=       5 diagonalized for initial guess.
 HarFok:  IExCor=  402 AccDes= 0.00D+00 IRadAn=         5 IDoV= 1 UseB2=F ITyADJ=14
 ICtDFT=  3500011 ScaDFX=  1.000000  1.000000  1.000000  1.000000
 FoFCou: FMM=F IPFlag=           0 FMFlag=      100000 FMFlg1=           0
         NFxFlg=           0 DoJE=T BraDBF=F KetDBF=T FulRan=T
         wScrn=  0.000000 ICntrl=       500 IOpCl=  0 I1Cent=   200000004 NGrid=           0
         NMat0=    1 NMatS0=      1 NMatT0=    0 NMatD0=    1 NMtDS0=    0 NMtDT0=    0
 Petite list used in FoFCou.
 Requested convergence on RMS density matrix=1.00D-08 within  32 cycles.
 Requested convergence on MAX density matrix=1.00D-06.
 Requested convergence on             energy=1.00D-06.
 No special actions if energy rises.
 SCF Done:  E(RB3LYP) =  -4140.24158162     A.U. after   15 cycles
            NFock= 15  Conv=0.86D-08     -V/T= 2.0025
 QCSCF skips out because SCF is already converged.

 **********************************************************************

            Population analysis using the SCF Density.

 **********************************************************************

 Orbital symmetries:
       Occupied  (A) (A) (A) (A) (A) (A) (A) (A) (A) (A) (A) (A)
                 (A) (A) (A) (A) (A) (A) (A) (A) (A) (A) (A) (A)
                 (A) (A) (A) (A) (A) (A) (A) (A) (A) (A) (A) (A)
                 (A) (A) (A) (A) (A) (A) (A) (A) (A) (A) (A) (A)
                 (A) (A) (A) (A) (A) (A) (A) (A) (A) (A) (A) (A)
                 (A) (A) (A) (A) (A) (A) (A) (A) (A) (A) (A) (A)
                 (A) (A) (A) (A) (A) (A) (A) (A) (A) (A) (A) (A)
                 (A) (A) (A) (A) (A) (A) (A) (A) (A) (A) (A) (A)
                 (A) (A) (A) (A) (A) (A) (A) (A) (A)
       Virtual   (A) (A) (A) (A) (A) (A) (A) (A) (A) (A) (A) (A)
                 (A) (A) (A) (A) (A) (A) (A) (A) (A) (A) (A) (A)
                 (A) (A) (A) (A) (A) (A) (A) (A) (A) (A) (A) (A)
                 (A) (A) (A) (A) (A) (A) (A) (A) (A) (A) (A) (A)
                 (A) (A) (A) (A) (A) (A) (A) (A) (A) (A) (A) (A)
                 (A) (A) (A) (A) (A) (A) (A) (A) (A) (A) (A) (A)
                 (A) (A) (A) (A) (A) (A) (A) (A) (A) (A) (A) (A)
                 (A) (A) (A) (A) (A) (A) (A) (A) (A) (A) (A) (A)
                 (A) (A) (A) (A) (A) (A) (A) (A) (A) (A) (A) (A)
                 (A) (A) (A) (A) (A) (A) (A) (A) (A) (A) (A) (A)
                 (A) (A) (A) (A) (A) (A) (A) (A) (A) (A) (A) (A)
                 (A) (A) (A) (A) (A) (A) (A) (A) (A) (A) (A) (A)
                 (A) (A) (A) (A) (A) (A) (A) (A) (A) (A) (A) (A)
                 (A) (A) (A) (A) (A) (A) (A) (A) (A) (A) (A) (A)
                 (A) (A) (A) (A) (A) (A) (A) (A) (A) (A) (A) (A)
                 (A) (A) (A) (A) (A) (A) (A) (A) (A) (A) (A) (A)
                 (A) (A) (A) (A) (A) (A) (A) (A) (A) (A) (A) (A)
                 (A) (A) (A) (A) (A) (A) (A) (A) (A) (A) (A) (A)
                 (A) (A) (A) (A) (A) (A) (A) (A) (A) (A) (A) (A)
                 (A) (A) (A) (A) (A) (A) (A) (A) (A) (A) (A) (A)
                 (A) (A) (A) (A) (A) (A) (A) (A) (A) (A) (A) (A)
                 (A) (A) (A) (A) (A) (A) (A) (A) (A) (A) (A) (A)
                 (A) (A) (A) (A) (A) (A) (A) (A) (A) (A) (A) (A)
                 (A) (A) (A) (A) (A) (A) (A) (A) (A) (A) (A) (A)
                 (A) (A) (A) (A) (A) (A) (A) (A) (A) (A) (A) (A)
                 (A) (A) (A) (A) (A) (A) (A) (A) (A) (A) (A) (A)
                 (A) (A) (A) (A) (A) (A) (A) (A) (A) (A) (A) (A)
                 (A) (A) (A) (A) (A) (A) (A) (A) (A) (A) (A) (A)
                 (A) (A) (A) (A) (A) (A) (A) (A) (A) (A) (A) (A)
                 (A) (A) (A) (A) (A) (A) (A) (A) (A) (A) (A) (A)
                 (A) (A) (A) (A) (A) (A) (A) (A) (A) (A) (A) (A)
                 (A) (A) (A) (A) (A) (A) (A) (A) (A) (A) (A) (A)
                 (A) (A) (A) (A) (A) (A) (A) (A) (A) (A) (A) (A)
                 (A) (A) (A) (A) (A) (A) (A)
 The electronic state is 1-A.
 Alpha  occ. eigenvalues -- -101.59758-101.59758-101.59258-101.59258-101.59258
 Alpha  occ. eigenvalues -- -101.57178-101.57178-101.56929 -10.30109 -10.30101
 Alpha  occ. eigenvalues --  -10.29982 -10.29972 -10.29966 -10.27177 -10.26793
 Alpha  occ. eigenvalues --  -10.26788 -10.26385 -10.23650 -10.19591 -10.19590
 Alpha  occ. eigenvalues --   -9.51524  -9.51524  -9.50668  -9.50668  -9.50662
 Alpha  occ. eigenvalues --   -9.48609  -9.48609  -9.48367  -7.27962  -7.27962
 Alpha  occ. eigenvalues --   -7.27194  -7.27193  -7.27193  -7.26966  -7.26966
 Alpha  occ. eigenvalues --   -7.26930  -7.26930  -7.26145  -7.26145  -7.26134
 Alpha  occ. eigenvalues --   -7.26058  -7.26058  -7.26051  -7.25098  -7.25098
 Alpha  occ. eigenvalues --   -7.24861  -7.24089  -7.24089  -7.24034  -7.24034
 Alpha  occ. eigenvalues --   -7.23860  -7.23769  -0.98432  -0.94434  -0.94326
 Alpha  occ. eigenvalues --   -0.92901  -0.90012  -0.88960  -0.87908  -0.86595
 Alpha  occ. eigenvalues --   -0.86333  -0.84768  -0.79203  -0.77236  -0.75492
 Alpha  occ. eigenvalues --   -0.75199  -0.66555  -0.65321  -0.64481  -0.62644
 Alpha  occ. eigenvalues --   -0.57266  -0.55633  -0.54750  -0.51756  -0.50183
 Alpha  occ. eigenvalues --   -0.50166  -0.49815  -0.48690  -0.47571  -0.47397
 Alpha  occ. eigenvalues --   -0.44805  -0.44528  -0.44244  -0.42766  -0.42623
 Alpha  occ. eigenvalues --   -0.42439  -0.41596  -0.38279  -0.37714  -0.37012
 Alpha  occ. eigenvalues --   -0.36754  -0.36113  -0.35945  -0.35072  -0.35040
 Alpha  occ. eigenvalues --   -0.33896  -0.33825  -0.33626  -0.31492  -0.31410
 Alpha  occ. eigenvalues --   -0.29901  -0.29539  -0.28792  -0.26735  -0.26261
 Alpha virt. eigenvalues --   -0.09104  -0.08264  -0.07909  -0.05018  -0.03591
 Alpha virt. eigenvalues --   -0.03325  -0.02752  -0.01996  -0.01019   0.00902
 Alpha virt. eigenvalues --    0.00922   0.01255   0.01317   0.02081   0.02539
 Alpha virt. eigenvalues --    0.03090   0.03471   0.04995   0.05218   0.05295
 Alpha virt. eigenvalues --    0.05648   0.05982   0.06672   0.06738   0.06740
 Alpha virt. eigenvalues --    0.07226   0.07384   0.07693   0.08212   0.08357
 Alpha virt. eigenvalues --    0.08501   0.08913   0.09190   0.10093   0.10449
 Alpha virt. eigenvalues --    0.10686   0.10734   0.11008   0.11816   0.12025
 Alpha virt. eigenvalues --    0.12823   0.12942   0.13075   0.13416   0.13584
 Alpha virt. eigenvalues --    0.13812   0.14063   0.14606   0.14650   0.14957
 Alpha virt. eigenvalues --    0.15797   0.16227   0.16448   0.16812   0.17039
 Alpha virt. eigenvalues --    0.17360   0.17574   0.17799   0.17859   0.18572
 Alpha virt. eigenvalues --    0.19017   0.19253   0.19875   0.19918   0.20869
 Alpha virt. eigenvalues --    0.20944   0.21186   0.21808   0.22226   0.23609
 Alpha virt. eigenvalues --    0.23890   0.24030   0.24220   0.24340   0.24742
 Alpha virt. eigenvalues --    0.24959   0.25710   0.26190   0.26452   0.26824
 Alpha virt. eigenvalues --    0.26999   0.27033   0.27860   0.27942   0.28794
 Alpha virt. eigenvalues --    0.29083   0.29583   0.30995   0.31085   0.31323
 Alpha virt. eigenvalues --    0.32341   0.32535   0.33117   0.33130   0.35033
 Alpha virt. eigenvalues --    0.35501   0.37130   0.37751   0.39407   0.40414
 Alpha virt. eigenvalues --    0.40493   0.40795   0.42075   0.42964   0.42988
 Alpha virt. eigenvalues --    0.43375   0.43814   0.44103   0.44463   0.44816
 Alpha virt. eigenvalues --    0.45220   0.45552   0.46119   0.46528   0.46974
 Alpha virt. eigenvalues --    0.47428   0.47513   0.47966   0.48284   0.49092
 Alpha virt. eigenvalues --    0.49946   0.49996   0.50160   0.50568   0.52222
 Alpha virt. eigenvalues --    0.52975   0.55054   0.55346   0.56546   0.57088
 Alpha virt. eigenvalues --    0.57424   0.57656   0.58171   0.58317   0.58965
 Alpha virt. eigenvalues --    0.59865   0.60495   0.60586   0.60921   0.61415
 Alpha virt. eigenvalues --    0.61793   0.63507   0.63942   0.65168   0.65174
 Alpha virt. eigenvalues --    0.66004   0.67584   0.67775   0.70941   0.72090
 Alpha virt. eigenvalues --    0.76283   0.76703   0.77791   0.78602   0.79995
 Alpha virt. eigenvalues --    0.80962   0.81184   0.81660   0.82188   0.82264
 Alpha virt. eigenvalues --    0.82636   0.83050   0.83498   0.83546   0.83872
 Alpha virt. eigenvalues --    0.84413   0.84984   0.85106   0.85180   0.85386
 Alpha virt. eigenvalues --    0.85946   0.86108   0.86417   0.86448   0.87181
 Alpha virt. eigenvalues --    0.87661   0.87731   0.87887   0.88048   0.89119
 Alpha virt. eigenvalues --    0.90010   0.90356   0.91861   0.92393   0.92608
 Alpha virt. eigenvalues --    0.92755   0.93456   0.94292   0.94415   0.94621
 Alpha virt. eigenvalues --    0.95002   0.95088   0.96294   0.96672   0.97182
 Alpha virt. eigenvalues --    0.97185   0.97367   0.97654   0.97934   0.98533
 Alpha virt. eigenvalues --    1.00967   1.01938   1.04472   1.07157   1.07610
 Alpha virt. eigenvalues --    1.09356   1.10218   1.10297   1.12263   1.14674
 Alpha virt. eigenvalues --    1.15609   1.15854   1.20638   1.21825   1.21970
 Alpha virt. eigenvalues --    1.22041   1.22649   1.23285   1.25466   1.25646
 Alpha virt. eigenvalues --    1.25919   1.26336   1.26880   1.26892   1.27127
 Alpha virt. eigenvalues --    1.28480   1.29117   1.30284   1.32009   1.35040
 Alpha virt. eigenvalues --    1.36595   1.38782   1.40691   1.42568   1.43369
 Alpha virt. eigenvalues --    1.45899   1.49279   1.49361   1.55638   1.55821
 Alpha virt. eigenvalues --    1.58058   1.59516   1.62536   1.62962   1.64680
 Alpha virt. eigenvalues --    1.65998   1.68399   1.71957   1.72495   1.75629
 Alpha virt. eigenvalues --    1.76580   1.76851   1.79761   1.81066   1.81965
 Alpha virt. eigenvalues --    1.83044   1.84062   1.84199   1.86162   1.87528
 Alpha virt. eigenvalues --    1.87598   1.90476   1.93986   1.95396   1.97305
 Alpha virt. eigenvalues --    1.97581   2.06212   2.08509   2.12441   2.13820
 Alpha virt. eigenvalues --    2.17901   2.18471   2.18701   2.20910   2.20943
 Alpha virt. eigenvalues --    2.21754   2.22118   2.23164   2.25519   2.25698
 Alpha virt. eigenvalues --    2.26113   2.26643   2.26827   2.27778   2.30215
 Alpha virt. eigenvalues --    2.31709   2.32488   2.32827   2.34219   2.34839
 Alpha virt. eigenvalues --    2.36121   2.40410   2.41119   2.42805   2.43080
 Alpha virt. eigenvalues --    2.43134   2.46804   2.47100   2.49492   2.49512
 Alpha virt. eigenvalues --    2.51208   2.53247   2.54930   2.56978   2.59501
 Alpha virt. eigenvalues --    2.59921   2.61210   2.64104   2.66256   2.67860
 Alpha virt. eigenvalues --    2.70566   2.71551   2.72626   2.76996   2.78851
 Alpha virt. eigenvalues --    2.79015   2.79804   2.81981   2.84254   2.89259
 Alpha virt. eigenvalues --    2.91796   2.92939   2.98258   3.04171   3.06655
 Alpha virt. eigenvalues --    3.08039   3.09083   3.09193   3.11546   3.13966
 Alpha virt. eigenvalues --    3.15679   3.16225   3.20956   3.21057   3.24045
 Alpha virt. eigenvalues --    3.24557   3.38483   3.40149   3.46492   3.49715
 Alpha virt. eigenvalues --    3.60688   3.68179   3.70594   3.72711   3.86453
 Alpha virt. eigenvalues --    3.87480   4.02379   4.18145   4.40196   4.78545
 Alpha virt. eigenvalues --    4.83226   9.71404   9.74196   9.77306   9.78743
 Alpha virt. eigenvalues --    9.78806   9.80598   9.86682   9.86837  23.22589
 Alpha virt. eigenvalues --   23.45554  23.75909  23.77245  23.84282  23.84890
 Alpha virt. eigenvalues --   23.91033  23.92196  23.94886  23.98832  24.03986
 Alpha virt. eigenvalues --   24.10320  25.73409  25.76711  25.77099  25.80672
 Alpha virt. eigenvalues --   25.80895  25.85880  25.89216  25.91321  26.08740
 Alpha virt. eigenvalues --   26.09207  26.12289  26.14483  26.16580  26.20005
 Alpha virt. eigenvalues --   26.42040  26.47566  26.52865  26.58283  26.63309
 Alpha virt. eigenvalues --   26.75028  26.80942  26.81665  26.87402  27.06750
 Alpha virt. eigenvalues --  215.70419 215.73005 215.76875 215.78413 215.78503
 Alpha virt. eigenvalues --  215.80342 215.89167 215.89524
          Condensed to atoms (all electrons):
               1          2          3          4          5          6
     1  C   30.742503   0.749268  -4.516766   3.099021  -4.516765   0.749268
     2  C    0.749268  13.536059   2.306190  -6.855646   3.190338   2.182319
     3  C   -4.516766   2.306190  18.397850  -4.809566  -0.775415   3.190338
     4  C    3.099021  -6.855646  -4.809566  26.362789  -4.809567  -6.855646
     5  C   -4.516765   3.190338  -0.775415  -4.809567  18.397850   2.306190
     6  C    0.749268   2.182319   3.190338  -6.855646   2.306190  13.536059
     7  C   10.279592   0.021268  -2.981692  -1.032630  -2.981692   0.021268
     8  C   -4.696024  -1.713706  -0.545269   0.451295  -2.801220  -2.917683
     9  C   -7.245827  -0.209569  -0.009630   0.058450  -0.946098  -2.163716
    10  C   -2.655394  -0.776101  -0.411007   0.167418  -0.411007  -0.776101
    11  C   -7.245827  -2.163716  -0.946098   0.058450  -0.009630  -0.209569
    12  C   -4.696023  -2.917683  -2.801220   0.451295  -0.545269  -1.713706
    13  H   -0.143293   0.363519   0.028734   0.116099  -0.066680  -0.059878
    14  H   -0.143293  -0.059878  -0.066680   0.116099   0.028734   0.363519
    15  Cl   0.019212   0.083580   0.299482  -0.086001  -0.833665  -0.978941
    16  Cl  -0.015254  -0.027477   0.007038  -0.012044   0.035846   0.049190
    17  Cl  -0.944132   0.374061  -0.097151  -0.444412   0.429111   0.459491
    18  Cl  -0.210171  -0.038922  -0.004621   0.001092  -0.004621  -0.038922
    19  Cl   0.114533  -0.485096  -0.028167   0.171509  -0.028167  -0.485096
    20  Cl  -0.015254   0.049190   0.035846  -0.012044   0.007038  -0.027477
    21  Cl  -0.944132   0.459491   0.429111  -0.444412  -0.097151   0.374061
    22  Cl   0.019212  -0.978941  -0.833665  -0.086001   0.299482   0.083580
               7          8          9         10         11         12
     1  C   10.279592  -4.696024  -7.245827  -2.655394  -7.245827  -4.696023
     2  C    0.021268  -1.713706  -0.209569  -0.776101  -2.163716  -2.917683
     3  C   -2.981692  -0.545269  -0.009630  -0.411007  -0.946098  -2.801220
     4  C   -1.032630   0.451295   0.058450   0.167418   0.058450   0.451295
     5  C   -2.981692  -2.801220  -0.946098  -0.411007  -0.009630  -0.545269
     6  C    0.021268  -2.917683  -2.163716  -0.776101  -0.209569  -1.713706
     7  C   31.179937  -3.541822 -10.344557   3.663158 -10.344557  -3.541822
     8  C   -3.541822  17.619781   0.878917  -6.501387   5.522590   5.259993
     9  C  -10.344557   0.878917  22.239775  -3.501471   1.103817   5.522590
    10  C    3.663158  -6.501387  -3.501471  27.441294  -3.501472  -6.501387
    11  C  -10.344557   5.522590   1.103817  -3.501472  22.239776   0.878917
    12  C   -3.541822   5.259993   5.522590  -6.501387   0.878917  17.619781
    13  H   -0.021000   0.180250   0.018972   0.026722  -0.014064   0.032416
    14  H   -0.021000   0.032416  -0.014064   0.026722   0.018972   0.180250
    15  Cl  -0.303361   0.164557   0.701829  -0.139944   0.509542  -1.091456
    16  Cl  -0.923884   0.434603   0.022540  -0.643576  -0.568819   0.911701
    17  Cl  -0.303842  -0.156805  -0.029346  -0.014317  -0.026915  -0.054895
    18  Cl   0.017378  -0.811905   0.146069   0.837892   0.146069  -0.811905
    19  Cl  -0.018266  -0.022852   0.001708  -0.003950   0.001708  -0.022852
    20  Cl  -0.923884   0.911701  -0.568819  -0.643576   0.022540   0.434603
    21  Cl  -0.303842  -0.054895  -0.026915  -0.014317  -0.029346  -0.156805
    22  Cl  -0.303361  -1.091456   0.509542  -0.139944   0.701829   0.164557
              13         14         15         16         17         18
     1  C   -0.143293  -0.143293   0.019212  -0.015254  -0.944132  -0.210171
     2  C    0.363519  -0.059878   0.083580  -0.027477   0.374061  -0.038922
     3  C    0.028734  -0.066680   0.299482   0.007038  -0.097151  -0.004621
     4  C    0.116099   0.116099  -0.086001  -0.012044  -0.444412   0.001092
     5  C   -0.066680   0.028734  -0.833665   0.035846   0.429111  -0.004621
     6  C   -0.059878   0.363519  -0.978941   0.049190   0.459491  -0.038922
     7  C   -0.021000  -0.021000  -0.303361  -0.923884  -0.303842   0.017378
     8  C    0.180250   0.032416   0.164557   0.434603  -0.156805  -0.811905
     9  C    0.018972  -0.014064   0.701829   0.022540  -0.029346   0.146069
    10  C    0.026722   0.026722  -0.139944  -0.643576  -0.014317   0.837892
    11  C   -0.014064   0.018972   0.509542  -0.568819  -0.026915   0.146069
    12  C    0.032416   0.180250  -1.091456   0.911701  -0.054895  -0.811905
    13  H    0.695111  -0.000135   0.002032  -0.000299   0.000548   0.000720
    14  H   -0.000135   0.695111  -0.268338   0.003597  -0.036513   0.000720
    15  Cl   0.002032  -0.268338  18.653686  -0.373086  -0.079214  -0.000079
    16  Cl  -0.000299   0.003597  -0.373086  17.697873   0.001953  -0.307935
    17  Cl   0.000548  -0.036513  -0.079214   0.001953  17.622147  -0.000079
    18  Cl   0.000720   0.000720  -0.000079  -0.307935  -0.000079  17.697410
    19  Cl   0.002164   0.002164   0.000575   0.000052  -0.247812  -0.000012
    20  Cl   0.003597  -0.000299   0.017478  -0.004778   0.000124  -0.307935
    21  Cl  -0.036513   0.000548   0.007392   0.000124   0.008394  -0.000079
    22  Cl  -0.268338   0.002032  -0.060803   0.017478   0.007392  -0.000079
              19         20         21         22
     1  C    0.114533  -0.015254  -0.944132   0.019212
     2  C   -0.485096   0.049190   0.459491  -0.978941
     3  C   -0.028167   0.035846   0.429111  -0.833665
     4  C    0.171509  -0.012044  -0.444412  -0.086001
     5  C   -0.028167   0.007038  -0.097151   0.299482
     6  C   -0.485096  -0.027477   0.374061   0.083580
     7  C   -0.018266  -0.923884  -0.303842  -0.303361
     8  C   -0.022852   0.911701  -0.054895  -1.091456
     9  C    0.001708  -0.568819  -0.026915   0.509542
    10  C   -0.003950  -0.643576  -0.014317  -0.139944
    11  C    0.001708   0.022540  -0.029346   0.701829
    12  C   -0.022852   0.434603  -0.156805   0.164557
    13  H    0.002164   0.003597  -0.036513  -0.268338
    14  H    0.002164  -0.000299   0.000548   0.002032
    15  Cl   0.000575   0.017478   0.007392  -0.060803
    16  Cl   0.000052  -0.004778   0.000124   0.017478
    17  Cl  -0.247812   0.000124   0.008394   0.007392
    18  Cl  -0.000012  -0.307935  -0.000079  -0.000079
    19  Cl  17.616801   0.000052  -0.247812   0.000575
    20  Cl   0.000052  17.697873   0.001953  -0.373086
    21  Cl  -0.247812   0.001953  17.622147  -0.079214
    22  Cl   0.000575  -0.373086  -0.079214  18.653686
 Mulliken charges:
               1
     1  C   -1.784452
     2  C   -1.088549
     3  C    0.132357
     4  C    0.394454
     5  C    0.132357
     6  C   -1.088549
     7  C   -1.291389
     8  C   -0.601078
     9  C   -0.144195
    10  C    0.471744
    11  C   -0.144195
    12  C   -0.601078
    13  H    0.139315
    14  H    0.139315
    15  Cl   0.755525
    16  Cl   0.695157
    17  Cl   0.532215
    18  Cl   0.689914
    19  Cl   0.678238
    20  Cl   0.695157
    21  Cl   0.532215
    22  Cl   0.755525
 Sum of Mulliken charges =  -0.00000
 Mulliken charges with hydrogens summed into heavy atoms:
               1
     1  C   -1.784452
     2  C   -0.949234
     3  C    0.132357
     4  C    0.394454
     5  C    0.132357
     6  C   -0.949234
     7  C   -1.291389
     8  C   -0.601078
     9  C   -0.144195
    10  C    0.471744
    11  C   -0.144195
    12  C   -0.601078
    15  Cl   0.755525
    16  Cl   0.695157
    17  Cl   0.532215
    18  Cl   0.689914
    19  Cl   0.678238
    20  Cl   0.695157
    21  Cl   0.532215
    22  Cl   0.755525
 Electronic spatial extent (au):  <R**2>=          11780.6300
 Charge=             -0.0000 electrons
 Dipole moment (field-independent basis, Debye):
    X=              2.4650    Y=              0.0000    Z=              0.0000  Tot=              2.4650
 Quadrupole moment (field-independent basis, Debye-Ang):
   XX=           -181.1886   YY=           -167.2131   ZZ=           -170.4422
   XY=             -0.0000   XZ=             -0.0000   YZ=              0.0000
 Traceless Quadrupole moment (field-independent basis, Debye-Ang):
   XX=             -8.2406   YY=              5.7349   ZZ=              2.5057
   XY=             -0.0000   XZ=             -0.0000   YZ=              0.0000
 Octapole moment (field-independent basis, Debye-Ang**2):
  XXX=             58.7477  YYY=              0.0000  ZZZ=             -0.0001  XYY=              6.7430
  XXY=              0.0000  XXZ=             -0.0001  XZZ=              3.7676  YZZ=             -0.0000
  YYZ=             -0.0001  XYZ=             -0.0000
 Hexadecapole moment (field-independent basis, Debye-Ang**3):
 XXXX=         -11080.9941 YYYY=          -3854.4828 ZZZZ=           -196.5850 XXXY=             -0.0000
 XXXZ=             -0.0004 YYYX=             -0.0000 YYYZ=             -0.0001 ZZZX=             -0.0000
 ZZZY=             -0.0000 XXYY=          -2489.3371 XXZZ=          -1911.3204 YYZZ=           -715.8912
 XXYZ=             -0.0001 YYXZ=             -0.0001 ZZXY=             -0.0000
 N-N= 2.651353696290D+03 E-N=-1.511571071666D+04  KE= 4.130086581606D+03
 Calling FoFJK, ICntrl=      2127 FMM=F ISym2X=0 I1Cent= 0 IOpClX= 0 NMat=1 NMatS=1 NMatT=0.
 ***** Axes restored to original set *****
 -------------------------------------------------------------------
 Center     Atomic                   Forces (Hartrees/Bohr)
 Number     Number              X              Y              Z
 -------------------------------------------------------------------
      1        6          -0.011418989   -0.019509519    0.000097876
      2        6           0.008344862    0.053861323    0.007366563
      3        6          -0.011859736   -0.002965070    0.003350479
      4        6           0.008143074    0.013912728   -0.000070012
      5        6           0.003207638   -0.011817303   -0.003276146
      6        6           0.042842602    0.033593562   -0.007805708
      7        6           0.023699819    0.040491588   -0.000203237
      8        6          -0.006100399   -0.002653632    0.001511555
      9        6           0.008868455   -0.008912243   -0.004595647
     10        6          -0.004411601   -0.007537371    0.000037922
     11        6          -0.012093054    0.003402853    0.004623436
     12        6           0.000666962   -0.006629530   -0.001464909
     13        1           0.005281751    0.048805240    0.007425960
     14        1           0.039933830    0.028446806   -0.007814192
     15       17          -0.081743709   -0.062113581    0.015265883
     16       17           0.010439377   -0.000173754   -0.003472072
     17       17          -0.000620306   -0.007455701   -0.001195856
     18       17           0.005832037    0.009964219   -0.000050110
     19       17          -0.003378145   -0.005771644    0.000028995
     20       17          -0.005248292    0.009042904    0.003427440
     21       17          -0.006191564   -0.004182536    0.001254316
     22       17          -0.014194612   -0.101799337   -0.014442534
 -------------------------------------------------------------------
 Cartesian Forces:  Max     0.101799337 RMS     0.023639491

 GradGradGradGradGradGradGradGradGradGradGradGradGradGradGradGradGradGrad
 Berny optimization.
 FormGI is forming the generalized inverse of G from B-inverse, IUseBI=4.
 Internal  Forces:  Max     0.189891813 RMS     0.048312728
 Search for a local minimum.
 Step number   1 out of a maximum of  121
 All quantities printed in internal units (Hartrees-Bohrs-Radians)
 Mixed Optimization -- RFO/linear search
 Second derivative matrix not updated -- first step.
 ITU=  0
     Eigenvalues ---    0.00237   0.01506   0.01506   0.02070   0.02070
     Eigenvalues ---    0.02070   0.02070   0.02070   0.02070   0.02070
     Eigenvalues ---    0.02070   0.02070   0.02070   0.02070   0.02070
     Eigenvalues ---    0.02070   0.02070   0.02070   0.02070   0.16000
     Eigenvalues ---    0.16000   0.23478   0.23493   0.25000   0.25000
     Eigenvalues ---    0.25000   0.25000   0.25000   0.25000   0.25000
     Eigenvalues ---    0.25000   0.25000   0.25000   0.25000   0.25000
     Eigenvalues ---    0.25000   0.25000   0.28519   0.29539   0.29539
     Eigenvalues ---    0.29539   0.29539   0.29539   0.29539   0.29539
     Eigenvalues ---    0.29539   0.37230   0.37230   0.41554   0.41716
     Eigenvalues ---    0.41797   0.41797   0.45389   0.45389   0.45389
     Eigenvalues ---    0.45389   0.45389   0.45389   0.45389   0.45389
 RFO step:  Lambda=-3.86874238D-01 EMin= 2.36824243D-03
 Linear search not attempted -- first point.
 Maximum step size (   0.300) exceeded in Quadratic search.
    -- Step size scaled by   0.393
 Iteration  1 RMS(Cart)=  0.09730395 RMS(Int)=  0.00386835
 Iteration  2 RMS(Cart)=  0.00438390 RMS(Int)=  0.00015665
 Iteration  3 RMS(Cart)=  0.00000725 RMS(Int)=  0.00015662
 Iteration  4 RMS(Cart)=  0.00000000 RMS(Int)=  0.00015662
 Variable       Old X    -DE/DX   Delta X   Delta X   Delta X     New X
                                 (Linear)    (Quad)   (Total)
    R1        2.64826   0.02991   0.00000   0.01446   0.01461   2.66287
    R2        2.64826   0.02991   0.00000   0.01446   0.01461   2.66287
    R3        2.91018   0.14706   0.00000   0.08597   0.08597   2.99615
    R4        2.64826  -0.01059   0.00000  -0.00495  -0.00495   2.64331
    R5        2.02201  -0.04099   0.00000  -0.02121  -0.02121   2.00079
    R6        2.64826  -0.03336   0.00000  -0.01608  -0.01622   2.63204
    R7        3.32592  -0.00636   0.00000  -0.00366  -0.00366   3.32225
    R8        2.64826  -0.03336   0.00000  -0.01608  -0.01622   2.63204
    R9        3.32592  -0.00669   0.00000  -0.00385  -0.00385   3.32207
   R10        2.64826  -0.01059   0.00000  -0.00495  -0.00495   2.64331
   R11        3.32592  -0.00636   0.00000  -0.00366  -0.00366   3.32225
   R12        2.02201  -0.04099   0.00000  -0.02121  -0.02121   2.00079
   R13        2.64826   0.13677   0.00000   0.06589   0.06619   2.71446
   R14        2.64826   0.13677   0.00000   0.06589   0.06619   2.71446
   R15        2.64826  -0.00335   0.00000  -0.00157  -0.00157   2.64669
   R16        3.32592  -0.01120   0.00000  -0.00645  -0.00645   3.31947
   R17        2.64826  -0.05349   0.00000  -0.02698  -0.02729   2.62097
   R18        3.32592  -0.01100   0.00000  -0.00633  -0.00633   3.31959
   R19        2.64826  -0.05349   0.00000  -0.02698  -0.02729   2.62097
   R20        3.32592  -0.01155   0.00000  -0.00665  -0.00665   3.31927
   R21        2.64826  -0.00335   0.00000  -0.00157  -0.00157   2.64669
   R22        3.32592  -0.01100   0.00000  -0.00633  -0.00633   3.31959
   R23        3.32592  -0.01120   0.00000  -0.00645  -0.00645   3.31947
    A1        2.09440  -0.10847   0.00000  -0.06614  -0.06584   2.02856
    A2        2.09440   0.05424   0.00000   0.03307   0.03292   2.12731
    A3        2.09440   0.05424   0.00000   0.03307   0.03292   2.12731
    A4        2.09440   0.05287   0.00000   0.03435   0.03449   2.12889
    A5        2.09440   0.00189   0.00000   0.00317   0.00310   2.09750
    A6        2.09440  -0.05476   0.00000  -0.03752  -0.03759   2.05680
    A7        2.09440   0.01697   0.00000   0.00928   0.00913   2.10352
    A8        2.09440  -0.01532   0.00000  -0.00886  -0.00878   2.08561
    A9        2.09440  -0.00165   0.00000  -0.00042  -0.00034   2.09405
   A10        2.09440  -0.03120   0.00000  -0.02110  -0.02140   2.07299
   A11        2.09440   0.01560   0.00000   0.01055   0.01070   2.10510
   A12        2.09440   0.01560   0.00000   0.01055   0.01070   2.10510
   A13        2.09440   0.01697   0.00000   0.00928   0.00913   2.10352
   A14        2.09440  -0.00165   0.00000  -0.00042  -0.00034   2.09405
   A15        2.09440  -0.01532   0.00000  -0.00886  -0.00878   2.08561
   A16        2.09440   0.05287   0.00000   0.03435   0.03449   2.12889
   A17        2.09440   0.00189   0.00000   0.00317   0.00310   2.09750
   A18        2.09440  -0.05476   0.00000  -0.03752  -0.03759   2.05680
   A19        2.09440   0.06806   0.00000   0.03932   0.03899   2.13338
   A20        2.09440   0.06806   0.00000   0.03932   0.03899   2.13338
   A21        2.09440  -0.13613   0.00000  -0.07863  -0.07798   2.01642
   A22        2.09440   0.03659   0.00000   0.02524   0.02555   2.11995
   A23        2.09440   0.15330   0.00000   0.09323   0.09308   2.18747
   A24        2.09440  -0.18989   0.00000  -0.11848  -0.11863   1.97576
   A25        2.09440   0.03805   0.00000   0.02080   0.02048   2.11488
   A26        2.09440  -0.01834   0.00000  -0.00998  -0.00982   2.08458
   A27        2.09440  -0.01971   0.00000  -0.01083  -0.01067   2.08373
   A28        2.09440  -0.01315   0.00000  -0.01345  -0.01409   2.08030
   A29        2.09440   0.00658   0.00000   0.00673   0.00705   2.10144
   A30        2.09440   0.00658   0.00000   0.00673   0.00705   2.10144
   A31        2.09440   0.03805   0.00000   0.02080   0.02048   2.11488
   A32        2.09440  -0.01971   0.00000  -0.01083  -0.01067   2.08373
   A33        2.09440  -0.01834   0.00000  -0.00998  -0.00982   2.08458
   A34        2.09440   0.03659   0.00000   0.02524   0.02555   2.11995
   A35        2.09440   0.15330   0.00000   0.09323   0.09308   2.18747
   A36        2.09440  -0.18989   0.00000  -0.11848  -0.11863   1.97576
    D1        0.00000   0.00000   0.00000   0.00000   0.00000   0.00000
    D2        3.14159  -0.00000   0.00000   0.00000   0.00000   3.14159
    D3       -3.14159  -0.00000   0.00000  -0.00000  -0.00000  -3.14159
    D4       -0.00000  -0.00000   0.00000  -0.00000  -0.00000  -0.00000
    D5       -0.00000  -0.00000   0.00000  -0.00000  -0.00000  -0.00000
    D6        3.14159  -0.00000   0.00000  -0.00000  -0.00000   3.14159
    D7        3.14159   0.00000   0.00000   0.00000   0.00000   3.14159
    D8        0.00000  -0.00000   0.00000  -0.00000  -0.00000  -0.00000
    D9       -0.00000  -0.00000   0.00000  -0.00000  -0.00000  -0.00000
   D10        3.14159  -0.00000   0.00000  -0.00000  -0.00000   3.14159
   D11        3.14159  -0.00000   0.00000  -0.00000  -0.00000   3.14159
   D12       -0.00000  -0.00000   0.00000  -0.00000  -0.00000  -0.00000
   D13        0.00000  -0.00000   0.00000  -0.00000  -0.00000   0.00000
   D14        3.14159  -0.00000   0.00000  -0.00000  -0.00000   3.14159
   D15       -3.14159  -0.00000   0.00000  -0.00000  -0.00000  -3.14159
   D16        0.00000  -0.00000   0.00000  -0.00000  -0.00000   0.00000
   D17       -0.00000  -0.00000   0.00000   0.00000  -0.00000  -0.00000
   D18        3.14159   0.00000   0.00000   0.00000   0.00000   3.14159
   D19        3.14159  -0.00000   0.00000  -0.00000  -0.00000   3.14159
   D20        0.00000  -0.00000   0.00000  -0.00000  -0.00000   0.00000
   D21        0.00000   0.00000   0.00000   0.00000   0.00000   0.00000
   D22       -3.14159   0.00000   0.00000   0.00000   0.00000  -3.14159
   D23       -3.14159  -0.00000   0.00000  -0.00000  -0.00000  -3.14159
   D24        0.00000   0.00000   0.00000   0.00000   0.00000   0.00000
   D25       -0.00000   0.00000   0.00000   0.00000   0.00000  -0.00000
   D26        3.14159   0.00000   0.00000   0.00000   0.00000   3.14159
   D27        3.14159  -0.00000   0.00000  -0.00000  -0.00000   3.14159
   D28       -0.00000   0.00000   0.00000   0.00000   0.00000  -0.00000
   D29        3.14159   0.00000   0.00000   0.00000   0.00000   3.14159
   D30        0.00000   0.00000   0.00000   0.00000   0.00000   0.00000
   D31        0.00000   0.00000   0.00000   0.00000   0.00000   0.00000
   D32       -3.14159  -0.00000   0.00000  -0.00000  -0.00000  -3.14159
   D33       -3.14159  -0.00000   0.00000  -0.00000  -0.00000  -3.14159
   D34        0.00000  -0.00000   0.00000  -0.00000  -0.00000  -0.00000
   D35       -0.00000   0.00000   0.00000   0.00000   0.00000  -0.00000
   D36        3.14159  -0.00000   0.00000  -0.00000  -0.00000   3.14159
   D37       -0.00000  -0.00000   0.00000  -0.00000  -0.00000  -0.00000
   D38        3.14159  -0.00000   0.00000  -0.00000  -0.00000   3.14159
   D39        3.14159   0.00000   0.00000   0.00000   0.00000   3.14159
   D40       -0.00000   0.00000   0.00000   0.00000   0.00000  -0.00000
   D41       -0.00000   0.00000   0.00000   0.00000   0.00000  -0.00000
   D42       -3.14159  -0.00000   0.00000  -0.00000  -0.00000  -3.14159
   D43        3.14159   0.00000   0.00000   0.00000   0.00000   3.14159
   D44        0.00000   0.00000   0.00000   0.00000   0.00000   0.00000
   D45        0.00000   0.00000   0.00000   0.00000   0.00000   0.00000
   D46       -3.14159  -0.00000   0.00000  -0.00000  -0.00000  -3.14159
   D47        3.14159   0.00000   0.00000   0.00000   0.00000   3.14159
   D48        0.00000   0.00000   0.00000   0.00000   0.00000   0.00000
   D49        0.00000  -0.00000   0.00000  -0.00000  -0.00000   0.00000
   D50       -3.14159   0.00000   0.00000   0.00000   0.00000  -3.14159
   D51        3.14159   0.00000   0.00000   0.00000   0.00000   3.14159
   D52       -0.00000   0.00000   0.00000   0.00000   0.00000  -0.00000
         Item               Value     Threshold  Converged?
 Maximum Force            0.189892     0.000450     NO 
 RMS     Force            0.048313     0.000300     NO 
 Maximum Displacement     0.532006     0.001800     NO 
 RMS     Displacement     0.098561     0.001200     NO 
 Predicted change in Energy=-1.395235D-01
 GradGradGradGradGradGradGradGradGradGradGradGradGradGradGradGradGradGrad

                          Input orientation:                          
 ---------------------------------------------------------------------
 Center     Atomic      Atomic             Coordinates (Angstroms)
 Number     Number       Type             X           Y           Z
 ---------------------------------------------------------------------
      1          6           0        0.174278   -0.594884   -0.003067
      2          6           0        1.514875   -0.519202   -0.430519
      3          6           0        2.223221    0.686944   -0.437361
      4          6           0        1.615121    1.866827   -0.015426
      5          6           0        0.290463    1.822458    0.412653
      6          6           0       -0.414331    0.614225    0.417934
      7          6           0       -0.626607   -1.963212    0.003805
      8          6           0       -0.034059   -3.199930   -0.423682
      9          6           0       -0.756639   -4.399642   -0.410940
     10          6           0       -2.075592   -4.438837    0.016238
     11          6           0       -2.685415   -3.266467    0.437332
     12          6           0       -1.993176   -2.048930    0.437934
     13          1           0        2.018426   -1.390333   -0.760021
     14          1           0       -1.418998    0.629187    0.751735
     15         17           0       -2.963554   -0.701382    1.010717
     16         17           0       -4.355754   -3.310190    0.979431
     17         17           0       -0.508220    3.292852    0.951934
     18         17           0       -2.962848   -5.954735    0.023854
     19         17           0        2.503126    3.384002   -0.023043
     20         17           0        0.020802   -5.881460   -0.945373
     21         17           0        3.893983    0.706516   -0.984125
     22         17           0        1.613524   -3.390461   -1.002270
 ---------------------------------------------------------------------
                    Distance matrix (angstroms):
                    1          2          3          4          5
     1  C    0.000000
     2  C    1.409129   0.000000
     3  C    2.455578   1.398781   0.000000
     4  C    2.852402   2.423940   1.392816   0.000000
     5  C    2.455578   2.773715   2.397388   1.392816   0.000000
     6  C    1.409129   2.392982   2.773715   2.423940   1.398781
     7  C    1.585493   2.619112   3.916564   4.437895   3.916564
     8  C    2.646996   3.096053   4.494807   5.344014   5.101877
     9  C    3.938166   4.496440   5.895220   6.711952   6.363117
    10  C    4.454016   5.334284   6.705160   7.306419   6.705160
    11  C    3.938166   5.093433   6.363117   6.711952   5.895220
    12  C    2.646996   3.924373   5.101877   5.344014   4.494807
    13  H    2.146300   1.058775   2.112139   3.365437   3.831846
    14  H    2.146300   3.365136   3.831846   3.365437   2.112139
    15  Cl   3.299256   4.708151   5.561207   5.349106   4.161260
    16  Cl   5.372093   6.651456   7.827343   7.965086   6.946413
    17  Cl   4.061074   4.531650   4.022644   2.734577   1.758061
    18  Cl   6.210498   7.057016   8.439190   9.062900   8.439190
    19  Cl   4.610364   4.046934   2.743014   1.757962   2.743014
    20  Cl   5.372093   5.590272   6.946413   7.965086   7.827343
    21  Cl   4.061074   2.732950   1.758061   2.734577   4.022644
    22  Cl   3.299256   2.929293   4.161260   5.349106   5.561207
                    6          7          8          9         10
     6  C    0.000000
     7  C    2.619112   0.000000
     8  C    3.924373   1.436429   0.000000
     9  C    5.093433   2.474896   1.400568   0.000000
    10  C    5.334284   2.868524   2.428225   1.386959   0.000000
    11  C    4.496440   2.474896   2.788451   2.392452   1.386959
    12  C    3.096053   1.436429   2.430087   2.788451   2.428225
    13  H    3.365136   2.812085   2.756893   4.108379   5.163036
    14  H    1.058775   2.812085   4.238136   5.203811   5.163036
    15  Cl   2.929293   2.840319   4.108793   4.535274   3.968127
    16  Cl   5.590272   4.083227   4.545100   4.009198   2.720427
    17  Cl   2.732950   5.342207   6.653824   7.816240   7.944256
    18  Cl   7.057016   4.625006   4.045620   2.733993   1.756482
    19  Cl   4.046934   6.195857   7.067247   8.447581   9.064381
    20  Cl   6.651456   4.083227   2.732357   1.756650   2.720427
    21  Cl   4.531650   5.342207   5.568117   6.930344   7.944256
    22  Cl   4.708151   2.840319   1.756587   2.643065   3.968127
                   11         12         13         14         15
    11  C    0.000000
    12  C    1.400568   0.000000
    13  H    5.203811   4.238136   0.000000
    14  H    4.108379   2.756893   4.263773   0.000000
    15  Cl   2.643065   1.756587   5.332007   2.055028   0.000000
    16  Cl   1.756650   2.732357   6.880532   4.918849   2.957208
    17  Cl   6.930344   5.568117   5.589898   2.822182   4.688927
    18  Cl   2.733993   4.045620   6.801567   6.801567   5.345242
    19  Cl   8.447581   7.067247   4.855136   4.855136   6.902435
    20  Cl   4.009198   4.545100   4.918849   6.880532   6.290141
    21  Cl   7.816240   6.653824   2.822182   5.589898   7.279243
    22  Cl   4.535274   4.108793   2.055028   5.332007   5.677403
                   16         17         18         19         20
    16  Cl   0.000000
    17  Cl   7.642281   0.000000
    18  Cl   3.137982   9.612721   0.000000
    19  Cl   9.636462   3.166558  10.820863   0.000000
    20  Cl   5.428678   9.383370   3.137982   9.636462   0.000000
    21  Cl   9.383370   5.460480   9.612721   3.166558   7.642281
    22  Cl   6.290141   7.279243   5.345242   6.902435   2.957208
                   21         22
    21  Cl   0.000000
    22  Cl   4.688927   0.000000
 Stoichiometry    C12H2Cl8
 Framework group  C1[X(C12H2Cl8)]
 Deg. of freedom    60
 Full point group                 C1      NOp   1
 Largest Abelian subgroup         C1      NOp   1
 Largest concise Abelian subgroup C1      NOp   1
                         Standard orientation:                         
 ---------------------------------------------------------------------
 Center     Atomic      Atomic             Coordinates (Angstroms)
 Number     Number       Type             X           Y           Z
 ---------------------------------------------------------------------
      1          6           0       -0.938067    0.000000    0.000002
      2          6           0       -1.682415   -1.196491   -0.000000
      3          6           0       -3.081195   -1.198694   -0.000002
      4          6           0       -3.790470    0.000000   -0.000001
      5          6           0       -3.081195    1.198694    0.000003
      6          6           0       -1.682415    1.196491    0.000005
      7          6           0        0.647425    0.000000    0.000003
      8          6           0        1.413583   -1.215044    0.000003
      9          6           0        2.814025   -1.196226    0.000003
     10          6           0        3.515949    0.000000    0.000002
     11          6           0        2.814025    1.196226    0.000000
     12          6           0        1.413582    1.215043    0.000001
     13          1           0       -1.186391   -2.131886   -0.000003
     14          1           0       -1.186391    2.131886    0.000007
     15         17           0        0.743260    2.838702   -0.000003
     16         17           0        3.697852    2.714339   -0.000006
     17         17           0       -3.944412    2.730240    0.000008
     18         17           0        5.272431    0.000000   -0.000002
     19         17           0       -5.548432    0.000000   -0.000004
     20         17           0        3.697852   -2.714339    0.000004
     21         17           0       -3.944412   -2.730240   -0.000006
     22         17           0        0.743260   -2.838702    0.000001
 ---------------------------------------------------------------------
 Rotational constants (GHZ):           0.2891253           0.1009821           0.0748421
 Standard basis: 6-311+G(d,p) (5D, 7F)
 There are   536 symmetry adapted cartesian basis functions of A   symmetry.
 There are   516 symmetry adapted basis functions of A   symmetry.
   516 basis functions,   872 primitive gaussians,   536 cartesian basis functions
   105 alpha electrons      105 beta electrons
       nuclear repulsion energy      2622.1529015812 Hartrees.
 NAtoms=   22 NActive=   22 NUniq=   22 SFac= 1.00D+00 NAtFMM=   60 NAOKFM=F Big=F
 Integral buffers will be    131072 words long.
 Raffenetti 2 integral format.
 Two-electron integral symmetry is turned on.
 One-electron integrals computed using PRISM.
 NBasis=   516 RedAO= T EigKep=  1.12D-06  NBF=   516
 NBsUse=   508 1.00D-06 EigRej=  8.66D-07 NBFU=   508
 Initial guess from the checkpoint file:  "./Gau-80080.chk"
 B after Tr=     0.000000   -0.000000    0.000000
         Rot=    1.000000   -0.000000    0.000000   -0.000000 Ang=   0.00 deg.
 ExpMin= 4.38D-02 ExpMax= 1.06D+05 ExpMxC= 3.62D+03 IAcc=3 IRadAn=         5 AccDes= 0.00D+00
 Harris functional with IExCor=  402 and IRadAn=       5 diagonalized for initial guess.
 HarFok:  IExCor=  402 AccDes= 0.00D+00 IRadAn=         5 IDoV= 1 UseB2=F ITyADJ=14
 ICtDFT=  3500011 ScaDFX=  1.000000  1.000000  1.000000  1.000000
 FoFCou: FMM=F IPFlag=           0 FMFlag=      100000 FMFlg1=           0
         NFxFlg=           0 DoJE=T BraDBF=F KetDBF=T FulRan=T
         wScrn=  0.000000 ICntrl=       500 IOpCl=  0 I1Cent=   200000004 NGrid=           0
         NMat0=    1 NMatS0=      1 NMatT0=    0 NMatD0=    1 NMtDS0=    0 NMtDT0=    0
 Petite list used in FoFCou.
 Requested convergence on RMS density matrix=1.00D-08 within  32 cycles.
 Requested convergence on MAX density matrix=1.00D-06.
 Requested convergence on             energy=1.00D-06.
 No special actions if energy rises.
 SCF Done:  E(RB3LYP) =  -4140.31197608     A.U. after   16 cycles
            NFock= 16  Conv=0.28D-08     -V/T= 2.0026
 QCSCF skips out because SCF is already converged.
 Calling FoFJK, ICntrl=      2127 FMM=F ISym2X=0 I1Cent= 0 IOpClX= 0 NMat=1 NMatS=1 NMatT=0.
 ***** Axes restored to original set *****
 -------------------------------------------------------------------
 Center     Atomic                   Forces (Hartrees/Bohr)
 Number     Number              X              Y              Z
 -------------------------------------------------------------------
      1        6          -0.010633302   -0.018167171    0.000091135
      2        6          -0.002486395    0.015198817    0.003673784
      3        6          -0.004162383   -0.007234649    0.000012682
      4        6           0.008898281    0.015203021   -0.000076491
      5        6          -0.004269603   -0.007171658    0.000059755
      6        6           0.014453200    0.005246643   -0.003776327
      7        6           0.014097299    0.024085432   -0.000120819
      8        6          -0.007126912    0.008279021    0.003902989
      9        6           0.009300070   -0.008592545   -0.004677828
     10        6          -0.007952078   -0.013586344    0.000068298
     11        6          -0.012025318    0.003936329    0.004701292
     12        6           0.010691228   -0.002189318   -0.003933535
     13        1           0.006929910    0.001605387   -0.001981624
     14        1          -0.001985091    0.006843038    0.001939077
     15       17          -0.003298157   -0.005419066    0.000068890
     16       17           0.006117726   -0.005437372   -0.003036821
     17       17          -0.000486695   -0.007055932   -0.001164789
     18       17           0.004830511    0.008253084   -0.000041510
     19       17          -0.004150356   -0.007090982    0.000035618
     20       17          -0.007723260    0.002694341    0.003050509
     21       17          -0.005908568   -0.003870531    0.001219680
     22       17          -0.003110106   -0.005529546   -0.000013966
 -------------------------------------------------------------------
 Cartesian Forces:  Max     0.024085432 RMS     0.007444814

 GradGradGradGradGradGradGradGradGradGradGradGradGradGradGradGradGradGrad
 Berny optimization.
 Using GEDIIS/GDIIS optimizer.
 FormGI is forming the generalized inverse of G from B-inverse, IUseBI=4.
 Internal  Forces:  Max     0.014559073 RMS     0.005177378
 Search for a local minimum.
 Step number   2 out of a maximum of  121
 All quantities printed in internal units (Hartrees-Bohrs-Radians)
 Mixed Optimization -- RFO/linear search
 Update second derivatives using D2CorX and points    1    2
 DE= -7.04D-02 DEPred=-1.40D-01 R= 5.05D-01
 TightC=F SS=  1.41D+00  RLast= 3.00D-01 DXNew= 5.0454D-01 8.9996D-01
 Trust test= 5.05D-01 RLast= 3.00D-01 DXMaxT set to 5.05D-01
 ITU=  1  0
 Use linear search instead of GDIIS.
     Eigenvalues ---    0.00237   0.01461   0.01467   0.02070   0.02070
     Eigenvalues ---    0.02070   0.02070   0.02070   0.02070   0.02070
     Eigenvalues ---    0.02070   0.02070   0.02070   0.02070   0.02070
     Eigenvalues ---    0.02070   0.02070   0.02070   0.02070   0.16000
     Eigenvalues ---    0.16081   0.23474   0.23632   0.24890   0.25000
     Eigenvalues ---    0.25000   0.25000   0.25000   0.25000   0.25000
     Eigenvalues ---    0.25000   0.25000   0.25000   0.25000   0.25000
     Eigenvalues ---    0.25000   0.27946   0.29491   0.29536   0.29539
     Eigenvalues ---    0.29539   0.29539   0.29539   0.29539   0.29539
     Eigenvalues ---    0.36454   0.37230   0.38470   0.41389   0.41678
     Eigenvalues ---    0.41874   0.45069   0.45322   0.45389   0.45389
     Eigenvalues ---    0.45389   0.45389   0.45389   0.45389   1.62086
 RFO step:  Lambda=-8.80219671D-03 EMin= 2.36824243D-03
 Quartic linear search produced a step of  0.13238.
 Iteration  1 RMS(Cart)=  0.03086534 RMS(Int)=  0.00053442
 Iteration  2 RMS(Cart)=  0.00063522 RMS(Int)=  0.00003026
 Iteration  3 RMS(Cart)=  0.00000013 RMS(Int)=  0.00003026
 Variable       Old X    -DE/DX   Delta X   Delta X   Delta X     New X
                                 (Linear)    (Quad)   (Total)
    R1        2.66287   0.00016   0.00193  -0.00524  -0.00329   2.65958
    R2        2.66287   0.00016   0.00193  -0.00524  -0.00329   2.65958
    R3        2.99615  -0.00752   0.01138  -0.06443  -0.05305   2.94310
    R4        2.64331  -0.00998  -0.00066  -0.02256  -0.02321   2.62010
    R5        2.00079   0.00259  -0.00281   0.01593   0.01313   2.01392
    R6        2.63204  -0.00127  -0.00215   0.00314   0.00098   2.63302
    R7        3.32225  -0.00604  -0.00049  -0.02097  -0.02145   3.30080
    R8        2.63204  -0.00127  -0.00215   0.00314   0.00098   2.63302
    R9        3.32207  -0.00822  -0.00051  -0.02900  -0.02951   3.29256
   R10        2.64331  -0.00998  -0.00066  -0.02256  -0.02321   2.62010
   R11        3.32225  -0.00604  -0.00049  -0.02097  -0.02145   3.30080
   R12        2.00079   0.00259  -0.00281   0.01593   0.01313   2.01392
   R13        2.71446   0.00540   0.00876  -0.01090  -0.00208   2.71238
   R14        2.71446   0.00540   0.00876  -0.01090  -0.00208   2.71238
   R15        2.64669   0.00723  -0.00021   0.01828   0.01808   2.66477
   R16        3.31947  -0.00231  -0.00085  -0.00597  -0.00682   3.31265
   R17        2.62097  -0.00383  -0.00361   0.00022  -0.00346   2.61751
   R18        3.31959  -0.00662  -0.00084  -0.02204  -0.02288   3.29671
   R19        2.62097  -0.00383  -0.00361   0.00022  -0.00346   2.61751
   R20        3.31927  -0.00956  -0.00088  -0.03287  -0.03375   3.28552
   R21        2.64669   0.00723  -0.00021   0.01828   0.01808   2.66477
   R22        3.31959  -0.00662  -0.00084  -0.02204  -0.02288   3.29671
   R23        3.31947  -0.00231  -0.00085  -0.00597  -0.00682   3.31265
    A1        2.02856  -0.01225  -0.00872  -0.02725  -0.03594   1.99262
    A2        2.12731   0.00612   0.00436   0.01363   0.01797   2.14528
    A3        2.12731   0.00612   0.00436   0.01363   0.01797   2.14528
    A4        2.12889   0.00632   0.00457   0.01449   0.01907   2.14796
    A5        2.09750   0.00376   0.00041   0.02916   0.02956   2.12706
    A6        2.05680  -0.01008  -0.00498  -0.04365  -0.04863   2.00817
    A7        2.10352   0.00493   0.00121   0.01709   0.01828   2.12180
    A8        2.08561  -0.00888  -0.00116  -0.03481  -0.03597   2.04964
    A9        2.09405   0.00395  -0.00005   0.01773   0.01769   2.11174
   A10        2.07299  -0.01025  -0.00283  -0.03590  -0.03876   2.03424
   A11        2.10510   0.00513   0.00142   0.01795   0.01938   2.12447
   A12        2.10510   0.00513   0.00142   0.01795   0.01938   2.12447
   A13        2.10352   0.00493   0.00121   0.01709   0.01828   2.12180
   A14        2.09405   0.00395  -0.00005   0.01773   0.01769   2.11174
   A15        2.08561  -0.00888  -0.00116  -0.03481  -0.03597   2.04964
   A16        2.12889   0.00632   0.00457   0.01449   0.01907   2.14796
   A17        2.09750   0.00376   0.00041   0.02916   0.02956   2.12706
   A18        2.05680  -0.01008  -0.00498  -0.04365  -0.04863   2.00817
   A19        2.13338   0.00728   0.00516   0.01419   0.01928   2.15267
   A20        2.13338   0.00728   0.00516   0.01419   0.01928   2.15267
   A21        2.01642  -0.01456  -0.01032  -0.02838  -0.03857   1.97785
   A22        2.11995   0.00762   0.00338   0.02350   0.02695   2.14689
   A23        2.18747   0.00599   0.01232  -0.01404  -0.00175   2.18572
   A24        1.97576  -0.01362  -0.01570  -0.00946  -0.02520   1.95057
   A25        2.11488   0.00107   0.00271  -0.00511  -0.00247   2.11241
   A26        2.08458   0.00891  -0.00130   0.04370   0.04244   2.12702
   A27        2.08373  -0.00998  -0.00141  -0.03859  -0.03997   2.04376
   A28        2.08030  -0.00282  -0.00187  -0.00839  -0.01039   2.06991
   A29        2.10144   0.00141   0.00093   0.00420   0.00520   2.10664
   A30        2.10144   0.00141   0.00093   0.00420   0.00520   2.10664
   A31        2.11488   0.00107   0.00271  -0.00511  -0.00247   2.11241
   A32        2.08373  -0.00998  -0.00141  -0.03859  -0.03997   2.04376
   A33        2.08458   0.00891  -0.00130   0.04370   0.04244   2.12702
   A34        2.11995   0.00762   0.00338   0.02350   0.02695   2.14689
   A35        2.18747   0.00599   0.01232  -0.01404  -0.00175   2.18572
   A36        1.97576  -0.01362  -0.01570  -0.00946  -0.02520   1.95057
    D1        0.00000  -0.00000   0.00000  -0.00000  -0.00000   0.00000
    D2        3.14159   0.00000   0.00000   0.00000   0.00000  -3.14159
    D3       -3.14159  -0.00000  -0.00000  -0.00000  -0.00000   3.14159
    D4       -0.00000  -0.00000  -0.00000  -0.00000  -0.00000  -0.00000
    D5       -0.00000   0.00000  -0.00000   0.00000   0.00000  -0.00000
    D6        3.14159  -0.00000  -0.00000  -0.00000  -0.00000   3.14159
    D7        3.14159   0.00000   0.00000   0.00000   0.00000  -3.14159
    D8       -0.00000  -0.00000  -0.00000  -0.00000  -0.00000  -0.00000
    D9       -0.00000  -0.00000  -0.00000  -0.00002  -0.00002  -0.00002
   D10        3.14159  -0.00000  -0.00000  -0.00001  -0.00001   3.14158
   D11        3.14159  -0.00000  -0.00000  -0.00002  -0.00002   3.14157
   D12       -0.00000  -0.00000  -0.00000  -0.00001  -0.00001  -0.00002
   D13        0.00000  -0.00000  -0.00000  -0.00000  -0.00000  -0.00000
   D14        3.14159   0.00000  -0.00000   0.00000   0.00000   3.14159
   D15       -3.14159  -0.00000  -0.00000  -0.00000  -0.00000  -3.14159
   D16        0.00000  -0.00000  -0.00000  -0.00000  -0.00000   0.00000
   D17       -0.00000   0.00000  -0.00000   0.00000   0.00000  -0.00000
   D18        3.14159  -0.00000   0.00000  -0.00000  -0.00000   3.14159
   D19        3.14159   0.00000  -0.00000   0.00000   0.00000   3.14159
   D20        0.00000  -0.00000  -0.00000  -0.00000  -0.00000  -0.00000
   D21        0.00000  -0.00000   0.00000  -0.00000  -0.00000   0.00000
   D22       -3.14159  -0.00000   0.00000  -0.00000  -0.00000  -3.14159
   D23       -3.14159   0.00000  -0.00000   0.00000   0.00000  -3.14159
   D24        0.00000   0.00000   0.00000   0.00000   0.00000   0.00000
   D25       -0.00000   0.00000   0.00000   0.00000   0.00000  -0.00000
   D26        3.14159   0.00000   0.00000   0.00000   0.00000  -3.14159
   D27        3.14159   0.00000  -0.00000   0.00000   0.00000   3.14159
   D28       -0.00000   0.00000   0.00000   0.00000   0.00000   0.00000
   D29        3.14159   0.00000   0.00000   0.00000   0.00000  -3.14159
   D30        0.00000  -0.00000   0.00000  -0.00000  -0.00000   0.00000
   D31        0.00000   0.00000   0.00000   0.00000   0.00000   0.00000
   D32       -3.14159  -0.00000  -0.00000  -0.00000  -0.00000   3.14159
   D33       -3.14159  -0.00000  -0.00000  -0.00000  -0.00000   3.14159
   D34       -0.00000  -0.00000  -0.00000  -0.00000  -0.00000  -0.00000
   D35       -0.00000   0.00000   0.00000   0.00000   0.00000  -0.00000
   D36        3.14159   0.00000  -0.00000   0.00000   0.00000   3.14159
   D37       -0.00000  -0.00000  -0.00000  -0.00000  -0.00000  -0.00000
   D38        3.14159  -0.00000  -0.00000  -0.00000  -0.00000   3.14159
   D39        3.14159   0.00000   0.00000   0.00000   0.00000  -3.14159
   D40       -0.00000   0.00000   0.00000   0.00000   0.00000  -0.00000
   D41       -0.00000   0.00000   0.00000   0.00000   0.00000   0.00000
   D42       -3.14159  -0.00000  -0.00000  -0.00000  -0.00000   3.14159
   D43        3.14159   0.00000   0.00000   0.00000   0.00000  -3.14159
   D44        0.00000  -0.00000   0.00000  -0.00000  -0.00000   0.00000
   D45        0.00000   0.00000   0.00000   0.00000   0.00000   0.00000
   D46       -3.14159  -0.00000  -0.00000  -0.00000  -0.00000  -3.14159
   D47        3.14159   0.00000   0.00000   0.00000   0.00000  -3.14159
   D48        0.00000  -0.00000   0.00000  -0.00000  -0.00000   0.00000
   D49        0.00000  -0.00000  -0.00000  -0.00000  -0.00000  -0.00000
[...]
                 (A) (A) (A) (A) (A) (A) (A) (A) (A) (A) (A) (A)
                 (A) (A) (A) (A) (A) (A) (A) (A) (A) (A) (A) (A)
                 (A) (A) (A) (A) (A) (A) (A) (A) (A) (A) (A) (A)
                 (A) (A) (A) (A) (A) (A) (A) (A) (A) (A) (A) (A)
                 (A) (A) (A) (A) (A) (A) (A) (A) (A) (A) (A) (A)
                 (A) (A) (A) (A) (A) (A) (A) (A) (A) (A) (A) (A)
                 (A) (A) (A) (A) (A) (A) (A) (A) (A) (A) (A) (A)
                 (A) (A) (A) (A) (A) (A) (A) (A) (A) (A) (A) (A)
                 (A) (A) (A) (A) (A) (A) (A) (A) (A) (A) (A) (A)
                 (A) (A) (A) (A) (A) (A) (A) (A) (A) (A) (A) (A)
                 (A) (A) (A) (A) (A) (A) (A) (A) (A) (A) (A) (A)
                 (A) (A) (A) (A) (A) (A) (A) (A) (A) (A) (A) (A)
                 (A) (A) (A) (A) (A) (A) (A) (A) (A) (A)
 The electronic state is 1-A.
 Alpha  occ. eigenvalues -- -101.58852-101.58752-101.58752-101.58642-101.58641
 Alpha  occ. eigenvalues -- -101.57866-101.57744-101.57744 -10.29294 -10.28999
 Alpha  occ. eigenvalues --  -10.28993 -10.28890 -10.28890 -10.27823 -10.27568
 Alpha  occ. eigenvalues --  -10.27562 -10.25027 -10.23491 -10.22002 -10.22001
 Alpha  occ. eigenvalues --   -9.50318  -9.50218  -9.50218  -9.50115  -9.50115
 Alpha  occ. eigenvalues --   -9.49326  -9.49202  -9.49202  -7.26828  -7.26727
 Alpha  occ. eigenvalues --   -7.26727  -7.26611  -7.26611  -7.25827  -7.25799
 Alpha  occ. eigenvalues --   -7.25706  -7.25697  -7.25697  -7.25691  -7.25691
 Alpha  occ. eigenvalues --   -7.25609  -7.25609  -7.25597  -7.25597  -7.25514
 Alpha  occ. eigenvalues --   -7.25514  -7.24809  -7.24725  -7.24681  -7.24681
 Alpha  occ. eigenvalues --   -7.24620  -7.24620  -0.97838  -0.95331  -0.93269
 Alpha  occ. eigenvalues --   -0.92333  -0.90196  -0.88715  -0.88335  -0.87493
 Alpha  occ. eigenvalues --   -0.85930  -0.84511  -0.79327  -0.76669  -0.75319
 Alpha  occ. eigenvalues --   -0.74881  -0.66997  -0.64367  -0.63994  -0.62038
 Alpha  occ. eigenvalues --   -0.56902  -0.55489  -0.53808  -0.53193  -0.50289
 Alpha  occ. eigenvalues --   -0.49020  -0.48039  -0.47663  -0.47491  -0.46734
 Alpha  occ. eigenvalues --   -0.45583  -0.45270  -0.44054  -0.41916  -0.41807
 Alpha  occ. eigenvalues --   -0.41765  -0.40053  -0.38869  -0.37023  -0.36957
 Alpha  occ. eigenvalues --   -0.36604  -0.36570  -0.36215  -0.35391  -0.35344
 Alpha  occ. eigenvalues --   -0.34312  -0.34266  -0.34006  -0.33509  -0.32147
 Alpha  occ. eigenvalues --   -0.31948  -0.28290  -0.27693  -0.27446  -0.27442
 Alpha virt. eigenvalues --   -0.07126  -0.07080  -0.06547  -0.05918  -0.05460
 Alpha virt. eigenvalues --   -0.03925  -0.01453  -0.01095  -0.00261   0.01237
 Alpha virt. eigenvalues --    0.01265   0.01544   0.01832   0.02076   0.02270
 Alpha virt. eigenvalues --    0.02415   0.03196   0.04522   0.04676   0.05376
 Alpha virt. eigenvalues --    0.05740   0.06081   0.06366   0.06721   0.06790
 Alpha virt. eigenvalues --    0.07106   0.07671   0.07818   0.08351   0.08436
 Alpha virt. eigenvalues --    0.08520   0.08692   0.09260   0.09414   0.10100
 Alpha virt. eigenvalues --    0.10455   0.10542   0.11061   0.11454   0.11601
 Alpha virt. eigenvalues --    0.11948   0.12243   0.12569   0.13039   0.13345
 Alpha virt. eigenvalues --    0.13600   0.13893   0.14495   0.14515   0.15034
 Alpha virt. eigenvalues --    0.15232   0.15376   0.16257   0.16974   0.17062
 Alpha virt. eigenvalues --    0.17139   0.17328   0.17591   0.17672   0.17764
 Alpha virt. eigenvalues --    0.18177   0.19134   0.19537   0.19636   0.19933
 Alpha virt. eigenvalues --    0.20582   0.20840   0.21319   0.21567   0.22253
 Alpha virt. eigenvalues --    0.22762   0.22880   0.23542   0.23674   0.23763
 Alpha virt. eigenvalues --    0.23892   0.24661   0.24913   0.25067   0.25327
 Alpha virt. eigenvalues --    0.26164   0.26419   0.26493   0.26848   0.27050
 Alpha virt. eigenvalues --    0.27766   0.28269   0.28526   0.28590   0.28601
 Alpha virt. eigenvalues --    0.28758   0.29429   0.29764   0.29993   0.30548
 Alpha virt. eigenvalues --    0.31185   0.31202   0.32807   0.34863   0.36519
 Alpha virt. eigenvalues --    0.37925   0.41638   0.41949   0.42177   0.42402
 Alpha virt. eigenvalues --    0.42679   0.43203   0.43660   0.44731   0.45065
 Alpha virt. eigenvalues --    0.45068   0.45546   0.45633   0.46055   0.46086
 Alpha virt. eigenvalues --    0.46259   0.47123   0.47506   0.47729   0.47975
 Alpha virt. eigenvalues --    0.48267   0.48656   0.48897   0.50138   0.50658
 Alpha virt. eigenvalues --    0.51527   0.52290   0.54306   0.55149   0.55603
 Alpha virt. eigenvalues --    0.56764   0.56960   0.58018   0.58040   0.59337
 Alpha virt. eigenvalues --    0.59482   0.60191   0.60754   0.60843   0.61823
 Alpha virt. eigenvalues --    0.61844   0.62718   0.62926   0.64132   0.64507
 Alpha virt. eigenvalues --    0.65021   0.65498   0.65728   0.66997   0.68012
 Alpha virt. eigenvalues --    0.68149   0.69180   0.69796   0.70708   0.75332
 Alpha virt. eigenvalues --    0.76890   0.77357   0.78465   0.78587   0.81079
 Alpha virt. eigenvalues --    0.81819   0.81899   0.82600   0.82802   0.82895
 Alpha virt. eigenvalues --    0.83012   0.83322   0.83656   0.84032   0.84499
 Alpha virt. eigenvalues --    0.84581   0.84634   0.84671   0.85044   0.85406
 Alpha virt. eigenvalues --    0.85592   0.85727   0.85909   0.86253   0.87484
 Alpha virt. eigenvalues --    0.87503   0.88065   0.89060   0.89782   0.90546
 Alpha virt. eigenvalues --    0.90993   0.91007   0.91650   0.92740   0.93287
 Alpha virt. eigenvalues --    0.93442   0.93676   0.93936   0.94343   0.94696
 Alpha virt. eigenvalues --    0.95041   0.96222   0.96286   0.96960   0.97146
 Alpha virt. eigenvalues --    0.98526   1.00648   1.01894   1.02257   1.02913
 Alpha virt. eigenvalues --    1.03614   1.05342   1.07487   1.07940   1.08347
 Alpha virt. eigenvalues --    1.09281   1.11893   1.12709   1.16838   1.17826
 Alpha virt. eigenvalues --    1.18145   1.19373   1.20992   1.22840   1.25023
 Alpha virt. eigenvalues --    1.25056   1.25966   1.26506   1.26711   1.27761
 Alpha virt. eigenvalues --    1.28155   1.28461   1.28785   1.29021   1.29506
 Alpha virt. eigenvalues --    1.30394   1.31933   1.34860   1.35103   1.37626
 Alpha virt. eigenvalues --    1.38651   1.39095   1.45006   1.46209   1.48416
 Alpha virt. eigenvalues --    1.51949   1.55684   1.57077   1.57686   1.58988
 Alpha virt. eigenvalues --    1.62605   1.63848   1.65122   1.67517   1.68003
 Alpha virt. eigenvalues --    1.69900   1.73265   1.74803   1.76543   1.79707
 Alpha virt. eigenvalues --    1.79851   1.79859   1.81189   1.83444   1.84246
 Alpha virt. eigenvalues --    1.84856   1.85512   1.88109   1.90285   1.93946
 Alpha virt. eigenvalues --    1.94413   1.96081   1.96451   1.96755   2.07363
 Alpha virt. eigenvalues --    2.09472   2.09793   2.10483   2.11205   2.16800
 Alpha virt. eigenvalues --    2.21716   2.22324   2.22645   2.22866   2.23437
 Alpha virt. eigenvalues --    2.24731   2.25226   2.25414   2.27077   2.27287
 Alpha virt. eigenvalues --    2.27468   2.28624   2.29908   2.31923   2.32892
 Alpha virt. eigenvalues --    2.33257   2.33852   2.38105   2.40453   2.40684
 Alpha virt. eigenvalues --    2.41068   2.41995   2.42059   2.44181   2.45037
 Alpha virt. eigenvalues --    2.47339   2.49557   2.51642   2.51999   2.54678
 Alpha virt. eigenvalues --    2.55251   2.56873   2.60400   2.63012   2.63105
 Alpha virt. eigenvalues --    2.63119   2.65673   2.65998   2.68170   2.70499
 Alpha virt. eigenvalues --    2.72593   2.72756   2.74348   2.76529   2.81363
 Alpha virt. eigenvalues --    2.81810   2.83451   2.88099   2.88872   2.95544
 Alpha virt. eigenvalues --    2.98053   3.04620   3.05774   3.08597   3.10933
 Alpha virt. eigenvalues --    3.11579   3.11766   3.12384   3.14589   3.15798
 Alpha virt. eigenvalues --    3.20401   3.22229   3.22799   3.27325   3.33205
 Alpha virt. eigenvalues --    3.41521   3.50025   3.50698   3.64242   3.68415
 Alpha virt. eigenvalues --    3.69745   3.76095   3.87590   3.90710   4.00624
 Alpha virt. eigenvalues --    4.07477   4.28355   4.79456   4.80686   9.72761
 Alpha virt. eigenvalues --    9.75099   9.77746   9.78811   9.80235   9.80781
 Alpha virt. eigenvalues --    9.80850   9.84094  23.26204  23.46637  23.76137
 Alpha virt. eigenvalues --   23.80397  23.83164  23.87423  23.91224  23.91994
 Alpha virt. eigenvalues --   23.95611  24.02204  24.02904  24.14213  25.75892
 Alpha virt. eigenvalues --   25.77162  25.78383  25.81011  25.84982  25.86850
 Alpha virt. eigenvalues --   25.88906  25.95201  26.07872  26.08486  26.10599
 Alpha virt. eigenvalues --   26.11511  26.16092  26.18935  26.26851  26.35360
 Alpha virt. eigenvalues --   26.44331  26.51222  26.53961  26.62244  26.75305
 Alpha virt. eigenvalues --   26.75714  26.91259  27.09199 215.71801 215.74106
 Alpha virt. eigenvalues --  215.77219 215.78327 215.80124 215.80535 215.80898
 Alpha virt. eigenvalues --  215.84946
          Condensed to atoms (all electrons):
               1          2          3          4          5          6
     1  C   45.670619   7.547606 -13.048819   3.707105 -13.046763   7.542540
     2  C    7.547606  44.943119 -20.538678   7.920286 -14.762710   5.720053
     3  C  -13.048819 -20.538678  43.715407 -21.808522  15.361407 -14.756119
     4  C    3.707105   7.920286 -21.808522  42.602065 -21.811207   7.915976
     5  C  -13.046763 -14.762710  15.361407 -21.811207  43.717267 -20.531533
     6  C    7.542540   5.720053 -14.756119   7.915976 -20.531533  44.931316
     7  C   -5.137959 -15.450669  14.879634 -10.724755  14.877655 -15.447136
     8  C   -6.400651  -3.497004   1.049809  -0.081822   1.049344  -3.492870
     9  C   -4.631670  -0.538668  -0.122002   0.270815  -0.122264  -0.536970
    10  C   -2.744664  -0.310871  -0.066497  -0.001605  -0.066458  -0.310924
    11  C   -4.633934  -0.537852  -0.122569   0.270795  -0.121743  -0.538057
    12  C   -6.396062  -3.492248   1.048461  -0.081683   1.048946  -3.494103
    13  H    0.035815   0.066162   0.049096  -0.050236   0.018086  -0.063215
    14  H    0.035845  -0.063201   0.018071  -0.050244   0.049039   0.066272
    15  Cl  -0.657200  -0.073778   0.506933  -0.297152   0.505240  -0.071202
    16  Cl  -0.226910  -0.042304   0.028601  -0.015325   0.028581  -0.042402
    17  Cl  -0.398023  -0.030349   0.457349  -0.922283   0.201730  -0.022981
    18  Cl  -0.302494  -0.031152   0.010388  -0.002428   0.010390  -0.031124
    19  Cl  -0.133153   0.803717  -1.299846   0.677689  -1.300498   0.803213
    20  Cl  -0.226922  -0.042405   0.028606  -0.015329   0.028603  -0.042337
    21  Cl  -0.398020  -0.023375   0.201442  -0.921990   0.457658  -0.030307
    22  Cl  -0.657446  -0.070743   0.504865  -0.297001   0.506536  -0.073356
               7          8          9         10         11         12
     1  C   -5.137959  -6.400651  -4.631670  -2.744664  -4.633934  -6.396062
     2  C  -15.450669  -3.497004  -0.538668  -0.310871  -0.537852  -3.492248
     3  C   14.879634   1.049809  -0.122002  -0.066497  -0.122569   1.048461
     4  C  -10.724755  -0.081822   0.270815  -0.001605   0.270795  -0.081683
     5  C   14.877655   1.049344  -0.122264  -0.066458  -0.121743   1.048946
     6  C  -15.447136  -3.492870  -0.536970  -0.310924  -0.538057  -3.494103
     7  C   39.272768  -2.051990  -7.943474   4.666073  -7.944955  -2.050882
     8  C   -2.051990  19.978549  -5.144327  -6.954166   9.271419   4.627335
     9  C   -7.943474  -5.144327  30.280602  -2.733078 -11.922580   9.270982
    10  C    4.666073  -6.954166  -2.733078  25.381560  -2.728774  -6.957393
    11  C   -7.944955   9.271419 -11.922580  -2.728774  30.283760  -5.147797
    12  C   -2.050882   4.627335   9.270982  -6.957393  -5.147797  19.978369
    13  H    0.148926   0.072630   0.004561   0.019412   0.004531   0.072650
    14  H    0.148860   0.072669   0.004521   0.019409   0.004573   0.072601
    15  Cl   0.386568  -0.856190   1.635400  -0.517640  -1.707550  -0.913364
    16  Cl  -0.922052   0.725177  -0.722966  -0.667753   0.924600   0.334177
    17  Cl   0.087239  -0.046270  -0.020378   0.000166  -0.020368  -0.046234
    18  Cl   0.042809  -0.692222  -0.058162   1.061704  -0.058213  -0.692457
    19  Cl  -0.325994  -0.038403   0.003630  -0.006973   0.003630  -0.038387
    20  Cl  -0.922006   0.334436   0.924453  -0.667964  -0.722928   0.725206
    21  Cl   0.087223  -0.046209  -0.020353   0.000169  -0.020376  -0.046225
    22  Cl   0.385945  -0.913460  -1.707027  -0.517311   1.635452  -0.855976
              13         14         15         16         17         18
     1  C    0.035815   0.035845  -0.657200  -0.226910  -0.398023  -0.302494
     2  C    0.066162  -0.063201  -0.073778  -0.042304  -0.030349  -0.031152
     3  C    0.049096   0.018071   0.506933   0.028601   0.457349   0.010388
     4  C   -0.050236  -0.050244  -0.297152  -0.015325  -0.922283  -0.002428
     5  C    0.018086   0.049039   0.505240   0.028581   0.201730   0.010390
     6  C   -0.063215   0.066272  -0.071202  -0.042402  -0.022981  -0.031124
     7  C    0.148926   0.148860   0.386568  -0.922052   0.087239   0.042809
     8  C    0.072630   0.072669  -0.856190   0.725177  -0.046270  -0.692222
     9  C    0.004561   0.004521   1.635400  -0.722966  -0.020378  -0.058162
    10  C    0.019412   0.019409  -0.517640  -0.667753   0.000166   1.061704
    11  C    0.004531   0.004573  -1.707550   0.924600  -0.020368  -0.058213
    12  C    0.072650   0.072601  -0.913364   0.334177  -0.046234  -0.692457
    13  H    0.515875   0.000052  -0.012696   0.000097   0.000197   0.000290
    14  H    0.000052   0.515873  -0.012708   0.000097  -0.012435   0.000290
    15  Cl  -0.012696  -0.012708  18.971913  -0.369239   0.000989  -0.021333
    16  Cl   0.000097   0.000097  -0.369239  17.548823   0.000170  -0.220674
    17  Cl   0.000197  -0.012435   0.000989   0.000170  17.434714   0.000101
    18  Cl   0.000290   0.000290  -0.021333  -0.220674   0.000101  17.540277
    19  Cl  -0.002081  -0.002080   0.009620   0.000009  -0.230463  -0.000012
    20  Cl   0.000096   0.000097   0.037148  -0.015925   0.000170  -0.220629
    21  Cl  -0.012433   0.000197   0.001005   0.000169   0.019565   0.000101
    22  Cl  -0.012702  -0.012688  -0.176415   0.037145   0.000997  -0.021331
              19         20         21         22
     1  C   -0.133153  -0.226922  -0.398020  -0.657446
     2  C    0.803717  -0.042405  -0.023375  -0.070743
     3  C   -1.299846   0.028606   0.201442   0.504865
     4  C    0.677689  -0.015329  -0.921990  -0.297001
     5  C   -1.300498   0.028603   0.457658   0.506536
     6  C    0.803213  -0.042337  -0.030307  -0.073356
     7  C   -0.325994  -0.922006   0.087223   0.385945
     8  C   -0.038403   0.334436  -0.046209  -0.913460
     9  C    0.003630   0.924453  -0.020353  -1.707027
    10  C   -0.006973  -0.667964   0.000169  -0.517311
    11  C    0.003630  -0.722928  -0.020376   1.635452
    12  C   -0.038387   0.725206  -0.046225  -0.855976
    13  H   -0.002081   0.000096  -0.012433  -0.012702
    14  H   -0.002080   0.000097   0.000197  -0.012688
    15  Cl   0.009620   0.037148   0.001005  -0.176415
    16  Cl   0.000009  -0.015925   0.000169   0.037145
    17  Cl  -0.230463   0.000170   0.019565   0.000997
    18  Cl  -0.000012  -0.220629   0.000101  -0.021331
    19  Cl  17.666732   0.000009  -0.230503   0.009624
    20  Cl   0.000009  17.548824   0.000169  -0.369269
    21  Cl  -0.230503   0.000169  17.434737   0.000987
    22  Cl   0.009624  -0.369269   0.000987  18.971523
 Mulliken charges:
               1
     1  C    0.501160
     2  C   -1.494935
     3  C   -0.097017
     4  C   -0.283152
     5  C   -0.097305
     6  C   -1.494736
     7  C   -0.061829
     8  C   -0.965783
     9  C   -0.171046
    10  C    0.103576
    11  C   -0.171064
    12  C   -0.965918
    13  H    0.144887
    14  H    0.144890
    15  Cl   0.631650
    16  Cl   0.617905
    17  Cl   0.546396
    18  Cl   0.685881
    19  Cl   0.630522
    20  Cl   0.617898
    21  Cl   0.546370
    22  Cl   0.631651
 Sum of Mulliken charges =  -0.00000
 Mulliken charges with hydrogens summed into heavy atoms:
               1
     1  C    0.501160
     2  C   -1.350048
     3  C   -0.097017
     4  C   -0.283152
     5  C   -0.097305
     6  C   -1.349846
     7  C   -0.061829
     8  C   -0.965783
     9  C   -0.171046
    10  C    0.103576
    11  C   -0.171064
    12  C   -0.965918
    15  Cl   0.631650
    16  Cl   0.617905
    17  Cl   0.546396
    18  Cl   0.685881
    19  Cl   0.630522
    20  Cl   0.617898
    21  Cl   0.546370
    22  Cl   0.631651
 Electronic spatial extent (au):  <R**2>=          11579.1510
 Charge=             -0.0000 electrons
 Dipole moment (field-independent basis, Debye):
    X=              1.2091    Y=              0.0000    Z=             -0.0001  Tot=              1.2091
 Quadrupole moment (field-independent basis, Debye-Ang):
   XX=           -176.6814   YY=           -170.5678   ZZ=           -167.6240
   XY=              0.0001   XZ=              0.0002   YZ=             -0.0052
 Traceless Quadrupole moment (field-independent basis, Debye-Ang):
   XX=             -5.0570   YY=              1.0566   ZZ=              4.0004
   XY=              0.0001   XZ=              0.0002   YZ=             -0.0052
 Octapole moment (field-independent basis, Debye-Ang**2):
  XXX=             32.0758  YYY=             -0.0013  ZZZ=              0.0014  XYY=              4.0438
  XXY=              0.0030  XXZ=              0.0023  XZZ=              1.9585  YZZ=              0.0004
  YYZ=              0.0022  XYZ=              0.0022
 Hexadecapole moment (field-independent basis, Debye-Ang**3):
 XXXX=         -10758.6450 YYYY=          -2504.8113 ZZZZ=          -1506.7486 XXXY=              0.0106
 XXXZ=              0.0128 YYYX=             -0.0047 YYYZ=              0.1768 ZZZX=              0.0033
 ZZZY=             -0.1393 XXYY=          -2222.3762 XXZZ=          -2081.8818 YYZZ=           -710.6983
 XXYZ=              0.0243 YYXZ=              0.0047 ZZXY=             -0.0013
 N-N= 2.644142458110D+03 E-N=-1.510152601832D+04  KE= 4.129822908784D+03
 1\1\GINC-CN100\FOpt\RB3LYP\6-311+G(d,p)\C12H2Cl8\20CY91R06\28-Mar-2022
 \0\\# opt b3lyp/6-311+g(d,p) scf=xqc\\Title Card Required\\0,1\C,0.143
 756584,-0.6471611798,-0.0027911058\C,1.4120898406,-0.5751214616,0.5684
 119705\C,2.1137338789,0.6254057677,0.5619284592\C,1.5635673905,1.77868
 0482,-0.0148661\C,0.2861174352,1.6893732235,-0.5854465548\C,-0.4170367
 427,0.4897243107,-0.5799682162\C,-0.6111644906,-1.9369751452,0.0036546
 428\C,-0.4820054208,-2.8501133007,-1.0507955524\C,-1.1847208491,-4.061
 727265,-1.0552626154\C,-2.0351027531,-4.3695725376,0.0157799251\C,-2.1
 783811193,-3.4694385863,1.0807965791\C,-1.466008779,-2.2635743379,1.06
 42814402\H,1.8640915716,-1.4474773615,1.0215002354\H,-1.4009518283,0.4
 533026582,-1.0285034495\Cl,-1.6385896888,-1.1386015586,2.3844446516\Cl
 ,-3.2305355965,-3.8491081222,2.4070515118\Cl,-0.4645295481,3.082148012
 6,-1.3220923093\Cl,-2.9115707869,-5.8666851488,0.0232271319\Cl,2.44002
 99958,3.2761997184,-0.0222972894\Cl,-1.0064895154,-5.174724076,-2.3742
 025398\Cl,3.6988346212,0.6583981325,1.2915213774\Cl,0.5774903268,-2.45
 96052023,-2.3786324507\\Version=EM64L-G16RevB.01\State=1-A\HF=-4140.35
 66538\RMSD=4.169e-09\RMSF=9.345e-06\Dipole=-0.2402872,-0.4105541,0.002
 0521\Quadrupole=0.8886513,-2.1718989,1.2832476,-2.7166993,0.8027058,-0
 .4447926\PG=C01 [X(C12H2Cl8)]\\@


 MY DESCRIPTION OF EXPERIENCE IS NOT WHAT HAPPENS
 TO A MAN.  EXPERIENCE IS WHAT A MAN DOES WITH WHAT
 HAPPENS TO HIM.
                         - CHUCK KNOX, SEATTLE SEAHAWKS, 1985
 Job cpu time:       0 days  8 hours 20 minutes 31.6 seconds.
 Elapsed time:       0 days  2 hours  8 minutes  2.1 seconds.
 File lengths (MBytes):  RWF=    171 Int=      0 D2E=      0 Chk=     27 Scr=      1
 Normal termination of Gaussian 16 at Mon Mar 28 02:20:51 2022.
