 Entering Gaussian System, Link 0=g16
 Input=2,3,3prime,4prime,5prime,6-Hexachlorobiphenyl.gjf
 Output=2,3,3prime,4prime,5prime,6-Hexachlorobiphenyl.log
 Initial command:
 /home/apps/g16/l1.exe "./Gau-305291.inp" -scrdir="./"
 Entering Link 1 = /home/apps/g16/l1.exe PID=    305292.
  
 Copyright (c) 1988-2017, Gaussian, Inc.  All Rights Reserved.
  
 This is part of the Gaussian(R) 16 program.  It is based on
 the Gaussian(R) 09 system (copyright 2009, Gaussian, Inc.),
 the Gaussian(R) 03 system (copyright 2003, Gaussian, Inc.),
 the Gaussian(R) 98 system (copyright 1998, Gaussian, Inc.),
 the Gaussian(R) 94 system (copyright 1995, Gaussian, Inc.),
 the Gaussian 92(TM) system (copyright 1992, Gaussian, Inc.),
 the Gaussian 90(TM) system (copyright 1990, Gaussian, Inc.),
 the Gaussian 88(TM) system (copyright 1988, Gaussian, Inc.),
 the Gaussian 86(TM) system (copyright 1986, Carnegie Mellon
 University), and the Gaussian 82(TM) system (copyright 1983,
 Carnegie Mellon University). Gaussian is a federally registered
 trademark of Gaussian, Inc.
  
 This software contains proprietary and confidential information,
 including trade secrets, belonging to Gaussian, Inc.
  
 This software is provided under written license and may be
 used, copied, transmitted, or stored only in accord with that
 written license.
  
 The following legend is applicable only to US Government
 contracts under FAR:
  
                    RESTRICTED RIGHTS LEGEND
  
 Use, reproduction and disclosure by the US Government is
 subject to restrictions as set forth in subparagraphs (a)
 and (c) of the Commercial Computer Software - Restricted
 Rights clause in FAR 52.227-19.
  
 Gaussian, Inc.
 340 Quinnipiac St., Bldg. 40, Wallingford CT 06492
  
  
 ---------------------------------------------------------------
 Warning -- This program may not be used in any manner that
 competes with the business of Gaussian, Inc. or will provide
 assistance to any competitor of Gaussian, Inc.  The licensee
 of this program is prohibited from giving any competitor of
 Gaussian, Inc. access to this program.  By using this program,
 the user acknowledges that Gaussian, Inc. is engaged in the
 business of creating and licensing software in the field of
 computational chemistry and represents and warrants to the
 licensee that it is not a competitor of Gaussian, Inc. and that
 it will not use this program in any manner prohibited above.
 ---------------------------------------------------------------
  

 Cite this work as:
 Gaussian 16, Revision B.01,
 M. J. Frisch, G. W. Trucks, H. B. Schlegel, G. E. Scuseria, 
 M. A. Robb, J. R. Cheeseman, G. Scalmani, V. Barone, 
 G. A. Petersson, H. Nakatsuji, X. Li, M. Caricato, A. V. Marenich, 
 J. Bloino, B. G. Janesko, R. Gomperts, B. Mennucci, H. P. Hratchian, 
 J. V. Ortiz, A. F. Izmaylov, J. L. Sonnenberg, D. Williams-Young, 
 F. Ding, F. Lipparini, F. Egidi, J. Goings, B. Peng, A. Petrone, 
 T. Henderson, D. Ranasinghe, V. G. Zakrzewski, J. Gao, N. Rega, 
 G. Zheng, W. Liang, M. Hada, M. Ehara, K. Toyota, R. Fukuda, 
 J. Hasegawa, M. Ishida, T. Nakajima, Y. Honda, O. Kitao, H. Nakai, 
 T. Vreven, K. Throssell, J. A. Montgomery, Jr., J. E. Peralta, 
 F. Ogliaro, M. J. Bearpark, J. J. Heyd, E. N. Brothers, K. N. Kudin, 
 V. N. Staroverov, T. A. Keith, R. Kobayashi, J. Normand, 
 K. Raghavachari, A. P. Rendell, J. C. Burant, S. S. Iyengar, 
 J. Tomasi, M. Cossi, J. M. Millam, M. Klene, C. Adamo, R. Cammi, 
 J. W. Ochterski, R. L. Martin, K. Morokuma, O. Farkas, 
 J. B. Foresman, and D. J. Fox, Gaussian, Inc., Wallingford CT, 2016.
 
 ******************************************
 Gaussian 16:  EM64L-G16RevB.01 20-Dec-2017
                24-Mar-2022 
 ******************************************
 %mem=10GB
 %nprocshared=4
 Will use up to    4 processors via shared memory.
 --------------------------------
 # opt b3lyp/6-311+g(d,p) scf=xqc
 --------------------------------
 1/18=20,19=15,26=3,38=1/1,3;
 2/9=110,12=2,17=6,18=5,40=1/2;
 3/5=4,6=6,7=111,11=2,25=1,30=1,71=1,74=-5/1,2,3;
 4//1;
 5/5=2,8=3,13=1,38=5/2,8;
 6/7=2,8=2,9=2,10=2,28=1/1;
 7//1,2,3,16;
 1/18=20,19=15,26=3/3(2);
 2/9=110/2;
 99//99;
 2/9=110/2;
 3/5=4,6=6,7=111,11=2,25=1,30=1,71=1,74=-5/1,2,3;
 4/5=5,16=3,69=1/1;
 5/5=2,8=3,13=1,38=5/2,8;
 7//1,2,3,16;
 1/18=20,19=15,26=3/3(-5);
 2/9=110/2;
 6/7=2,8=2,9=2,10=2,19=2,28=1/1;
 99/9=1/99;
 -------------------
 Title Card Required
 -------------------
 Symbolic Z-matrix:
 Charge =  0 Multiplicity = 1
 C                    -0.08037  -0.06407  -0.00285 
 C                     1.25201  -0.03418  -0.4362 
 C                     1.9599    1.17527  -0.44227 
 C                     1.33542   2.35484  -0.015 
 C                     0.00303   2.32495   0.41835 
 C                    -0.70486   1.1155    0.42442 
 C                    -0.85828  -1.39313   0.00382 
 C                    -0.23379  -2.5727   -0.42345 
 C                    -0.94168  -3.78215  -0.41738 
 C                    -2.27406  -3.81204   0.01597 
 C                    -2.89855  -2.63247   0.44325 
 C                    -2.19066  -1.42302   0.43717 
 H                     1.72882  -0.9348   -0.76243 
 H                    -1.72216   1.09268   0.75529 
 H                    -0.46487  -4.68277  -0.74361 
 H                    -2.81455  -4.73548   0.02061 
 Cl                   -2.97494   0.05838   0.97378 
 Cl                   -4.57187  -2.67001   0.98749 
 Cl                   -0.78125   3.80635   0.95495 
 Cl                    2.22445   3.87377  -0.02262 
 Cl                    3.63322   1.2128   -0.9865 
 Cl                    1.43953  -2.53516  -0.96769 
 

 GradGradGradGradGradGradGradGradGradGradGradGradGradGradGradGradGradGrad
 Berny optimization.
 Initialization pass.
                           ----------------------------
                           !    Initial Parameters    !
                           ! (Angstroms and Degrees)  !
 --------------------------                            --------------------------
 ! Name  Definition              Value          Derivative Info.                !
 --------------------------------------------------------------------------------
 ! R1    R(1,2)                  1.4014         estimate D2E/DX2                !
 ! R2    R(1,6)                  1.4014         estimate D2E/DX2                !
 ! R3    R(1,7)                  1.54           estimate D2E/DX2                !
 ! R4    R(2,3)                  1.4014         estimate D2E/DX2                !
 ! R5    R(2,13)                 1.07           estimate D2E/DX2                !
 ! R6    R(3,4)                  1.4014         estimate D2E/DX2                !
 ! R7    R(3,21)                 1.76           estimate D2E/DX2                !
 ! R8    R(4,5)                  1.4014         estimate D2E/DX2                !
 ! R9    R(4,20)                 1.76           estimate D2E/DX2                !
 ! R10   R(5,6)                  1.4014         estimate D2E/DX2                !
 ! R11   R(5,19)                 1.76           estimate D2E/DX2                !
 ! R12   R(6,14)                 1.07           estimate D2E/DX2                !
 ! R13   R(7,8)                  1.4014         estimate D2E/DX2                !
 ! R14   R(7,12)                 1.4014         estimate D2E/DX2                !
 ! R15   R(8,9)                  1.4014         estimate D2E/DX2                !
 ! R16   R(8,22)                 1.76           estimate D2E/DX2                !
 ! R17   R(9,10)                 1.4014         estimate D2E/DX2                !
 ! R18   R(9,15)                 1.07           estimate D2E/DX2                !
 ! R19   R(10,11)                1.4014         estimate D2E/DX2                !
 ! R20   R(10,16)                1.07           estimate D2E/DX2                !
 ! R21   R(11,12)                1.4014         estimate D2E/DX2                !
 ! R22   R(11,18)                1.76           estimate D2E/DX2                !
 ! R23   R(12,17)                1.76           estimate D2E/DX2                !
 ! A1    A(2,1,6)              120.0            estimate D2E/DX2                !
 ! A2    A(2,1,7)              120.0            estimate D2E/DX2                !
 ! A3    A(6,1,7)              120.0            estimate D2E/DX2                !
 ! A4    A(1,2,3)              120.0            estimate D2E/DX2                !
 ! A5    A(1,2,13)             120.0            estimate D2E/DX2                !
 ! A6    A(3,2,13)             120.0            estimate D2E/DX2                !
 ! A7    A(2,3,4)              120.0            estimate D2E/DX2                !
 ! A8    A(2,3,21)             120.0            estimate D2E/DX2                !
 ! A9    A(4,3,21)             120.0            estimate D2E/DX2                !
 ! A10   A(3,4,5)              120.0            estimate D2E/DX2                !
 ! A11   A(3,4,20)             120.0            estimate D2E/DX2                !
 ! A12   A(5,4,20)             120.0            estimate D2E/DX2                !
 ! A13   A(4,5,6)              120.0            estimate D2E/DX2                !
 ! A14   A(4,5,19)             120.0            estimate D2E/DX2                !
 ! A15   A(6,5,19)             120.0            estimate D2E/DX2                !
 ! A16   A(1,6,5)              120.0            estimate D2E/DX2                !
 ! A17   A(1,6,14)             120.0            estimate D2E/DX2                !
 ! A18   A(5,6,14)             120.0            estimate D2E/DX2                !
 ! A19   A(1,7,8)              120.0            estimate D2E/DX2                !
 ! A20   A(1,7,12)             120.0            estimate D2E/DX2                !
 ! A21   A(8,7,12)             120.0            estimate D2E/DX2                !
 ! A22   A(7,8,9)              120.0            estimate D2E/DX2                !
 ! A23   A(7,8,22)             120.0            estimate D2E/DX2                !
 ! A24   A(9,8,22)             120.0            estimate D2E/DX2                !
 ! A25   A(8,9,10)             120.0            estimate D2E/DX2                !
 ! A26   A(8,9,15)             120.0            estimate D2E/DX2                !
 ! A27   A(10,9,15)            120.0            estimate D2E/DX2                !
 ! A28   A(9,10,11)            120.0            estimate D2E/DX2                !
 ! A29   A(9,10,16)            120.0            estimate D2E/DX2                !
 ! A30   A(11,10,16)           120.0            estimate D2E/DX2                !
 ! A31   A(10,11,12)           120.0            estimate D2E/DX2                !
 ! A32   A(10,11,18)           120.0            estimate D2E/DX2                !
 ! A33   A(12,11,18)           120.0            estimate D2E/DX2                !
 ! A34   A(7,12,11)            120.0            estimate D2E/DX2                !
 ! A35   A(7,12,17)            120.0            estimate D2E/DX2                !
 ! A36   A(11,12,17)           120.0            estimate D2E/DX2                !
 ! D1    D(6,1,2,3)              0.0001         estimate D2E/DX2                !
 ! D2    D(6,1,2,13)           180.0            estimate D2E/DX2                !
 ! D3    D(7,1,2,3)           -180.0            estimate D2E/DX2                !
 ! D4    D(7,1,2,13)            -0.0001         estimate D2E/DX2                !
 ! D5    D(2,1,6,5)             -0.0001         estimate D2E/DX2                !
 ! D6    D(2,1,6,14)           180.0            estimate D2E/DX2                !
 ! D7    D(7,1,6,5)            180.0            estimate D2E/DX2                !
 ! D8    D(7,1,6,14)             0.0            estimate D2E/DX2                !
 ! D9    D(2,1,7,8)             -0.0001         estimate D2E/DX2                !
 ! D10   D(2,1,7,12)           179.9998         estimate D2E/DX2                !
 ! D11   D(6,1,7,8)            179.9999         estimate D2E/DX2                !
 ! D12   D(6,1,7,12)            -0.0002         estimate D2E/DX2                !
 ! D13   D(1,2,3,4)              0.0            estimate D2E/DX2                !
 ! D14   D(1,2,3,21)           180.0            estimate D2E/DX2                !
 ! D15   D(13,2,3,4)          -179.9999         estimate D2E/DX2                !
 ! D16   D(13,2,3,21)            0.0001         estimate D2E/DX2                !
 ! D17   D(2,3,4,5)             -0.0001         estimate D2E/DX2                !
 ! D18   D(2,3,4,20)           180.0            estimate D2E/DX2                !
 ! D19   D(21,3,4,5)           179.9999         estimate D2E/DX2                !
 ! D20   D(21,3,4,20)            0.0            estimate D2E/DX2                !
 ! D21   D(3,4,5,6)              0.0001         estimate D2E/DX2                !
 ! D22   D(3,4,5,19)          -179.9999         estimate D2E/DX2                !
 ! D23   D(20,4,5,6)          -180.0            estimate D2E/DX2                !
 ! D24   D(20,4,5,19)            0.0            estimate D2E/DX2                !
 ! D25   D(4,5,6,1)              0.0            estimate D2E/DX2                !
 ! D26   D(4,5,6,14)           179.9999         estimate D2E/DX2                !
 ! D27   D(19,5,6,1)           180.0            estimate D2E/DX2                !
 ! D28   D(19,5,6,14)           -0.0001         estimate D2E/DX2                !
 ! D29   D(1,7,8,9)            179.9999         estimate D2E/DX2                !
 ! D30   D(1,7,8,22)             0.0001         estimate D2E/DX2                !
 ! D31   D(12,7,8,9)             0.0001         estimate D2E/DX2                !
 ! D32   D(12,7,8,22)         -179.9998         estimate D2E/DX2                !
 ! D33   D(1,7,12,11)         -179.9999         estimate D2E/DX2                !
 ! D34   D(1,7,12,17)            0.0            estimate D2E/DX2                !
 ! D35   D(8,7,12,11)           -0.0001         estimate D2E/DX2                !
 ! D36   D(8,7,12,17)          179.9999         estimate D2E/DX2                !
 ! D37   D(7,8,9,10)             0.0            estimate D2E/DX2                !
 ! D38   D(7,8,9,15)           180.0            estimate D2E/DX2                !
 ! D39   D(22,8,9,10)          179.9998         estimate D2E/DX2                !
 ! D40   D(22,8,9,15)           -0.0002         estimate D2E/DX2                !
 ! D41   D(8,9,10,11)            0.0            estimate D2E/DX2                !
 ! D42   D(8,9,10,16)         -179.9999         estimate D2E/DX2                !
 ! D43   D(15,9,10,11)         180.0            estimate D2E/DX2                !
 ! D44   D(15,9,10,16)           0.0001         estimate D2E/DX2                !
 ! D45   D(9,10,11,12)           0.0            estimate D2E/DX2                !
 ! D46   D(9,10,11,18)        -179.9998         estimate D2E/DX2                !
 ! D47   D(16,10,11,12)        179.9999         estimate D2E/DX2                !
 ! D48   D(16,10,11,18)          0.0001         estimate D2E/DX2                !
 ! D49   D(10,11,12,7)           0.0            estimate D2E/DX2                !
 ! D50   D(10,11,12,17)       -179.9999         estimate D2E/DX2                !
 ! D51   D(18,11,12,7)         179.9999         estimate D2E/DX2                !
 ! D52   D(18,11,12,17)         -0.0001         estimate D2E/DX2                !
 --------------------------------------------------------------------------------
 Trust Radius=3.00D-01 FncErr=1.00D-07 GrdErr=1.00D-06 EigMax=2.50D+02 EigMin=1.00D-04
 Number of steps in this run=    121 maximum allowed number of steps=    132.
 GradGradGradGradGradGradGradGradGradGradGradGradGradGradGradGradGradGrad

                          Input orientation:                          
 ---------------------------------------------------------------------
 Center     Atomic      Atomic             Coordinates (Angstroms)
 Number     Number       Type             X           Y           Z
 ---------------------------------------------------------------------
      1          6           0       -0.080371   -0.064066   -0.002851
      2          6           0        1.252010   -0.034180   -0.436198
      3          6           0        1.959904    1.175271   -0.442270
      4          6           0        1.335417    2.354836   -0.014995
      5          6           0        0.003035    2.324951    0.418349
      6          6           0       -0.704859    1.115500    0.424422
      7          6           0       -0.858276   -1.393133    0.003823
      8          6           0       -0.233788   -2.572698   -0.423452
      9          6           0       -0.941681   -3.782149   -0.417378
     10          6           0       -2.274061   -3.812036    0.015972
     11          6           0       -2.898548   -2.632471    0.443247
     12          6           0       -2.190656   -1.423020    0.437173
     13          1           0        1.728821   -0.934804   -0.762430
     14          1           0       -1.722162    1.092681    0.755291
     15          1           0       -0.464871   -4.682773   -0.743612
     16          1           0       -2.814553   -4.735479    0.020612
     17         17           0       -2.974940    0.058380    0.973785
     18         17           0       -4.571866   -2.670006    0.987490
     19         17           0       -0.781252    3.806352    0.954955
     20         17           0        2.224451    3.873770   -0.022621
     21         17           0        3.633224    1.212804   -0.986504
     22         17           0        1.439532   -2.535165   -0.967686
 ---------------------------------------------------------------------
                    Distance matrix (angstroms):
                    1          2          3          4          5
     1  C    0.000000
     2  C    1.401400   0.000000
     3  C    2.427296   1.401400   0.000000
     4  C    2.802800   2.427296   1.401400   0.000000
     5  C    2.427296   2.802800   2.427296   1.401400   0.000000
     6  C    1.401400   2.427296   2.802800   2.427296   1.401400
     7  C    1.540000   2.548270   3.838989   4.342800   3.838989
     8  C    2.548270   2.941400   4.342800   5.187469   4.975106
     9  C    3.838989   4.342800   5.744200   6.558176   6.235992
    10  C    4.342800   5.187469   6.558176   7.145600   6.558176
    11  C    3.838989   4.975106   6.235992   6.558176   5.744200
    12  C    2.548270   3.813607   4.975106   5.187469   4.342800
    13  H    2.146700   1.070000   2.146700   3.396345   3.872800
    14  H    2.146700   3.396345   3.872800   3.396345   2.146700
    15  H    4.693509   4.965039   6.347206   7.300676   7.118798
    16  H    5.412800   6.232802   7.612271   8.215600   7.612271
    17  Cl   3.057342   4.456874   5.254079   4.983028   3.783409
    18  Cl   5.286324   6.549198   7.713260   7.819846   6.797295
    19  Cl   4.048303   4.562800   4.048303   2.743718   1.760000
    20  Cl   4.562800   4.048303   2.743718   1.760000   2.743718
    21  Cl   4.048303   2.743718   1.760000   2.743718   4.048303
    22  Cl   3.057342   2.563702   3.783409   4.983028   5.254079
                    6          7          8          9         10
     6  C    0.000000
     7  C    2.548270   0.000000
     8  C    3.813607   1.401400   0.000000
     9  C    4.975106   2.427296   1.401400   0.000000
    10  C    5.187469   2.802800   2.427296   1.401400   0.000000
    11  C    4.342800   2.427296   2.802800   2.427296   1.401400
    12  C    2.941400   1.401400   2.427296   2.802800   2.427296
    13  H    3.396345   2.736837   2.578650   3.918930   4.990735
    14  H    1.070000   2.736837   4.127917   5.074276   4.990735
    15  H    5.919617   3.396345   2.146700   1.070000   2.146700
    16  H    6.232802   3.872800   3.396345   2.146700   1.070000
    17  Cl   2.563702   2.743718   4.048303   4.562800   4.048303
    18  Cl   5.440665   4.048303   4.562800   4.048303   2.743718
    19  Cl   2.743718   5.286324   6.549198   7.713260   7.819846
    20  Cl   4.048303   6.102800   6.910901   8.294174   8.905600
    21  Cl   4.562800   5.286324   5.440665   6.797295   7.819846
    22  Cl   4.456874   2.743718   1.760000   2.743718   4.048303
                   11         12         13         14         15
    11  C    0.000000
    12  C    1.401400   0.000000
    13  H    5.074276   4.127917   0.000000
    14  H    3.918930   2.578650   4.280590   0.000000
    15  H    3.396345   3.872800   4.342800   6.097816   0.000000
    16  H    2.146700   3.396345   5.974992   5.974992   2.471400
    17  Cl   2.743718   1.760000   5.111382   1.639199   5.632800
    18  Cl   1.760000   2.743718   6.765486   4.725732   4.890332
    19  Cl   6.797295   5.440665   5.632800   2.879094   8.663168
    20  Cl   8.294174   6.910901   4.890332   4.890332   8.998151
    21  Cl   7.713260   6.549198   2.879094   5.632800   7.184095
    22  Cl   4.562800   4.048303   1.639199   5.111382   2.879094
                   16         17         18         19         20
    16  H    0.000000
    17  Cl   4.890332   0.000000
    18  Cl   2.879094   3.161400   0.000000
    19  Cl   8.830073   4.342800   7.504200   0.000000
    20  Cl   9.975600   6.525618   9.488480   3.161400   0.000000
    21  Cl   8.830073   6.988795   9.289584   5.475705   3.161400
    22  Cl   4.890332   5.475705   6.322800   6.988795   6.525618
                   21         22
    21  Cl   0.000000
    22  Cl   4.342800   0.000000
 Stoichiometry    C12H4Cl6
 Framework group  C1[X(C12H4Cl6)]
 Deg. of freedom    60
 Full point group                 C1      NOp   1
 Largest Abelian subgroup         C1      NOp   1
 Largest concise Abelian subgroup C1      NOp   1
                         Standard orientation:                         
 ---------------------------------------------------------------------
 Center     Atomic      Atomic             Coordinates (Angstroms)
 Number     Number       Type             X           Y           Z
 ---------------------------------------------------------------------
      1          6           0        0.102655    0.232763    0.000003
      2          6           0        1.049264    1.266133    0.000001
      3          6           0        2.417493    0.963031   -0.000001
      4          6           0        2.839113   -0.373441   -0.000001
      5          6           0        1.892505   -1.406812    0.000003
      6          6           0        0.524275   -1.103709    0.000004
      7          6           0       -1.400894    0.565842    0.000003
      8          6           0       -1.822514    1.902314    0.000004
      9          6           0       -3.190743    2.205417    0.000003
     10          6           0       -4.137352    1.172046    0.000002
     11          6           0       -3.715731   -0.164426    0.000001
     12          6           0       -2.347502   -0.467528    0.000001
     13          1           0        0.727347    2.286559   -0.000001
     14          1           0       -0.198481   -1.892710    0.000006
     15          1           0       -3.512660    3.225843    0.000004
     16          1           0       -5.182025    1.403472   -0.000000
     17         17           0       -1.817995   -2.145986   -0.000002
     18         17           0       -4.904565   -1.462222   -0.000006
     19         17           0        2.422012   -3.085270    0.000006
     20         17           0        4.557455   -0.754103   -0.000004
     21         17           0        3.606326    2.260827   -0.000004
     22         17           0       -0.633680    3.200111    0.000002
 ---------------------------------------------------------------------
 Rotational constants (GHZ):           0.3764542           0.1556790           0.1101341
 Standard basis: 6-311+G(d,p) (5D, 7F)
 There are   486 symmetry adapted cartesian basis functions of A   symmetry.
 There are   468 symmetry adapted basis functions of A   symmetry.
   468 basis functions,   782 primitive gaussians,   486 cartesian basis functions
    89 alpha electrons       89 beta electrons
       nuclear repulsion energy      2025.4808309900 Hartrees.
 NAtoms=   22 NActive=   22 NUniq=   22 SFac= 1.00D+00 NAtFMM=   60 NAOKFM=F Big=F
 Integral buffers will be    131072 words long.
 Raffenetti 2 integral format.
 Two-electron integral symmetry is turned on.
 One-electron integrals computed using PRISM.
 NBasis=   468 RedAO= T EigKep=  1.49D-06  NBF=   468
 NBsUse=   461 1.00D-06 EigRej=  9.99D-07 NBFU=   461
 ExpMin= 4.38D-02 ExpMax= 1.06D+05 ExpMxC= 3.62D+03 IAcc=3 IRadAn=         5 AccDes= 0.00D+00
 Harris functional with IExCor=  402 and IRadAn=       5 diagonalized for initial guess.
 HarFok:  IExCor=  402 AccDes= 0.00D+00 IRadAn=         5 IDoV= 1 UseB2=F ITyADJ=14
 ICtDFT=  3500011 ScaDFX=  1.000000  1.000000  1.000000  1.000000
 FoFCou: FMM=F IPFlag=           0 FMFlag=      100000 FMFlg1=           0
         NFxFlg=           0 DoJE=T BraDBF=F KetDBF=T FulRan=T
         wScrn=  0.000000 ICntrl=       500 IOpCl=  0 I1Cent=   200000004 NGrid=           0
         NMat0=    1 NMatS0=      1 NMatT0=    0 NMatD0=    1 NMtDS0=    0 NMtDT0=    0
 Petite list used in FoFCou.
 Requested convergence on RMS density matrix=1.00D-08 within  32 cycles.
 Requested convergence on MAX density matrix=1.00D-06.
 Requested convergence on             energy=1.00D-06.
 No special actions if energy rises.
 SCF Done:  E(RB3LYP) =  -3221.01759926     A.U. after   16 cycles
            NFock= 16  Conv=0.48D-08     -V/T= 2.0025
 QCSCF skips out because SCF is already converged.

 **********************************************************************

            Population analysis using the SCF Density.

 **********************************************************************

 Orbital symmetries:
       Occupied  (A) (A) (A) (A) (A) (A) (A) (A) (A) (A) (A) (A)
                 (A) (A) (A) (A) (A) (A) (A) (A) (A) (A) (A) (A)
                 (A) (A) (A) (A) (A) (A) (A) (A) (A) (A) (A) (A)
                 (A) (A) (A) (A) (A) (A) (A) (A) (A) (A) (A) (A)
                 (A) (A) (A) (A) (A) (A) (A) (A) (A) (A) (A) (A)
                 (A) (A) (A) (A) (A) (A) (A) (A) (A) (A) (A) (A)
                 (A) (A) (A) (A) (A) (A) (A) (A) (A) (A) (A) (A)
                 (A) (A) (A) (A) (A)
       Virtual   (A) (A) (A) (A) (A) (A) (A) (A) (A) (A) (A) (A)
                 (A) (A) (A) (A) (A) (A) (A) (A) (A) (A) (A) (A)
                 (A) (A) (A) (A) (A) (A) (A) (A) (A) (A) (A) (A)
                 (A) (A) (A) (A) (A) (A) (A) (A) (A) (A) (A) (A)
                 (A) (A) (A) (A) (A) (A) (A) (A) (A) (A) (A) (A)
                 (A) (A) (A) (A) (A) (A) (A) (A) (A) (A) (A) (A)
                 (A) (A) (A) (A) (A) (A) (A) (A) (A) (A) (A) (A)
                 (A) (A) (A) (A) (A) (A) (A) (A) (A) (A) (A) (A)
                 (A) (A) (A) (A) (A) (A) (A) (A) (A) (A) (A) (A)
                 (A) (A) (A) (A) (A) (A) (A) (A) (A) (A) (A) (A)
                 (A) (A) (A) (A) (A) (A) (A) (A) (A) (A) (A) (A)
                 (A) (A) (A) (A) (A) (A) (A) (A) (A) (A) (A) (A)
                 (A) (A) (A) (A) (A) (A) (A) (A) (A) (A) (A) (A)
                 (A) (A) (A) (A) (A) (A) (A) (A) (A) (A) (A) (A)
                 (A) (A) (A) (A) (A) (A) (A) (A) (A) (A) (A) (A)
                 (A) (A) (A) (A) (A) (A) (A) (A) (A) (A) (A) (A)
                 (A) (A) (A) (A) (A) (A) (A) (A) (A) (A) (A) (A)
                 (A) (A) (A) (A) (A) (A) (A) (A) (A) (A) (A) (A)
                 (A) (A) (A) (A) (A) (A) (A) (A) (A) (A) (A) (A)
                 (A) (A) (A) (A) (A) (A) (A) (A) (A) (A) (A) (A)
                 (A) (A) (A) (A) (A) (A) (A) (A) (A) (A) (A) (A)
                 (A) (A) (A) (A) (A) (A) (A) (A) (A) (A) (A) (A)
                 (A) (A) (A) (A) (A) (A) (A) (A) (A) (A) (A) (A)
                 (A) (A) (A) (A) (A) (A) (A) (A) (A) (A) (A) (A)
                 (A) (A) (A) (A) (A) (A) (A) (A) (A) (A) (A) (A)
                 (A) (A) (A) (A) (A) (A) (A) (A) (A) (A) (A) (A)
                 (A) (A) (A) (A) (A) (A) (A) (A) (A) (A) (A) (A)
                 (A) (A) (A) (A) (A) (A) (A) (A) (A) (A) (A) (A)
                 (A) (A) (A) (A) (A) (A) (A) (A) (A) (A) (A) (A)
                 (A) (A) (A) (A) (A) (A) (A) (A) (A) (A) (A) (A)
                 (A) (A) (A) (A) (A) (A) (A) (A) (A) (A) (A) (A)
 The electronic state is 1-A.
 Alpha  occ. eigenvalues -- -101.58893-101.58835-101.58307-101.56743-101.56705
 Alpha  occ. eigenvalues -- -101.56480 -10.28774 -10.28407 -10.28302 -10.26637
 Alpha  occ. eigenvalues --  -10.26264 -10.26237 -10.25177 -10.23086 -10.23000
 Alpha  occ. eigenvalues --  -10.22896 -10.19007 -10.18936  -9.50665  -9.50612
 Alpha  occ. eigenvalues --   -9.49729  -9.48177  -9.48139  -9.47920  -7.27075
 Alpha  occ. eigenvalues --   -7.27038  -7.26225  -7.26109  -7.26101  -7.26060
 Alpha  occ. eigenvalues --   -7.26024  -7.25208  -7.25147  -7.24663  -7.24625
 Alpha  occ. eigenvalues --   -7.24412  -7.23658  -7.23620  -7.23603  -7.23565
 Alpha  occ. eigenvalues --   -7.23414  -7.23324  -0.96227  -0.93485  -0.92808
 Alpha  occ. eigenvalues --   -0.89882  -0.88544  -0.86171  -0.86040  -0.84447
 Alpha  occ. eigenvalues --   -0.79984  -0.76771  -0.75082  -0.74823  -0.66630
 Alpha  occ. eigenvalues --   -0.64609  -0.63650  -0.61936  -0.55559  -0.54826
 Alpha  occ. eigenvalues --   -0.54440  -0.50325  -0.49861  -0.49418  -0.49056
 Alpha  occ. eigenvalues --   -0.46572  -0.46501  -0.46482  -0.43682  -0.43265
 Alpha  occ. eigenvalues --   -0.42328  -0.42042  -0.41309  -0.41105  -0.38498
 Alpha  occ. eigenvalues --   -0.37445  -0.35579  -0.35005  -0.34749  -0.34538
 Alpha  occ. eigenvalues --   -0.33872  -0.33375  -0.31132  -0.30715  -0.30267
 Alpha  occ. eigenvalues --   -0.29127  -0.28110  -0.26193  -0.25775
 Alpha virt. eigenvalues --   -0.08143  -0.06682  -0.04936  -0.04443  -0.03149
 Alpha virt. eigenvalues --   -0.01975  -0.01742  -0.00955   0.00737   0.01064
 Alpha virt. eigenvalues --    0.01656   0.01906   0.02565   0.03017   0.03798
 Alpha virt. eigenvalues --    0.04591   0.04782   0.05458   0.05835   0.05957
 Alpha virt. eigenvalues --    0.06035   0.06812   0.07184   0.07602   0.07885
 Alpha virt. eigenvalues --    0.08472   0.08592   0.08783   0.09428   0.09440
 Alpha virt. eigenvalues --    0.10823   0.10836   0.11140   0.11497   0.11582
 Alpha virt. eigenvalues --    0.12422   0.12579   0.13236   0.13503   0.13585
 Alpha virt. eigenvalues --    0.13909   0.14154   0.14346   0.15079   0.15206
 Alpha virt. eigenvalues --    0.15457   0.15667   0.15940   0.16675   0.17223
 Alpha virt. eigenvalues --    0.17443   0.17966   0.18336   0.18810   0.18862
 Alpha virt. eigenvalues --    0.19539   0.19620   0.19678   0.19851   0.20653
 Alpha virt. eigenvalues --    0.21047   0.21587   0.22123   0.22633   0.22900
 Alpha virt. eigenvalues --    0.23676   0.23707   0.24114   0.24725   0.25070
 Alpha virt. eigenvalues --    0.25394   0.25813   0.26676   0.26858   0.27158
 Alpha virt. eigenvalues --    0.27323   0.28290   0.28565   0.29027   0.29367
 Alpha virt. eigenvalues --    0.30891   0.31253   0.31847   0.32375   0.32672
 Alpha virt. eigenvalues --    0.32948   0.34243   0.35235   0.35768   0.37358
 Alpha virt. eigenvalues --    0.38178   0.40771   0.41907   0.41997   0.42541
 Alpha virt. eigenvalues --    0.43024   0.43236   0.44064   0.44133   0.44869
 Alpha virt. eigenvalues --    0.45323   0.45741   0.46176   0.46898   0.47387
 Alpha virt. eigenvalues --    0.47623   0.48689   0.49331   0.49543   0.49868
 Alpha virt. eigenvalues --    0.50813   0.50960   0.51796   0.52659   0.53556
 Alpha virt. eigenvalues --    0.54888   0.56030   0.56779   0.58009   0.58116
 Alpha virt. eigenvalues --    0.58596   0.58731   0.59087   0.59797   0.61065
 Alpha virt. eigenvalues --    0.61333   0.62133   0.62607   0.63109   0.63623
 Alpha virt. eigenvalues --    0.63841   0.65965   0.66831   0.66948   0.68121
 Alpha virt. eigenvalues --    0.68444   0.69116   0.71875   0.74626   0.76112
 Alpha virt. eigenvalues --    0.78332   0.78691   0.79123   0.80534   0.81665
 Alpha virt. eigenvalues --    0.82182   0.82965   0.83353   0.83866   0.84229
 Alpha virt. eigenvalues --    0.84312   0.84492   0.84725   0.85360   0.85522
 Alpha virt. eigenvalues --    0.85708   0.86524   0.86734   0.86905   0.87459
 Alpha virt. eigenvalues --    0.88168   0.88434   0.88716   0.89442   0.90082
 Alpha virt. eigenvalues --    0.90823   0.92232   0.92940   0.93766   0.94113
 Alpha virt. eigenvalues --    0.94352   0.94755   0.95528   0.95797   0.96040
 Alpha virt. eigenvalues --    0.96085   0.97126   0.97968   0.98021   0.98226
 Alpha virt. eigenvalues --    0.99086   1.00768   1.00847   1.02125   1.02998
 Alpha virt. eigenvalues --    1.05936   1.08052   1.08565   1.10101   1.11562
 Alpha virt. eigenvalues --    1.13955   1.15719   1.18514   1.19891   1.20135
 Alpha virt. eigenvalues --    1.21928   1.22999   1.23600   1.25077   1.25462
 Alpha virt. eigenvalues --    1.26705   1.27350   1.27570   1.29318   1.29667
 Alpha virt. eigenvalues --    1.31404   1.32235   1.34285   1.36093   1.38780
 Alpha virt. eigenvalues --    1.41441   1.42433   1.43252   1.46610   1.47987
 Alpha virt. eigenvalues --    1.50004   1.51451   1.54220   1.56611   1.58498
 Alpha virt. eigenvalues --    1.60103   1.61106   1.64977   1.65303   1.65325
 Alpha virt. eigenvalues --    1.66582   1.68722   1.71336   1.74259   1.78379
 Alpha virt. eigenvalues --    1.78902   1.80549   1.81312   1.83869   1.83991
 Alpha virt. eigenvalues --    1.85185   1.85960   1.87281   1.88189   1.90105
 Alpha virt. eigenvalues --    1.91877   1.92820   1.93970   1.96035   1.97495
 Alpha virt. eigenvalues --    1.97657   1.99885   2.06216   2.10291   2.10798
 Alpha virt. eigenvalues --    2.11704   2.14798   2.18919   2.20048   2.21521
 Alpha virt. eigenvalues --    2.23399   2.23613   2.23852   2.25080   2.26135
 Alpha virt. eigenvalues --    2.26600   2.28279   2.28851   2.30166   2.33194
 Alpha virt. eigenvalues --    2.33554   2.33601   2.35571   2.39057   2.41711
 Alpha virt. eigenvalues --    2.42385   2.43254   2.45092   2.46889   2.49578
 Alpha virt. eigenvalues --    2.50369   2.52736   2.53425   2.54354   2.59233
 Alpha virt. eigenvalues --    2.59394   2.61661   2.61909   2.64633   2.65780
 Alpha virt. eigenvalues --    2.67577   2.69302   2.72020   2.72081   2.73464
 Alpha virt. eigenvalues --    2.73579   2.74519   2.77674   2.79858   2.80208
 Alpha virt. eigenvalues --    2.82733   2.82736   2.85164   2.89990   2.92466
 Alpha virt. eigenvalues --    2.93800   3.04033   3.05225   3.07159   3.09386
 Alpha virt. eigenvalues --    3.10229   3.11218   3.15833   3.16732   3.19708
 Alpha virt. eigenvalues --    3.22008   3.24627   3.25566   3.32976   3.39296
 Alpha virt. eigenvalues --    3.40907   3.42343   3.55797   3.61834   3.67533
 Alpha virt. eigenvalues --    3.71710   3.73309   3.83536   3.97726   4.03308
 Alpha virt. eigenvalues --    4.04569   4.18349   4.43219   4.78368   4.83751
 Alpha virt. eigenvalues --    9.73761   9.76602   9.79242   9.80978   9.86955
 Alpha virt. eigenvalues --    9.87324  23.33636  23.48201  23.80252  23.84489
 Alpha virt. eigenvalues --   23.84791  23.87147  23.94832  23.95464  23.97982
 Alpha virt. eigenvalues --   24.04550  24.07531  24.10952  25.76371  25.77837
 Alpha virt. eigenvalues --   25.80677  25.83755  25.87017  25.89972  26.11057
 Alpha virt. eigenvalues --   26.11790  26.13338  26.19045  26.46317  26.47770
 Alpha virt. eigenvalues --   26.62940  26.64207  26.72332  26.79124  26.83393
 Alpha virt. eigenvalues --   26.93946 215.72650 215.75889 215.78837 215.80726
 Alpha virt. eigenvalues --  215.89440 215.89862
          Condensed to atoms (all electrons):
               1          2          3          4          5          6
     1  C   25.319741   0.017871  -5.808974   3.053835  -4.002303  -1.414015
     2  C    0.017871  14.898506   2.910711  -6.491057   2.941581   1.387734
     3  C   -5.808974   2.910711  24.427150  -5.551544  -6.854688   3.091105
     4  C    3.053835  -6.491057  -5.551544  25.486568  -3.221495  -6.955635
     5  C   -4.002303   2.941581  -6.854688  -3.221495  21.143693   1.463120
     6  C   -1.414015   1.387734   3.091105  -6.955635   1.463120  13.868333
     7  C    8.693816  -0.882559  -3.382082  -0.983475  -2.578203  -0.307173
     8  C   -1.720005  -0.894596   0.600650   0.567146  -2.730225  -2.619230
     9  C   -6.380837  -1.375858   0.220023   0.148448  -0.773517  -1.039160
    10  C   -0.484271   0.275180  -0.047875   0.085677   0.187432   0.903410
    11  C   -4.613391  -1.593810  -0.770604  -0.050201   0.644889   0.531313
    12  C   -4.101575  -3.489978  -2.965867   0.421601   0.114075  -1.425919
    13  H   -0.244258   0.338728   0.024063   0.103915  -0.058197  -0.056124
    14  H   -0.185866  -0.042777  -0.055413   0.110809   0.085749   0.390978
    15  H    0.014404   0.005468   0.000410   0.000203   0.000121   0.002564
    16  H   -0.002116   0.000479  -0.000095   0.000052  -0.000068   0.000235
    17  Cl   0.468468   0.002633   0.352879  -0.046400  -0.984673  -1.091918
    18  Cl  -0.103166  -0.032633   0.004340  -0.010858   0.008883  -0.064871
    19  Cl  -1.026670   0.343431  -0.357857  -0.353446   0.622235   0.409565
    20  Cl   0.224310  -0.427983  -0.088357   0.134860  -0.126002  -0.442601
    21  Cl  -1.120231   0.499498   0.953452  -0.523230  -0.390979   0.339582
    22  Cl   0.714824  -1.152352  -0.960520  -0.053529   0.350105   0.133712
               7          8          9         10         11         12
     1  C    8.693816  -1.720005  -6.380837  -0.484271  -4.613391  -4.101575
     2  C   -0.882559  -0.894596  -1.375858   0.275180  -1.593810  -3.489978
     3  C   -3.382082   0.600650   0.220023  -0.047875  -0.770604  -2.965867
     4  C   -0.983475   0.567146   0.148448   0.085677  -0.050201   0.421601
     5  C   -2.578203  -2.730225  -0.773517   0.187432   0.644889   0.114075
     6  C   -0.307173  -2.619230  -1.039160   0.903410   0.531313  -1.425919
     7  C   20.336096   1.309214  -7.774600   2.102308  -6.944014  -1.920805
     8  C    1.309214  14.170478  -2.036176  -4.282032   2.055876   2.371249
     9  C   -7.774600  -2.036176  19.243404   1.559483  -0.546419   3.631704
    10  C    2.102308  -4.282032   1.559483  15.552201  -5.377737  -3.401955
    11  C   -6.944014   2.055876  -0.546419  -5.377737  19.459055   2.779331
    12  C   -1.920805   2.371249   3.631704  -3.401955   2.779331  14.233854
    13  H   -0.064931   0.123792   0.171022   0.029530   0.008676   0.055803
    14  H   -0.046750   0.022630   0.000618  -0.005453   0.029036   0.136608
    15  H    0.098207  -0.009142   0.347428  -0.012903  -0.064587  -0.010375
    16  H    0.002582   0.034004  -0.084277   0.380995   0.003508   0.014091
    17  Cl   0.025471   0.131324   0.537903   0.262995  -0.269502  -0.877313
    18  Cl  -0.651024   0.150151   0.167854  -0.694753  -0.127563   0.676421
    19  Cl  -0.303878  -0.142767  -0.023485   0.011943   0.041583  -0.004919
    20  Cl  -0.015787  -0.018965  -0.002658  -0.000847  -0.001104  -0.024106
    21  Cl  -0.334621  -0.026978  -0.021559  -0.001156  -0.024312  -0.167790
    22  Cl   0.247246  -0.952157  -0.092838  -0.207191   0.299611   0.241107
              13         14         15         16         17         18
     1  C   -0.244258  -0.185866   0.014404  -0.002116   0.468468  -0.103166
     2  C    0.338728  -0.042777   0.005468   0.000479   0.002633  -0.032633
     3  C    0.024063  -0.055413   0.000410  -0.000095   0.352879   0.004340
     4  C    0.103915   0.110809   0.000203   0.000052  -0.046400  -0.010858
     5  C   -0.058197   0.085749   0.000121  -0.000068  -0.984673   0.008883
     6  C   -0.056124   0.390978   0.002564   0.000235  -1.091918  -0.064871
     7  C   -0.064931  -0.046750   0.098207   0.002582   0.025471  -0.651024
     8  C    0.123792   0.022630  -0.009142   0.034004   0.131324   0.150151
     9  C    0.171022   0.000618   0.347428  -0.084277   0.537903   0.167854
    10  C    0.029530  -0.005453  -0.012903   0.380995   0.262995  -0.694753
    11  C    0.008676   0.029036  -0.064587   0.003508  -0.269502  -0.127563
    12  C    0.055803   0.136608  -0.010375   0.014091  -0.877313   0.676421
    13  H    0.677445  -0.000250   0.000056  -0.000005   0.001215   0.000097
    14  H   -0.000250   0.680540  -0.000000   0.000003  -0.236509   0.005008
    15  H    0.000056  -0.000000   0.500330  -0.007384   0.000413  -0.000208
    16  H   -0.000005   0.000003  -0.007384   0.498048   0.000961  -0.003968
    17  Cl   0.001215  -0.236509   0.000413   0.000961  18.318668  -0.218816
    18  Cl   0.000097   0.005008  -0.000208  -0.003968  -0.218816  17.346954
    19  Cl   0.000822  -0.032742   0.000001  -0.000001  -0.090140   0.000498
    20  Cl   0.002235   0.002525   0.000000   0.000000   0.000565  -0.000028
    21  Cl  -0.033934   0.000878  -0.000001  -0.000000   0.006554   0.000085
    22  Cl  -0.222598   0.001363  -0.020745   0.002580  -0.029847  -0.005621
              19         20         21         22
     1  C   -1.026670   0.224310  -1.120231   0.714824
     2  C    0.343431  -0.427983   0.499498  -1.152352
     3  C   -0.357857  -0.088357   0.953452  -0.960520
     4  C   -0.353446   0.134860  -0.523230  -0.053529
     5  C    0.622235  -0.126002  -0.390979   0.350105
     6  C    0.409565  -0.442601   0.339582   0.133712
     7  C   -0.303878  -0.015787  -0.334621   0.247246
     8  C   -0.142767  -0.018965  -0.026978  -0.952157
     9  C   -0.023485  -0.002658  -0.021559  -0.092838
    10  C    0.011943  -0.000847  -0.001156  -0.207191
    11  C    0.041583  -0.001104  -0.024312   0.299611
    12  C   -0.004919  -0.024106  -0.167790   0.241107
    13  H    0.000822   0.002235  -0.033934  -0.222598
    14  H   -0.032742   0.002525   0.000878   0.001363
    15  H    0.000001   0.000000  -0.000001  -0.020745
    16  H   -0.000001   0.000000  -0.000000   0.002580
    17  Cl  -0.090140   0.000565   0.006554  -0.029847
    18  Cl   0.000498  -0.000028   0.000085  -0.005621
    19  Cl  17.621652  -0.256996   0.010715   0.006177
    20  Cl  -0.256996  17.605561  -0.251347  -0.001026
    21  Cl   0.010715  -0.251347  17.643778  -0.080888
    22  Cl   0.006177  -0.001026  -0.080888  18.110275
 Mulliken charges:
               1
     1  C   -1.299592
     2  C   -1.238218
     3  C    0.259094
     4  C    0.127752
     5  C    0.158469
     6  C   -1.105005
     7  C   -0.625041
     8  C   -0.104242
     9  C    0.123498
    10  C   -0.834982
    11  C    0.530366
    12  C   -0.285240
    13  H    0.142898
    14  H    0.139015
    15  H    0.155742
    16  H    0.160378
    17  Cl   0.735069
    18  Cl   0.553218
    19  Cl   0.524280
    20  Cl   0.687750
    21  Cl   0.522482
    22  Cl   0.672311
 Sum of Mulliken charges =  -0.00000
 Mulliken charges with hydrogens summed into heavy atoms:
               1
     1  C   -1.299592
     2  C   -1.095321
     3  C    0.259094
     4  C    0.127752
     5  C    0.158469
     6  C   -0.965990
     7  C   -0.625041
     8  C   -0.104242
     9  C    0.279240
    10  C   -0.674604
    11  C    0.530366
    12  C   -0.285240
    17  Cl   0.735069
    18  Cl   0.553218
    19  Cl   0.524280
    20  Cl   0.687750
    21  Cl   0.522482
    22  Cl   0.672311
 Electronic spatial extent (au):  <R**2>=           8452.3716
 Charge=             -0.0000 electrons
 Dipole moment (field-independent basis, Debye):
    X=             -4.1526    Y=              1.9834    Z=              0.0000  Tot=              4.6020
 Quadrupole moment (field-independent basis, Debye-Ang):
   XX=           -145.0197   YY=           -141.3779   ZZ=           -147.2806
   XY=             -6.5097   XZ=             -0.0000   YZ=              0.0000
 Traceless Quadrupole moment (field-independent basis, Debye-Ang):
   XX=             -0.4603   YY=              3.1815   ZZ=             -2.7212
   XY=             -6.5097   XZ=             -0.0000   YZ=              0.0000
 Octapole moment (field-independent basis, Debye-Ang**2):
  XXX=            -53.2679  YYY=             -2.9656  ZZZ=             -0.0001  XYY=            -14.4484
  XXY=             33.6774  XXZ=             -0.0000  XZZ=              7.9372  YZZ=             -5.3519
  YYZ=             -0.0000  XYZ=             -0.0000
 Hexadecapole moment (field-independent basis, Debye-Ang**3):
 XXXX=          -7544.1409 YYYY=          -3111.7899 ZZZZ=           -170.8107 XXXY=           -119.2140
 XXXZ=              0.0002 YYYX=             22.0629 YYYZ=             -0.0000 ZZZX=              0.0001
 ZZZY=             -0.0000 XXYY=          -1744.9373 XXZZ=          -1357.5099 YYZZ=           -580.7269
 XXYZ=              0.0001 YYXZ=              0.0000 ZZXY=             17.5817
 N-N= 2.025480830990D+03 E-N=-1.168003301542D+04  KE= 3.213040546701D+03
 Calling FoFJK, ICntrl=      2127 FMM=F ISym2X=0 I1Cent= 0 IOpClX= 0 NMat=1 NMatS=1 NMatT=0.
 ***** Axes restored to original set *****
 -------------------------------------------------------------------
 Center     Atomic                   Forces (Hartrees/Bohr)
 Number     Number              X              Y              Z
 -------------------------------------------------------------------
      1        6          -0.012496545   -0.019151230    0.000520170
      2        6           0.007852324    0.053566128    0.007473390
      3        6          -0.012210746   -0.002957183    0.003467603
      4        6           0.007887391    0.013545179   -0.000054808
      5        6           0.003487641   -0.012109879   -0.003423340
      6        6           0.043530042    0.033925865   -0.007969781
      7        6           0.026920645    0.041816411   -0.001015542
      8        6          -0.016325402   -0.006575416    0.004143691
      9        6          -0.003091066    0.012758381    0.003414442
     10        6           0.010269114    0.015592407   -0.000454804
     11        6          -0.003337520    0.000326549    0.001161095
     12        6          -0.001476263   -0.007712042   -0.000962114
     13        1           0.005604041    0.048032991    0.007174745
     14        1           0.039347750    0.028137198   -0.007679250
     15        1           0.003895257   -0.007316576   -0.002657404
     16        1          -0.004709062   -0.006669366    0.000298814
     17       17          -0.081926807   -0.060071689    0.015709693
     18       17           0.006936938   -0.003954975   -0.003028304
     19       17          -0.000733381   -0.007107573   -0.001093221
     20       17          -0.003108336   -0.005350868    0.000019131
     21       17          -0.005787013   -0.004136832    0.001129618
     22       17          -0.010529004   -0.104587479   -0.016173826
 -------------------------------------------------------------------
 Cartesian Forces:  Max     0.104587479 RMS     0.023881004

 GradGradGradGradGradGradGradGradGradGradGradGradGradGradGradGradGradGrad
 Berny optimization.
 FormGI is forming the generalized inverse of G from B-inverse, IUseBI=4.
 Internal  Forces:  Max     0.195806540 RMS     0.048816610
 Search for a local minimum.
 Step number   1 out of a maximum of  121
 All quantities printed in internal units (Hartrees-Bohrs-Radians)
 Mixed Optimization -- RFO/linear search
 Second derivative matrix not updated -- first step.
 ITU=  0
     Eigenvalues ---    0.00237   0.01506   0.01506   0.02070   0.02070
     Eigenvalues ---    0.02070   0.02070   0.02070   0.02070   0.02070
     Eigenvalues ---    0.02070   0.02070   0.02070   0.02070   0.02070
     Eigenvalues ---    0.02070   0.02070   0.02070   0.02070   0.16000
     Eigenvalues ---    0.16000   0.16000   0.16000   0.22489   0.23478
     Eigenvalues ---    0.23493   0.24492   0.25000   0.25000   0.25000
     Eigenvalues ---    0.25000   0.25000   0.25000   0.25000   0.25000
     Eigenvalues ---    0.25000   0.25000   0.28519   0.29539   0.29539
     Eigenvalues ---    0.29539   0.29539   0.29539   0.29539   0.37230
     Eigenvalues ---    0.37230   0.37230   0.37230   0.41540   0.41554
     Eigenvalues ---    0.41716   0.41720   0.45389   0.45389   0.45389
     Eigenvalues ---    0.45389   0.45389   0.45389   0.45389   0.45389
 RFO step:  Lambda=-3.91689631D-01 EMin= 2.36824243D-03
 Linear search not attempted -- first point.
 Maximum step size (   0.300) exceeded in Quadratic search.
    -- Step size scaled by   0.392
 Iteration  1 RMS(Cart)=  0.09730410 RMS(Int)=  0.00390272
 Iteration  2 RMS(Cart)=  0.00446100 RMS(Int)=  0.00015734
 Iteration  3 RMS(Cart)=  0.00000823 RMS(Int)=  0.00015730
 Iteration  4 RMS(Cart)=  0.00000000 RMS(Int)=  0.00015730
 Variable       Old X    -DE/DX   Delta X   Delta X   Delta X     New X
                                 (Linear)    (Quad)   (Total)
    R1        2.64826   0.02973   0.00000   0.01426   0.01440   2.66266
    R2        2.64826   0.02978   0.00000   0.01429   0.01443   2.66269
    R3        2.91018   0.14615   0.00000   0.08465   0.08465   2.99483
    R4        2.64826  -0.01052   0.00000  -0.00488  -0.00488   2.64339
    R5        2.02201  -0.04012   0.00000  -0.02059  -0.02059   2.00142
    R6        2.64826  -0.03327   0.00000  -0.01590  -0.01605   2.63222
    R7        3.32592  -0.00594   0.00000  -0.00339  -0.00339   3.32253
    R8        2.64826  -0.03325   0.00000  -0.01590  -0.01604   2.63222
    R9        3.32592  -0.00619   0.00000  -0.00353  -0.00353   3.32239
   R10        2.64826  -0.01041   0.00000  -0.00482  -0.00482   2.64344
   R11        3.32592  -0.00599   0.00000  -0.00342  -0.00342   3.32250
   R12        2.02201  -0.04038   0.00000  -0.02072  -0.02072   2.00128
   R13        2.64826   0.13702   0.00000   0.06548   0.06579   2.71405
   R14        2.64826   0.13885   0.00000   0.06652   0.06683   2.71509
   R15        2.64826  -0.01190   0.00000  -0.00570  -0.00570   2.64256
   R16        3.32592  -0.00724   0.00000  -0.00413  -0.00413   3.32179
   R17        2.64826  -0.06300   0.00000  -0.03135  -0.03166   2.61660
   R18        2.02201   0.00870   0.00000   0.00447   0.00447   2.02647
   R19        2.64826  -0.06119   0.00000  -0.03032  -0.03064   2.61762
   R20        2.02201   0.00814   0.00000   0.00418   0.00418   2.02618
   R21        2.64826  -0.00241   0.00000  -0.00093  -0.00094   2.64732
   R22        3.32592  -0.00745   0.00000  -0.00425  -0.00425   3.32167
   R23        3.32592  -0.00927   0.00000  -0.00529  -0.00529   3.32063
    A1        2.09440  -0.10804   0.00000  -0.06525  -0.06495   2.02944
    A2        2.09440   0.05229   0.00000   0.03157   0.03142   2.12582
    A3        2.09440   0.05575   0.00000   0.03368   0.03353   2.12793
    A4        2.09440   0.05268   0.00000   0.03389   0.03403   2.12842
    A5        2.09440   0.00190   0.00000   0.00313   0.00306   2.09745
    A6        2.09440  -0.05458   0.00000  -0.03701  -0.03709   2.05731
    A7        2.09440   0.01693   0.00000   0.00917   0.00903   2.10342
    A8        2.09440  -0.01524   0.00000  -0.00873  -0.00865   2.08574
    A9        2.09440  -0.00169   0.00000  -0.00045  -0.00037   2.09402
   A10        2.09440  -0.03113   0.00000  -0.02083  -0.02113   2.07327
   A11        2.09440   0.01553   0.00000   0.01040   0.01054   2.10494
   A12        2.09440   0.01560   0.00000   0.01044   0.01059   2.10498
   A13        2.09440   0.01695   0.00000   0.00919   0.00904   2.10344
   A14        2.09440  -0.00175   0.00000  -0.00048  -0.00041   2.09399
   A15        2.09440  -0.01521   0.00000  -0.00871  -0.00863   2.08576
   A16        2.09440   0.05260   0.00000   0.03384   0.03398   2.12838
   A17        2.09440   0.00172   0.00000   0.00299   0.00292   2.09732
   A18        2.09440  -0.05432   0.00000  -0.03683  -0.03690   2.05749
   A19        2.09440   0.06846   0.00000   0.03911   0.03878   2.13318
   A20        2.09440   0.07028   0.00000   0.04023   0.03989   2.13429
   A21        2.09440  -0.13874   0.00000  -0.07934  -0.07867   2.01572
   A22        2.09440   0.03871   0.00000   0.02596   0.02628   2.12067
   A23        2.09440   0.15709   0.00000   0.09483   0.09467   2.18906
   A24        2.09440  -0.19581   0.00000  -0.12079  -0.12095   1.97345
   A25        2.09440   0.03871   0.00000   0.02147   0.02114   2.11554
   A26        2.09440  -0.01937   0.00000  -0.01075  -0.01059   2.08381
   A27        2.09440  -0.01933   0.00000  -0.01072  -0.01056   2.08384
   A28        2.09440  -0.01117   0.00000  -0.01299  -0.01364   2.08076
   A29        2.09440   0.00633   0.00000   0.00703   0.00735   2.10175
   A30        2.09440   0.00483   0.00000   0.00596   0.00629   2.10068
   A31        2.09440   0.03950   0.00000   0.02169   0.02136   2.11576
   A32        2.09440  -0.02670   0.00000  -0.01509  -0.01493   2.07947
   A33        2.09440  -0.01280   0.00000  -0.00660  -0.00643   2.08796
   A34        2.09440   0.03299   0.00000   0.02321   0.02352   2.11792
   A35        2.09440   0.15376   0.00000   0.09242   0.09226   2.18666
   A36        2.09440  -0.18675   0.00000  -0.11563  -0.11578   1.97861
    D1        0.00000   0.00000   0.00000   0.00000   0.00000   0.00000
    D2        3.14159  -0.00000   0.00000   0.00000   0.00000   3.14159
    D3       -3.14159  -0.00000   0.00000  -0.00000  -0.00000  -3.14159
    D4       -0.00000  -0.00000   0.00000  -0.00000  -0.00000  -0.00000
    D5       -0.00000  -0.00000   0.00000  -0.00000  -0.00000  -0.00000
    D6        3.14159  -0.00000   0.00000  -0.00000  -0.00000   3.14159
    D7        3.14159   0.00000   0.00000   0.00000   0.00000   3.14159
    D8        0.00000  -0.00000   0.00000  -0.00000  -0.00000  -0.00000
    D9       -0.00000  -0.00000   0.00000  -0.00000  -0.00000  -0.00000
   D10        3.14159  -0.00000   0.00000  -0.00000  -0.00000   3.14159
   D11        3.14159  -0.00000   0.00000  -0.00000  -0.00000   3.14159
   D12       -0.00000  -0.00000   0.00000  -0.00000  -0.00000  -0.00000
   D13        0.00000  -0.00000   0.00000  -0.00000  -0.00000   0.00000
   D14        3.14159  -0.00000   0.00000  -0.00000  -0.00000   3.14159
   D15       -3.14159  -0.00000   0.00000  -0.00000  -0.00000  -3.14159
   D16        0.00000  -0.00000   0.00000  -0.00000  -0.00000   0.00000
   D17       -0.00000  -0.00000   0.00000   0.00000   0.00000  -0.00000
   D18        3.14159   0.00000   0.00000   0.00000   0.00000   3.14159
   D19        3.14159  -0.00000   0.00000  -0.00000  -0.00000   3.14159
   D20        0.00000  -0.00000   0.00000  -0.00000  -0.00000   0.00000
   D21        0.00000   0.00000   0.00000   0.00000   0.00000   0.00000
   D22       -3.14159   0.00000   0.00000   0.00000   0.00000  -3.14159
   D23       -3.14159  -0.00000   0.00000  -0.00000  -0.00000  -3.14159
   D24        0.00000   0.00000   0.00000   0.00000   0.00000   0.00000
   D25       -0.00000   0.00000   0.00000   0.00000   0.00000  -0.00000
   D26        3.14159   0.00000   0.00000   0.00000   0.00000   3.14159
   D27        3.14159   0.00000   0.00000  -0.00000  -0.00000   3.14159
   D28       -0.00000   0.00000   0.00000   0.00000   0.00000  -0.00000
   D29        3.14159   0.00000   0.00000   0.00000   0.00000   3.14159
   D30        0.00000   0.00000   0.00000   0.00000   0.00000   0.00000
   D31        0.00000   0.00000   0.00000   0.00000   0.00000   0.00000
   D32       -3.14159  -0.00000   0.00000  -0.00000  -0.00000  -3.14159
   D33       -3.14159  -0.00000   0.00000  -0.00000  -0.00000  -3.14159
   D34        0.00000  -0.00000   0.00000  -0.00000  -0.00000  -0.00000
   D35       -0.00000   0.00000   0.00000   0.00000   0.00000  -0.00000
   D36        3.14159  -0.00000   0.00000  -0.00000  -0.00000   3.14159
   D37       -0.00000  -0.00000   0.00000  -0.00000  -0.00000  -0.00000
   D38        3.14159  -0.00000   0.00000  -0.00000  -0.00000   3.14159
   D39        3.14159   0.00000   0.00000   0.00000   0.00000   3.14159
   D40       -0.00000   0.00000   0.00000   0.00000   0.00000  -0.00000
   D41       -0.00000   0.00000   0.00000   0.00000   0.00000  -0.00000
   D42       -3.14159  -0.00000   0.00000  -0.00000  -0.00000  -3.14159
   D43        3.14159   0.00000   0.00000   0.00000   0.00000   3.14159
   D44        0.00000   0.00000   0.00000   0.00000   0.00000   0.00000
   D45        0.00000   0.00000   0.00000   0.00000   0.00000   0.00000
   D46       -3.14159  -0.00000   0.00000  -0.00000  -0.00000  -3.14159
   D47        3.14159   0.00000   0.00000   0.00000   0.00000   3.14159
   D48        0.00000  -0.00000   0.00000  -0.00000  -0.00000   0.00000
   D49        0.00000  -0.00000   0.00000  -0.00000  -0.00000   0.00000
   D50       -3.14159   0.00000   0.00000   0.00000   0.00000  -3.14159
   D51        3.14159   0.00000   0.00000   0.00000   0.00000   3.14159
   D52       -0.00000   0.00000   0.00000   0.00000   0.00000  -0.00000
         Item               Value     Threshold  Converged?
 Maximum Force            0.195807     0.000450     NO 
 RMS     Force            0.048817     0.000300     NO 
 Maximum Displacement     0.533574     0.001800     NO 
 RMS     Displacement     0.098690     0.001200     NO 
 Predicted change in Energy=-1.410678D-01
 GradGradGradGradGradGradGradGradGradGradGradGradGradGradGradGradGradGrad

                          Input orientation:                          
 ---------------------------------------------------------------------
 Center     Atomic      Atomic             Coordinates (Angstroms)
 Number     Number       Type             X           Y           Z
 ---------------------------------------------------------------------
      1          6           0       -0.056796   -0.019603   -0.002267
      2          6           0        1.283688    0.053367   -0.430192
      3          6           0        1.993731    1.258555   -0.437773
      4          6           0        1.387228    2.439486   -0.016167
      5          6           0        0.062537    2.397395    0.412351
      6          6           0       -0.644075    1.190152    0.418416
      7          6           0       -0.857912   -1.386987    0.004857
      8          6           0       -0.265758   -2.623691   -0.422496
      9          6           0       -0.986675   -3.821855   -0.410012
     10          6           0       -2.303471   -3.862540    0.016176
     11          6           0       -2.914378   -2.692784    0.437135
     12          6           0       -2.224797   -1.473356    0.438968
     13          1           0        1.785653   -0.819177   -0.759436
     14          1           0       -1.648923    1.206046    0.752452
     15          1           0       -0.510950   -4.725764   -0.736506
     16          1           0       -2.844357   -4.788314    0.020507
     17         17           0       -3.195013   -0.124937    1.011862
     18         17           0       -4.586055   -2.746667    0.977767
     19         17           0       -0.733664    3.869474    0.951131
     20         17           0        2.277514    3.955516   -0.024750
     21         17           0        3.664523    1.275771   -0.984989
     22         17           0        1.382458   -2.817520   -1.001913
 ---------------------------------------------------------------------
                    Distance matrix (angstroms):
                    1          2          3          4          5
     1  C    0.000000
     2  C    1.409021   0.000000
     3  C    2.455200   1.398819   0.000000
     4  C    2.851757   2.423985   1.392909   0.000000
     5  C    2.455204   2.774087   2.397744   1.392913   0.000000
     6  C    1.409034   2.393468   2.774123   2.424025   1.398848
     7  C    1.584796   2.617315   3.914930   4.436552   3.915971
     8  C    2.646042   3.093135   4.491921   5.341651   5.100594
     9  C    3.935486   4.491358   5.890173   6.707825   6.360518
    10  C    4.451523   5.329285   6.700569   7.303276   6.703860
    11  C    3.937607   5.090910   6.361452   6.711892   5.896826
    12  C    2.647323   3.923747   5.101763   5.344550   4.496145
    13  H    2.146448   1.059105   2.112755   3.366018   3.832564
    14  H    2.146319   3.365639   3.832534   3.366061   2.112836
    15  H    4.784696   5.114161   6.494208   7.447334   7.237966
    16  H    5.523733   6.378539   7.757688   8.375485   7.761313
    17  Cl   3.299691   4.708511   5.562243   5.350705   4.163317
    18  Cl   5.376945   6.654053   7.831930   7.972716   6.956326
    19  Cl   4.061039   4.532156   4.023014   2.734724   1.758192
    20  Cl   4.609888   4.047078   2.743122   1.758131   2.743158
    21  Cl   4.061028   2.733212   1.758206   2.734762   4.023047
    22  Cl   3.301376   2.928927   4.160083   5.348629   5.562164
                    6          7          8          9         10
     6  C    0.000000
     7  C    2.618855   0.000000
     8  C    3.923730   1.436215   0.000000
     9  C    5.091549   2.473313   1.398382   0.000000
    10  C    5.333393   2.866728   2.424758   1.384646   0.000000
    11  C    4.497979   2.474070   2.785485   2.389246   1.385187
    12  C    3.097318   1.436763   2.429655   2.787321   2.427580
    13  H    3.365757   2.809802   2.752833   4.101703   5.156023
    14  H    1.059033   2.812191   4.237987   5.202853   5.163439
    15  H    6.029065   3.437649   2.139493   1.072364   2.127162
    16  H    6.382916   3.938938   3.395734   2.137843   1.072209
    17  Cl   2.930686   2.840576   4.108733   4.534940   3.969372
    18  Cl   5.599162   4.085870   4.543217   4.004684   2.716619
    19  Cl   2.733236   5.342402   6.653344   7.814938   7.944966
    20  Cl   4.047137   6.194684   7.064871   8.443390   9.061407
    21  Cl   4.532207   5.340646   5.565008   6.924596   7.938610
    22  Cl   4.710160   2.842405   1.757814   2.640421   3.964170
                   11         12         13         14         15
    11  C    0.000000
    12  C    1.400903   0.000000
    13  H    5.199277   4.236488   0.000000
    14  H    4.111165   2.758459   4.264228   0.000000
    15  H    3.359599   3.859685   4.531703   6.220799   0.000000
    16  H    2.137692   3.398221   6.148118   6.156066   2.453930
    17  Cl   2.646300   1.757202   5.331651   2.056503   5.606121
    18  Cl   1.757751   2.736268   6.879808   4.929650   4.843762
    19  Cl   6.934186   5.570604   5.590747   2.823300   8.762182
    20  Cl   8.448015   7.068132   4.855860   4.855979   9.145859
    21  Cl   7.813693   6.653529   2.823089   5.590731   7.315377
    22  Cl   4.533124   4.110377   2.052982   5.334430   2.701264
                   16         17         18         19         20
    16  H    0.000000
    17  Cl   4.780463   0.000000
    18  Cl   2.849241   2.968102   0.000000
    19  Cl   8.959820   4.692254   7.656040   0.000000
    20  Cl  10.133615   6.904579   9.645355   3.166534   0.000000
    21  Cl   8.952635   7.280291   9.386397   5.460761   3.166526
    22  Cl   4.774446   5.679659   6.288664   7.280676   6.901448
                   21         22
    21  Cl   0.000000
    22  Cl   4.686484   0.000000
 Stoichiometry    C12H4Cl6
 Framework group  C1[X(C12H4Cl6)]
 Deg. of freedom    60
 Full point group                 C1      NOp   1
 Largest Abelian subgroup         C1      NOp   1
 Largest concise Abelian subgroup C1      NOp   1
                         Standard orientation:                         
 ---------------------------------------------------------------------
 Center     Atomic      Atomic             Coordinates (Angstroms)
 Number     Number       Type             X           Y           Z
 ---------------------------------------------------------------------
      1          6           0        0.173496    0.214015    0.000002
      2          6           0        1.140941    1.238414    0.000000
      3          6           0        2.512103    0.961630   -0.000001
      4          6           0        2.967998   -0.354560   -0.000001
      5          6           0        2.034049   -1.387974    0.000003
      6          6           0        0.663711   -1.106995    0.000004
      7          6           0       -1.379143    0.531648    0.000003
      8          6           0       -1.885874    1.875500    0.000004
      9          6           0       -3.259277    2.138623    0.000004
     10          6           0       -4.186811    1.110554    0.000002
     11          6           0       -3.742145   -0.201321    0.000001
     12          6           0       -2.374448   -0.504525    0.000001
     13          1           0        0.840800    2.254100   -0.000002
     14          1           0       -0.009535   -1.924485    0.000007
     15          1           0       -3.600393    3.155287    0.000005
     16          1           0       -5.236986    1.326808    0.000001
     17         17           0       -2.043184   -2.230221   -0.000003
     18         17           0       -4.921295   -1.504890   -0.000006
     19         17           0        2.574958   -3.060893    0.000007
     20         17           0        4.690839   -0.705052   -0.000004
     21         17           0        3.663658    2.290242   -0.000005
     22         17           0       -0.905063    3.334239    0.000002
 ---------------------------------------------------------------------
 Rotational constants (GHZ):           0.3665330           0.1475589           0.1052053
 Standard basis: 6-311+G(d,p) (5D, 7F)
 There are   486 symmetry adapted cartesian basis functions of A   symmetry.
 There are   468 symmetry adapted basis functions of A   symmetry.
   468 basis functions,   782 primitive gaussians,   486 cartesian basis functions
    89 alpha electrons       89 beta electrons
       nuclear repulsion energy      1993.2611007851 Hartrees.
 NAtoms=   22 NActive=   22 NUniq=   22 SFac= 1.00D+00 NAtFMM=   60 NAOKFM=F Big=F
 Integral buffers will be    131072 words long.
 Raffenetti 2 integral format.
 Two-electron integral symmetry is turned on.
 One-electron integrals computed using PRISM.
 NBasis=   468 RedAO= T EigKep=  1.20D-06  NBF=   468
 NBsUse=   462 1.00D-06 EigRej=  5.05D-07 NBFU=   462
 Initial guess from the checkpoint file:  "./Gau-305292.chk"
 B after Tr=    -0.000000   -0.000000    0.000000
         Rot=    0.999973    0.000000   -0.000000   -0.007301 Ang=  -0.84 deg.
 ExpMin= 4.38D-02 ExpMax= 1.06D+05 ExpMxC= 3.62D+03 IAcc=3 IRadAn=         5 AccDes= 0.00D+00
 Harris functional with IExCor=  402 and IRadAn=       5 diagonalized for initial guess.
 HarFok:  IExCor=  402 AccDes= 0.00D+00 IRadAn=         5 IDoV= 1 UseB2=F ITyADJ=14
 ICtDFT=  3500011 ScaDFX=  1.000000  1.000000  1.000000  1.000000
 FoFCou: FMM=F IPFlag=           0 FMFlag=      100000 FMFlg1=           0
         NFxFlg=           0 DoJE=T BraDBF=F KetDBF=T FulRan=T
         wScrn=  0.000000 ICntrl=       500 IOpCl=  0 I1Cent=   200000004 NGrid=           0
         NMat0=    1 NMatS0=      1 NMatT0=    0 NMatD0=    1 NMtDS0=    0 NMtDT0=    0
 Petite list used in FoFCou.
 Requested convergence on RMS density matrix=1.00D-08 within  32 cycles.
 Requested convergence on MAX density matrix=1.00D-06.
 Requested convergence on             energy=1.00D-06.
 No special actions if energy rises.
 SCF Done:  E(RB3LYP) =  -3221.09121783     A.U. after   14 cycles
            NFock= 14  Conv=0.91D-08     -V/T= 2.0027
 QCSCF skips out because SCF is already converged.
 Calling FoFJK, ICntrl=      2127 FMM=F ISym2X=0 I1Cent= 0 IOpClX= 0 NMat=1 NMatS=1 NMatT=0.
 ***** Axes restored to original set *****
 -------------------------------------------------------------------
 Center     Atomic                   Forces (Hartrees/Bohr)
 Number     Number              X              Y              Z
 -------------------------------------------------------------------
      1        6          -0.011660324   -0.018030887    0.000455086
      2        6          -0.002552409    0.015218020    0.003699137
      3        6          -0.004486335   -0.007181451    0.000129403
      4        6           0.008708170    0.014871133   -0.000076192
      5        6          -0.004043108   -0.007380851   -0.000054150
      6        6           0.014902811    0.005606400   -0.003856888
      7        6           0.017307794    0.024709186   -0.001061388
      8        6          -0.016667252    0.005580109    0.006539225
      9        6          -0.001596976    0.009643036    0.002337094
     10        6           0.004188577    0.005582739   -0.000331432
     11        6          -0.004327733    0.002460975    0.001888174
     12        6           0.008120980   -0.003521828   -0.003337005
     13        1           0.006997723    0.001672372   -0.001991385
     14        1          -0.002061374    0.006670141    0.001931739
     15        1           0.003903510   -0.004981886   -0.002221650
     16        1          -0.003808453   -0.005480738    0.000225335
     17       17          -0.004078956   -0.004460343    0.000506188
     18       17           0.003134294   -0.008534581   -0.002635582
     19       17          -0.000571609   -0.006824742   -0.001093394
     20       17          -0.003952412   -0.006759557    0.000032649
     21       17          -0.005616137   -0.003828517    0.001131227
     22       17          -0.001840780   -0.015028732   -0.002216192
 -------------------------------------------------------------------
 Cartesian Forces:  Max     0.024709186 RMS     0.007453728

 GradGradGradGradGradGradGradGradGradGradGradGradGradGradGradGradGradGrad
 Berny optimization.
 Using GEDIIS/GDIIS optimizer.
 FormGI is forming the generalized inverse of G from B-inverse, IUseBI=4.
 Internal  Forces:  Max     0.030885007 RMS     0.006518332
 Search for a local minimum.
 Step number   2 out of a maximum of  121
 All quantities printed in internal units (Hartrees-Bohrs-Radians)
 Mixed Optimization -- RFO/linear search
 Update second derivatives using D2CorX and points    1    2
 DE= -7.36D-02 DEPred=-1.41D-01 R= 5.22D-01
 TightC=F SS=  1.41D+00  RLast= 3.00D-01 DXNew= 5.0454D-01 8.9996D-01
 Trust test= 5.22D-01 RLast= 3.00D-01 DXMaxT set to 5.05D-01
 ITU=  1  0
 Use linear search instead of GDIIS.
     Eigenvalues ---    0.00237   0.01461   0.01468   0.02070   0.02070
     Eigenvalues ---    0.02070   0.02070   0.02070   0.02070   0.02070
     Eigenvalues ---    0.02070   0.02070   0.02070   0.02070   0.02070
     Eigenvalues ---    0.02070   0.02070   0.02070   0.02070   0.16000
     Eigenvalues ---    0.16000   0.16000   0.16083   0.22523   0.23474
     Eigenvalues ---    0.23643   0.24491   0.24868   0.25000   0.25000
     Eigenvalues ---    0.25000   0.25000   0.25000   0.25000   0.25000
     Eigenvalues ---    0.25000   0.27888   0.29520   0.29536   0.29539
     Eigenvalues ---    0.29539   0.29539   0.29539   0.36305   0.37213
     Eigenvalues ---    0.37230   0.37230   0.38223   0.41391   0.41515
     Eigenvalues ---    0.41850   0.45068   0.45344   0.45389   0.45389
     Eigenvalues ---    0.45389   0.45389   0.45389   0.45389   1.58627
 RFO step:  Lambda=-1.17842280D-02 EMin= 2.36824243D-03
 Quartic linear search produced a step of  0.22117.
 Iteration  1 RMS(Cart)=  0.04009464 RMS(Int)=  0.00126804
 Iteration  2 RMS(Cart)=  0.00135366 RMS(Int)=  0.00006767
 Iteration  3 RMS(Cart)=  0.00000025 RMS(Int)=  0.00006767
 Variable       Old X    -DE/DX   Delta X   Delta X   Delta X     New X
                                 (Linear)    (Quad)   (Total)
    R1        2.66266   0.00026   0.00319  -0.00837  -0.00517   2.65749
    R2        2.66269   0.00025   0.00319  -0.00841  -0.00521   2.65748
    R3        2.99483  -0.00734   0.01872  -0.08670  -0.06797   2.92686
    R4        2.64339  -0.00992  -0.00108  -0.02300  -0.02408   2.61931
    R5        2.00142   0.00256  -0.00455   0.02120   0.01665   2.01807
    R6        2.63222  -0.00142  -0.00355   0.00635   0.00279   2.63500
    R7        3.32253  -0.00573  -0.00075  -0.02051  -0.02126   3.30127
    R8        2.63222  -0.00142  -0.00355   0.00635   0.00279   2.63501
    R9        3.32239  -0.00783  -0.00078  -0.02877  -0.02955   3.29283
   R10        2.64344  -0.00987  -0.00107  -0.02290  -0.02397   2.61947
   R11        3.32250  -0.00579  -0.00076  -0.02074  -0.02150   3.30100
   R12        2.00128   0.00267  -0.00458   0.02163   0.01705   2.01833
   R13        2.71405   0.00591   0.01455  -0.02433  -0.00962   2.70444
   R14        2.71509   0.00927   0.01478  -0.01454   0.00033   2.71542
   R15        2.64256  -0.00800  -0.00126  -0.01899  -0.02018   2.62238
   R16        3.32179   0.00066  -0.00091   0.00537   0.00445   3.32624
   R17        2.61660  -0.01276  -0.00700  -0.01621  -0.02331   2.59329
   R18        2.02647   0.00661   0.00099   0.01816   0.01915   2.04562
   R19        2.61762  -0.00998  -0.00678  -0.00801  -0.01496   2.60267
   R20        2.02618   0.00665   0.00092   0.01849   0.01942   2.04560
   R21        2.64732   0.00804  -0.00021   0.02319   0.02291   2.67023
   R22        3.32167  -0.00353  -0.00094  -0.01121  -0.01215   3.30952
   R23        3.32063  -0.00101  -0.00117  -0.00049  -0.00166   3.31897
    A1        2.02944  -0.01258  -0.01437  -0.01592  -0.03027   1.99917
    A2        2.12582   0.00589   0.00695   0.00684   0.01378   2.13959
    A3        2.12793   0.00668   0.00742   0.00909   0.01649   2.14442
    A4        2.12842   0.00647   0.00753   0.00838   0.01591   2.14434
    A5        2.09745   0.00378   0.00068   0.03017   0.03084   2.12830
    A6        2.05731  -0.01025  -0.00820  -0.03855  -0.04676   2.01055
    A7        2.10342   0.00499   0.00200   0.01647   0.01846   2.12188
    A8        2.08574  -0.00886  -0.00191  -0.03508  -0.03698   2.04876
    A9        2.09402   0.00387  -0.00008   0.01860   0.01852   2.11255
   A10        2.07327  -0.01032  -0.00467  -0.03374  -0.03844   2.03483
   A11        2.10494   0.00513   0.00233   0.01676   0.01910   2.12404
   A12        2.10498   0.00519   0.00234   0.01698   0.01933   2.12431
   A13        2.10344   0.00496   0.00200   0.01635   0.01834   2.12178
   A14        2.09399   0.00386  -0.00009   0.01856   0.01848   2.11246
   A15        2.08576  -0.00882  -0.00191  -0.03492  -0.03682   2.04894
   A16        2.12838   0.00648   0.00752   0.00846   0.01599   2.14436
   A17        2.09732   0.00350   0.00065   0.02828   0.02892   2.12623
   A18        2.05749  -0.00998  -0.00816  -0.03674  -0.04490   2.01259
   A19        2.13318   0.01046   0.00858   0.01958   0.02802   2.16119
   A20        2.13429   0.00894   0.00882   0.01173   0.02041   2.15469
   A21        2.01572  -0.01941  -0.01740  -0.03131  -0.04842   1.96730
   A22        2.12067   0.01099   0.00581   0.03171   0.03775   2.15843
   A23        2.18906   0.01990   0.02094   0.02847   0.04929   2.23835
   A24        1.97345  -0.03089  -0.02675  -0.06017  -0.08704   1.88640
   A25        2.11554   0.00467   0.00468   0.00230   0.00694   2.12248
   A26        2.08381  -0.00350  -0.00234  -0.00945  -0.01178   2.07203
   A27        2.08384  -0.00116  -0.00234   0.00716   0.00484   2.08868
   A28        2.08076  -0.00346  -0.00302  -0.01410  -0.01740   2.06336
   A29        2.10175   0.00230   0.00163   0.01067   0.01244   2.11418
   A30        2.10068   0.00116   0.00139   0.00343   0.00496   2.10564
   A31        2.11576   0.00216   0.00473  -0.00286   0.00162   2.11738
   A32        2.07947  -0.01567  -0.00330  -0.06366  -0.06684   2.01262
   A33        2.08796   0.01351  -0.00142   0.06653   0.06522   2.15319
   A34        2.11792   0.00505   0.00520   0.01427   0.01951   2.13743
   A35        2.18666   0.00740   0.02041  -0.03230  -0.01191   2.17475
   A36        1.97861  -0.01246  -0.02561   0.01803  -0.00760   1.97101
    D1        0.00000  -0.00000   0.00000  -0.00000  -0.00000   0.00000
    D2        3.14159   0.00000   0.00000   0.00000   0.00000   3.14159
    D3       -3.14159  -0.00000  -0.00000  -0.00000  -0.00000   3.14159
    D4       -0.00000  -0.00000  -0.00000   0.00000   0.00000  -0.00000
    D5       -0.00000   0.00000  -0.00000   0.00000   0.00000  -0.00000
    D6        3.14159  -0.00000  -0.00000  -0.00000  -0.00000   3.14159
    D7        3.14159   0.00000   0.00000   0.00000   0.00000  -3.14159
    D8       -0.00000  -0.00000  -0.00000  -0.00000  -0.00000  -0.00000
    D9       -0.00000  -0.00000  -0.00000  -0.00001  -0.00001  -0.00001
   D10        3.14159  -0.00000  -0.00000  -0.00001  -0.00001   3.14158
   D11        3.14159  -0.00000  -0.00000  -0.00001  -0.00001   3.14158
   D12       -0.00000  -0.00000  -0.00000  -0.00001  -0.00001  -0.00001
   D13        0.00000  -0.00000  -0.00000  -0.00000  -0.00000  -0.00000
   D14        3.14159   0.00000  -0.00000   0.00000   0.00000   3.14159
   D15       -3.14159  -0.00000  -0.00000  -0.00000  -0.00000  -3.14159
   D16        0.00000  -0.00000  -0.00000  -0.00000  -0.00000   0.00000
   D17       -0.00000   0.00000   0.00000   0.00000   0.00000  -0.00000
   D18        3.14159  -0.00000   0.00000  -0.00000  -0.00000   3.14159
   D19        3.14159   0.00000  -0.00000   0.00000   0.00000   3.14159
   D20        0.00000  -0.00000  -0.00000  -0.00000  -0.00000  -0.00000
   D21        0.00000  -0.00000   0.00000  -0.00000  -0.00000   0.00000
   D22       -3.14159  -0.00000   0.00000  -0.00000  -0.00000  -3.14159
   D23       -3.14159   0.00000  -0.00000   0.00000   0.00000  -3.14159
   D24        0.00000   0.00000   0.00000   0.00000   0.00000   0.00000
   D25       -0.00000   0.00000   0.00000   0.00000   0.00000  -0.00000
   D26        3.14159   0.00000   0.00000   0.00000   0.00000  -3.14159
   D27        3.14159   0.00000  -0.00000   0.00000   0.00000   3.14159
   D28       -0.00000   0.00000   0.00000   0.00000   0.00000   0.00000
   D29        3.14159   0.00000   0.00000   0.00000   0.00000  -3.14159
   D30        0.00000  -0.00000   0.00000  -0.00000  -0.00000   0.00000
   D31        0.00000   0.00000   0.00000   0.00000   0.00000   0.00000
   D32       -3.14159  -0.00000  -0.00000  -0.00000  -0.00000   3.14159
   D33       -3.14159  -0.00000  -0.00000  -0.00000  -0.00000   3.14159
   D34       -0.00000  -0.00000  -0.00000  -0.00000  -0.00000  -0.00000
   D35       -0.00000   0.00000   0.00000   0.00000   0.00000  -0.00000
   D36        3.14159  -0.00000  -0.00000   0.00000   0.00000   3.14159
   D37       -0.00000  -0.00000  -0.00000  -0.00000  -0.00000  -0.00000
   D38        3.14159  -0.00000  -0.00000  -0.00000  -0.00000   3.14159
   D39        3.14159   0.00000   0.00000   0.00000   0.00000  -3.14159
   D40       -0.00000   0.00000   0.00000   0.00000   0.00000   0.00000
   D41       -0.00000   0.00000   0.00000   0.00000   0.00000  -0.00000
   D42       -3.14159  -0.00000  -0.00000  -0.00000  -0.00000  -3.14159
   D43        3.14159   0.00000   0.00000   0.00000   0.00000  -3.14159
   D44        0.00000  -0.00000   0.00000  -0.00000  -0.00000   0.00000
   D45        0.00000   0.00000   0.00000   0.00000   0.00000   0.00000
   D46       -3.14159  -0.00000  -0.00000  -0.00000  -0.00000  -3.14159
   D47        3.14159   0.00000   0.00000   0.00000   0.00000  -3.14159
   D48        0.00000  -0.00000  -0.00000  -0.00000  -0.00000   0.00000
   D49        0.00000  -0.00000  -0.00000  -0.00000  -0.00000  -0.00000
   D50       -3.14159  -0.00000   0.00000  -0.00000  -0.00000  -3.14159
   D51        3.14159   0.00000   0.00000   0.00000   0.00000   3.14159
   D52       -0.00000   0.00000   0.00000   0.00000   0.00000   0.00000
         Item               Value     Threshold  Converged?
 Maximum Force            0.030885     0.000450     NO 
 RMS     Force            0.006518     0.000300     NO 
 Maximum Displacement     0.213120     0.001800     NO 
 RMS     Displacement     0.040283     0.001200     NO 
 Predicted change in Energy=-4.762134D-03
 GradGradGradGradGradGradGradGradGradGradGradGradGradGradGradGradGradGrad

                          Input orientation:                          
 ---------------------------------------------------------------------
 Center     Atomic      Atomic             Coordinates (Angstroms)
 Number     Number       Type             X           Y           Z
 ---------------------------------------------------------------------
      1          6           0       -0.060990   -0.014186    0.000135
[...]
                 (A) (A) (A) (A) (A) (A) (A) (A) (A) (A) (A) (A)
                 (A) (A) (A) (A) (A) (A) (A) (A) (A) (A) (A) (A)
                 (A) (A) (A) (A) (A) (A) (A) (A) (A) (A) (A) (A)
                 (A) (A) (A) (A) (A) (A) (A) (A) (A) (A) (A) (A)
                 (A) (A) (A) (A) (A) (A) (A) (A) (A) (A) (A) (A)
                 (A) (A) (A) (A) (A) (A) (A) (A) (A) (A) (A) (A)
                 (A) (A) (A) (A) (A) (A) (A) (A) (A) (A) (A) (A)
                 (A) (A) (A) (A) (A) (A) (A) (A) (A) (A) (A) (A)
                 (A) (A) (A) (A) (A) (A) (A) (A) (A) (A) (A) (A)
                 (A) (A) (A) (A) (A) (A) (A) (A) (A) (A) (A) (A)
                 (A) (A) (A) (A) (A) (A) (A) (A) (A) (A) (A) (A)
                 (A) (A) (A) (A) (A) (A) (A) (A) (A) (A) (A) (A)
                 (A) (A) (A) (A) (A) (A) (A) (A) (A) (A) (A) (A)
                 (A) (A) (A) (A) (A) (A) (A) (A) (A) (A) (A) (A)
                 (A) (A) (A) (A) (A) (A) (A) (A) (A) (A) (A) (A)
                 (A) (A) (A) (A) (A) (A) (A) (A) (A) (A) (A) (A)
                 (A) (A) (A) (A) (A) (A) (A) (A) (A) (A) (A) (A)
                 (A) (A) (A) (A) (A) (A) (A) (A) (A) (A) (A) (A)
                 (A) (A) (A) (A) (A) (A) (A) (A) (A) (A) (A) (A)
                 (A) (A) (A) (A) (A) (A) (A) (A) (A) (A) (A) (A)
                 (A) (A) (A) (A) (A) (A) (A) (A) (A) (A) (A) (A)
                 (A) (A) (A) (A) (A) (A) (A) (A) (A) (A) (A) (A)
                 (A) (A) (A) (A) (A) (A) (A) (A) (A) (A) (A) (A)
                 (A) (A) (A) (A) (A) (A) (A) (A) (A) (A) (A) (A)
                 (A) (A) (A) (A) (A) (A) (A) (A) (A) (A) (A) (A)
                 (A) (A) (A)
 The electronic state is 1-A.
 Alpha  occ. eigenvalues -- -101.57852-101.57769-101.57649-101.57502-101.57370
 Alpha  occ. eigenvalues -- -101.57369 -10.27916 -10.27394 -10.27317 -10.27255
 Alpha  occ. eigenvalues --  -10.27130 -10.27124 -10.24055 -10.22906 -10.22284
 Alpha  occ. eigenvalues --  -10.21991 -10.21511 -10.21509  -9.49324  -9.49227
 Alpha  occ. eigenvalues --   -9.49116  -9.48963  -9.48828  -9.48828  -7.25812
 Alpha  occ. eigenvalues --   -7.25714  -7.25589  -7.25463  -7.25316  -7.25315
 Alpha  occ. eigenvalues --   -7.24810  -7.24730  -7.24705  -7.24647  -7.24599
 Alpha  occ. eigenvalues --   -7.24545  -7.24445  -7.24363  -7.24307  -7.24307
 Alpha  occ. eigenvalues --   -7.24247  -7.24247  -0.95435  -0.94584  -0.90906
 Alpha  occ. eigenvalues --   -0.89788  -0.88745  -0.87459  -0.85503  -0.84611
 Alpha  occ. eigenvalues --   -0.79824  -0.76205  -0.75540  -0.74529  -0.67084
 Alpha  occ. eigenvalues --   -0.63911  -0.63274  -0.61498  -0.55219  -0.53627
 Alpha  occ. eigenvalues --   -0.53285  -0.53122  -0.49801  -0.48279  -0.46844
 Alpha  occ. eigenvalues --   -0.46646  -0.46395  -0.44946  -0.44901  -0.43418
 Alpha  occ. eigenvalues --   -0.41774  -0.41058  -0.40591  -0.39659  -0.38452
 Alpha  occ. eigenvalues --   -0.36982  -0.36404  -0.35228  -0.34981  -0.34593
 Alpha  occ. eigenvalues --   -0.33916  -0.33779  -0.33594  -0.32604  -0.31806
 Alpha  occ. eigenvalues --   -0.28864  -0.27237  -0.27051  -0.26826
 Alpha virt. eigenvalues --   -0.06089  -0.05950  -0.05415  -0.04802  -0.03941
 Alpha virt. eigenvalues --   -0.03031  -0.00849  -0.00209   0.01023   0.01551
 Alpha virt. eigenvalues --    0.01880   0.01901   0.02197   0.02381   0.03076
 Alpha virt. eigenvalues --    0.04120   0.04930   0.05147   0.05784   0.06009
 Alpha virt. eigenvalues --    0.06142   0.06410   0.06884   0.07291   0.07549
 Alpha virt. eigenvalues --    0.08390   0.08488   0.08924   0.09279   0.09539
 Alpha virt. eigenvalues --    0.09915   0.10511   0.10682   0.10774   0.11765
 Alpha virt. eigenvalues --    0.12106   0.12200   0.12493   0.12713   0.12738
 Alpha virt. eigenvalues --    0.13080   0.14147   0.14360   0.14455   0.15024
 Alpha virt. eigenvalues --    0.15285   0.15379   0.15868   0.16411   0.16997
 Alpha virt. eigenvalues --    0.17171   0.17384   0.17765   0.17858   0.18152
 Alpha virt. eigenvalues --    0.18394   0.19145   0.20035   0.20056   0.20265
 Alpha virt. eigenvalues --    0.20632   0.20808   0.21404   0.21556   0.22096
 Alpha virt. eigenvalues --    0.22661   0.22705   0.23021   0.23710   0.23781
 Alpha virt. eigenvalues --    0.24303   0.24883   0.25364   0.25430   0.25568
 Alpha virt. eigenvalues --    0.25730   0.26989   0.27177   0.27302   0.27934
 Alpha virt. eigenvalues --    0.28078   0.28404   0.29062   0.29340   0.29471
 Alpha virt. eigenvalues --    0.29785   0.31535   0.31651   0.31679   0.31863
 Alpha virt. eigenvalues --    0.32568   0.34735   0.35533   0.40389   0.41589
 Alpha virt. eigenvalues --    0.41994   0.43337   0.43537   0.43955   0.45096
 Alpha virt. eigenvalues --    0.45229   0.45724   0.45893   0.46011   0.46303
 Alpha virt. eigenvalues --    0.46881   0.46991   0.47935   0.48382   0.48827
 Alpha virt. eigenvalues --    0.49584   0.49925   0.50652   0.51107   0.52666
 Alpha virt. eigenvalues --    0.54253   0.54525   0.55574   0.56375   0.56882
 Alpha virt. eigenvalues --    0.57459   0.58312   0.58734   0.59296   0.59846
 Alpha virt. eigenvalues --    0.61122   0.61292   0.62384   0.63317   0.63397
 Alpha virt. eigenvalues --    0.63735   0.64392   0.65123   0.65281   0.65661
 Alpha virt. eigenvalues --    0.67591   0.67934   0.69021   0.69081   0.69653
 Alpha virt. eigenvalues --    0.70360   0.70611   0.71619   0.75430   0.77998
 Alpha virt. eigenvalues --    0.79332   0.80402   0.81065   0.81894   0.82606
 Alpha virt. eigenvalues --    0.82871   0.83462   0.83816   0.84157   0.84629
 Alpha virt. eigenvalues --    0.84816   0.84860   0.84957   0.85024   0.85591
 Alpha virt. eigenvalues --    0.85715   0.85991   0.86138   0.86372   0.86530
 Alpha virt. eigenvalues --    0.87835   0.87925   0.89074   0.91047   0.91073
 Alpha virt. eigenvalues --    0.92077   0.93431   0.93497   0.93753   0.94292
 Alpha virt. eigenvalues --    0.94980   0.95491   0.95852   0.95871   0.96057
 Alpha virt. eigenvalues --    0.96528   0.97925   0.98066   0.99287   1.00964
 Alpha virt. eigenvalues --    1.00984   1.02627   1.03046   1.04994   1.05189
 Alpha virt. eigenvalues --    1.06927   1.08507   1.11262   1.12776   1.15689
 Alpha virt. eigenvalues --    1.17839   1.19071   1.21266   1.21555   1.23274
 Alpha virt. eigenvalues --    1.24044   1.26137   1.26319   1.27266   1.28103
 Alpha virt. eigenvalues --    1.28440   1.29414   1.30095   1.30953   1.33147
 Alpha virt. eigenvalues --    1.34750   1.35509   1.36608   1.39231   1.40996
 Alpha virt. eigenvalues --    1.44575   1.47714   1.48448   1.48722   1.55650
 Alpha virt. eigenvalues --    1.56327   1.57176   1.58127   1.59446   1.59973
 Alpha virt. eigenvalues --    1.63982   1.64137   1.65967   1.67520   1.68999
 Alpha virt. eigenvalues --    1.71115   1.73768   1.77828   1.78592   1.80513
 Alpha virt. eigenvalues --    1.80981   1.81036   1.84611   1.84938   1.85652
 Alpha virt. eigenvalues --    1.85925   1.91666   1.91847   1.93795   1.94244
 Alpha virt. eigenvalues --    1.95043   1.95419   1.96848   1.97301   1.99309
 Alpha virt. eigenvalues --    2.07414   2.08551   2.09632   2.11651   2.14105
 Alpha virt. eigenvalues --    2.15152   2.20746   2.23168   2.24142   2.24734
 Alpha virt. eigenvalues --    2.25574   2.25970   2.26373   2.27521   2.28528
 Alpha virt. eigenvalues --    2.28766   2.30399   2.31505   2.34394   2.34699
 Alpha virt. eigenvalues --    2.37078   2.39947   2.41505   2.42366   2.42677
 Alpha virt. eigenvalues --    2.44180   2.48002   2.50842   2.51229   2.52944
 Alpha virt. eigenvalues --    2.54753   2.55017   2.55411   2.58710   2.61816
 Alpha virt. eigenvalues --    2.63426   2.63974   2.67754   2.68579   2.68917
 Alpha virt. eigenvalues --    2.69719   2.70916   2.72275   2.74173   2.74437
 Alpha virt. eigenvalues --    2.74846   2.77015   2.78408   2.82186   2.83308
 Alpha virt. eigenvalues --    2.84042   2.89398   2.89536   2.96580   2.98874
 Alpha virt. eigenvalues --    3.07631   3.08811   3.09701   3.12426   3.12499
 Alpha virt. eigenvalues --    3.12833   3.15552   3.19793   3.20721   3.24160
 Alpha virt. eigenvalues --    3.27449   3.33489   3.36360   3.41106   3.44089
 Alpha virt. eigenvalues --    3.58174   3.63724   3.68244   3.70161   3.77522
 Alpha virt. eigenvalues --    3.84189   3.99276   4.00904   4.03951   4.07944
 Alpha virt. eigenvalues --    4.32137   4.80120   4.81153   9.75192   9.77087
 Alpha virt. eigenvalues --    9.79097   9.80077   9.80998   9.83666  23.35221
 Alpha virt. eigenvalues --   23.50076  23.81597  23.83607  23.87178  23.88863
 Alpha virt. eigenvalues --   23.93479  23.97485  24.01951  24.03396  24.11434
 Alpha virt. eigenvalues --   24.14730  25.77429  25.79580  25.81349  25.86019
 Alpha virt. eigenvalues --   25.89305  25.92725  26.09070  26.10567  26.13977
 Alpha virt. eigenvalues --   26.15737  26.24342  26.30051  26.49262  26.55607
 Alpha virt. eigenvalues --   26.62574  26.67132  26.89919  26.91753 215.74192
 Alpha virt. eigenvalues --  215.76392 215.78603 215.79834 215.80735 215.84322
          Condensed to atoms (all electrons):
               1          2          3          4          5          6
     1  C   42.516953   7.194148 -13.308671   5.321984 -13.337078   7.215358
     2  C    7.194148  40.579547 -16.794790   5.158697 -10.547797   1.541737
     3  C  -13.308671 -16.794790  37.523048 -18.186531  12.505369 -10.639880
     4  C    5.321984   5.158697 -18.186531  37.743723 -18.147315   5.207656
     5  C  -13.337078 -10.547797  12.505369 -18.147315  37.480121 -16.869762
     6  C    7.215358   1.541737 -10.639880   5.207656 -16.869762  40.738722
     7  C   -5.960828 -12.428946  12.718332  -9.445558  12.730863 -12.471888
     8  C   -8.913382  -3.579718   1.232386  -0.032780   1.231152  -3.578542
     9  C   -0.861765   0.261758  -0.876841   0.739307  -0.881270   0.266455
    10  C   -1.014171   0.032821   0.016233  -0.040254   0.014812   0.030412
    11  C   -4.218611  -0.946492   0.339260  -0.077459   0.337368  -0.955965
    12  C   -5.816545  -3.120575   1.266087  -0.478855   1.272973  -3.141147
    13  H    0.032500   0.113409   0.021061  -0.030900   0.003160  -0.030118
    14  H    0.032310  -0.030180   0.003356  -0.030829   0.021770   0.112210
    15  H    0.024594   0.000076  -0.000834   0.000130  -0.000836   0.000123
    16  H    0.016906   0.000077  -0.000363   0.000116  -0.000365   0.000068
    17  Cl  -1.208275  -0.390420   0.618749  -0.372250   0.614444  -0.378407
    18  Cl  -0.237187  -0.051349   0.027556  -0.013944   0.027660  -0.051274
    19  Cl  -0.485304   0.078492   0.266041  -0.731207   0.033593   0.127403
    20  Cl   0.055438   0.574071  -1.134815   0.631633  -1.127932   0.581388
    21  Cl  -0.485498   0.130754   0.037385  -0.734118   0.262274   0.078160
    22  Cl  -0.705477  -0.472396   0.731190  -0.493311   0.736639  -0.480119
               7          8          9         10         11         12
     1  C   -5.960828  -8.913382  -0.861765  -1.014171  -4.218611  -5.816545
     2  C  -12.428946  -3.579718   0.261758   0.032821  -0.946492  -3.120575
     3  C   12.718332   1.232386  -0.876841   0.016233   0.339260   1.266087
     4  C   -9.445558  -0.032780   0.739307  -0.040254  -0.077459  -0.478855
     5  C   12.730863   1.231152  -0.881270   0.014812   0.337368   1.272973
     6  C  -12.471888  -3.578542   0.266455   0.030412  -0.955965  -3.141147
     7  C   33.427502  -7.116460  -4.062229  -2.202422  -3.510633   3.353706
     8  C   -7.116460  32.684655  -7.338890   2.002777   2.765436  -3.743354
     9  C   -4.062229  -7.338890  16.498492   2.886716  -1.617389   1.930666
    10  C   -2.202422   2.002777   2.886716  17.588383  -2.564973 -10.690248
    11  C   -3.510633   2.765436  -1.617389  -2.564973  19.643157  -4.091183
    12  C    3.353706  -3.743354   1.930666 -10.690248  -4.091183  31.495699
    13  H    0.102864   0.062958   0.014371   0.004077   0.003383   0.070802
    14  H    0.103299   0.063183   0.014280   0.004099   0.003485   0.070557
    15  H    0.067305   0.043301   0.322499  -0.042347  -0.031399  -0.025670
    16  H    0.056123  -0.023477  -0.061033   0.300579   0.031062   0.031852
    17  Cl   0.262806   0.173283   0.256037   0.984905   0.397953  -2.377109
    18  Cl  -0.588652   0.164482   0.025201  -0.475775  -0.751496   1.340923
    19  Cl   0.002620  -0.019476  -0.004628   0.002244   0.004181  -0.023986
    20  Cl  -0.299847  -0.034933   0.000441  -0.003184   0.001977  -0.041489
    21  Cl   0.002930  -0.019516  -0.004798   0.002246   0.004200  -0.024373
    22  Cl   1.078768  -0.287247  -0.990014  -0.276993   0.193835  -0.209754
              13         14         15         16         17         18
     1  C    0.032500   0.032310   0.024594   0.016906  -1.208275  -0.237187
     2  C    0.113409  -0.030180   0.000076   0.000077  -0.390420  -0.051349
     3  C    0.021061   0.003356  -0.000834  -0.000363   0.618749   0.027556
     4  C   -0.030900  -0.030829   0.000130   0.000116  -0.372250  -0.013944
     5  C    0.003160   0.021770  -0.000836  -0.000365   0.614444   0.027660
     6  C   -0.030118   0.112210   0.000123   0.000068  -0.378407  -0.051274
     7  C    0.102864   0.103299   0.067305   0.056123   0.262806  -0.588652
     8  C    0.062958   0.063183   0.043301  -0.023477   0.173283   0.164482
     9  C    0.014371   0.014280   0.322499  -0.061033   0.256037   0.025201
    10  C    0.004077   0.004099  -0.042347   0.300579   0.984905  -0.475775
    11  C    0.003383   0.003485  -0.031399   0.031062   0.397953  -0.751496
    12  C    0.070802   0.070557  -0.025670   0.031852  -2.377109   1.340923
    13  H    0.513140  -0.000010   0.000002  -0.000003  -0.006811   0.000319
    14  H   -0.000010   0.513166   0.000002  -0.000003  -0.006830   0.000315
    15  H    0.000002   0.000002   0.502341  -0.007471   0.000732  -0.000640
    16  H   -0.000003  -0.000003  -0.007471   0.500733  -0.001837  -0.003393
    17  Cl  -0.006811  -0.006830   0.000732  -0.001837  18.103814  -0.206935
    18  Cl   0.000319   0.000315  -0.000640  -0.003393  -0.206935  17.335071
    19  Cl   0.000240  -0.011917  -0.000010  -0.000001  -0.000485   0.000204
    20  Cl  -0.001173  -0.001178  -0.000000   0.000000   0.005113  -0.000039
    21  Cl  -0.011930   0.000238  -0.000010  -0.000001  -0.000431   0.000206
    22  Cl  -0.006501  -0.006467  -0.009569   0.000381  -0.057069  -0.003714
              19         20         21         22
     1  C   -0.485304   0.055438  -0.485498  -0.705477
     2  C    0.078492   0.574071   0.130754  -0.472396
     3  C    0.266041  -1.134815   0.037385   0.731190
     4  C   -0.731207   0.631633  -0.734118  -0.493311
     5  C    0.033593  -1.127932   0.262274   0.736639
     6  C    0.127403   0.581388   0.078160  -0.480119
     7  C    0.002620  -0.299847   0.002930   1.078768
     8  C   -0.019476  -0.034933  -0.019516  -0.287247
     9  C   -0.004628   0.000441  -0.004798  -0.990014
    10  C    0.002244  -0.003184   0.002246  -0.276993
    11  C    0.004181   0.001977   0.004200   0.193835
    12  C   -0.023986  -0.041489  -0.024373  -0.209754
    13  H    0.000240  -0.001173  -0.011930  -0.006501
    14  H   -0.011917  -0.001178   0.000238  -0.006467
    15  H   -0.000010  -0.000000  -0.000010  -0.009569
    16  H   -0.000001   0.000000  -0.000001   0.000381
    17  Cl  -0.000485   0.005113  -0.000431  -0.057069
    18  Cl   0.000204  -0.000039   0.000206  -0.003714
    19  Cl  17.415982  -0.219882   0.018657   0.001772
    20  Cl  -0.219882  17.605374  -0.219395   0.004141
    21  Cl   0.018657  -0.219395  17.415546   0.001753
    22  Cl   0.001772   0.004141   0.001753  17.809668
 Mulliken charges:
               1
     1  C    0.142599
     2  C   -1.302923
     3  C   -0.363326
     4  C    0.012063
     5  C   -0.359841
     6  C   -1.302589
     7  C    0.180344
     8  C    0.264162
     9  C   -0.517364
    10  C   -0.559937
    11  C    1.040303
    12  C   -1.048978
    13  H    0.145159
    14  H    0.145143
    15  H    0.157684
    16  H    0.160050
    17  Cl   0.589023
    18  Cl   0.462462
    19  Cl   0.545469
    20  Cl   0.624292
    21  Cl   0.545723
    22  Cl   0.440482
 Sum of Mulliken charges =  -0.00000
 Mulliken charges with hydrogens summed into heavy atoms:
               1
     1  C    0.142599
     2  C   -1.157765
     3  C   -0.363326
     4  C    0.012063
     5  C   -0.359841
     6  C   -1.157446
     7  C    0.180344
     8  C    0.264162
     9  C   -0.359680
    10  C   -0.399887
    11  C    1.040303
    12  C   -1.048978
    17  Cl   0.589023
    18  Cl   0.462462
    19  Cl   0.545469
    20  Cl   0.624292
    21  Cl   0.545723
    22  Cl   0.440482
 Electronic spatial extent (au):  <R**2>=           8360.2863
 Charge=             -0.0000 electrons
 Dipole moment (field-independent basis, Debye):
    X=             -2.8536    Y=              1.4828    Z=              0.0135  Tot=              3.2159
 Quadrupole moment (field-independent basis, Debye-Ang):
   XX=           -142.3735   YY=           -145.3761   ZZ=           -144.7721
   XY=             -7.2267   XZ=             -0.0720   YZ=             -0.0137
 Traceless Quadrupole moment (field-independent basis, Debye-Ang):
   XX=              1.8004   YY=             -1.2022   ZZ=             -0.5982
   XY=             -7.2267   XZ=             -0.0720   YZ=             -0.0137
 Octapole moment (field-independent basis, Debye-Ang**2):
  XXX=            -36.3556  YYY=             -9.4107  ZZZ=             -0.1176  XYY=             -4.6528
  XXY=             31.2348  XXZ=              0.3116  XZZ=              7.2467  YZZ=             -4.1347
  YYZ=             -0.0076  XYZ=             -0.1094
 Hexadecapole moment (field-independent basis, Debye-Ang**3):
 XXXX=          -7344.0924 YYYY=          -1814.1610 ZZZZ=          -1484.5904 XXXY=           -126.9833
 XXXZ=             -1.2155 YYYX=             15.9924 YYYZ=              1.0884 ZZZX=              0.2617
 ZZZY=             -1.1967 XXYY=          -1520.2813 XXZZ=          -1547.0120 YYZZ=           -583.9324
 XXYZ=              0.7624 YYXZ=             -0.0305 ZZXY=             10.9735
 N-N= 2.009974325669D+03 E-N=-1.164900780287D+04  KE= 3.212687998254D+03
 1\1\GINC-CN232\FOpt\RB3LYP\6-311+G(d,p)\C12H4Cl6\20CY91R06\25-Mar-2022
 \0\\# opt b3lyp/6-311+g(d,p) scf=xqc\\Title Card Required\\0,1\C,-0.09
 55988416,-0.0591956355,-0.0111442109\C,0.6266128688,0.2820599658,-1.15
 26324133\C,1.3225948246,1.4845113225,-1.2066359939\C,1.3127674528,2.37
 24308751,-0.121982803\C,0.5823692701,2.0147040179,1.0196229536\C,-0.11
 4154712,0.8125144481,1.0753571992\C,-0.8374092149,-1.3543482457,0.0499
 064852\C,-0.2281094167,-2.5192809686,0.5326884228\C,-0.9077906947,-3.7
 314102253,0.5949058641\C,-2.2259406313,-3.7986746771,0.1691604499\C,-2
 .864729005,-2.6618759448,-0.317165382\C,-2.1749186524,-1.4458655088,-0
 .3768750012\H,0.6540834213,-0.3819378929,-2.006402386\H,-0.6682111898,
 0.5653693021,1.9711439278\H,-0.4075158578,-4.612755212,0.9734208835\H,
 -2.7678178444,-4.7344864219,0.2115504118\Cl,-2.9714283257,-0.018077243
 3,-0.986047112\Cl,-4.523896974,-2.7964288255,-0.8413934449\Cl,0.523366
 2245,3.0679702764,2.41082277\Cl,2.18204565,3.8732666919,-0.1903934669\
 Cl,2.2103161556,1.8598079319,-2.6624515425\Cl,1.4378751526,-2.47573268
 02,1.0796675788\\Version=EM64L-G16RevB.01\State=1-A\HF=-3221.1316682\R
 MSD=3.771e-09\RMSF=2.160e-05\Dipole=-0.2823036,-1.2174749,0.1971934\Qu
 adrupole=-4.7939409,5.389928,-0.5959871,0.0067776,-1.4555745,-1.397263
 5\PG=C01 [X(C12H4Cl6)]\\@


 NEVER LISTEN TO CRITICISM
 OR YOU'LL BE DOIN' EVERYBODY ELSE'S THING BUT BUT YOUR OWN.

                                               -- ANDY CAPP
 Job cpu time:       0 days 19 hours 23 minutes 37.1 seconds.
 Elapsed time:       0 days 19 hours 23 minutes 40.4 seconds.
 File lengths (MBytes):  RWF=    143 Int=      0 D2E=      0 Chk=     23 Scr=      1
 Normal termination of Gaussian 16 at Fri Mar 25 06:04:34 2022.
