 Entering Gaussian System, Link 0=g16
 Input=2,3,3prime,4,4prime,5,5prime-Heptachlorobiphenyl.gjf
 Output=2,3,3prime,4,4prime,5,5prime-Heptachlorobiphenyl.log
 Initial command:
 /home/apps/g16/l1.exe "./Gau-350800.inp" -scrdir="./"
 Entering Link 1 = /home/apps/g16/l1.exe PID=    350801.
  
 Copyright (c) 1988-2017, Gaussian, Inc.  All Rights Reserved.
  
 This is part of the Gaussian(R) 16 program.  It is based on
 the Gaussian(R) 09 system (copyright 2009, Gaussian, Inc.),
 the Gaussian(R) 03 system (copyright 2003, Gaussian, Inc.),
 the Gaussian(R) 98 system (copyright 1998, Gaussian, Inc.),
 the Gaussian(R) 94 system (copyright 1995, Gaussian, Inc.),
 the Gaussian 92(TM) system (copyright 1992, Gaussian, Inc.),
 the Gaussian 90(TM) system (copyright 1990, Gaussian, Inc.),
 the Gaussian 88(TM) system (copyright 1988, Gaussian, Inc.),
 the Gaussian 86(TM) system (copyright 1986, Carnegie Mellon
 University), and the Gaussian 82(TM) system (copyright 1983,
 Carnegie Mellon University). Gaussian is a federally registered
 trademark of Gaussian, Inc.
  
 This software contains proprietary and confidential information,
 including trade secrets, belonging to Gaussian, Inc.
  
 This software is provided under written license and may be
 used, copied, transmitted, or stored only in accord with that
 written license.
  
 The following legend is applicable only to US Government
 contracts under FAR:
  
                    RESTRICTED RIGHTS LEGEND
  
 Use, reproduction and disclosure by the US Government is
 subject to restrictions as set forth in subparagraphs (a)
 and (c) of the Commercial Computer Software - Restricted
 Rights clause in FAR 52.227-19.
  
 Gaussian, Inc.
 340 Quinnipiac St., Bldg. 40, Wallingford CT 06492
  
  
 ---------------------------------------------------------------
 Warning -- This program may not be used in any manner that
 competes with the business of Gaussian, Inc. or will provide
 assistance to any competitor of Gaussian, Inc.  The licensee
 of this program is prohibited from giving any competitor of
 Gaussian, Inc. access to this program.  By using this program,
 the user acknowledges that Gaussian, Inc. is engaged in the
 business of creating and licensing software in the field of
 computational chemistry and represents and warrants to the
 licensee that it is not a competitor of Gaussian, Inc. and that
 it will not use this program in any manner prohibited above.
 ---------------------------------------------------------------
  

 Cite this work as:
 Gaussian 16, Revision B.01,
 M. J. Frisch, G. W. Trucks, H. B. Schlegel, G. E. Scuseria, 
 M. A. Robb, J. R. Cheeseman, G. Scalmani, V. Barone, 
 G. A. Petersson, H. Nakatsuji, X. Li, M. Caricato, A. V. Marenich, 
 J. Bloino, B. G. Janesko, R. Gomperts, B. Mennucci, H. P. Hratchian, 
 J. V. Ortiz, A. F. Izmaylov, J. L. Sonnenberg, D. Williams-Young, 
 F. Ding, F. Lipparini, F. Egidi, J. Goings, B. Peng, A. Petrone, 
 T. Henderson, D. Ranasinghe, V. G. Zakrzewski, J. Gao, N. Rega, 
 G. Zheng, W. Liang, M. Hada, M. Ehara, K. Toyota, R. Fukuda, 
 J. Hasegawa, M. Ishida, T. Nakajima, Y. Honda, O. Kitao, H. Nakai, 
 T. Vreven, K. Throssell, J. A. Montgomery, Jr., J. E. Peralta, 
 F. Ogliaro, M. J. Bearpark, J. J. Heyd, E. N. Brothers, K. N. Kudin, 
 V. N. Staroverov, T. A. Keith, R. Kobayashi, J. Normand, 
 K. Raghavachari, A. P. Rendell, J. C. Burant, S. S. Iyengar, 
 J. Tomasi, M. Cossi, J. M. Millam, M. Klene, C. Adamo, R. Cammi, 
 J. W. Ochterski, R. L. Martin, K. Morokuma, O. Farkas, 
 J. B. Foresman, and D. J. Fox, Gaussian, Inc., Wallingford CT, 2016.
 
 ******************************************
 Gaussian 16:  EM64L-G16RevB.01 20-Dec-2017
                25-Mar-2022 
 ******************************************
 %mem=10GB
 %nprocshared=4
 Will use up to    4 processors via shared memory.
 --------------------------------
 # opt b3lyp/6-311+g(d,p) scf=xqc
 --------------------------------
 1/18=20,19=15,26=3,38=1/1,3;
 2/9=110,12=2,17=6,18=5,40=1/2;
 3/5=4,6=6,7=111,11=2,25=1,30=1,71=1,74=-5/1,2,3;
 4//1;
 5/5=2,8=3,13=1,38=5/2,8;
 6/7=2,8=2,9=2,10=2,28=1/1;
 7//1,2,3,16;
 1/18=20,19=15,26=3/3(2);
 2/9=110/2;
 99//99;
 2/9=110/2;
 3/5=4,6=6,7=111,11=2,25=1,30=1,71=1,74=-5/1,2,3;
 4/5=5,16=3,69=1/1;
 5/5=2,8=3,13=1,38=5/2,8;
 7//1,2,3,16;
 1/18=20,19=15,26=3/3(-5);
 2/9=110/2;
 6/7=2,8=2,9=2,10=2,19=2,28=1/1;
 99/9=1/99;
 -------------------
 Title Card Required
 -------------------
 Symbolic Z-matrix:
 Charge =  0 Multiplicity = 1
 C                     0.18192   0.46052  -0.00285 
 C                     1.51431   0.49041  -0.4362 
 C                     2.2222    1.69986  -0.44227 
 C                     1.59771   2.87943  -0.015 
 C                     0.26533   2.84954   0.41835 
 C                    -0.44256   1.64009   0.42442 
 C                    -0.59598  -0.86854   0.00382 
 C                     0.02851  -2.04811  -0.42345 
 C                    -0.67939  -3.25756  -0.41738 
 C                    -2.01177  -3.28745   0.01597 
 C                    -2.63625  -2.10788   0.44325 
 C                    -1.92836  -0.89843   0.43717 
 H                     1.99112  -0.41021  -0.76243 
 H                    -1.45987   1.61727   0.75529 
 H                     1.04581  -2.02529  -0.75432 
 Cl                   -2.71265   0.58297   0.97378 
 Cl                   -4.30957  -2.14542   0.98749 
 Cl                   -0.51896   4.33094   0.95495 
 Cl                   -2.9008   -4.80638   0.0236 
 Cl                    2.48675   4.39836  -0.02262 
 Cl                    0.1049   -4.73896  -0.95399 
 Cl                    3.89552   1.73739  -0.9865 
 

 GradGradGradGradGradGradGradGradGradGradGradGradGradGradGradGradGradGrad
 Berny optimization.
 Initialization pass.
                           ----------------------------
                           !    Initial Parameters    !
                           ! (Angstroms and Degrees)  !
 --------------------------                            --------------------------
 ! Name  Definition              Value          Derivative Info.                !
 --------------------------------------------------------------------------------
 ! R1    R(1,2)                  1.4014         estimate D2E/DX2                !
 ! R2    R(1,6)                  1.4014         estimate D2E/DX2                !
 ! R3    R(1,7)                  1.54           estimate D2E/DX2                !
 ! R4    R(2,3)                  1.4014         estimate D2E/DX2                !
 ! R5    R(2,13)                 1.07           estimate D2E/DX2                !
 ! R6    R(3,4)                  1.4014         estimate D2E/DX2                !
 ! R7    R(3,22)                 1.76           estimate D2E/DX2                !
 ! R8    R(4,5)                  1.4014         estimate D2E/DX2                !
 ! R9    R(4,20)                 1.76           estimate D2E/DX2                !
 ! R10   R(5,6)                  1.4014         estimate D2E/DX2                !
 ! R11   R(5,18)                 1.76           estimate D2E/DX2                !
 ! R12   R(6,14)                 1.07           estimate D2E/DX2                !
 ! R13   R(7,8)                  1.4014         estimate D2E/DX2                !
 ! R14   R(7,12)                 1.4014         estimate D2E/DX2                !
 ! R15   R(8,9)                  1.4014         estimate D2E/DX2                !
 ! R16   R(8,15)                 1.07           estimate D2E/DX2                !
 ! R17   R(9,10)                 1.4014         estimate D2E/DX2                !
 ! R18   R(9,21)                 1.76           estimate D2E/DX2                !
 ! R19   R(10,11)                1.4014         estimate D2E/DX2                !
 ! R20   R(10,19)                1.76           estimate D2E/DX2                !
 ! R21   R(11,12)                1.4014         estimate D2E/DX2                !
 ! R22   R(11,17)                1.76           estimate D2E/DX2                !
 ! R23   R(12,16)                1.76           estimate D2E/DX2                !
 ! A1    A(2,1,6)              120.0            estimate D2E/DX2                !
 ! A2    A(2,1,7)              120.0            estimate D2E/DX2                !
 ! A3    A(6,1,7)              120.0            estimate D2E/DX2                !
 ! A4    A(1,2,3)              120.0            estimate D2E/DX2                !
 ! A5    A(1,2,13)             120.0            estimate D2E/DX2                !
 ! A6    A(3,2,13)             120.0            estimate D2E/DX2                !
 ! A7    A(2,3,4)              120.0            estimate D2E/DX2                !
 ! A8    A(2,3,22)             120.0            estimate D2E/DX2                !
 ! A9    A(4,3,22)             120.0            estimate D2E/DX2                !
 ! A10   A(3,4,5)              120.0            estimate D2E/DX2                !
 ! A11   A(3,4,20)             120.0            estimate D2E/DX2                !
 ! A12   A(5,4,20)             120.0            estimate D2E/DX2                !
 ! A13   A(4,5,6)              120.0            estimate D2E/DX2                !
 ! A14   A(4,5,18)             120.0            estimate D2E/DX2                !
 ! A15   A(6,5,18)             120.0            estimate D2E/DX2                !
 ! A16   A(1,6,5)              120.0            estimate D2E/DX2                !
 ! A17   A(1,6,14)             120.0            estimate D2E/DX2                !
 ! A18   A(5,6,14)             120.0            estimate D2E/DX2                !
 ! A19   A(1,7,8)              120.0            estimate D2E/DX2                !
 ! A20   A(1,7,12)             120.0            estimate D2E/DX2                !
 ! A21   A(8,7,12)             120.0            estimate D2E/DX2                !
 ! A22   A(7,8,9)              120.0            estimate D2E/DX2                !
 ! A23   A(7,8,15)             120.0            estimate D2E/DX2                !
 ! A24   A(9,8,15)             120.0            estimate D2E/DX2                !
 ! A25   A(8,9,10)             120.0            estimate D2E/DX2                !
 ! A26   A(8,9,21)             120.0            estimate D2E/DX2                !
 ! A27   A(10,9,21)            120.0            estimate D2E/DX2                !
 ! A28   A(9,10,11)            120.0            estimate D2E/DX2                !
 ! A29   A(9,10,19)            120.0            estimate D2E/DX2                !
 ! A30   A(11,10,19)           120.0            estimate D2E/DX2                !
 ! A31   A(10,11,12)           120.0            estimate D2E/DX2                !
 ! A32   A(10,11,17)           120.0            estimate D2E/DX2                !
 ! A33   A(12,11,17)           120.0            estimate D2E/DX2                !
 ! A34   A(7,12,11)            120.0            estimate D2E/DX2                !
 ! A35   A(7,12,16)            120.0            estimate D2E/DX2                !
 ! A36   A(11,12,16)           120.0            estimate D2E/DX2                !
 ! D1    D(6,1,2,3)              0.0001         estimate D2E/DX2                !
 ! D2    D(6,1,2,13)           180.0            estimate D2E/DX2                !
 ! D3    D(7,1,2,3)           -180.0            estimate D2E/DX2                !
 ! D4    D(7,1,2,13)            -0.0001         estimate D2E/DX2                !
 ! D5    D(2,1,6,5)             -0.0001         estimate D2E/DX2                !
 ! D6    D(2,1,6,14)           180.0            estimate D2E/DX2                !
 ! D7    D(7,1,6,5)            180.0            estimate D2E/DX2                !
 ! D8    D(7,1,6,14)             0.0            estimate D2E/DX2                !
 ! D9    D(2,1,7,8)             -0.0001         estimate D2E/DX2                !
 ! D10   D(2,1,7,12)           179.9998         estimate D2E/DX2                !
 ! D11   D(6,1,7,8)            179.9999         estimate D2E/DX2                !
 ! D12   D(6,1,7,12)            -0.0002         estimate D2E/DX2                !
 ! D13   D(1,2,3,4)              0.0            estimate D2E/DX2                !
 ! D14   D(1,2,3,22)           180.0            estimate D2E/DX2                !
 ! D15   D(13,2,3,4)          -179.9999         estimate D2E/DX2                !
 ! D16   D(13,2,3,22)            0.0001         estimate D2E/DX2                !
 ! D17   D(2,3,4,5)             -0.0001         estimate D2E/DX2                !
 ! D18   D(2,3,4,20)           180.0            estimate D2E/DX2                !
 ! D19   D(22,3,4,5)           179.9999         estimate D2E/DX2                !
 ! D20   D(22,3,4,20)            0.0            estimate D2E/DX2                !
 ! D21   D(3,4,5,6)              0.0001         estimate D2E/DX2                !
 ! D22   D(3,4,5,18)          -179.9999         estimate D2E/DX2                !
 ! D23   D(20,4,5,6)          -180.0            estimate D2E/DX2                !
 ! D24   D(20,4,5,18)            0.0            estimate D2E/DX2                !
 ! D25   D(4,5,6,1)              0.0            estimate D2E/DX2                !
 ! D26   D(4,5,6,14)           179.9999         estimate D2E/DX2                !
 ! D27   D(18,5,6,1)           180.0            estimate D2E/DX2                !
 ! D28   D(18,5,6,14)           -0.0001         estimate D2E/DX2                !
 ! D29   D(1,7,8,9)            179.9999         estimate D2E/DX2                !
 ! D30   D(1,7,8,15)             0.0001         estimate D2E/DX2                !
 ! D31   D(12,7,8,9)             0.0001         estimate D2E/DX2                !
 ! D32   D(12,7,8,15)         -179.9998         estimate D2E/DX2                !
 ! D33   D(1,7,12,11)         -179.9999         estimate D2E/DX2                !
 ! D34   D(1,7,12,16)            0.0            estimate D2E/DX2                !
 ! D35   D(8,7,12,11)           -0.0001         estimate D2E/DX2                !
 ! D36   D(8,7,12,16)          179.9999         estimate D2E/DX2                !
 ! D37   D(7,8,9,10)             0.0            estimate D2E/DX2                !
 ! D38   D(7,8,9,21)           180.0            estimate D2E/DX2                !
 ! D39   D(15,8,9,10)          179.9998         estimate D2E/DX2                !
 ! D40   D(15,8,9,21)           -0.0002         estimate D2E/DX2                !
 ! D41   D(8,9,10,11)            0.0            estimate D2E/DX2                !
 ! D42   D(8,9,10,19)         -179.9999         estimate D2E/DX2                !
 ! D43   D(21,9,10,11)         180.0            estimate D2E/DX2                !
 ! D44   D(21,9,10,19)           0.0001         estimate D2E/DX2                !
 ! D45   D(9,10,11,12)           0.0            estimate D2E/DX2                !
 ! D46   D(9,10,11,17)        -179.9998         estimate D2E/DX2                !
 ! D47   D(19,10,11,12)        179.9999         estimate D2E/DX2                !
 ! D48   D(19,10,11,17)          0.0001         estimate D2E/DX2                !
 ! D49   D(10,11,12,7)           0.0            estimate D2E/DX2                !
 ! D50   D(10,11,12,16)       -179.9999         estimate D2E/DX2                !
 ! D51   D(17,11,12,7)         179.9999         estimate D2E/DX2                !
 ! D52   D(17,11,12,16)         -0.0001         estimate D2E/DX2                !
 --------------------------------------------------------------------------------
 Trust Radius=3.00D-01 FncErr=1.00D-07 GrdErr=1.00D-06 EigMax=2.50D+02 EigMin=1.00D-04
 Number of steps in this run=    121 maximum allowed number of steps=    132.
 GradGradGradGradGradGradGradGradGradGradGradGradGradGradGradGradGradGrad

                          Input orientation:                          
 ---------------------------------------------------------------------
 Center     Atomic      Atomic             Coordinates (Angstroms)
 Number     Number       Type             X           Y           Z
 ---------------------------------------------------------------------
      1          6           0        0.181924    0.460524   -0.002851
      2          6           0        1.514305    0.490410   -0.436198
      3          6           0        2.222199    1.699861   -0.442270
      4          6           0        1.597712    2.879426   -0.014995
      5          6           0        0.265330    2.849541    0.418350
      6          6           0       -0.442564    1.640090    0.424422
      7          6           0       -0.595981   -0.868543    0.003823
      8          6           0        0.028507   -2.048108   -0.423452
      9          6           0       -0.679386   -3.257559   -0.417378
     10          6           0       -2.011766   -3.287446    0.015972
     11          6           0       -2.636253   -2.107881    0.443247
     12          6           0       -1.928360   -0.898429    0.437173
     13          1           0        1.991116   -0.410214   -0.762430
     14          1           0       -1.459866    1.617271    0.755291
     15          1           0        1.045809   -2.025289   -0.754322
     16         17           0       -2.712645    0.582971    0.973785
     17         17           0       -4.309571   -2.145415    0.987490
     18         17           0       -0.518957    4.330942    0.954955
     19         17           0       -2.900799   -4.806380    0.023603
     20         17           0        2.486746    4.398360   -0.022621
     21         17           0        0.104899   -4.738960   -0.953987
     22         17           0        3.895519    1.737394   -0.986504
 ---------------------------------------------------------------------
                    Distance matrix (angstroms):
                    1          2          3          4          5
     1  C    0.000000
     2  C    1.401400   0.000000
     3  C    2.427296   1.401400   0.000000
     4  C    2.802800   2.427296   1.401400   0.000000
     5  C    2.427296   2.802800   2.427296   1.401400   0.000000
     6  C    1.401400   2.427296   2.802800   2.427296   1.401400
     7  C    1.540000   2.548270   3.838989   4.342800   3.838989
     8  C    2.548270   2.941400   4.342800   5.187469   4.975106
     9  C    3.838989   4.342800   5.744200   6.558176   6.235992
    10  C    4.342800   5.187469   6.558176   7.145600   6.558176
    11  C    3.838989   4.975106   6.235992   6.558176   5.744200
    12  C    2.548270   3.813607   4.975106   5.187469   4.342800
    13  H    2.146700   1.070000   2.146700   3.396345   3.872800
    14  H    2.146700   3.396345   3.872800   3.396345   2.146700
    15  H    2.736837   2.578650   3.918930   4.990735   5.074276
    16  Cl   3.057342   4.456874   5.254079   4.983028   3.783409
    17  Cl   5.286324   6.549198   7.713260   7.819846   6.797295
    18  Cl   4.048303   4.562800   4.048303   2.743718   1.760000
    19  Cl   6.102800   6.910901   8.294174   8.905600   8.294174
    20  Cl   4.562800   4.048303   2.743718   1.760000   2.743718
    21  Cl   5.286324   5.440665   6.797295   7.819846   7.713260
    22  Cl   4.048303   2.743718   1.760000   2.743718   4.048303
                    6          7          8          9         10
     6  C    0.000000
     7  C    2.548270   0.000000
     8  C    3.813607   1.401400   0.000000
     9  C    4.975106   2.427296   1.401400   0.000000
    10  C    5.187469   2.802800   2.427296   1.401400   0.000000
    11  C    4.342800   2.427296   2.802800   2.427296   1.401400
    12  C    2.941400   1.401400   2.427296   2.802800   2.427296
    13  H    3.396345   2.736837   2.578650   3.918930   4.990735
    14  H    1.070000   2.736837   4.127917   5.074276   4.990735
    15  H    4.127917   2.146700   1.070000   2.146700   3.396345
    16  Cl   2.563702   2.743718   4.048303   4.562800   4.048303
    17  Cl   5.440665   4.048303   4.562800   4.048303   2.743718
    18  Cl   2.743718   5.286324   6.549198   7.713260   7.819846
    19  Cl   6.910901   4.562800   4.048303   2.743718   1.760000
    20  Cl   4.048303   6.102800   6.910901   8.294174   8.905600
    21  Cl   6.549198   4.048303   2.743718   1.760000   2.743718
    22  Cl   4.562800   5.286324   5.440665   6.797295   7.819846
                   11         12         13         14         15
    11  C    0.000000
    12  C    1.401400   0.000000
    13  H    5.074276   4.127917   0.000000
    14  H    3.918930   2.578650   4.280590   0.000000
    15  H    3.872800   3.396345   1.871400   4.671787   0.000000
    16  Cl   2.743718   1.760000   5.111382   1.639199   4.890333
    17  Cl   1.760000   2.743718   6.765486   4.725732   5.632800
    18  Cl   6.797295   5.440665   5.632800   2.879094   6.765486
    19  Cl   2.743718   4.048303   6.623817   6.623817   4.890332
    20  Cl   8.294174   6.910901   4.890332   4.890332   6.623817
    21  Cl   4.048303   4.562800   4.725732   6.765486   2.879094
    22  Cl   7.713260   6.549198   2.879094   5.632800   4.725732
                   16         17         18         19         20
    16  Cl   0.000000
    17  Cl   3.161400   0.000000
    18  Cl   4.342800   7.504200   0.000000
    19  Cl   5.475705   3.161400   9.488480   0.000000
    20  Cl   6.525618   9.488480   3.161400  10.665600   0.000000
    21  Cl   6.322800   5.475705   9.289584   3.161400   9.488480
    22  Cl   6.988795   9.289584   5.475705   9.488480   3.161400
                   21         22
    21  Cl   0.000000
    22  Cl   7.504200   0.000000
 Stoichiometry    C12H3Cl7
 Framework group  C1[X(C12H3Cl7)]
 Deg. of freedom    60
 Full point group                 C1      NOp   1
 Largest Abelian subgroup         C1      NOp   1
 Largest concise Abelian subgroup C1      NOp   1
                         Standard orientation:                         
 ---------------------------------------------------------------------
 Center     Atomic      Atomic             Coordinates (Angstroms)
 Number     Number       Type             X           Y           Z
 ---------------------------------------------------------------------
      1          6           0        0.820139    0.217140    0.000002
      2          6           0        1.538177    1.420611    0.000001
      3          6           0        2.939432    1.400507   -0.000001
      4          6           0        3.622650    0.176932   -0.000001
      5          6           0        2.904612   -1.026539    0.000003
      6          6           0        1.503356   -1.006435    0.000004
      7          6           0       -0.719703    0.239232    0.000003
      8          6           0       -1.402921    1.462806    0.000004
      9          6           0       -2.804176    1.482910    0.000003
     10          6           0       -3.522215    0.279439    0.000002
     11          6           0       -2.838997   -0.944136    0.000001
     12          6           0       -1.437741   -0.964240    0.000001
     13          1           0        1.016525    2.354838   -0.000001
     14          1           0        0.955118   -1.925312    0.000006
     15          1           0       -0.854683    2.381684    0.000002
     16         17           0       -0.579697   -2.500912   -0.000002
     17         17           0       -3.740772   -2.455560   -0.000006
     18         17           0        3.762656   -2.563211    0.000006
     19         17           0       -5.282034    0.304687   -0.000002
     20         17           0        5.382469    0.151684   -0.000004
     21         17           0       -3.662221    3.019582    0.000004
     22         17           0        3.841207    2.911931   -0.000004
 ---------------------------------------------------------------------
 Rotational constants (GHZ):           0.3502854           0.1054389           0.0810439
 Standard basis: 6-311+G(d,p) (5D, 7F)
 There are   511 symmetry adapted cartesian basis functions of A   symmetry.
 There are   492 symmetry adapted basis functions of A   symmetry.
   492 basis functions,   827 primitive gaussians,   511 cartesian basis functions
    97 alpha electrons       97 beta electrons
       nuclear repulsion energy      2267.6875574854 Hartrees.
 NAtoms=   22 NActive=   22 NUniq=   22 SFac= 1.00D+00 NAtFMM=   60 NAOKFM=F Big=F
 Integral buffers will be    131072 words long.
 Raffenetti 2 integral format.
 Two-electron integral symmetry is turned on.
 One-electron integrals computed using PRISM.
 NBasis=   492 RedAO= T EigKep=  1.66D-06  NBF=   492
 NBsUse=   484 1.00D-06 EigRej=  8.35D-07 NBFU=   484
 ExpMin= 4.38D-02 ExpMax= 1.06D+05 ExpMxC= 3.62D+03 IAcc=3 IRadAn=         5 AccDes= 0.00D+00
 Harris functional with IExCor=  402 and IRadAn=       5 diagonalized for initial guess.
 HarFok:  IExCor=  402 AccDes= 0.00D+00 IRadAn=         5 IDoV= 1 UseB2=F ITyADJ=14
 ICtDFT=  3500011 ScaDFX=  1.000000  1.000000  1.000000  1.000000
 FoFCou: FMM=F IPFlag=           0 FMFlag=      100000 FMFlg1=           0
         NFxFlg=           0 DoJE=T BraDBF=F KetDBF=T FulRan=T
         wScrn=  0.000000 ICntrl=       500 IOpCl=  0 I1Cent=   200000004 NGrid=           0
         NMat0=    1 NMatS0=      1 NMatT0=    0 NMatD0=    1 NMtDS0=    0 NMtDT0=    0
 Petite list used in FoFCou.
 Requested convergence on RMS density matrix=1.00D-08 within  32 cycles.
 Requested convergence on MAX density matrix=1.00D-06.
 Requested convergence on             energy=1.00D-06.
 No special actions if energy rises.
 SCF Done:  E(RB3LYP) =  -3680.68467478     A.U. after   16 cycles
            NFock= 16  Conv=0.45D-08     -V/T= 2.0026
 QCSCF skips out because SCF is already converged.

 **********************************************************************

            Population analysis using the SCF Density.

 **********************************************************************

 Orbital symmetries:
       Occupied  (A) (A) (A) (A) (A) (A) (A) (A) (A) (A) (A) (A)
                 (A) (A) (A) (A) (A) (A) (A) (A) (A) (A) (A) (A)
                 (A) (A) (A) (A) (A) (A) (A) (A) (A) (A) (A) (A)
                 (A) (A) (A) (A) (A) (A) (A) (A) (A) (A) (A) (A)
                 (A) (A) (A) (A) (A) (A) (A) (A) (A) (A) (A) (A)
                 (A) (A) (A) (A) (A) (A) (A) (A) (A) (A) (A) (A)
                 (A) (A) (A) (A) (A) (A) (A) (A) (A) (A) (A) (A)
                 (A) (A) (A) (A) (A) (A) (A) (A) (A) (A) (A) (A)
                 (A)
       Virtual   (A) (A) (A) (A) (A) (A) (A) (A) (A) (A) (A) (A)
                 (A) (A) (A) (A) (A) (A) (A) (A) (A) (A) (A) (A)
                 (A) (A) (A) (A) (A) (A) (A) (A) (A) (A) (A) (A)
                 (A) (A) (A) (A) (A) (A) (A) (A) (A) (A) (A) (A)
                 (A) (A) (A) (A) (A) (A) (A) (A) (A) (A) (A) (A)
                 (A) (A) (A) (A) (A) (A) (A) (A) (A) (A) (A) (A)
                 (A) (A) (A) (A) (A) (A) (A) (A) (A) (A) (A) (A)
                 (A) (A) (A) (A) (A) (A) (A) (A) (A) (A) (A) (A)
                 (A) (A) (A) (A) (A) (A) (A) (A) (A) (A) (A) (A)
                 (A) (A) (A) (A) (A) (A) (A) (A) (A) (A) (A) (A)
                 (A) (A) (A) (A) (A) (A) (A) (A) (A) (A) (A) (A)
                 (A) (A) (A) (A) (A) (A) (A) (A) (A) (A) (A) (A)
                 (A) (A) (A) (A) (A) (A) (A) (A) (A) (A) (A) (A)
                 (A) (A) (A) (A) (A) (A) (A) (A) (A) (A) (A) (A)
                 (A) (A) (A) (A) (A) (A) (A) (A) (A) (A) (A) (A)
                 (A) (A) (A) (A) (A) (A) (A) (A) (A) (A) (A) (A)
                 (A) (A) (A) (A) (A) (A) (A) (A) (A) (A) (A) (A)
                 (A) (A) (A) (A) (A) (A) (A) (A) (A) (A) (A) (A)
                 (A) (A) (A) (A) (A) (A) (A) (A) (A) (A) (A) (A)
                 (A) (A) (A) (A) (A) (A) (A) (A) (A) (A) (A) (A)
                 (A) (A) (A) (A) (A) (A) (A) (A) (A) (A) (A) (A)
                 (A) (A) (A) (A) (A) (A) (A) (A) (A) (A) (A) (A)
                 (A) (A) (A) (A) (A) (A) (A) (A) (A) (A) (A) (A)
                 (A) (A) (A) (A) (A) (A) (A) (A) (A) (A) (A) (A)
                 (A) (A) (A) (A) (A) (A) (A) (A) (A) (A) (A) (A)
                 (A) (A) (A) (A) (A) (A) (A) (A) (A) (A) (A) (A)
                 (A) (A) (A) (A) (A) (A) (A) (A) (A) (A) (A) (A)
                 (A) (A) (A) (A) (A) (A) (A) (A) (A) (A) (A) (A)
                 (A) (A) (A) (A) (A) (A) (A) (A) (A) (A) (A) (A)
                 (A) (A) (A) (A) (A) (A) (A) (A) (A) (A) (A) (A)
                 (A) (A) (A) (A) (A) (A) (A) (A) (A) (A) (A) (A)
                 (A) (A) (A) (A) (A) (A) (A) (A) (A) (A) (A) (A)
                 (A) (A) (A)
 The electronic state is 1-A.
 Alpha  occ. eigenvalues -- -101.59239-101.58779-101.58666-101.58567-101.57754
 Alpha  occ. eigenvalues -- -101.57491-101.57351 -10.29501 -10.29124 -10.29092
 Alpha  occ. eigenvalues --  -10.28921 -10.27744 -10.27615 -10.27242 -10.25312
 Alpha  occ. eigenvalues --  -10.23843 -10.23460 -10.22227 -10.19784  -9.51018
 Alpha  occ. eigenvalues --   -9.50192  -9.50081  -9.49982  -9.49177  -9.48919
 Alpha  occ. eigenvalues --   -9.48782  -7.27446  -7.26714  -7.26585  -7.26502
 Alpha  occ. eigenvalues --   -7.26464  -7.26430  -7.25676  -7.25671  -7.25584
 Alpha  occ. eigenvalues --   -7.25557  -7.25496  -7.25459  -7.25409  -7.25377
 Alpha  occ. eigenvalues --   -7.25283  -7.24653  -7.24597  -7.24401  -7.24341
 Alpha  occ. eigenvalues --   -7.24270  -7.24183  -0.97072  -0.94626  -0.92989
 Alpha  occ. eigenvalues --   -0.90476  -0.89562  -0.87476  -0.87423  -0.86359
 Alpha  occ. eigenvalues --   -0.84883  -0.79147  -0.76839  -0.76481  -0.75009
 Alpha  occ. eigenvalues --   -0.66941  -0.65178  -0.64198  -0.61992  -0.55980
 Alpha  occ. eigenvalues --   -0.55610  -0.54371  -0.51519  -0.50703  -0.49720
 Alpha  occ. eigenvalues --   -0.47937  -0.47371  -0.47134  -0.47095  -0.44900
 Alpha  occ. eigenvalues --   -0.44156  -0.43333  -0.42614  -0.41528  -0.41063
 Alpha  occ. eigenvalues --   -0.39458  -0.38449  -0.36790  -0.36403  -0.36212
 Alpha  occ. eigenvalues --   -0.35458  -0.35274  -0.35259  -0.34159  -0.33933
 Alpha  occ. eigenvalues --   -0.32954  -0.31761  -0.30116  -0.29709  -0.28404
 Alpha  occ. eigenvalues --   -0.27418  -0.26222
 Alpha virt. eigenvalues --   -0.08954  -0.07378  -0.06630  -0.05347  -0.04150
 Alpha virt. eigenvalues --   -0.02613  -0.02156  -0.01075   0.00498   0.00718
 Alpha virt. eigenvalues --    0.00993   0.01437   0.01475   0.02275   0.03279
 Alpha virt. eigenvalues --    0.03467   0.04104   0.04405   0.05407   0.05585
 Alpha virt. eigenvalues --    0.05619   0.06456   0.07027   0.07244   0.07710
 Alpha virt. eigenvalues --    0.07754   0.08043   0.08250   0.08415   0.08763
 Alpha virt. eigenvalues --    0.08833   0.09705   0.09820   0.10168   0.10803
 Alpha virt. eigenvalues --    0.10963   0.11103   0.11966   0.12231   0.12819
 Alpha virt. eigenvalues --    0.12939   0.13109   0.13435   0.13564   0.13897
 Alpha virt. eigenvalues --    0.14773   0.15020   0.15100   0.15229   0.16096
 Alpha virt. eigenvalues --    0.17013   0.17023   0.17242   0.17284   0.17455
 Alpha virt. eigenvalues --    0.17648   0.17816   0.18330   0.18730   0.19401
 Alpha virt. eigenvalues --    0.19920   0.20052   0.20778   0.21049   0.21562
 Alpha virt. eigenvalues --    0.21716   0.22263   0.22410   0.22667   0.22810
 Alpha virt. eigenvalues --    0.24611   0.24702   0.24802   0.25197   0.25410
 Alpha virt. eigenvalues --    0.26682   0.26994   0.27192   0.27238   0.27555
 Alpha virt. eigenvalues --    0.28431   0.29169   0.29414   0.30394   0.30909
 Alpha virt. eigenvalues --    0.31400   0.31577   0.32541   0.33287   0.33879
 Alpha virt. eigenvalues --    0.34781   0.35504   0.37735   0.38347   0.40389
 Alpha virt. eigenvalues --    0.41190   0.41212   0.42554   0.42927   0.43151
 Alpha virt. eigenvalues --    0.43348   0.44135   0.44463   0.44924   0.45146
 Alpha virt. eigenvalues --    0.45511   0.45947   0.46066   0.46233   0.47173
 Alpha virt. eigenvalues --    0.47388   0.47734   0.48774   0.48898   0.49507
 Alpha virt. eigenvalues --    0.49960   0.50122   0.51464   0.51820   0.52146
 Alpha virt. eigenvalues --    0.54883   0.55582   0.56682   0.56694   0.57400
 Alpha virt. eigenvalues --    0.57918   0.58169   0.58894   0.59674   0.60434
 Alpha virt. eigenvalues --    0.60731   0.60892   0.61784   0.62244   0.62682
 Alpha virt. eigenvalues --    0.63405   0.64549   0.64843   0.65668   0.65761
 Alpha virt. eigenvalues --    0.67221   0.68564   0.71126   0.72861   0.73028
 Alpha virt. eigenvalues --    0.76586   0.78573   0.79980   0.80649   0.81348
 Alpha virt. eigenvalues --    0.82332   0.82371   0.82818   0.83066   0.83161
 Alpha virt. eigenvalues --    0.83373   0.83608   0.84281   0.84327   0.84661
 Alpha virt. eigenvalues --    0.84688   0.84917   0.85171   0.85745   0.85786
 Alpha virt. eigenvalues --    0.86567   0.86941   0.87101   0.87546   0.88356
 Alpha virt. eigenvalues --    0.89181   0.89608   0.89765   0.90495   0.91196
 Alpha virt. eigenvalues --    0.92699   0.92829   0.93195   0.93204   0.93806
 Alpha virt. eigenvalues --    0.93854   0.94298   0.94753   0.95643   0.95788
 Alpha virt. eigenvalues --    0.96210   0.96901   0.97155   0.97372   0.98160
 Alpha virt. eigenvalues --    0.98805   1.00541   1.01422   1.03175   1.06004
 Alpha virt. eigenvalues --    1.06985   1.08364   1.10188   1.10750   1.12337
 Alpha virt. eigenvalues --    1.15972   1.17211   1.18537   1.21015   1.22131
 Alpha virt. eigenvalues --    1.22307   1.22939   1.23045   1.23246   1.25541
 Alpha virt. eigenvalues --    1.26275   1.26784   1.26882   1.27228   1.28169
 Alpha virt. eigenvalues --    1.28647   1.30127   1.32932   1.34238   1.35935
 Alpha virt. eigenvalues --    1.36969   1.40148   1.42394   1.42836   1.46347
 Alpha virt. eigenvalues --    1.47497   1.51840   1.54026   1.54161   1.58739
 Alpha virt. eigenvalues --    1.59060   1.60960   1.62916   1.62933   1.64329
 Alpha virt. eigenvalues --    1.67231   1.70607   1.70822   1.75555   1.76327
 Alpha virt. eigenvalues --    1.79690   1.79803   1.81892   1.82024   1.83187
 Alpha virt. eigenvalues --    1.83736   1.84504   1.86069   1.86787   1.87150
 Alpha virt. eigenvalues --    1.90617   1.94610   1.94725   1.95715   1.96796
 Alpha virt. eigenvalues --    1.99533   2.00667   2.07803   2.09346   2.14430
 Alpha virt. eigenvalues --    2.17355   2.17459   2.19942   2.21434   2.22545
 Alpha virt. eigenvalues --    2.22763   2.22822   2.24309   2.25272   2.25886
 Alpha virt. eigenvalues --    2.26571   2.27158   2.29116   2.29809   2.32029
 Alpha virt. eigenvalues --    2.32272   2.32737   2.33550   2.34168   2.39231
 Alpha virt. eigenvalues --    2.40656   2.41642   2.42264   2.43455   2.44996
 Alpha virt. eigenvalues --    2.48369   2.49184   2.49457   2.51688   2.52058
 Alpha virt. eigenvalues --    2.54786   2.55772   2.57975   2.60328   2.60608
 Alpha virt. eigenvalues --    2.63219   2.64772   2.69341   2.69855   2.70545
 Alpha virt. eigenvalues --    2.72679   2.72736   2.76485   2.77965   2.79240
 Alpha virt. eigenvalues --    2.79337   2.81823   2.83974   2.89307   2.92050
 Alpha virt. eigenvalues --    2.92657   2.97763   3.04097   3.04982   3.05572
 Alpha virt. eigenvalues --    3.09975   3.10458   3.13354   3.14081   3.15363
 Alpha virt. eigenvalues --    3.17533   3.20694   3.21814   3.24145   3.35017
 Alpha virt. eigenvalues --    3.38175   3.40456   3.47602   3.60460   3.64019
 Alpha virt. eigenvalues --    3.68475   3.71490   3.73310   3.87494   3.99833
 Alpha virt. eigenvalues --    4.05253   4.16777   4.42317   4.78162   4.82741
 Alpha virt. eigenvalues --    9.70830   9.73974   9.77413   9.78213   9.79310
 Alpha virt. eigenvalues --    9.80300   9.87053  23.28485  23.45563  23.77666
 Alpha virt. eigenvalues --   23.81652  23.83370  23.84538  23.92628  23.94007
 Alpha virt. eigenvalues --   23.95232  24.02369  24.04904  24.09354  25.74364
 Alpha virt. eigenvalues --   25.76395  25.78568  25.80629  25.83332  25.88819
 Alpha virt. eigenvalues --   25.90118  26.08481  26.09356  26.12001  26.12658
 Alpha virt. eigenvalues --   26.15781  26.19606  26.44349  26.46396  26.55132
 Alpha virt. eigenvalues --   26.62596  26.69538  26.78101  26.85065  26.95265
 Alpha virt. eigenvalues --  215.69522 215.72757 215.76916 215.77691 215.79051
 Alpha virt. eigenvalues --  215.80025 215.89646
          Condensed to atoms (all electrons):
               1          2          3          4          5          6
     1  C   18.096781   0.069827  -4.973081   3.159674  -1.499253  -0.931183
     2  C    0.069827  10.397322   1.993288  -5.697331   1.720574   2.003821
     3  C   -4.973081   1.993288  17.556051  -6.611279   0.532819   3.500470
     4  C    3.159674  -5.697331  -6.611279  26.683598  -2.557572  -6.474064
     5  C   -1.499253   1.720574   0.532819  -2.557572  10.244051   1.147308
     6  C   -0.931183   2.003821   3.500470  -6.474064   1.147308  11.983301
     7  C    4.421993  -0.054973  -2.066713  -1.676457  -1.270026   0.009987
     8  C   -1.989327  -1.553603  -1.412992   0.225688  -1.007149  -2.145086
     9  C   -1.582355   0.089848   0.062728  -0.135273  -0.378086  -1.106972
    10  C   -2.410379  -0.196033  -0.455847   0.170373  -0.178296  -0.629047
    11  C   -2.466046  -0.861434  -0.417682  -0.155117  -0.131018  -0.060842
    12  C   -1.095486  -1.707111  -1.839797  -0.396287   0.091309  -0.406167
    13  H    0.045537   0.322407  -0.161892   0.014188  -0.007460  -0.043438
    14  H   -0.124002  -0.026929  -0.071030   0.099569   0.025461   0.363445
    15  H    0.069110   0.079679   0.021582   0.002873   0.002569   0.027894
    16  Cl  -0.294752  -0.008539   0.181689  -0.080086  -0.366937  -0.852882
    17  Cl   0.181572  -0.037842   0.010385  -0.012031   0.026653   0.052241
    18  Cl  -0.619526   0.220802   0.070749  -0.500465  -0.202730   0.639719
    19  Cl  -0.120516  -0.050134  -0.007215  -0.001675  -0.001248  -0.038401
    20  Cl   0.006776  -0.425912  -0.090231   0.188868   0.123208  -0.506128
    21  Cl  -0.171529  -0.003018   0.002277  -0.010950  -0.010239  -0.059720
    22  Cl  -0.852874   0.333358   0.181229  -0.301804  -0.128579   0.313053
               7          8          9         10         11         12
     1  C    4.421993  -1.989327  -1.582355  -2.410379  -2.466046  -1.095486
     2  C   -0.054973  -1.553603   0.089848  -0.196033  -0.861434  -1.707111
     3  C   -2.066713  -1.412992   0.062728  -0.455847  -0.417682  -1.839797
     4  C   -1.676457   0.225688  -0.135273   0.170373  -0.155117  -0.396287
     5  C   -1.270026  -1.007149  -0.378086  -0.178296  -0.131018   0.091309
     6  C    0.009987  -2.145086  -1.106972  -0.629047  -0.060842  -0.406167
     7  C   19.064083  -1.551097  -4.564182   3.127543  -3.419724  -3.398703
     8  C   -1.551097  12.299269   2.843401  -6.146664   2.822025   3.273090
     9  C   -4.564182   2.843401  14.706978  -7.039529   0.030704   3.529269
    10  C    3.127543  -6.146664  -7.039529  30.579243  -3.571051  -6.144108
    11  C   -3.419724   2.822025   0.030704  -3.571051  14.227037   0.421578
    12  C   -3.398703   3.273090   3.529269  -6.144108   0.421578  14.276565
    13  H    0.044270   0.090092  -0.005450   0.006276   0.003634   0.032706
    14  H   -0.016066   0.035879  -0.017378   0.023230   0.003839   0.156940
    15  H    0.093849   0.293473  -0.127453  -0.040082  -0.012839  -0.072612
    16  Cl  -0.337660   0.334292   0.443335  -0.262310   0.667089  -0.996467
    17  Cl  -0.432695   0.203167   0.233821  -0.902300  -1.072222   1.048080
    18  Cl  -0.197678  -0.099864  -0.015869  -0.003710   0.001488   0.026801
    19  Cl  -0.024009  -0.444905  -0.397764   0.351425   0.601906  -0.666841
    20  Cl  -0.039241  -0.039395  -0.001065  -0.004173   0.000224  -0.034780
    21  Cl  -0.905584   0.503049  -0.180506  -0.279920  -0.022978   0.360961
    22  Cl  -0.179827  -0.082979  -0.004447  -0.014892  -0.011809  -0.083639
              13         14         15         16         17         18
     1  C    0.045537  -0.124002   0.069110  -0.294752   0.181572  -0.619526
     2  C    0.322407  -0.026929   0.079679  -0.008539  -0.037842   0.220802
     3  C   -0.161892  -0.071030   0.021582   0.181689   0.010385   0.070749
     4  C    0.014188   0.099569   0.002873  -0.080086  -0.012031  -0.500465
     5  C   -0.007460   0.025461   0.002569  -0.366937   0.026653  -0.202730
     6  C   -0.043438   0.363445   0.027894  -0.852882   0.052241   0.639719
     7  C    0.044270  -0.016066   0.093849  -0.337660  -0.432695  -0.197678
     8  C    0.090092   0.035879   0.293473   0.334292   0.203167  -0.099864
     9  C   -0.005450  -0.017378  -0.127453   0.443335   0.233821  -0.015869
    10  C    0.006276   0.023230  -0.040082  -0.262310  -0.902300  -0.003710
    11  C    0.003634   0.003839  -0.012839   0.667089  -1.072222   0.001488
    12  C    0.032706   0.156940  -0.072612  -0.996467   1.048080   0.026801
    13  H    0.536147  -0.000126   0.003839   0.000071  -0.000004   0.000729
    14  H   -0.000126   0.679931  -0.000120  -0.247334   0.003319  -0.033658
    15  H    0.003839  -0.000120   0.521149  -0.002095   0.001904   0.000084
    16  Cl   0.000071  -0.247334  -0.002095  18.508375  -0.369100  -0.066988
    17  Cl  -0.000004   0.003319   0.001904  -0.369100  17.693075   0.000976
    18  Cl   0.000729  -0.033658   0.000084  -0.066988   0.000976  17.489999
    19  Cl   0.000180   0.000678  -0.002188  -0.000933  -0.315317  -0.000013
    20  Cl  -0.001221   0.001754   0.000122   0.001967   0.000085  -0.219666
    21  Cl  -0.000479  -0.000186  -0.013489   0.014807  -0.003579  -0.000141
    22  Cl  -0.018553   0.000900  -0.000013   0.002742   0.000047   0.009661
              19         20         21         22
     1  C   -0.120516   0.006776  -0.171529  -0.852874
     2  C   -0.050134  -0.425912  -0.003018   0.333358
     3  C   -0.007215  -0.090231   0.002277   0.181229
     4  C   -0.001675   0.188868  -0.010950  -0.301804
     5  C   -0.001248   0.123208  -0.010239  -0.128579
     6  C   -0.038401  -0.506128  -0.059720   0.313053
     7  C   -0.024009  -0.039241  -0.905584  -0.179827
     8  C   -0.444905  -0.039395   0.503049  -0.082979
     9  C   -0.397764  -0.001065  -0.180506  -0.004447
    10  C    0.351425  -0.004173  -0.279920  -0.014892
    11  C    0.601906   0.000224  -0.022978  -0.011809
    12  C   -0.666841  -0.034780   0.360961  -0.083639
    13  H    0.000180  -0.001221  -0.000479  -0.018553
    14  H    0.000678   0.001754  -0.000186   0.000900
    15  H   -0.002188   0.000122  -0.013489  -0.000013
    16  Cl  -0.000933   0.001967   0.014807   0.002742
    17  Cl  -0.315317   0.000085  -0.003579   0.000047
    18  Cl  -0.000013  -0.219666  -0.000141   0.009661
    19  Cl  17.642558  -0.000013  -0.200515   0.000005
    20  Cl  -0.000013  17.579623   0.000052  -0.220911
    21  Cl  -0.200515   0.000052  17.427234   0.000350
    22  Cl   0.000005  -0.220911   0.000350  17.497394
 Mulliken charges:
               1
     1  C   -0.920963
     2  C   -0.608064
     3  C   -0.005508
     4  C    0.065558
     5  C   -0.175357
     6  C   -0.787307
     7  C   -0.627088
     8  C   -0.450363
     9  C   -0.383757
    10  C    0.020252
    11  C   -0.576762
    12  C   -0.375303
    13  H    0.138546
    14  H    0.141886
    15  H    0.152764
    16  Cl   0.731713
    17  Cl   0.689767
    18  Cl   0.499301
    19  Cl   0.674935
    20  Cl   0.680057
    21  Cl   0.554103
    22  Cl   0.561588
 Sum of Mulliken charges =  -0.00000
 Mulliken charges with hydrogens summed into heavy atoms:
               1
     1  C   -0.920963
     2  C   -0.469518
     3  C   -0.005508
     4  C    0.065558
     5  C   -0.175357
     6  C   -0.645420
     7  C   -0.627088
     8  C   -0.297599
     9  C   -0.383757
    10  C    0.020252
    11  C   -0.576762
    12  C   -0.375303
    16  Cl   0.731713
    17  Cl   0.689767
    18  Cl   0.499301
    19  Cl   0.674935
    20  Cl   0.680057
    21  Cl   0.554103
    22  Cl   0.561588
 Electronic spatial extent (au):  <R**2>=          11266.2104
 Charge=             -0.0000 electrons
 Dipole moment (field-independent basis, Debye):
    X=             -1.2978    Y=              0.5112    Z=              0.0000  Tot=              1.3949
 Quadrupole moment (field-independent basis, Debye-Ang):
   XX=           -170.8289   YY=           -154.7567   ZZ=           -158.9803
   XY=             -0.2515   XZ=              0.0000   YZ=             -0.0000
 Traceless Quadrupole moment (field-independent basis, Debye-Ang):
   XX=             -9.3069   YY=              6.7653   ZZ=              2.5417
   XY=             -0.2515   XZ=              0.0000   YZ=             -0.0000
 Octapole moment (field-independent basis, Debye-Ang**2):
  XXX=            -31.2110  YYY=             -9.2988  ZZZ=             -0.0001  XYY=             -3.7793
  XXY=             -9.0999  XXZ=             -0.0001  XZZ=             -2.0774  YZZ=             -3.9013
  YYZ=             -0.0000  XYZ=             -0.0000
 Hexadecapole moment (field-independent basis, Debye-Ang**3):
 XXXX=         -11073.6074 YYYY=          -3290.3496 ZZZZ=           -183.7151 XXXY=             12.6191
 XXXZ=              0.0003 YYYX=             -5.8652 YYYZ=              0.0000 ZZZX=              0.0001
 ZZZY=             -0.0000 XXYY=          -2394.0373 XXZZ=          -1905.4583 YYZZ=           -614.3848
 XXYZ=              0.0001 YYXZ=              0.0001 ZZXY=              1.2817
 N-N= 2.267687557485D+03 E-N=-1.325595621572D+04  KE= 3.671228050350D+03
 Calling FoFJK, ICntrl=      2127 FMM=F ISym2X=0 I1Cent= 0 IOpClX= 0 NMat=1 NMatS=1 NMatT=0.
 ***** Axes restored to original set *****
 -------------------------------------------------------------------
 Center     Atomic                   Forces (Hartrees/Bohr)
 Number     Number              X              Y              Z
 -------------------------------------------------------------------
      1        6          -0.011245918   -0.019951743   -0.000042196
      2        6          -0.000695630    0.015905556    0.003216517
      3        6          -0.003644192   -0.008229711   -0.000344914
      4        6           0.005278721    0.014520273    0.000987766
      5        6           0.004769347   -0.010296408   -0.003505019
      6        6           0.045335057    0.032031533   -0.008920228
      7        6           0.017541235    0.031325305    0.000104250
      8        6          -0.020598615   -0.008888590    0.005117074
      9        6           0.005691922    0.004724737   -0.000987959
     10        6          -0.005419136   -0.010367530   -0.000161665
     11        6          -0.010647460    0.002438861    0.003966128
     12        6           0.002054676   -0.003768284   -0.001384737
     13        1           0.007443202   -0.002213434   -0.002867957
     14        1           0.038780912    0.027357759   -0.007638884
     15        1           0.005010946   -0.003553781   -0.002318440
     16       17          -0.082889524   -0.060375498    0.015969808
     17       17           0.009994290   -0.000135667   -0.003318282
     18       17          -0.000196744   -0.008000093   -0.001437641
     19       17           0.004695307    0.008999973    0.000143303
     20       17          -0.003336138   -0.006849080   -0.000187199
     21       17          -0.000707602    0.009320898    0.001983694
     22       17          -0.007214655   -0.003995076    0.001626584
 -------------------------------------------------------------------
 Cartesian Forces:  Max     0.082889524 RMS     0.017525285

 GradGradGradGradGradGradGradGradGradGradGradGradGradGradGradGradGradGrad
 Berny optimization.
 FormGI is forming the generalized inverse of G from B-inverse, IUseBI=4.
 Internal  Forces:  Max     0.273255327 RMS     0.049591888
 Search for a local minimum.
 Step number   1 out of a maximum of  121
 All quantities printed in internal units (Hartrees-Bohrs-Radians)
 Mixed Optimization -- RFO/linear search
 Second derivative matrix not updated -- first step.
 ITU=  0
     Eigenvalues ---    0.00237   0.01506   0.01506   0.02070   0.02070
     Eigenvalues ---    0.02070   0.02070   0.02070   0.02070   0.02070
     Eigenvalues ---    0.02070   0.02070   0.02070   0.02070   0.02070
     Eigenvalues ---    0.02070   0.02070   0.02070   0.02070   0.16000
     Eigenvalues ---    0.16000   0.16000   0.23478   0.23485   0.23493
     Eigenvalues ---    0.25000   0.25000   0.25000   0.25000   0.25000
     Eigenvalues ---    0.25000   0.25000   0.25000   0.25000   0.25000
     Eigenvalues ---    0.25000   0.25000   0.28519   0.29539   0.29539
     Eigenvalues ---    0.29539   0.29539   0.29539   0.29539   0.29539
     Eigenvalues ---    0.37230   0.37230   0.37230   0.41554   0.41635
     Eigenvalues ---    0.41716   0.41797   0.45389   0.45389   0.45389
     Eigenvalues ---    0.45389   0.45389   0.45389   0.45389   0.45389
 RFO step:  Lambda=-4.08261165D-01 EMin= 2.36824176D-03
 Linear search not attempted -- first point.
 Maximum step size (   0.300) exceeded in Quadratic search.
    -- Step size scaled by   0.383
 Iteration  1 RMS(Cart)=  0.20989204 RMS(Int)=  0.01039225
 Iteration  2 RMS(Cart)=  0.04059997 RMS(Int)=  0.00034793
 Iteration  3 RMS(Cart)=  0.00064278 RMS(Int)=  0.00004356
 Iteration  4 RMS(Cart)=  0.00000020 RMS(Int)=  0.00004356
 Variable       Old X    -DE/DX   Delta X   Delta X   Delta X     New X
                                 (Linear)    (Quad)   (Total)
    R1        2.64826   0.01418   0.00000   0.00646   0.00650   2.65476
    R2        2.64826   0.01285   0.00000   0.00598   0.00602   2.65428
    R3        2.91018   0.06424   0.00000   0.03550   0.03550   2.94568
    R4        2.64826  -0.01599   0.00000  -0.00722  -0.00722   2.64105
    R5        2.02201   0.00605   0.00000   0.00297   0.00297   2.02498
    R6        2.64826  -0.01850   0.00000  -0.00850  -0.00853   2.63973
    R7        3.32592  -0.00745   0.00000  -0.00406  -0.00406   3.32186
    R8        2.64826  -0.01679   0.00000  -0.00762  -0.00766   2.64060
    R9        3.32592  -0.00760   0.00000  -0.00414  -0.00414   3.32178
   R10        2.64826  -0.00592   0.00000  -0.00252  -0.00252   2.64574
   R11        3.32592  -0.00708   0.00000  -0.00386  -0.00386   3.32206
   R12        2.02201  -0.03982   0.00000  -0.01955  -0.01955   2.00246
   R13        2.64826   0.01524   0.00000   0.00721   0.00731   2.65557
   R14        2.64826   0.11802   0.00000   0.05368   0.05375   2.70201
   R15        2.64826  -0.02597   0.00000  -0.01232  -0.01230   2.63597
   R16        2.02201   0.00541   0.00000   0.00265   0.00265   2.02466
   R17        2.64826  -0.03381   0.00000  -0.01624  -0.01632   2.63195
   R18        3.32592  -0.00877   0.00000  -0.00477  -0.00477   3.32114
   R19        2.64826  -0.02164   0.00000  -0.01006  -0.01015   2.63811
   R20        3.32592  -0.01014   0.00000  -0.00552  -0.00552   3.32040
   R21        2.64826   0.01123   0.00000   0.00577   0.00574   2.65400
   R22        3.32592  -0.01053   0.00000  -0.00573  -0.00573   3.32019
   R23        3.32592  -0.00901   0.00000  -0.00491  -0.00491   3.32101
    A1        2.09440  -0.05779   0.00000  -0.03333  -0.03325   2.06114
    A2        2.09440  -0.13099   0.00000  -0.07642  -0.07646   2.01794
    A3        2.09440   0.18877   0.00000   0.10974   0.10971   2.20410
    A4        2.09440   0.03660   0.00000   0.02212   0.02216   2.11655
    A5        2.09440  -0.01259   0.00000  -0.00721  -0.00723   2.08717
    A6        2.09440  -0.02401   0.00000  -0.01491  -0.01493   2.07947
    A7        2.09440   0.00435   0.00000   0.00175   0.00172   2.09611
    A8        2.09440  -0.00866   0.00000  -0.00465  -0.00463   2.08976
    A9        2.09440   0.00431   0.00000   0.00290   0.00291   2.09731
   A10        2.09440  -0.01964   0.00000  -0.01227  -0.01235   2.08205
   A11        2.09440   0.00878   0.00000   0.00553   0.00557   2.09997
   A12        2.09440   0.01085   0.00000   0.00674   0.00678   2.10117
   A13        2.09440   0.01659   0.00000   0.00934   0.00929   2.10369
   A14        2.09440  -0.00166   0.00000  -0.00081  -0.00078   2.09361
   A15        2.09440  -0.01493   0.00000  -0.00853  -0.00851   2.08589
   A16        2.09440   0.01988   0.00000   0.01239   0.01243   2.10682
   A17        2.09440   0.01729   0.00000   0.01217   0.01215   2.10654
   A18        2.09440  -0.03717   0.00000  -0.02456  -0.02458   2.06982
   A19        2.09440  -0.20110   0.00000  -0.11805  -0.11814   1.97626
   A20        2.09440   0.27326   0.00000   0.15811   0.15803   2.25242
   A21        2.09440  -0.07216   0.00000  -0.04006  -0.03989   2.05451
   A22        2.09440   0.05796   0.00000   0.03460   0.03473   2.12912
   A23        2.09440  -0.02521   0.00000  -0.01476  -0.01482   2.07957
   A24        2.09440  -0.03275   0.00000  -0.01984  -0.01991   2.07449
   A25        2.09440   0.00417   0.00000  -0.00050  -0.00055   2.09385
   A26        2.09440  -0.00841   0.00000  -0.00343  -0.00341   2.09099
   A27        2.09440   0.00424   0.00000   0.00393   0.00396   2.09835
   A28        2.09440  -0.01081   0.00000  -0.00877  -0.00894   2.08545
   A29        2.09440   0.00629   0.00000   0.00490   0.00498   2.09938
   A30        2.09440   0.00453   0.00000   0.00387   0.00396   2.09835
   A31        2.09440   0.03769   0.00000   0.02213   0.02200   2.11640
   A32        2.09440  -0.01945   0.00000  -0.01142  -0.01136   2.08304
   A33        2.09440  -0.01823   0.00000  -0.01071  -0.01065   2.08375
   A34        2.09440  -0.01684   0.00000  -0.00740  -0.00736   2.08704
   A35        2.09440   0.18036   0.00000   0.10380   0.10378   2.19817
   A36        2.09440  -0.16351   0.00000  -0.09640  -0.09642   1.99797
    D1        0.00000   0.00000   0.00000   0.00000   0.00000   0.00000
    D2        3.14159   0.00000   0.00000   0.00000   0.00000   3.14159
    D3       -3.14159   0.00000   0.00000  -0.00000  -0.00000  -3.14159
    D4       -0.00000  -0.00000   0.00000  -0.00000  -0.00000  -0.00000
    D5       -0.00000  -0.00000   0.00000  -0.00000  -0.00000  -0.00000
    D6        3.14159  -0.00000   0.00000  -0.00000  -0.00000   3.14159
    D7        3.14159   0.00000   0.00000   0.00000   0.00000   3.14159
    D8        0.00000  -0.00000   0.00000  -0.00000  -0.00000  -0.00000
    D9       -0.00000  -0.00000   0.00000  -0.00000  -0.00000  -0.00000
   D10        3.14159  -0.00000   0.00000  -0.00000  -0.00000   3.14159
   D11        3.14159  -0.00000   0.00000  -0.00000  -0.00000   3.14159
   D12       -0.00000  -0.00000   0.00000  -0.00000  -0.00000  -0.00000
   D13        0.00000  -0.00000   0.00000  -0.00000  -0.00000   0.00000
   D14        3.14159  -0.00000   0.00000  -0.00000  -0.00000   3.14159
   D15       -3.14159  -0.00000   0.00000  -0.00000  -0.00000  -3.14159
   D16        0.00000  -0.00000   0.00000  -0.00000  -0.00000   0.00000
   D17       -0.00000   0.00000   0.00000   0.00000   0.00000  -0.00000
   D18        3.14159   0.00000   0.00000   0.00000   0.00000   3.14159
   D19        3.14159  -0.00000   0.00000  -0.00000  -0.00000   3.14159
   D20        0.00000  -0.00000   0.00000  -0.00000  -0.00000   0.00000
   D21        0.00000   0.00000   0.00000   0.00000   0.00000   0.00000
   D22       -3.14159   0.00000   0.00000   0.00000   0.00000  -3.14159
   D23       -3.14159  -0.00000   0.00000  -0.00000  -0.00000  -3.14159
   D24        0.00000   0.00000   0.00000   0.00000   0.00000   0.00000
   D25       -0.00000   0.00000   0.00000   0.00000   0.00000  -0.00000
   D26        3.14159   0.00000   0.00000   0.00000   0.00000   3.14159
   D27        3.14159   0.00000   0.00000  -0.00000  -0.00000   3.14159
   D28       -0.00000   0.00000   0.00000   0.00000   0.00000  -0.00000
   D29        3.14159   0.00000   0.00000   0.00000   0.00000   3.14159
   D30        0.00000   0.00000   0.00000   0.00000   0.00000   0.00000
   D31        0.00000   0.00000   0.00000   0.00000   0.00000   0.00000
   D32       -3.14159  -0.00000   0.00000  -0.00000  -0.00000  -3.14159
   D33       -3.14159   0.00000   0.00000   0.00000   0.00000  -3.14159
   D34        0.00000  -0.00000   0.00000  -0.00000  -0.00000   0.00000
   D35       -0.00000  -0.00000   0.00000  -0.00000  -0.00000  -0.00000
   D36        3.14159  -0.00000   0.00000  -0.00000  -0.00000   3.14159
   D37       -0.00000  -0.00000   0.00000  -0.00000  -0.00000  -0.00000
   D38        3.14159  -0.00000   0.00000  -0.00000  -0.00000   3.14159
   D39        3.14159   0.00000   0.00000   0.00000   0.00000   3.14159
   D40       -0.00000   0.00000   0.00000   0.00000   0.00000  -0.00000
   D41       -0.00000  -0.00000   0.00000  -0.00000  -0.00000  -0.00000
   D42       -3.14159  -0.00000   0.00000  -0.00000  -0.00000  -3.14159
   D43        3.14159   0.00000   0.00000   0.00000   0.00000   3.14159
   D44        0.00000  -0.00000   0.00000  -0.00000  -0.00000   0.00000
   D45        0.00000   0.00000   0.00000   0.00000   0.00000   0.00000
   D46       -3.14159  -0.00000   0.00000  -0.00000  -0.00000  -3.14159
   D47        3.14159   0.00000   0.00000   0.00000   0.00000   3.14159
   D48        0.00000   0.00000   0.00000   0.00000   0.00000   0.00000
   D49        0.00000   0.00000   0.00000   0.00000   0.00000   0.00000
   D50       -3.14159   0.00000   0.00000   0.00000   0.00000  -3.14159
   D51        3.14159   0.00000   0.00000   0.00000   0.00000   3.14159
   D52       -0.00000   0.00000   0.00000   0.00000   0.00000  -0.00000
         Item               Value     Threshold  Converged?
 Maximum Force            0.273255     0.000450     NO 
 RMS     Force            0.049592     0.000300     NO 
 Maximum Displacement     0.992554     0.001800     NO 
 RMS     Displacement     0.245845     0.001200     NO 
 Predicted change in Energy=-1.448494D-01
 GradGradGradGradGradGradGradGradGradGradGradGradGradGradGradGradGradGrad

                          Input orientation:                          
 ---------------------------------------------------------------------
 Center     Atomic      Atomic             Coordinates (Angstroms)
 Number     Number       Type             X           Y           Z
 ---------------------------------------------------------------------
      1          6           0        0.042436    0.572126    0.064064
      2          6           0        1.366313    0.461762   -0.392821
      3          6           0        2.205910    1.577019   -0.459974
      4          6           0        1.735208    2.832770   -0.069057
      5          6           0        0.420583    2.958346    0.387634
      6          6           0       -0.419127    1.840027    0.454250
      7          6           0       -0.776242   -0.754206    0.084685
      8          6           0       -0.042992   -1.865246   -0.365553
      9          6           0       -0.598555   -3.143457   -0.422579
     10          6           0       -1.918096   -3.346852   -0.026045
     11          6           0       -2.674318   -2.264136    0.426442
     12          6           0       -2.130183   -0.970955    0.490044
     13          1           0        1.743216   -0.494254   -0.696540
     14          1           0       -1.410405    1.970381    0.805312
     15          1           0        0.973689   -1.729002   -0.674916
     16         17           0       -3.237882    0.256588    1.085531
     17         17           0       -4.338539   -2.524847    0.925773
     18         17           0       -0.189836    4.530427    0.883988
     19         17           0       -2.626296   -4.953431   -0.094451
     20         17           0        2.786207    4.239384   -0.151138
     21         17           0        0.371113   -4.492641   -0.995432
     22         17           0        3.855714    1.392762   -1.038114
 ---------------------------------------------------------------------
                    Distance matrix (angstroms):
                    1          2          3          4          5
     1  C    0.000000
     2  C    1.404839   0.000000
     3  C    2.442345   1.397581   0.000000
     4  C    2.827315   2.421278   1.396885   0.000000
     5  C    2.437568   2.781447   2.411202   1.397345   0.000000
     6  C    1.404585   2.409344   2.792096   2.429104   1.400067
     7  C    1.558786   2.509408   3.824199   4.381485   3.912443
     8  C    2.476418   2.720633   4.112866   5.032023   4.904001
     9  C    3.801743   4.105995   5.490840   6.425474   6.239157
    10  C    4.382943   5.042559   6.437409   7.178872   6.737660
    11  C    3.944167   4.942510   6.273503   6.757802   6.070769
    12  C    2.698672   3.880413   5.118243   5.451803   4.685754
    13  H    2.146704   1.071573   2.135468   3.385689   3.852952
    14  H    2.148328   3.379588   3.851418   3.376850   2.122038
    15  H    2.590080   2.243474   3.534734   4.664412   4.837992
    16  Cl   3.450137   4.840065   5.810938   5.718514   4.601187
    17  Cl   5.433850   6.572964   7.847001   8.159911   7.280401
    18  Cl   4.048996   4.539369   4.033417   2.737905   1.757958
    19  Cl   6.138325   6.734557   8.132073   8.924589   8.491884
    20  Cl   4.585125   4.042887   2.742318   1.757811   2.743631
    21  Cl   5.184826   5.089172   6.363488   7.508700   7.578425
    22  Cl   4.053311   2.735011   1.757854   2.740300   4.035336
                    6          7          8          9         10
     6  C    0.000000
     7  C    2.644647   0.000000
     8  C    3.813476   1.405268   0.000000
     9  C    5.063214   2.448961   1.394893   0.000000
    10  C    5.420452   2.835120   2.413802   1.392766   0.000000
    11  C    4.683035   2.449363   2.776733   2.408908   1.396027
    12  C    3.290989   1.429843   2.426555   2.810433   2.440536
    13  H    3.383625   2.650576   2.275897   3.546438   4.689572
    14  H    1.059655   2.888745   4.237072   5.321481   5.405726
    15  H    3.994111   2.142306   1.071404   2.129861   3.376520
    16  Cl   3.294112   2.843074   4.100628   4.560784   3.995274
    17  Cl   5.885257   4.066025   4.533687   4.023457   2.727671
    18  Cl   2.734136   5.376811   6.518247   7.795041   8.115821
    19  Cl   7.164059   4.592198   4.035325   2.737774   1.757078
    20  Cl   4.049392   6.138615   6.731778   8.126293   8.927322
    21  Cl   6.544367   4.056965   2.733393   1.757474   2.737338
    22  Cl   4.549886   5.227348   5.125121   6.387228   7.538243
                   11         12         13         14         15
    11  C    0.000000
    12  C    1.404438   0.000000
    13  H    4.889599   4.079025   0.000000
    14  H    4.435330   3.044492   4.274964   0.000000
    15  H    3.848027   3.400851   1.455075   4.643320   0.000000
    16  Cl   2.665718   1.757403   5.343303   2.520968   4.977858
    17  Cl   1.756967   2.735193   6.613845   5.366149   5.604939
    18  Cl   7.249005   5.846822   5.610898   2.837219   6.554725
    19  Cl   2.739698   4.055599   6.272113   7.087111   4.867625
    20  Cl   8.511563   7.192331   4.877768   4.865668   6.259488
    21  Cl   4.032693   4.567865   4.237818   6.941696   2.846670
    22  Cl   7.626215   6.614634   2.853095   5.609267   4.264199
                   16         17         18         19         20
    16  Cl   0.000000
    17  Cl   2.995555   0.000000
    18  Cl   5.253275   8.184764   0.000000
    19  Cl   5.376866   3.141759   9.840591   0.000000
    20  Cl   7.326777   9.883145   3.164336  10.668001   0.000000
    21  Cl   6.317470   5.453811   9.233777   3.163630   9.099108
    22  Cl   7.491319   9.292486   5.468628   9.120369   3.167621
                   21         22
    21  Cl   0.000000
    22  Cl   6.839754   0.000000
 Stoichiometry    C12H3Cl7
 Framework group  C1[X(C12H3Cl7)]
 Deg. of freedom    60
 Full point group                 C1      NOp   1
 Largest Abelian subgroup         C1      NOp   1
 Largest concise Abelian subgroup C1      NOp   1
                         Standard orientation:                         
 ---------------------------------------------------------------------
 Center     Atomic      Atomic             Coordinates (Angstroms)
 Number     Number       Type             X           Y           Z
 ---------------------------------------------------------------------
      1          6           0        0.877571   -0.067094    0.000002
      2          6           0        1.503081    1.190805    0.000000
      3          6           0        2.895699    1.308481   -0.000001
      4          6           0        3.695490    0.163220   -0.000001
      5          6           0        3.087781   -1.095058    0.000003
      6          6           0        1.692530   -1.211079    0.000004
      7          6           0       -0.681056   -0.044783    0.000003
      8          6           0       -1.216810    1.254350    0.000004
      9          6           0       -2.592255    1.486466    0.000003
     10          6           0       -3.479053    0.412508    0.000002
     11          6           0       -2.979560   -0.891102    0.000001
     12          6           0       -1.597737   -1.142120    0.000001
     13          1           0        0.904257    2.079444   -0.000002
     14          1           0        1.264263   -2.180335    0.000007
     15          1           0       -0.550749    2.093557    0.000002
     16         17           0       -1.167239   -2.845978   -0.000003
     17         17           0       -4.101518   -2.243190   -0.000005
     18         17           0        4.077572   -2.547893    0.000006
     19         17           0       -5.213223    0.695306   -0.000001
     20         17           0        5.447616    0.304475   -0.000004
     21         17           0       -3.199850    3.135570    0.000004
     22         17           0        3.635945    2.902873   -0.000005
 ---------------------------------------------------------------------
 Rotational constants (GHZ):           0.3367072           0.1038904           0.0793936
 Standard basis: 6-311+G(d,p) (5D, 7F)
 There are   511 symmetry adapted cartesian basis functions of A   symmetry.
 There are   492 symmetry adapted basis functions of A   symmetry.
   492 basis functions,   827 primitive gaussians,   511 cartesian basis functions
    97 alpha electrons       97 beta electrons
       nuclear repulsion energy      2246.6985578216 Hartrees.
 NAtoms=   22 NActive=   22 NUniq=   22 SFac= 1.00D+00 NAtFMM=   60 NAOKFM=F Big=F
 Integral buffers will be    131072 words long.
 Raffenetti 2 integral format.
 Two-electron integral symmetry is turned on.
 One-electron integrals computed using PRISM.
 NBasis=   492 RedAO= T EigKep=  1.03D-06  NBF=   492
 NBsUse=   485 1.00D-06 EigRej=  8.63D-07 NBFU=   485
 Initial guess from the checkpoint file:  "./Gau-350801.chk"
 B after Tr=    -0.000000   -0.000000    0.000000
         Rot=    0.999895   -0.000000   -0.000000    0.014462 Ang=  -1.66 deg.
 ExpMin= 4.38D-02 ExpMax= 1.06D+05 ExpMxC= 3.62D+03 IAcc=3 IRadAn=         5 AccDes= 0.00D+00
 Harris functional with IExCor=  402 and IRadAn=       5 diagonalized for initial guess.
 HarFok:  IExCor=  402 AccDes= 0.00D+00 IRadAn=         5 IDoV= 1 UseB2=F ITyADJ=14
 ICtDFT=  3500011 ScaDFX=  1.000000  1.000000  1.000000  1.000000
 FoFCou: FMM=F IPFlag=           0 FMFlag=      100000 FMFlg1=           0
         NFxFlg=           0 DoJE=T BraDBF=F KetDBF=T FulRan=T
         wScrn=  0.000000 ICntrl=       500 IOpCl=  0 I1Cent=   200000004 NGrid=           0
         NMat0=    1 NMatS0=      1 NMatT0=    0 NMatD0=    1 NMtDS0=    0 NMtDT0=    0
 Petite list used in FoFCou.
 Requested convergence on RMS density matrix=1.00D-08 within  32 cycles.
 Requested convergence on MAX density matrix=1.00D-06.
 Requested convergence on             energy=1.00D-06.
 No special actions if energy rises.
 SCF Done:  E(RB3LYP) =  -3680.72103384     A.U. after   17 cycles
            NFock= 17  Conv=0.39D-08     -V/T= 2.0027
 QCSCF skips out because SCF is already converged.
 Calling FoFJK, ICntrl=      2127 FMM=F ISym2X=0 I1Cent= 0 IOpClX= 0 NMat=1 NMatS=1 NMatT=0.
 ***** Axes restored to original set *****
 -------------------------------------------------------------------
 Center     Atomic                   Forces (Hartrees/Bohr)
 Number     Number              X              Y              Z
 -------------------------------------------------------------------
      1        6          -0.010737446   -0.017574298    0.000236832
      2        6           0.004011945    0.019198209    0.002283973
      3        6          -0.003221291   -0.007653088   -0.000375941
      4        6           0.007958129    0.013323774   -0.000119709
      5        6          -0.003178914   -0.004127225    0.000272203
      6        6           0.012282992   -0.002427023   -0.004502458
      7        6           0.007216764    0.021608731    0.001680853
      8        6          -0.021295198   -0.014150919    0.004358232
      9        6           0.006134239    0.003226377   -0.001415093
     10        6          -0.006231195   -0.013344713   -0.000453271
     11        6          -0.007577947    0.000626030    0.002614375
     12        6           0.009436881    0.000030261   -0.003103430
     13        1           0.010928323    0.009313236   -0.001851310
     14        1          -0.012286693    0.002480344    0.004513705
     15        1          -0.003890351   -0.012038767   -0.000979444
     16       17           0.012891012    0.006391068   -0.003046782
     17       17           0.007283471   -0.003014810   -0.002965907
     18       17          -0.000789912   -0.007830248   -0.001210312
     19       17           0.003639530    0.007925006    0.000289250
     20       17          -0.004912695   -0.006692389    0.000361632
     21       17          -0.000939279    0.007387693    0.001696948
     22       17          -0.006722365   -0.002657247    0.001715654
 -------------------------------------------------------------------
 Cartesian Forces:  Max     0.021608731 RMS     0.007892107

 GradGradGradGradGradGradGradGradGradGradGradGradGradGradGradGradGradGrad
 Berny optimization.
 Using GEDIIS/GDIIS optimizer.
 FormGI is forming the generalized inverse of G from B-inverse, IUseBI=4.
 Internal  Forces:  Max     0.060986294 RMS     0.011874260
 Search for a local minimum.
 Step number   2 out of a maximum of  121
 All quantities printed in internal units (Hartrees-Bohrs-Radians)
 Mixed Optimization -- RFO/linear search
 Update second derivatives using D2CorX and points    1    2
 DE= -3.64D-02 DEPred=-1.45D-01 R= 2.51D-01
 Trust test= 2.51D-01 RLast= 3.00D-01 DXMaxT set to 3.00D-01
 ITU=  0  0
 Use linear search instead of GDIIS.
     Eigenvalues ---    0.00237   0.01479   0.01485   0.02070   0.02070
     Eigenvalues ---    0.02070   0.02070   0.02070   0.02070   0.02070
     Eigenvalues ---    0.02070   0.02070   0.02070   0.02070   0.02070
     Eigenvalues ---    0.02070   0.02070   0.02070   0.02070   0.15960
     Eigenvalues ---    0.16000   0.16034   0.23408   0.23475   0.23484
     Eigenvalues ---    0.24808   0.25000   0.25000   0.25000   0.25000
     Eigenvalues ---    0.25000   0.25000   0.25000   0.25000   0.25000
     Eigenvalues ---    0.25000   0.28456   0.29491   0.29539   0.29539
     Eigenvalues ---    0.29539   0.29539   0.29539   0.29539   0.37096
     Eigenvalues ---    0.37229   0.37230   0.40748   0.41464   0.41560
     Eigenvalues ---    0.41795   0.45034   0.45335   0.45389   0.45389
     Eigenvalues ---    0.45389   0.45389   0.45389   0.45389   2.09869
 RFO step:  Lambda=-1.15647960D-02 EMin= 2.36824176D-03
 Quartic linear search produced a step of -0.34697.
 Iteration  1 RMS(Cart)=  0.14290550 RMS(Int)=  0.00421029
 Iteration  2 RMS(Cart)=  0.00680680 RMS(Int)=  0.00002948
 Iteration  3 RMS(Cart)=  0.00000691 RMS(Int)=  0.00002940
 Iteration  4 RMS(Cart)=  0.00000000 RMS(Int)=  0.00002940
 Variable       Old X    -DE/DX   Delta X   Delta X   Delta X     New X
                                 (Linear)    (Quad)   (Total)
    R1        2.65476   0.00792  -0.00225   0.01736   0.01512   2.66988
    R2        2.65428  -0.00435  -0.00209  -0.00074  -0.00278   2.65150
    R3        2.94568  -0.00747  -0.01232   0.01443   0.00211   2.94779
    R4        2.64105  -0.00947   0.00250  -0.01945  -0.01697   2.62407
    R5        2.02498  -0.00394  -0.00103  -0.00402  -0.00505   2.01993
    R6        2.63973  -0.00035   0.00296  -0.00816  -0.00525   2.63448
    R7        3.32186  -0.00659   0.00141  -0.01756  -0.01616   3.30571
    R8        2.64060  -0.00300   0.00266  -0.01153  -0.00889   2.63171
    R9        3.32178  -0.00831   0.00144  -0.02128  -0.01984   3.30194
   R10        2.64574  -0.00957   0.00087  -0.01619  -0.01529   2.63046
   R11        3.32206  -0.00707   0.00134  -0.01840  -0.01706   3.30500
   R12        2.00246   0.01329   0.00678   0.00499   0.01177   2.01423
   R13        2.65557   0.00456  -0.00254   0.01246   0.00997   2.66554
   R14        2.70201  -0.01883  -0.01865   0.02253   0.00392   2.70593
   R15        2.63597  -0.00926   0.00427  -0.02438  -0.02010   2.61586
   R16        2.02466  -0.00494  -0.00092  -0.00601  -0.00693   2.01773
   R17        2.63195  -0.00128   0.00566  -0.01630  -0.01068   2.62127
   R18        3.32114  -0.00674   0.00166  -0.01851  -0.01685   3.30429
   R19        2.63811  -0.00098   0.00352  -0.01010  -0.00663   2.63148
   R20        3.32040  -0.00872   0.00192  -0.02337  -0.02146   3.29894
   R21        2.65400   0.00574  -0.00199   0.01342   0.01142   2.66542
   R22        3.32019  -0.00729   0.00199  -0.02052  -0.01853   3.30166
   R23        3.32101  -0.00469   0.00170  -0.01427  -0.01256   3.30845
    A1        2.06114  -0.01107   0.01154  -0.05609  -0.04448   2.01666
    A2        2.01794   0.05578   0.02653   0.07420   0.10069   2.11863
    A3        2.20410  -0.04471  -0.03806  -0.01810  -0.05620   2.14790
    A4        2.11655   0.00237  -0.00769   0.02613   0.01843   2.13498
    A5        2.08717   0.01292   0.00251   0.04354   0.04605   2.13322
    A6        2.07947  -0.01529   0.00518  -0.06967  -0.06448   2.01499
    A7        2.09611   0.00564  -0.00060   0.01624   0.01556   2.11167
    A8        2.08976  -0.00850   0.00161  -0.02550  -0.02386   2.06591
    A9        2.09731   0.00286  -0.00101   0.00927   0.00830   2.10561
   A10        2.08205  -0.00836   0.00428  -0.03201  -0.02780   2.05425
   A11        2.09997   0.00405  -0.00193   0.01518   0.01328   2.11325
   A12        2.10117   0.00430  -0.00235   0.01683   0.01452   2.11569
   A13        2.10369   0.00347  -0.00322   0.01477   0.01156   2.11525
   A14        2.09361   0.00435   0.00027   0.01108   0.01135   2.10496
   A15        2.08589  -0.00782   0.00295  -0.02585  -0.02290   2.06298
   A16        2.10682   0.00795  -0.00431   0.03097   0.02674   2.13356
   A17        2.10654  -0.00311  -0.00422   0.00192  -0.00233   2.10421
   A18        2.06982  -0.00484   0.00853  -0.03289  -0.02441   2.04541
   A19        1.97626   0.06099   0.04099   0.05264   0.09358   2.06984
   A20        2.25242  -0.04968  -0.05483   0.01152  -0.04336   2.20906
   A21        2.05451  -0.01131   0.01384  -0.06416  -0.05022   2.00429
   A22        2.12912   0.00607  -0.01205   0.04444   0.03244   2.16157
   A23        2.07957   0.00880   0.00514   0.02474   0.02985   2.10943
   A24        2.07449  -0.01487   0.00691  -0.06918  -0.06230   2.01219
   A25        2.09385   0.00381   0.00019   0.00956   0.00971   2.10355
   A26        2.09099  -0.00786   0.00118  -0.02277  -0.02157   2.06941
   A27        2.09835   0.00405  -0.00137   0.01322   0.01187   2.11022
   A28        2.08545  -0.00678   0.00310  -0.02285  -0.01984   2.06561
   A29        2.09938   0.00315  -0.00173   0.01127   0.00959   2.10897
   A30        2.09835   0.00362  -0.00137   0.01158   0.01025   2.10861
   A31        2.11640  -0.00352  -0.00764   0.01090   0.00320   2.11960
   A32        2.08304  -0.00523   0.00394  -0.02318  -0.01921   2.06383
   A33        2.08375   0.00875   0.00369   0.01229   0.01601   2.09976
   A34        2.08704   0.01171   0.00255   0.02212   0.02471   2.11175
   A35        2.19817  -0.02900  -0.03601   0.01636  -0.01967   2.17851
   A36        1.99797   0.01729   0.03345  -0.03848  -0.00505   1.99293
    D1        0.00000  -0.00000  -0.00000  -0.00000  -0.00000   0.00000
    D2        3.14159  -0.00000  -0.00000  -0.00000  -0.00000   3.14159
    D3       -3.14159  -0.00000   0.00000  -0.00000  -0.00000  -3.14159
    D4       -0.00000  -0.00000   0.00000   0.00000   0.00000  -0.00000
    D5       -0.00000   0.00000   0.00000   0.00000   0.00000  -0.00000
    D6        3.14159   0.00000   0.00000   0.00000   0.00000   3.14159
    D7        3.14159  -0.00000  -0.00000   0.00000   0.00000   3.14159
    D8       -0.00000  -0.00000   0.00000  -0.00000  -0.00000  -0.00000
    D9       -0.00000  -0.00000   0.00000  -0.00000  -0.00000  -0.00000
   D10        3.14159  -0.00000   0.00000  -0.00000  -0.00000   3.14159
   D11        3.14159  -0.00000   0.00000  -0.00000  -0.00000   3.14159
   D12       -0.00000   0.00000   0.00000  -0.00000   0.00000  -0.00000
   D13        0.00000  -0.00000   0.00000  -0.00000  -0.00000   0.00000
   D14        3.14159   0.00000   0.00000   0.00000   0.00000   3.14159
   D15       -3.14159  -0.00000   0.00000  -0.00000  -0.00000  -3.14159
   D16        0.00000  -0.00000   0.00000  -0.00000  -0.00000   0.00000
   D17       -0.00000   0.00000  -0.00000   0.00000   0.00000  -0.00000
   D18        3.14159  -0.00000  -0.00000  -0.00000  -0.00000   3.14159
   D19        3.14159   0.00000   0.00000   0.00000   0.00000   3.14159
   D20        0.00000  -0.00000   0.00000  -0.00000  -0.00000   0.00000
   D21        0.00000  -0.00000  -0.00000  -0.00000  -0.00000   0.00000
   D22       -3.14159  -0.00000  -0.00000  -0.00000  -0.00000  -3.14159
   D23       -3.14159   0.00000   0.00000   0.00000   0.00000  -3.14159
   D24        0.00000   0.00000  -0.00000   0.00000   0.00000   0.00000
   D25       -0.00000   0.00000  -0.00000   0.00000   0.00000  -0.00000
   D26        3.14159   0.00000  -0.00000   0.00000   0.00000   3.14159
   D27        3.14159   0.00000   0.00000   0.00000   0.00000   3.14159
   D28       -0.00000   0.00000  -0.00000   0.00000   0.00000  -0.00000
   D29        3.14159  -0.00000  -0.00000   0.00000   0.00000  -3.14159
   D30        0.00000  -0.00000  -0.00000  -0.00000  -0.00000   0.00000
   D31        0.00000  -0.00000  -0.00000  -0.00000  -0.00000   0.00000
   D32       -3.14159  -0.00000   0.00000  -0.00000  -0.00000  -3.14159
   D33       -3.14159  -0.00000  -0.00000  -0.00000  -0.00000   3.14159
   D34        0.00000  -0.00000   0.00000  -0.00000  -0.00000  -0.00000
   D35       -0.00000   0.00000   0.00000   0.00000   0.00000  -0.00000
   D36        3.14159   0.00000   0.00000   0.00000   0.00000   3.14159
   D37       -0.00000  -0.00000   0.00000  -0.00000  -0.00000  -0.00000
   D38        3.14159  -0.00000   0.00000  -0.00000  -0.00000   3.14159
   D39        3.14159   0.00000  -0.00000   0.00000   0.00000   3.14159
   D40       -0.00000   0.00000  -0.00000   0.00000   0.00000  -0.00000
   D41       -0.00000   0.00000   0.00000   0.00000   0.00000   0.00000
   D42       -3.14159  -0.00000   0.00000  -0.00000  -0.00000  -3.14159
   D43        3.14159   0.00000  -0.00000   0.00000   0.00000  -3.14159
   D44        0.00000  -0.00000   0.00000  -0.00000  -0.00000   0.00000
   D45        0.00000   0.00000  -0.00000   0.00000   0.00000   0.00000
   D46       -3.14159  -0.00000   0.00000  -0.00000  -0.00000  -3.14159
   D47        3.14159   0.00000  -0.00000   0.00000   0.00000   3.14159
   D48        0.00000  -0.00000  -0.00000  -0.00000  -0.00000   0.00000
   D49        0.00000  -0.00000  -0.00000  -0.00000  -0.00000  -0.00000
   D50       -3.14159  -0.00000  -0.00000  -0.00000  -0.00000  -3.14159
   D51        3.14159   0.00000  -0.00000   0.00000   0.00000   3.14159
   D52       -0.00000   0.00000  -0.00000   0.00000   0.00000  -0.00000
         Item               Value     Threshold  Converged?
 Maximum Force            0.060986     0.000450     NO 
 RMS     Force            0.011874     0.000300     NO 
 Maximum Displacement     0.513901     0.001800     NO 
 RMS     Displacement     0.142692     0.001200     NO 
[...]
                 (A) (A) (A) (A) (A) (A) (A) (A) (A) (A) (A) (A)
                 (A) (A) (A) (A) (A) (A) (A) (A) (A) (A) (A) (A)
                 (A) (A) (A) (A) (A) (A) (A) (A) (A) (A) (A) (A)
                 (A) (A) (A) (A) (A) (A) (A) (A) (A) (A) (A) (A)
                 (A) (A) (A) (A) (A) (A) (A) (A) (A) (A) (A) (A)
                 (A) (A) (A) (A) (A) (A) (A) (A) (A) (A) (A) (A)
                 (A) (A) (A) (A) (A) (A) (A) (A) (A) (A) (A) (A)
                 (A) (A) (A) (A) (A) (A) (A) (A) (A) (A) (A) (A)
                 (A) (A) (A) (A) (A) (A) (A) (A) (A) (A) (A) (A)
                 (A) (A) (A) (A) (A) (A) (A) (A) (A) (A) (A) (A)
                 (A) (A) (A) (A) (A) (A) (A) (A) (A) (A) (A) (A)
                 (A) (A) (A) (A) (A)
 The electronic state is 1-A.
 Alpha  occ. eigenvalues -- -101.58438-101.58396-101.58285-101.58267-101.57954
 Alpha  occ. eigenvalues -- -101.57861-101.57779 -10.28730 -10.28596 -10.28282
 Alpha  occ. eigenvalues --  -10.28021 -10.27887 -10.27647 -10.27615 -10.24243
 Alpha  occ. eigenvalues --  -10.23444 -10.22694 -10.22087 -10.22015  -9.49901
 Alpha  occ. eigenvalues --   -9.49863  -9.49744  -9.49741  -9.49414  -9.49317
 Alpha  occ. eigenvalues --   -9.49237  -7.26405  -7.26369  -7.26234  -7.26233
 Alpha  occ. eigenvalues --   -7.25915  -7.25806  -7.25726  -7.25382  -7.25345
 Alpha  occ. eigenvalues --   -7.25294  -7.25255  -7.25227  -7.25217  -7.25157
 Alpha  occ. eigenvalues --   -7.25150  -7.24897  -7.24813  -7.24797  -7.24736
 Alpha  occ. eigenvalues --   -7.24716  -7.24654  -0.96757  -0.95367  -0.92181
 Alpha  occ. eigenvalues --   -0.90506  -0.90272  -0.88228  -0.87288  -0.86485
 Alpha  occ. eigenvalues --   -0.84737  -0.79268  -0.76754  -0.75964  -0.74623
 Alpha  occ. eigenvalues --   -0.66856  -0.64907  -0.63927  -0.61640  -0.55739
 Alpha  occ. eigenvalues --   -0.55319  -0.53283  -0.53130  -0.50299  -0.48765
 Alpha  occ. eigenvalues --   -0.47492  -0.47358  -0.47000  -0.46482  -0.45482
 Alpha  occ. eigenvalues --   -0.44551  -0.42966  -0.41581  -0.41528  -0.40709
 Alpha  occ. eigenvalues --   -0.38956  -0.38628  -0.36944  -0.36163  -0.35950
 Alpha  occ. eigenvalues --   -0.35668  -0.35426  -0.34949  -0.34373  -0.34024
 Alpha  occ. eigenvalues --   -0.33825  -0.32224  -0.32155  -0.28787  -0.27759
 Alpha  occ. eigenvalues --   -0.27602  -0.26738
 Alpha virt. eigenvalues --   -0.07665  -0.06725  -0.05700  -0.05160  -0.04478
 Alpha virt. eigenvalues --   -0.03922  -0.01189  -0.00653   0.00902   0.01148
 Alpha virt. eigenvalues --    0.01272   0.01859   0.01957   0.02231   0.02283
 Alpha virt. eigenvalues --    0.03417   0.04069   0.04575   0.04866   0.05309
 Alpha virt. eigenvalues --    0.06143   0.06496   0.06879   0.07122   0.07442
 Alpha virt. eigenvalues --    0.07816   0.07942   0.08128   0.08488   0.08665
 Alpha virt. eigenvalues --    0.08944   0.09332   0.09785   0.09960   0.10591
 Alpha virt. eigenvalues --    0.10916   0.11560   0.11635   0.11984   0.12240
 Alpha virt. eigenvalues --    0.12496   0.13039   0.13577   0.13642   0.14084
 Alpha virt. eigenvalues --    0.14347   0.14469   0.14790   0.15320   0.15640
 Alpha virt. eigenvalues --    0.16019   0.16393   0.16757   0.17189   0.17624
 Alpha virt. eigenvalues --    0.17654   0.18146   0.18461   0.18641   0.18865
 Alpha virt. eigenvalues --    0.19305   0.19799   0.20265   0.20479   0.21461
 Alpha virt. eigenvalues --    0.21700   0.22068   0.22454   0.22794   0.23136
 Alpha virt. eigenvalues --    0.23483   0.24005   0.24331   0.24818   0.25105
 Alpha virt. eigenvalues --    0.25617   0.25828   0.26281   0.26591   0.26751
 Alpha virt. eigenvalues --    0.27145   0.27398   0.27778   0.27859   0.28159
 Alpha virt. eigenvalues --    0.28583   0.28765   0.28994   0.29638   0.30129
 Alpha virt. eigenvalues --    0.30950   0.31434   0.31954   0.32912   0.33320
 Alpha virt. eigenvalues --    0.39523   0.40891   0.41535   0.42380   0.42731
 Alpha virt. eigenvalues --    0.43110   0.43375   0.43555   0.44161   0.44529
 Alpha virt. eigenvalues --    0.44860   0.45332   0.45883   0.46153   0.46356
 Alpha virt. eigenvalues --    0.47165   0.47600   0.47708   0.48073   0.48656
 Alpha virt. eigenvalues --    0.48848   0.49386   0.49638   0.49966   0.52406
 Alpha virt. eigenvalues --    0.54515   0.54858   0.55419   0.56243   0.56737
 Alpha virt. eigenvalues --    0.57782   0.58201   0.59105   0.59581   0.60103
 Alpha virt. eigenvalues --    0.60889   0.61027   0.61391   0.62114   0.62682
 Alpha virt. eigenvalues --    0.63089   0.64398   0.65216   0.65972   0.66607
 Alpha virt. eigenvalues --    0.66934   0.67441   0.68075   0.68249   0.69367
 Alpha virt. eigenvalues --    0.69695   0.70285   0.73270   0.75041   0.76244
 Alpha virt. eigenvalues --    0.77596   0.80014   0.80555   0.80993   0.82026
 Alpha virt. eigenvalues --    0.82373   0.82857   0.83398   0.83615   0.83671
 Alpha virt. eigenvalues --    0.84088   0.84220   0.84387   0.84494   0.84849
 Alpha virt. eigenvalues --    0.84890   0.85423   0.85661   0.85745   0.86450
 Alpha virt. eigenvalues --    0.87221   0.87749   0.88670   0.88826   0.89485
 Alpha virt. eigenvalues --    0.89888   0.90548   0.90983   0.91124   0.91951
 Alpha virt. eigenvalues --    0.92418   0.92948   0.93425   0.93626   0.94230
 Alpha virt. eigenvalues --    0.94648   0.94931   0.95549   0.96511   0.96909
 Alpha virt. eigenvalues --    0.97780   0.98834   0.99975   1.00315   1.02223
 Alpha virt. eigenvalues --    1.03323   1.04543   1.05508   1.07641   1.08735
 Alpha virt. eigenvalues --    1.11725   1.12368   1.12918   1.17921   1.18395
 Alpha virt. eigenvalues --    1.19685   1.21530   1.22316   1.23164   1.24101
 Alpha virt. eigenvalues --    1.25420   1.26201   1.26581   1.26898   1.27232
 Alpha virt. eigenvalues --    1.27670   1.28416   1.28979   1.30693   1.32276
 Alpha virt. eigenvalues --    1.34138   1.35824   1.36143   1.39493   1.42102
 Alpha virt. eigenvalues --    1.43372   1.48249   1.49613   1.51117   1.53625
 Alpha virt. eigenvalues --    1.57929   1.58092   1.60239   1.60871   1.62830
 Alpha virt. eigenvalues --    1.64415   1.64845   1.66307   1.70649   1.72374
 Alpha virt. eigenvalues --    1.75040   1.76677   1.78144   1.80200   1.81414
 Alpha virt. eigenvalues --    1.83012   1.83955   1.86247   1.86521   1.87113
 Alpha virt. eigenvalues --    1.87371   1.89620   1.90176   1.94500   1.94674
 Alpha virt. eigenvalues --    1.95254   1.98287   2.01436   2.02012   2.07284
 Alpha virt. eigenvalues --    2.09277   2.10335   2.12898   2.15755   2.20942
 Alpha virt. eigenvalues --    2.22069   2.22424   2.23848   2.24871   2.25276
 Alpha virt. eigenvalues --    2.25834   2.26919   2.27255   2.27922   2.28716
 Alpha virt. eigenvalues --    2.28996   2.30603   2.31600   2.32246   2.34524
 Alpha virt. eigenvalues --    2.38614   2.39863   2.41355   2.41716   2.42703
 Alpha virt. eigenvalues --    2.43924   2.45544   2.48408   2.48971   2.50392
 Alpha virt. eigenvalues --    2.51853   2.53811   2.54579   2.57807   2.59288
 Alpha virt. eigenvalues --    2.60625   2.64314   2.64361   2.65734   2.68202
 Alpha virt. eigenvalues --    2.70392   2.71315   2.73099   2.74710   2.75400
 Alpha virt. eigenvalues --    2.76547   2.78155   2.79154   2.81900   2.82933
 Alpha virt. eigenvalues --    2.87738   2.90403   2.96013   2.97841   3.03579
 Alpha virt. eigenvalues --    3.05289   3.07662   3.10003   3.10645   3.13000
 Alpha virt. eigenvalues --    3.13893   3.14267   3.18334   3.20858   3.21052
 Alpha virt. eigenvalues --    3.24330   3.33986   3.36529   3.41097   3.50193
 Alpha virt. eigenvalues --    3.62894   3.64883   3.68859   3.70054   3.77693
 Alpha virt. eigenvalues --    3.90083   3.98786   4.02685   4.07520   4.32908
 Alpha virt. eigenvalues --    4.79386   4.81459   9.72241   9.74156   9.77915
 Alpha virt. eigenvalues --    9.78695   9.80022   9.80341   9.81546  23.30045
 Alpha virt. eigenvalues --   23.47180  23.78913  23.83054  23.84144  23.86939
 Alpha virt. eigenvalues --   23.92578  23.93639  23.97750  24.02817  24.06937
 Alpha virt. eigenvalues --   24.13044  25.76188  25.76549  25.79758  25.81151
 Alpha virt. eigenvalues --   25.85702  25.88772  25.91707  26.07130  26.08289
 Alpha virt. eigenvalues --   26.09517  26.10982  26.15983  26.17188  26.28323
 Alpha virt. eigenvalues --   26.44330  26.46445  26.59481  26.62375  26.73316
 Alpha virt. eigenvalues --   26.82759  26.93374 215.71151 215.72884 215.77345
 Alpha virt. eigenvalues --  215.78207 215.79750 215.80114 215.81740
          Condensed to atoms (all electrons):
               1          2          3          4          5          6
     1  C   30.721992  -2.723445  -6.272654  -3.903210  -5.025042  -2.982077
     2  C   -2.723445  26.498728   1.315540  -5.915118   0.005052 -13.756855
     3  C   -6.272654   1.315540  20.807501  -1.836731  -7.937470   1.020564
     4  C   -3.903210  -5.915118  -1.836731  25.144929  -0.159715  -6.459419
     5  C   -5.025042   0.005052  -7.937470  -0.159715  18.917664   0.997780
     6  C   -2.982077 -13.756855   1.020564  -6.459419   0.997780  28.071256
     7  C    1.666898   0.248471  -0.570217   0.062879  -0.243407  -0.650093
     8  C   -2.208660   0.856282   0.289704   0.071634   0.169170  -0.414119
     9  C   -0.692652  -0.089364  -0.180196   0.164795   0.008877   0.238298
    10  C   -1.145373  -0.297212   0.304977  -0.206400   0.190750   0.001247
    11  C   -1.440209  -0.144152   0.084197  -0.074151   0.255392   0.096229
    12  C    0.125848  -0.073241   0.176595  -0.196516  -0.202500   0.383807
    13  H    0.050332   0.320093  -0.051483  -0.004191  -0.006191   0.008918
    14  H    0.091914   0.036952  -0.006889  -0.021809  -0.074130   0.335759
    15  H   -0.008440   0.077187   0.008633   0.003581  -0.008111  -0.051124
    16  Cl  -0.210454   0.028731  -0.242485   0.080659   0.044855   0.081324
    17  Cl   0.014708  -0.030465  -0.007760   0.001644   0.011484   0.070942
    18  Cl  -0.560673   0.164291   0.012677  -0.059567  -0.516374   0.291814
    19  Cl  -0.037845   0.005277   0.007917  -0.003159   0.001262  -0.011889
    20  Cl   0.233294  -0.132486  -0.189402  -0.518149   0.176227  -0.249111
    21  Cl  -0.057021   0.089956   0.003303   0.007294  -0.012551  -0.033905
    22  Cl  -0.521863   0.275021  -0.313810  -0.195704  -0.105428   0.225320
               7          8          9         10         11         12
     1  C    1.666898  -2.208660  -0.692652  -1.145373  -1.440209   0.125848
     2  C    0.248471   0.856282  -0.089364  -0.297212  -0.144152  -0.073241
     3  C   -0.570217   0.289704  -0.180196   0.304977   0.084197   0.176595
     4  C    0.062879   0.071634   0.164795  -0.206400  -0.074151  -0.196516
     5  C   -0.243407   0.169170   0.008877   0.190750   0.255392  -0.202500
     6  C   -0.650093  -0.414119   0.238298   0.001247   0.096229   0.383807
     7  C   17.605338  -1.981276  -7.294363   4.083153  -2.222904  -2.745325
     8  C   -1.981276   9.330342   1.512728  -4.361452   1.588349   1.248046
     9  C   -7.294363   1.512728  19.223359  -7.452602  -2.306726   3.239576
    10  C    4.083153  -4.361452  -7.452602  22.298989  -0.252990  -6.015849
    11  C   -2.222904   1.588349  -2.306726  -0.252990  11.796181  -1.067979
    12  C   -2.745325   1.248046   3.239576  -6.015849  -1.067979  12.417144
    13  H    0.003010   0.010274  -0.012943   0.010196   0.004095   0.021140
    14  H   -0.005701  -0.007800  -0.010566   0.002313  -0.001816   0.020820
    15  H    0.053271   0.416903  -0.100934  -0.026944  -0.005391  -0.011878
    16  Cl  -0.607821   0.131951   0.550149  -0.679936   0.340320  -0.732364
    17  Cl  -0.371796   0.125890   0.054455  -0.325804  -0.686968   0.607456
    18  Cl  -0.062296   0.008453  -0.001335   0.004183   0.007841  -0.007116
    19  Cl   0.235988  -0.222776  -0.913861   0.499024   0.541638  -0.735939
    20  Cl   0.041434   0.003527   0.007452  -0.005975  -0.003190  -0.035468
    21  Cl  -0.872812   0.192673   0.401352  -0.572583  -0.197743   0.295562
    22  Cl  -0.085535   0.036016   0.009477   0.006019  -0.001909  -0.003887
              13         14         15         16         17         18
     1  C    0.050332   0.091914  -0.008440  -0.210454   0.014708  -0.560673
     2  C    0.320093   0.036952   0.077187   0.028731  -0.030465   0.164291
     3  C   -0.051483  -0.006889   0.008633  -0.242485  -0.007760   0.012677
     4  C   -0.004191  -0.021809   0.003581   0.080659   0.001644  -0.059567
     5  C   -0.006191  -0.074130  -0.008111   0.044855   0.011484  -0.516374
     6  C    0.008918   0.335759  -0.051124   0.081324   0.070942   0.291814
     7  C    0.003010  -0.005701   0.053271  -0.607821  -0.371796  -0.062296
     8  C    0.010274  -0.007800   0.416903   0.131951   0.125890   0.008453
     9  C   -0.012943  -0.010566  -0.100934   0.550149   0.054455  -0.001335
    10  C    0.010196   0.002313  -0.026944  -0.679936  -0.325804   0.004183
    11  C    0.004095  -0.001816  -0.005391   0.340320  -0.686968   0.007841
    12  C    0.021140   0.020820  -0.011878  -0.732364   0.607456  -0.007116
    13  H    0.501693  -0.000156  -0.000638  -0.002620  -0.000194   0.000661
    14  H   -0.000156   0.493535   0.000058  -0.009105   0.000342  -0.001654
    15  H   -0.000638   0.000058   0.498135  -0.001609   0.000962  -0.000102
    16  Cl  -0.002620  -0.009105  -0.001609  17.839272  -0.187138  -0.000017
    17  Cl  -0.000194   0.000342   0.000962  -0.187138  17.373711   0.000342
    18  Cl   0.000661  -0.001654  -0.000102  -0.000017   0.000342  17.341041
    19  Cl   0.000087  -0.000137   0.000147  -0.026000  -0.230708   0.000121
    20  Cl  -0.000625  -0.000118  -0.000103   0.012817   0.000055  -0.173667
    21  Cl  -0.000264  -0.000185  -0.002515   0.007064   0.003228  -0.000033
    22  Cl  -0.004820   0.000494  -0.000303  -0.008167  -0.000084   0.009268
              19         20         21         22
     1  C   -0.037845   0.233294  -0.057021  -0.521863
     2  C    0.005277  -0.132486   0.089956   0.275021
     3  C    0.007917  -0.189402   0.003303  -0.313810
     4  C   -0.003159  -0.518149   0.007294  -0.195704
     5  C    0.001262   0.176227  -0.012551  -0.105428
     6  C   -0.011889  -0.249111  -0.033905   0.225320
     7  C    0.235988   0.041434  -0.872812  -0.085535
     8  C   -0.222776   0.003527   0.192673   0.036016
     9  C   -0.913861   0.007452   0.401352   0.009477
    10  C    0.499024  -0.005975  -0.572583   0.006019
    11  C    0.541638  -0.003190  -0.197743  -0.001909
    12  C   -0.735939  -0.035468   0.295562  -0.003887
    13  H    0.000087  -0.000625  -0.000264  -0.004820
    14  H   -0.000137  -0.000118  -0.000185   0.000494
    15  H    0.000147  -0.000103  -0.002515  -0.000303
    16  Cl  -0.026000   0.012817   0.007064  -0.008167
    17  Cl  -0.230708   0.000055   0.003228  -0.000084
    18  Cl   0.000121  -0.173667  -0.000033   0.009268
    19  Cl  17.455263   0.000000  -0.196184   0.000135
    20  Cl   0.000000  17.382241   0.000197  -0.165677
    21  Cl  -0.196184   0.000197  17.396663   0.000632
    22  Cl   0.000135  -0.165677   0.000632  17.325701
 Mulliken charges:
               1
     1  C    0.884630
     2  C   -0.759244
     3  C   -0.422512
     4  C    0.016422
     5  C   -0.487595
     6  C   -1.214666
     7  C   -0.286898
     8  C   -0.795861
     9  C   -0.354978
    10  C   -0.057731
    11  C   -0.308116
    12  C   -0.707933
    13  H    0.153628
    14  H    0.157879
    15  H    0.159216
    16  Cl   0.590573
    17  Cl   0.575700
    18  Cl   0.542142
    19  Cl   0.631639
    20  Cl   0.616727
    21  Cl   0.547874
    22  Cl   0.519105
 Sum of Mulliken charges =  -0.00000
 Mulliken charges with hydrogens summed into heavy atoms:
               1
     1  C    0.884630
     2  C   -0.605616
     3  C   -0.422512
     4  C    0.016422
     5  C   -0.487595
     6  C   -1.056787
     7  C   -0.286898
     8  C   -0.636645
     9  C   -0.354978
    10  C   -0.057731
    11  C   -0.308116
    12  C   -0.707933
    16  Cl   0.590573
    17  Cl   0.575700
    18  Cl   0.542142
    19  Cl   0.631639
    20  Cl   0.616727
    21  Cl   0.547874
    22  Cl   0.519105
 Electronic spatial extent (au):  <R**2>=          11104.4229
 Charge=             -0.0000 electrons
 Dipole moment (field-independent basis, Debye):
    X=             -0.5762    Y=              0.5908    Z=             -0.2909  Tot=              0.8750
 Quadrupole moment (field-independent basis, Debye-Ang):
   XX=           -167.9665   YY=           -156.5186   ZZ=           -157.4709
   XY=              0.1097   XZ=             -0.1080   YZ=              0.8958
 Traceless Quadrupole moment (field-independent basis, Debye-Ang):
   XX=             -7.3145   YY=              4.1334   ZZ=              3.1811
   XY=              0.1097   XZ=             -0.1080   YZ=              0.8958
 Octapole moment (field-independent basis, Debye-Ang**2):
  XXX=            -18.9887  YYY=             -6.5172  ZZZ=              3.0899  XYY=             -1.4295
  XXY=             -8.5642  XXZ=              3.4951  XZZ=             -1.4845  YZZ=             -2.5220
  YYZ=              0.8026  XYZ=              0.5869
 Hexadecapole moment (field-independent basis, Debye-Ang**3):
 XXXX=         -10761.7282 YYYY=          -2538.7944 ZZZZ=          -1032.1407 XXXY=             16.7461
 XXXZ=             -6.4462 YYYX=             -0.1518 YYYZ=            -14.9558 ZZZX=             -2.0369
 ZZZY=              9.0210 XXYY=          -2231.2116 XXZZ=          -1991.8517 YYZZ=           -579.0053
 XXYZ=             -3.6239 YYXZ=              1.1135 ZZXY=              0.5192
 N-N= 2.265791587245D+03 E-N=-1.325249262095D+04  KE= 3.671259547195D+03
 1\1\GINC-CN150\FOpt\RB3LYP\6-311+G(d,p)\C12H3Cl7\20CY91R06\25-Mar-2022
 \0\\# opt b3lyp/6-311+g(d,p) scf=xqc\\Title Card Required\\0,1\C,0.113
 97629,0.480099544,-0.0176401425\C,1.0938872494,0.6785506543,-0.9904633
 117\C,1.8389297668,1.8535504066,-1.0114566388\C,1.6276600992,2.8570966
 905,-0.0573306668\C,0.6439778285,2.6430453197,0.9200305194\C,-0.104324
 3051,1.4726405623,0.9391863128\C,-0.6422611158,-0.8040246528,0.0185186
 681\C,0.0684610896,-1.9891035596,0.2117484074\C,-0.5726296166,-3.21947
 57288,0.2596535709\C,-1.9612451942,-3.2993340309,0.1136962786\C,-2.693
 1414668,-2.117640158,-0.0908690892\C,-2.0341879094,-0.8801294356,-0.14
 03219826\H,1.2760545123,-0.0718793645,-1.7484888694\H,-0.8507914139,1.
 3409331089,1.7105421871\H,1.1413770015,-1.9502898098,0.3455961631\Cl,-
 2.9512766824,0.5718639669,-0.4516151217\Cl,-4.4157475681,-2.1983274266
 ,-0.2938563316\Cl,0.331693022,3.8416118576,2.1499103805\Cl,-2.76582590
 84,-4.8345056592,0.1819062696\Cl,2.5571499349,4.3216083349,-0.08159943
 15\Cl,0.3938542163,-4.6481740209,0.5153276149\Cl,3.0423286101,2.044449
 7611,-2.2613704568\\Version=EM64L-G16RevB.01\State=1-A\HF=-3680.745066
 2\RMSD=4.184e-09\RMSF=6.217e-06\Dipole=0.09776,-0.3242956,0.0615874\Qu
 adrupole=0.5818617,-3.2811715,2.6993098,-3.598459,-0.5322326,0.5781991
 \PG=C01 [X(C12H3Cl7)]\\@


 I MET A TRAVELLER FROM AN ANTIQUE LAND
 WHO SAID... TWO VAST AND TRUNKLESS LEGS OF STONE
 STAND IN THE DESERT..... NEAR THEM,  ON THE SAND,
 HALF SUNK,  A SHATTERED VISAGE LIES,  WHOSE FROWN,
 AND WRINKLED LIP,  AND SNEER OF COLD COMMAND
 TELL THAT ITS SCULPTOR WELL THOSE PASSIONS READ
 WHICH YET SURVIVE,  STAMPED ON THESE LIFELESS THINGS
 THE HAND THAT MOCKED THEM,  AND THE HEART THAT FED-
 AND ON THE PEDESTAL THESE WORDS APPEAR 
 MY NAME IS OZYMANDIAS, KING OF KINGS--   
 LOOK ON MY WORKS YE MIGHTY AND DESPAIR. 
 NOTHING BESIDE REMAINS,  ROUND THE DECAY 
 OF THAT COLOSSAL WRECK,  BOUNDLESS AND BARE
 THE LONE AND LEVEL SANDS STRETCH FAR AWAY.
                                    SHELLEY
 Job cpu time:       0 days 10 hours 48 minutes 56.4 seconds.
 Elapsed time:       0 days 10 hours 48 minutes 56.6 seconds.
 File lengths (MBytes):  RWF=    161 Int=      0 D2E=      0 Chk=     25 Scr=      1
 Normal termination of Gaussian 16 at Fri Mar 25 11:24:17 2022.
