 Entering Gaussian System, Link 0=g16
 Input=2,3,4,4prime-Tetrachlorobiphenyl.gjf
 Output=2,3,4,4prime-Tetrachlorobiphenyl.log
 Initial command:
 /usr/local/g16/l1.exe "/scratch/pkc/Gau-53232.inp" -scrdir="/scratch/pkc/"
 Entering Link 1 = /usr/local/g16/l1.exe PID=     53233.
  
 Copyright (c) 1988-2017, Gaussian, Inc.  All Rights Reserved.
  
 This is part of the Gaussian(R) 16 program.  It is based on
 the Gaussian(R) 09 system (copyright 2009, Gaussian, Inc.),
 the Gaussian(R) 03 system (copyright 2003, Gaussian, Inc.),
 the Gaussian(R) 98 system (copyright 1998, Gaussian, Inc.),
 the Gaussian(R) 94 system (copyright 1995, Gaussian, Inc.),
 the Gaussian 92(TM) system (copyright 1992, Gaussian, Inc.),
 the Gaussian 90(TM) system (copyright 1990, Gaussian, Inc.),
 the Gaussian 88(TM) system (copyright 1988, Gaussian, Inc.),
 the Gaussian 86(TM) system (copyright 1986, Carnegie Mellon
 University), and the Gaussian 82(TM) system (copyright 1983,
 Carnegie Mellon University). Gaussian is a federally registered
 trademark of Gaussian, Inc.
  
 This software contains proprietary and confidential information,
 including trade secrets, belonging to Gaussian, Inc.
  
 This software is provided under written license and may be
 used, copied, transmitted, or stored only in accord with that
 written license.
  
 The following legend is applicable only to US Government
 contracts under FAR:
  
                    RESTRICTED RIGHTS LEGEND
  
 Use, reproduction and disclosure by the US Government is
 subject to restrictions as set forth in subparagraphs (a)
 and (c) of the Commercial Computer Software - Restricted
 Rights clause in FAR 52.227-19.
  
 Gaussian, Inc.
 340 Quinnipiac St., Bldg. 40, Wallingford CT 06492
  
  
 ---------------------------------------------------------------
 Warning -- This program may not be used in any manner that
 competes with the business of Gaussian, Inc. or will provide
 assistance to any competitor of Gaussian, Inc.  The licensee
 of this program is prohibited from giving any competitor of
 Gaussian, Inc. access to this program.  By using this program,
 the user acknowledges that Gaussian, Inc. is engaged in the
 business of creating and licensing software in the field of
 computational chemistry and represents and warrants to the
 licensee that it is not a competitor of Gaussian, Inc. and that
 it will not use this program in any manner prohibited above.
 ---------------------------------------------------------------
  

 Cite this work as:
 Gaussian 16, Revision B.01,
 M. J. Frisch, G. W. Trucks, H. B. Schlegel, G. E. Scuseria, 
 M. A. Robb, J. R. Cheeseman, G. Scalmani, V. Barone, 
 G. A. Petersson, H. Nakatsuji, X. Li, M. Caricato, A. V. Marenich, 
 J. Bloino, B. G. Janesko, R. Gomperts, B. Mennucci, H. P. Hratchian, 
 J. V. Ortiz, A. F. Izmaylov, J. L. Sonnenberg, D. Williams-Young, 
 F. Ding, F. Lipparini, F. Egidi, J. Goings, B. Peng, A. Petrone, 
 T. Henderson, D. Ranasinghe, V. G. Zakrzewski, J. Gao, N. Rega, 
 G. Zheng, W. Liang, M. Hada, M. Ehara, K. Toyota, R. Fukuda, 
 J. Hasegawa, M. Ishida, T. Nakajima, Y. Honda, O. Kitao, H. Nakai, 
 T. Vreven, K. Throssell, J. A. Montgomery, Jr., J. E. Peralta, 
 F. Ogliaro, M. J. Bearpark, J. J. Heyd, E. N. Brothers, K. N. Kudin, 
 V. N. Staroverov, T. A. Keith, R. Kobayashi, J. Normand, 
 K. Raghavachari, A. P. Rendell, J. C. Burant, S. S. Iyengar, 
 J. Tomasi, M. Cossi, J. M. Millam, M. Klene, C. Adamo, R. Cammi, 
 J. W. Ochterski, R. L. Martin, K. Morokuma, O. Farkas, 
 J. B. Foresman, and D. J. Fox, Gaussian, Inc., Wallingford CT, 2016.
 
 ******************************************
 Gaussian 16:  EM64L-G16RevB.01 20-Dec-2017
                15-Mar-2022 
 ******************************************
 %mem=10GB
 %nprocshared=4
 Will use up to    4 processors via shared memory.
 --------------------------------
 # opt b3lyp/6-311+g(d,p) scf=xqc
 --------------------------------
 1/18=20,19=15,26=3,38=1/1,3;
 2/9=110,12=2,17=6,18=5,40=1/2;
 3/5=4,6=6,7=111,11=2,25=1,30=1,71=1,74=-5/1,2,3;
 4//1;
 5/5=2,8=3,13=1,38=5/2,8;
 6/7=2,8=2,9=2,10=2,28=1/1;
 7//1,2,3,16;
 1/18=20,19=15,26=3/3(2);
 2/9=110/2;
 99//99;
 2/9=110/2;
 3/5=4,6=6,7=111,11=2,25=1,30=1,71=1,74=-5/1,2,3;
 4/5=5,16=3,69=1/1;
 5/5=2,8=3,13=1,38=5/2,8;
 7//1,2,3,16;
 1/18=20,19=15,26=3/3(-5);
 2/9=110/2;
 6/7=2,8=2,9=2,10=2,19=2,28=1/1;
 99/9=1/99;
 -------------------
 Title Card Required
 -------------------
 Symbolic Z-matrix:
 Charge =  0 Multiplicity = 1
 C                    -0.0148   -0.44111  -0.00285 
 C                     1.31758  -0.41123  -0.4362 
 C                     2.02548   0.79822  -0.44227 
 C                     1.40099   1.97779  -0.015 
 C                     0.06861   1.9479    0.41835 
 C                    -0.63929   0.73845   0.42442 
 C                    -0.7927   -1.77018   0.00382 
 C                    -0.16821  -2.94975  -0.42345 
 C                    -0.87611  -4.1592   -0.41738 
 C                    -2.20849  -4.18908   0.01597 
 C                    -2.83297  -3.00952   0.44325 
 C                    -2.12508  -1.80007   0.43717 
 H                     1.79439  -1.31185  -0.76243 
 H                     3.04278   0.82104  -0.77314 
 H                    -0.4082    2.84853   0.74458 
 H                    -1.65659   0.71563   0.75529 
 H                     0.84909  -2.92693  -0.75432 
 H                    -0.3993   -5.05982  -0.74361 
 Cl                   -2.90937  -0.31867   0.97378 
 Cl                   -4.50629  -3.04705   0.98749 
 Cl                   -3.09752  -5.70802   0.0236 
 Cl                    2.29002   3.49672  -0.02262 
 

 GradGradGradGradGradGradGradGradGradGradGradGradGradGradGradGradGradGrad
 Berny optimization.
 Initialization pass.
                           ----------------------------
                           !    Initial Parameters    !
                           ! (Angstroms and Degrees)  !
 --------------------------                            --------------------------
 ! Name  Definition              Value          Derivative Info.                !
 --------------------------------------------------------------------------------
 ! R1    R(1,2)                  1.4014         estimate D2E/DX2                !
 ! R2    R(1,6)                  1.4014         estimate D2E/DX2                !
 ! R3    R(1,7)                  1.54           estimate D2E/DX2                !
 ! R4    R(2,3)                  1.4014         estimate D2E/DX2                !
 ! R5    R(2,13)                 1.07           estimate D2E/DX2                !
 ! R6    R(3,4)                  1.4014         estimate D2E/DX2                !
 ! R7    R(3,14)                 1.07           estimate D2E/DX2                !
 ! R8    R(4,5)                  1.4014         estimate D2E/DX2                !
 ! R9    R(4,22)                 1.76           estimate D2E/DX2                !
 ! R10   R(5,6)                  1.4014         estimate D2E/DX2                !
 ! R11   R(5,15)                 1.07           estimate D2E/DX2                !
 ! R12   R(6,16)                 1.07           estimate D2E/DX2                !
 ! R13   R(7,8)                  1.4014         estimate D2E/DX2                !
 ! R14   R(7,12)                 1.4014         estimate D2E/DX2                !
 ! R15   R(8,9)                  1.4014         estimate D2E/DX2                !
 ! R16   R(8,17)                 1.07           estimate D2E/DX2                !
 ! R17   R(9,10)                 1.4014         estimate D2E/DX2                !
 ! R18   R(9,18)                 1.07           estimate D2E/DX2                !
 ! R19   R(10,11)                1.4014         estimate D2E/DX2                !
 ! R20   R(10,21)                1.76           estimate D2E/DX2                !
 ! R21   R(11,12)                1.4014         estimate D2E/DX2                !
 ! R22   R(11,20)                1.76           estimate D2E/DX2                !
 ! R23   R(12,19)                1.76           estimate D2E/DX2                !
 ! A1    A(2,1,6)              120.0            estimate D2E/DX2                !
 ! A2    A(2,1,7)              120.0            estimate D2E/DX2                !
 ! A3    A(6,1,7)              120.0            estimate D2E/DX2                !
 ! A4    A(1,2,3)              120.0            estimate D2E/DX2                !
 ! A5    A(1,2,13)             120.0            estimate D2E/DX2                !
 ! A6    A(3,2,13)             120.0            estimate D2E/DX2                !
 ! A7    A(2,3,4)              120.0            estimate D2E/DX2                !
 ! A8    A(2,3,14)             120.0            estimate D2E/DX2                !
 ! A9    A(4,3,14)             120.0            estimate D2E/DX2                !
 ! A10   A(3,4,5)              120.0            estimate D2E/DX2                !
 ! A11   A(3,4,22)             120.0            estimate D2E/DX2                !
 ! A12   A(5,4,22)             120.0            estimate D2E/DX2                !
 ! A13   A(4,5,6)              120.0            estimate D2E/DX2                !
 ! A14   A(4,5,15)             120.0            estimate D2E/DX2                !
 ! A15   A(6,5,15)             120.0            estimate D2E/DX2                !
 ! A16   A(1,6,5)              120.0            estimate D2E/DX2                !
 ! A17   A(1,6,16)             120.0            estimate D2E/DX2                !
 ! A18   A(5,6,16)             120.0            estimate D2E/DX2                !
 ! A19   A(1,7,8)              120.0            estimate D2E/DX2                !
 ! A20   A(1,7,12)             120.0            estimate D2E/DX2                !
 ! A21   A(8,7,12)             120.0            estimate D2E/DX2                !
 ! A22   A(7,8,9)              120.0            estimate D2E/DX2                !
 ! A23   A(7,8,17)             120.0            estimate D2E/DX2                !
 ! A24   A(9,8,17)             120.0            estimate D2E/DX2                !
 ! A25   A(8,9,10)             120.0            estimate D2E/DX2                !
 ! A26   A(8,9,18)             120.0            estimate D2E/DX2                !
 ! A27   A(10,9,18)            120.0            estimate D2E/DX2                !
 ! A28   A(9,10,11)            120.0            estimate D2E/DX2                !
 ! A29   A(9,10,21)            120.0            estimate D2E/DX2                !
 ! A30   A(11,10,21)           120.0            estimate D2E/DX2                !
 ! A31   A(10,11,12)           120.0            estimate D2E/DX2                !
 ! A32   A(10,11,20)           120.0            estimate D2E/DX2                !
 ! A33   A(12,11,20)           120.0            estimate D2E/DX2                !
 ! A34   A(7,12,11)            120.0            estimate D2E/DX2                !
 ! A35   A(7,12,19)            120.0            estimate D2E/DX2                !
 ! A36   A(11,12,19)           120.0            estimate D2E/DX2                !
 ! D1    D(6,1,2,3)              0.0001         estimate D2E/DX2                !
 ! D2    D(6,1,2,13)           180.0            estimate D2E/DX2                !
 ! D3    D(7,1,2,3)           -180.0            estimate D2E/DX2                !
 ! D4    D(7,1,2,13)            -0.0001         estimate D2E/DX2                !
 ! D5    D(2,1,6,5)             -0.0001         estimate D2E/DX2                !
 ! D6    D(2,1,6,16)           180.0            estimate D2E/DX2                !
 ! D7    D(7,1,6,5)            180.0            estimate D2E/DX2                !
 ! D8    D(7,1,6,16)             0.0            estimate D2E/DX2                !
 ! D9    D(2,1,7,8)             -0.0001         estimate D2E/DX2                !
 ! D10   D(2,1,7,12)           179.9998         estimate D2E/DX2                !
 ! D11   D(6,1,7,8)            179.9999         estimate D2E/DX2                !
 ! D12   D(6,1,7,12)            -0.0002         estimate D2E/DX2                !
 ! D13   D(1,2,3,4)              0.0            estimate D2E/DX2                !
 ! D14   D(1,2,3,14)           180.0            estimate D2E/DX2                !
 ! D15   D(13,2,3,4)          -179.9999         estimate D2E/DX2                !
 ! D16   D(13,2,3,14)            0.0001         estimate D2E/DX2                !
 ! D17   D(2,3,4,5)             -0.0001         estimate D2E/DX2                !
 ! D18   D(2,3,4,22)           180.0            estimate D2E/DX2                !
 ! D19   D(14,3,4,5)           179.9999         estimate D2E/DX2                !
 ! D20   D(14,3,4,22)            0.0            estimate D2E/DX2                !
 ! D21   D(3,4,5,6)              0.0001         estimate D2E/DX2                !
 ! D22   D(3,4,5,15)          -179.9999         estimate D2E/DX2                !
 ! D23   D(22,4,5,6)          -180.0            estimate D2E/DX2                !
 ! D24   D(22,4,5,15)            0.0            estimate D2E/DX2                !
 ! D25   D(4,5,6,1)              0.0            estimate D2E/DX2                !
 ! D26   D(4,5,6,16)           179.9999         estimate D2E/DX2                !
 ! D27   D(15,5,6,1)           180.0            estimate D2E/DX2                !
 ! D28   D(15,5,6,16)           -0.0001         estimate D2E/DX2                !
 ! D29   D(1,7,8,9)            179.9999         estimate D2E/DX2                !
 ! D30   D(1,7,8,17)             0.0001         estimate D2E/DX2                !
 ! D31   D(12,7,8,9)             0.0001         estimate D2E/DX2                !
 ! D32   D(12,7,8,17)         -179.9998         estimate D2E/DX2                !
 ! D33   D(1,7,12,11)         -179.9999         estimate D2E/DX2                !
 ! D34   D(1,7,12,19)            0.0            estimate D2E/DX2                !
 ! D35   D(8,7,12,11)           -0.0001         estimate D2E/DX2                !
 ! D36   D(8,7,12,19)          179.9999         estimate D2E/DX2                !
 ! D37   D(7,8,9,10)             0.0            estimate D2E/DX2                !
 ! D38   D(7,8,9,18)           180.0            estimate D2E/DX2                !
 ! D39   D(17,8,9,10)          179.9998         estimate D2E/DX2                !
 ! D40   D(17,8,9,18)           -0.0002         estimate D2E/DX2                !
 ! D41   D(8,9,10,11)            0.0            estimate D2E/DX2                !
 ! D42   D(8,9,10,21)         -179.9999         estimate D2E/DX2                !
 ! D43   D(18,9,10,11)         180.0            estimate D2E/DX2                !
 ! D44   D(18,9,10,21)           0.0001         estimate D2E/DX2                !
 ! D45   D(9,10,11,12)           0.0            estimate D2E/DX2                !
 ! D46   D(9,10,11,20)        -179.9998         estimate D2E/DX2                !
 ! D47   D(21,10,11,12)        179.9999         estimate D2E/DX2                !
 ! D48   D(21,10,11,20)          0.0001         estimate D2E/DX2                !
 ! D49   D(10,11,12,7)           0.0            estimate D2E/DX2                !
 ! D50   D(10,11,12,19)       -179.9999         estimate D2E/DX2                !
 ! D51   D(20,11,12,7)         179.9999         estimate D2E/DX2                !
 ! D52   D(20,11,12,19)         -0.0001         estimate D2E/DX2                !
 --------------------------------------------------------------------------------
 Trust Radius=3.00D-01 FncErr=1.00D-07 GrdErr=1.00D-06 EigMax=2.50D+02 EigMin=1.00D-04
 Number of steps in this run=    121 maximum allowed number of steps=    132.
 GradGradGradGradGradGradGradGradGradGradGradGradGradGradGradGradGradGrad

                          Input orientation:                          
 ---------------------------------------------------------------------
 Center     Atomic      Atomic             Coordinates (Angstroms)
 Number     Number       Type             X           Y           Z
 ---------------------------------------------------------------------
      1          6           0       -0.014797   -0.441115   -0.002851
      2          6           0        1.317584   -0.411229   -0.436198
      3          6           0        2.025478    0.798222   -0.442270
      4          6           0        1.400990    1.977787   -0.014995
      5          6           0        0.068609    1.947902    0.418350
      6          6           0       -0.639285    0.738450    0.424422
      7          6           0       -0.792702   -1.770182    0.003823
      8          6           0       -0.168215   -2.949747   -0.423452
      9          6           0       -0.876107   -4.159199   -0.417378
     10          6           0       -2.208488   -4.189085    0.015972
     11          6           0       -2.832975   -3.009520    0.443247
     12          6           0       -2.125082   -1.800069    0.437173
     13          1           0        1.794395   -1.311854   -0.762430
     14          1           0        3.042780    0.821040   -0.773139
     15          1           0       -0.408202    2.848526    0.744581
     16          1           0       -1.656588    0.715632    0.755291
     17          1           0        0.849088   -2.926929   -0.754322
     18          1           0       -0.399298   -5.059823   -0.743612
     19         17           0       -2.909366   -0.318669    0.973785
     20         17           0       -4.506292   -3.047055    0.987490
     21         17           0       -3.097520   -5.708020    0.023603
     22         17           0        2.290025    3.496721   -0.022621
 ---------------------------------------------------------------------
                    Distance matrix (angstroms):
                    1          2          3          4          5
     1  C    0.000000
     2  C    1.401400   0.000000
     3  C    2.427296   1.401400   0.000000
     4  C    2.802800   2.427296   1.401400   0.000000
     5  C    2.427296   2.802800   2.427296   1.401400   0.000000
     6  C    1.401400   2.427296   2.802800   2.427296   1.401400
     7  C    1.540000   2.548270   3.838989   4.342800   3.838989
     8  C    2.548270   2.941400   4.342800   5.187469   4.975106
     9  C    3.838989   4.342800   5.744200   6.558176   6.235992
    10  C    4.342800   5.187469   6.558176   7.145600   6.558176
    11  C    3.838989   4.975106   6.235992   6.558176   5.744200
    12  C    2.548270   3.813607   4.975106   5.187469   4.342800
    13  H    2.146700   1.070000   2.146700   3.396345   3.872800
    14  H    3.396345   2.146700   1.070000   2.146700   3.396345
    15  H    3.396345   3.872800   3.396345   2.146700   1.070000
    16  H    2.146700   3.396345   3.872800   3.396345   2.146700
    17  H    2.736837   2.578650   3.918930   4.990735   5.074276
    18  H    4.693509   4.965039   6.347206   7.300676   7.118798
    19  Cl   3.057342   4.456874   5.254079   4.983028   3.783409
    20  Cl   5.286324   6.549198   7.713260   7.819846   6.797295
    21  Cl   6.102800   6.910901   8.294174   8.905600   8.294174
    22  Cl   4.562800   4.048303   2.743718   1.760000   2.743718
                    6          7          8          9         10
     6  C    0.000000
     7  C    2.548270   0.000000
     8  C    3.813607   1.401400   0.000000
     9  C    4.975106   2.427296   1.401400   0.000000
    10  C    5.187469   2.802800   2.427296   1.401400   0.000000
    11  C    4.342800   2.427296   2.802800   2.427296   1.401400
    12  C    2.941400   1.401400   2.427296   2.802800   2.427296
    13  H    3.396345   2.736837   2.578650   3.918930   4.990735
    14  H    3.872800   4.693509   4.965039   6.347206   7.300676
    15  H    2.146700   4.693509   5.919617   7.118798   7.300676
    16  H    1.070000   2.736837   4.127917   5.074276   4.990735
    17  H    4.127917   2.146700   1.070000   2.146700   3.396345
    18  H    5.919617   3.396345   2.146700   1.070000   2.146700
    19  Cl   2.563702   2.743718   4.048303   4.562800   4.048303
    20  Cl   5.440665   4.048303   4.562800   4.048303   2.743718
    21  Cl   6.910901   4.562800   4.048303   2.743718   1.760000
    22  Cl   4.048303   6.102800   6.910901   8.294174   8.905600
                   11         12         13         14         15
    11  C    0.000000
    12  C    1.401400   0.000000
    13  H    5.074276   4.127917   0.000000
    14  H    7.118798   5.919617   2.471400   0.000000
    15  H    6.347206   4.965039   4.942800   4.280590   0.000000
    16  H    3.918930   2.578650   4.280590   4.942800   2.471400
    17  H    3.872800   3.396345   1.871400   4.342800   6.097816
    18  H    3.396345   3.872800   4.342800   6.814200   8.047159
    19  Cl   2.743718   1.760000   5.111382   6.307038   4.042212
    20  Cl   1.760000   2.743718   6.765486   8.663168   7.184095
    21  Cl   2.743718   4.048303   6.623817   8.998151   8.998151
    22  Cl   8.294174   6.910901   4.890332   2.879094   2.879094
                   16         17         18         19         20
    16  H    0.000000
    17  H    4.671787   0.000000
    18  H    6.097816   2.471400   0.000000
    19  Cl   1.639199   4.890332   5.632800   0.000000
    20  Cl   4.725732   5.632800   4.890332   3.161400   0.000000
    21  Cl   6.623817   4.890332   2.879094   5.475705   3.161400
    22  Cl   4.890332   6.623817   8.998151   6.525618   9.488480
                   21         22
    21  Cl   0.000000
    22  Cl  10.665600   0.000000
 Stoichiometry    C12H6Cl4
 Framework group  C1[X(C12H6Cl4)]
 Deg. of freedom    60
 Full point group                 C1      NOp   1
 Largest Abelian subgroup         C1      NOp   1
 Largest concise Abelian subgroup C1      NOp   1
                         Standard orientation:                         
 ---------------------------------------------------------------------
 Center     Atomic      Atomic             Coordinates (Angstroms)
 Number     Number       Type             X           Y           Z
 ---------------------------------------------------------------------
      1          6           0       -1.305876   -0.465829    0.000003
      2          6           0       -2.137287   -1.593960   -0.000000
      3          6           0       -3.529982   -1.438002   -0.000002
      4          6           0       -4.091266   -0.153914   -0.000001
      5          6           0       -3.259855    0.974216    0.000004
      6          6           0       -1.867160    0.818259    0.000005
      7          6           0        0.224558   -0.637212    0.000003
      8          6           0        0.785842   -1.921300    0.000003
      9          6           0        2.178537   -2.077257    0.000002
     10          6           0        3.009948   -0.949127    0.000002
     11          6           0        2.448664    0.334961    0.000002
     12          6           0        1.055969    0.490919    0.000002
     13          1           0       -1.708734   -2.574390   -0.000003
     14          1           0       -4.164782   -2.299355   -0.000005
     15          1           0       -3.688408    1.954646    0.000007
     16          1           0       -1.232359    1.679611    0.000008
     17          1           0        0.151042   -2.782652    0.000000
     18          1           0        2.607090   -3.057687    0.000002
     19         17           0        0.351060    2.103588    0.000001
     20         17           0        3.492822    1.751765   -0.000003
     21         17           0        4.759015   -1.144992   -0.000002
     22         17           0       -5.840333    0.041951   -0.000004
 ---------------------------------------------------------------------
 Rotational constants (GHZ):           0.9408292           0.1525961           0.1313001
 Standard basis: 6-311+G(d,p) (5D, 7F)
 There are   436 symmetry adapted cartesian basis functions of A   symmetry.
 There are   420 symmetry adapted basis functions of A   symmetry.
   420 basis functions,   692 primitive gaussians,   436 cartesian basis functions
    73 alpha electrons       73 beta electrons
       nuclear repulsion energy      1427.0161897908 Hartrees.
 NAtoms=   22 NActive=   22 NUniq=   22 SFac= 1.00D+00 NAtFMM=   60 NAOKFM=F Big=F
 Integral buffers will be    131072 words long.
 Raffenetti 2 integral format.
 Two-electron integral symmetry is turned on.
 One-electron integrals computed using PRISM.
 NBasis=   420 RedAO= T EigKep=  1.50D-06  NBF=   420
 NBsUse=   414 1.00D-06 EigRej=  8.54D-07 NBFU=   414
 ExpMin= 4.38D-02 ExpMax= 1.06D+05 ExpMxC= 3.62D+03 IAcc=3 IRadAn=         5 AccDes= 0.00D+00
 Harris functional with IExCor=  402 and IRadAn=       5 diagonalized for initial guess.
 HarFok:  IExCor=  402 AccDes= 0.00D+00 IRadAn=         5 IDoV= 1 UseB2=F ITyADJ=14
 ICtDFT=  3500011 ScaDFX=  1.000000  1.000000  1.000000  1.000000
 FoFCou: FMM=F IPFlag=           0 FMFlag=      100000 FMFlg1=           0
         NFxFlg=           0 DoJE=T BraDBF=F KetDBF=T FulRan=T
         wScrn=  0.000000 ICntrl=       500 IOpCl=  0 I1Cent=   200000004 NGrid=           0
         NMat0=    1 NMatS0=      1 NMatT0=    0 NMatD0=    1 NMtDS0=    0 NMtDT0=    0
 Petite list used in FoFCou.
 Requested convergence on RMS density matrix=1.00D-08 within  32 cycles.
 Requested convergence on MAX density matrix=1.00D-06.
 Requested convergence on             energy=1.00D-06.
 No special actions if energy rises.
 EnCoef did     4 forward-backward iterations
 SCF Done:  E(RB3LYP) =  -2301.83541049     A.U. after   16 cycles
            NFock= 16  Conv=0.34D-08     -V/T= 2.0027
 QCSCF skips out because SCF is already converged.

 **********************************************************************

            Population analysis using the SCF Density.

 **********************************************************************

 Orbital symmetries:
       Occupied  (A) (A) (A) (A) (A) (A) (A) (A) (A) (A) (A) (A)
                 (A) (A) (A) (A) (A) (A) (A) (A) (A) (A) (A) (A)
                 (A) (A) (A) (A) (A) (A) (A) (A) (A) (A) (A) (A)
                 (A) (A) (A) (A) (A) (A) (A) (A) (A) (A) (A) (A)
                 (A) (A) (A) (A) (A) (A) (A) (A) (A) (A) (A) (A)
                 (A) (A) (A) (A) (A) (A) (A) (A) (A) (A) (A) (A)
                 (A)
       Virtual   (A) (A) (A) (A) (A) (A) (A) (A) (A) (A) (A) (A)
                 (A) (A) (A) (A) (A) (A) (A) (A) (A) (A) (A) (A)
                 (A) (A) (A) (A) (A) (A) (A) (A) (A) (A) (A) (A)
                 (A) (A) (A) (A) (A) (A) (A) (A) (A) (A) (A) (A)
                 (A) (A) (A) (A) (A) (A) (A) (A) (A) (A) (A) (A)
                 (A) (A) (A) (A) (A) (A) (A) (A) (A) (A) (A) (A)
                 (A) (A) (A) (A) (A) (A) (A) (A) (A) (A) (A) (A)
                 (A) (A) (A) (A) (A) (A) (A) (A) (A) (A) (A) (A)
                 (A) (A) (A) (A) (A) (A) (A) (A) (A) (A) (A) (A)
                 (A) (A) (A) (A) (A) (A) (A) (A) (A) (A) (A) (A)
                 (A) (A) (A) (A) (A) (A) (A) (A) (A) (A) (A) (A)
                 (A) (A) (A) (A) (A) (A) (A) (A) (A) (A) (A) (A)
                 (A) (A) (A) (A) (A) (A) (A) (A) (A) (A) (A) (A)
                 (A) (A) (A) (A) (A) (A) (A) (A) (A) (A) (A) (A)
                 (A) (A) (A) (A) (A) (A) (A) (A) (A) (A) (A) (A)
                 (A) (A) (A) (A) (A) (A) (A) (A) (A) (A) (A) (A)
                 (A) (A) (A) (A) (A) (A) (A) (A) (A) (A) (A) (A)
                 (A) (A) (A) (A) (A) (A) (A) (A) (A) (A) (A) (A)
                 (A) (A) (A) (A) (A) (A) (A) (A) (A) (A) (A) (A)
                 (A) (A) (A) (A) (A) (A) (A) (A) (A) (A) (A) (A)
                 (A) (A) (A) (A) (A) (A) (A) (A) (A) (A) (A) (A)
                 (A) (A) (A) (A) (A) (A) (A) (A) (A) (A) (A) (A)
                 (A) (A) (A) (A) (A) (A) (A) (A) (A) (A) (A) (A)
                 (A) (A) (A) (A) (A) (A) (A) (A) (A) (A) (A) (A)
                 (A) (A) (A) (A) (A) (A) (A) (A) (A) (A) (A) (A)
                 (A) (A) (A) (A) (A) (A) (A) (A) (A) (A) (A) (A)
                 (A) (A) (A) (A) (A) (A) (A) (A) (A) (A) (A) (A)
                 (A) (A) (A) (A) (A) (A) (A) (A) (A) (A) (A) (A)
                 (A) (A) (A) (A) (A)
 The electronic state is 1-A.
 Alpha  occ. eigenvalues -- -101.57979-101.57524-101.57513-101.56111 -10.27897
 Alpha  occ. eigenvalues --  -10.27737 -10.27325 -10.25077 -10.23349 -10.21943
 Alpha  occ. eigenvalues --  -10.21587 -10.21395 -10.20181 -10.20093 -10.19575
 Alpha  occ. eigenvalues --  -10.17634  -9.49770  -9.48952  -9.48935  -9.47554
 Alpha  occ. eigenvalues --   -7.26192  -7.25460  -7.25433  -7.25223  -7.25179
 Alpha  occ. eigenvalues --   -7.24435  -7.24413  -7.24356  -7.24351  -7.24012
 Alpha  occ. eigenvalues --   -7.23042  -7.23004  -0.95187  -0.91091  -0.89927
 Alpha  occ. eigenvalues --   -0.87486  -0.86077  -0.84657  -0.78131  -0.77180
 Alpha  occ. eigenvalues --   -0.76750  -0.73311  -0.65603  -0.64267  -0.63212
 Alpha  occ. eigenvalues --   -0.60646  -0.55234  -0.53018  -0.52627  -0.49932
 Alpha  occ. eigenvalues --   -0.49116  -0.47758  -0.46568  -0.45521  -0.45428
 Alpha  occ. eigenvalues --   -0.45392  -0.41922  -0.41167  -0.41064  -0.39728
 Alpha  occ. eigenvalues --   -0.39087  -0.37681  -0.36884  -0.35276  -0.34926
 Alpha  occ. eigenvalues --   -0.34045  -0.32819  -0.32375  -0.28935  -0.28530
 Alpha  occ. eigenvalues --   -0.27872  -0.27599  -0.24561
 Alpha virt. eigenvalues --   -0.07210  -0.05878  -0.04807  -0.03394  -0.01104
 Alpha virt. eigenvalues --   -0.00938   0.00107   0.00693   0.01115   0.01558
 Alpha virt. eigenvalues --    0.01907   0.03110   0.03659   0.04200   0.04447
 Alpha virt. eigenvalues --    0.05712   0.06090   0.06154   0.06409   0.06740
 Alpha virt. eigenvalues --    0.07024   0.07953   0.08325   0.08562   0.08821
 Alpha virt. eigenvalues --    0.09593   0.10054   0.10151   0.10775   0.11307
 Alpha virt. eigenvalues --    0.11382   0.12572   0.12814   0.13250   0.13438
 Alpha virt. eigenvalues --    0.13759   0.13818   0.14391   0.14870   0.15024
 Alpha virt. eigenvalues --    0.15461   0.16233   0.16636   0.16908   0.17515
 Alpha virt. eigenvalues --    0.17667   0.18020   0.18030   0.18629   0.19080
 Alpha virt. eigenvalues --    0.19288   0.19769   0.20084   0.20141   0.20915
 Alpha virt. eigenvalues --    0.21336   0.21889   0.21980   0.22311   0.22608
 Alpha virt. eigenvalues --    0.22989   0.24150   0.24188   0.24594   0.25388
 Alpha virt. eigenvalues --    0.25624   0.26185   0.26802   0.26850   0.27528
 Alpha virt. eigenvalues --    0.28013   0.28867   0.29917   0.30477   0.31917
 Alpha virt. eigenvalues --    0.32088   0.32287   0.33603   0.33872   0.35346
 Alpha virt. eigenvalues --    0.35801   0.37371   0.38401   0.40129   0.41447
 Alpha virt. eigenvalues --    0.42396   0.42490   0.43815   0.45057   0.45167
 Alpha virt. eigenvalues --    0.45254   0.46118   0.46437   0.47838   0.48118
 Alpha virt. eigenvalues --    0.48478   0.49238   0.50204   0.50680   0.50982
 Alpha virt. eigenvalues --    0.51238   0.53673   0.53702   0.54825   0.55435
 Alpha virt. eigenvalues --    0.56904   0.57223   0.57925   0.58013   0.59072
 Alpha virt. eigenvalues --    0.59199   0.60527   0.60786   0.61368   0.62814
 Alpha virt. eigenvalues --    0.63211   0.63535   0.65017   0.65577   0.66052
 Alpha virt. eigenvalues --    0.66446   0.67061   0.67889   0.68436   0.69555
 Alpha virt. eigenvalues --    0.71693   0.74458   0.75723   0.75850   0.79321
 Alpha virt. eigenvalues --    0.80960   0.81291   0.82108   0.82753   0.82883
 Alpha virt. eigenvalues --    0.83764   0.84291   0.84393   0.84958   0.84969
 Alpha virt. eigenvalues --    0.85112   0.85740   0.85752   0.86344   0.87635
 Alpha virt. eigenvalues --    0.87927   0.88511   0.89384   0.90249   0.91255
 Alpha virt. eigenvalues --    0.92211   0.92554   0.92786   0.93553   0.93796
 Alpha virt. eigenvalues --    0.94448   0.95260   0.95391   0.96325   0.96887
 Alpha virt. eigenvalues --    0.98153   0.98335   1.00021   1.01299   1.02472
 Alpha virt. eigenvalues --    1.03383   1.04567   1.06408   1.06418   1.07978
 Alpha virt. eigenvalues --    1.09478   1.10189   1.12168   1.12486   1.17542
 Alpha virt. eigenvalues --    1.18242   1.21625   1.22138   1.23752   1.26049
 Alpha virt. eigenvalues --    1.26201   1.26770   1.27908   1.28687   1.30916
 Alpha virt. eigenvalues --    1.33037   1.34344   1.35783   1.40516   1.43993
 Alpha virt. eigenvalues --    1.45686   1.47223   1.50295   1.51650   1.53259
 Alpha virt. eigenvalues --    1.53884   1.54486   1.55835   1.56787   1.59100
 Alpha virt. eigenvalues --    1.61468   1.62169   1.64903   1.67427   1.67973
 Alpha virt. eigenvalues --    1.69366   1.71043   1.71295   1.76713   1.77938
 Alpha virt. eigenvalues --    1.78743   1.82238   1.83483   1.83630   1.84588
 Alpha virt. eigenvalues --    1.85685   1.86666   1.89879   1.90317   1.93042
 Alpha virt. eigenvalues --    1.93675   1.94725   1.95013   1.96595   1.97552
 Alpha virt. eigenvalues --    1.98844   1.99753   2.04998   2.06163   2.06606
 Alpha virt. eigenvalues --    2.09376   2.12847   2.16961   2.20709   2.21557
 Alpha virt. eigenvalues --    2.23987   2.24465   2.25152   2.26302   2.26350
 Alpha virt. eigenvalues --    2.28877   2.29048   2.31890   2.34401   2.35058
 Alpha virt. eigenvalues --    2.35270   2.38404   2.42012   2.42579   2.43178
 Alpha virt. eigenvalues --    2.44031   2.48450   2.50121   2.52922   2.55542
 Alpha virt. eigenvalues --    2.57857   2.58269   2.59995   2.60932   2.63549
 Alpha virt. eigenvalues --    2.63765   2.65730   2.67169   2.70380   2.71032
 Alpha virt. eigenvalues --    2.73097   2.73168   2.74289   2.74432   2.76024
 Alpha virt. eigenvalues --    2.78688   2.80027   2.81140   2.82202   2.83959
 Alpha virt. eigenvalues --    2.85032   2.91200   2.92889   2.93204   2.95084
 Alpha virt. eigenvalues --    3.03608   3.05241   3.06706   3.08633   3.12947
 Alpha virt. eigenvalues --    3.14571   3.17895   3.19670   3.21511   3.22777
 Alpha virt. eigenvalues --    3.34389   3.37838   3.38444   3.42034   3.50722
 Alpha virt. eigenvalues --    3.55313   3.59746   3.64324   3.69392   3.77565
 Alpha virt. eigenvalues --    3.81899   3.99748   4.03187   4.08481   4.16474
 Alpha virt. eigenvalues --    4.20398   4.45466   4.79396   4.83287   9.74448
 Alpha virt. eigenvalues --    9.77408   9.79655   9.86706  23.36680  23.59316
 Alpha virt. eigenvalues --   23.81796  23.86264  23.87164  23.95483  23.96065
 Alpha virt. eigenvalues --   23.97495  24.02044  24.07192  24.09573  24.14712
 Alpha virt. eigenvalues --   25.76497  25.82025  25.82448  25.89564  26.10402
 Alpha virt. eigenvalues --   26.13070  26.16338  26.47054  26.57337  26.63948
 Alpha virt. eigenvalues --   26.75565  26.90484 215.73427 215.76463 215.79319
 Alpha virt. eigenvalues --  215.89039
          Condensed to atoms (all electrons):
               1          2          3          4          5          6
     1  C   12.037768  -0.784639   1.007472  -2.270741  -2.107078   1.371926
     2  C   -0.784639  15.472721  -1.145517  -0.436782  -0.072523  -4.131579
     3  C    1.007472  -1.145517  16.361339  -1.232719  -5.160361  -1.084469
     4  C   -2.270741  -0.436782  -1.232719  12.897157   1.587022  -2.288882
     5  C   -2.107078  -0.072523  -5.160361   1.587022  10.944985   1.567682
     6  C    1.371926  -4.131579  -1.084469  -2.288882   1.567682  12.478196
     7  C    3.190069  -1.889086  -0.283322  -1.092854  -0.759019   0.599928
     8  C   -1.988983   4.374635  -1.209717  -0.118399  -0.226956  -3.156345
     9  C   -0.212049  -1.894888  -0.075164  -0.299425  -0.107883   0.246923
    10  C   -0.567741   0.873654  -0.346487  -0.015291  -0.207396  -1.296712
    11  C   -1.502458  -1.134494  -0.321287  -0.090006   0.099945   0.270959
    12  C   -2.060760  -3.463146  -0.369848  -0.306549   0.268169   2.966366
    13  H    0.059686   0.300346  -0.115523  -0.040399  -0.030552  -0.003055
    14  H    0.033584  -0.042783   0.232071   0.069714   0.048774   0.001148
    15  H    0.076998  -0.025040   0.068858   0.010679   0.265053  -0.051694
    16  H   -0.226647   0.000554  -0.072594   0.005756   0.032257   0.562526
    17  H    0.055807   0.043966   0.029789   0.000395   0.000435   0.013095
    18  H   -0.000946   0.007707  -0.000215   0.000121   0.000082   0.000456
    19  Cl   0.415049   0.413740   0.045283  -0.072137  -0.354501  -1.206189
    20  Cl  -0.100114  -0.113617   0.003195  -0.001973   0.038605   0.090929
    21  Cl  -0.116183  -0.023040  -0.007511  -0.001105  -0.002516  -0.032180
    22  Cl  -0.249278   0.026634   0.240919  -1.121526   0.434638  -0.036395
               7          8          9         10         11         12
     1  C    3.190069  -1.988983  -0.212049  -0.567741  -1.502458  -2.060760
     2  C   -1.889086   4.374635  -1.894888   0.873654  -1.134494  -3.463146
     3  C   -0.283322  -1.209717  -0.075164  -0.346487  -0.321287  -0.369848
     4  C   -1.092854  -0.118399  -0.299425  -0.015291  -0.090006  -0.306549
     5  C   -0.759019  -0.226956  -0.107883  -0.207396   0.099945   0.268169
     6  C    0.599928  -3.156345   0.246923  -1.296712   0.270959   2.966366
     7  C   12.422906  -3.432066   0.199652  -1.328428  -1.240503   0.565039
     8  C   -3.432066  19.080991  -1.944307   1.407910  -3.409298  -3.914842
     9  C    0.199652  -1.944307  10.007959  -1.608637  -0.125694   1.965977
    10  C   -1.328428   1.407910  -1.608637  19.011989  -4.611217  -4.495737
    11  C   -1.240503  -3.409298  -0.125694  -4.611217  16.519796   1.640372
    12  C    0.565039  -3.914842   1.965977  -4.495737   1.640372  14.815973
    13  H    0.066228   0.014586   0.034780   0.003026   0.003894   0.027615
    14  H    0.002314   0.010237  -0.000977   0.000516   0.000045   0.003170
    15  H    0.014927   0.001254   0.000816  -0.000555  -0.001632   0.002212
    16  H   -0.041009   0.005003  -0.013275   0.007249   0.023823   0.186888
    17  H    0.058472   0.343113  -0.115065  -0.047026  -0.019719  -0.037453
    18  H    0.024917  -0.020056   0.366706   0.013909  -0.040455   0.000331
    19  Cl  -0.131338   0.597303   0.090013   0.491206   0.288614  -2.164584
    20  Cl  -0.456081   0.058167   0.326288  -1.035327  -0.667969   1.155553
    21  Cl  -0.293539  -0.101139  -0.239946  -0.186114   0.607940  -0.345743
    22  Cl  -0.065916  -0.031495  -0.005230  -0.001505   0.001674  -0.026612
              13         14         15         16         17         18
     1  C    0.059686   0.033584   0.076998  -0.226647   0.055807  -0.000946
     2  C    0.300346  -0.042783  -0.025040   0.000554   0.043966   0.007707
     3  C   -0.115523   0.232071   0.068858  -0.072594   0.029789  -0.000215
     4  C   -0.040399   0.069714   0.010679   0.005756   0.000395   0.000121
     5  C   -0.030552   0.048774   0.265053   0.032257   0.000435   0.000082
     6  C   -0.003055   0.001148  -0.051694   0.562526   0.013095   0.000456
     7  C    0.066228   0.002314   0.014927  -0.041009   0.058472   0.024917
     8  C    0.014586   0.010237   0.001254   0.005003   0.343113  -0.020056
     9  C    0.034780  -0.000977   0.000816  -0.013275  -0.115065   0.366706
    10  C    0.003026   0.000516  -0.000555   0.007249  -0.047026   0.013909
    11  C    0.003894   0.000045  -0.001632   0.023823  -0.019719  -0.040455
    12  C    0.027615   0.003170   0.002212   0.186888  -0.037453   0.000331
    13  H    0.566476  -0.007767   0.000104  -0.000263   0.001261   0.000046
    14  H   -0.007767   0.517680  -0.000379   0.000121   0.000007   0.000000
    15  H    0.000104  -0.000379   0.527393  -0.014730   0.000000   0.000000
    16  H   -0.000263   0.000121  -0.014730   0.710737  -0.000106  -0.000002
    17  H    0.001261   0.000007   0.000000  -0.000106   0.547258  -0.006926
    18  H    0.000046   0.000000   0.000000  -0.000002  -0.006926   0.505150
    19  Cl  -0.000054  -0.000147   0.001830  -0.300147  -0.000783   0.001354
    20  Cl   0.000057  -0.000003   0.000016   0.005113   0.001095  -0.000656
    21  Cl   0.000035   0.000001  -0.000001   0.000413  -0.001494  -0.005790
    22  Cl  -0.000437  -0.013555  -0.014704   0.000742   0.000033  -0.000000
              19         20         21         22
     1  C    0.415049  -0.100114  -0.116183  -0.249278
     2  C    0.413740  -0.113617  -0.023040   0.026634
     3  C    0.045283   0.003195  -0.007511   0.240919
     4  C   -0.072137  -0.001973  -0.001105  -1.121526
     5  C   -0.354501   0.038605  -0.002516   0.434638
     6  C   -1.206189   0.090929  -0.032180  -0.036395
     7  C   -0.131338  -0.456081  -0.293539  -0.065916
     8  C    0.597303   0.058167  -0.101139  -0.031495
     9  C    0.090013   0.326288  -0.239946  -0.005230
    10  C    0.491206  -1.035327  -0.186114  -0.001505
    11  C    0.288614  -0.667969   0.607940   0.001674
    12  C   -2.164584   1.155553  -0.345743  -0.026612
    13  H   -0.000054   0.000057   0.000035  -0.000437
    14  H   -0.000147  -0.000003   0.000001  -0.013555
    15  H    0.001830   0.000016  -0.000001  -0.014704
    16  H   -0.300147   0.005113   0.000413   0.000742
    17  H   -0.000783   0.001095  -0.001494   0.000033
    18  H    0.001354  -0.000656  -0.005790  -0.000000
    19  Cl  18.543528  -0.351312   0.003395  -0.000432
    20  Cl  -0.351312  17.598356  -0.224138   0.000012
    21  Cl   0.003395  -0.224138  17.430140  -0.000006
    22  Cl  -0.000432   0.000012  -0.000006  17.446729
 Mulliken charges:
               1
     1  C   -0.060741
     2  C   -0.356823
     3  C   -0.564193
     4  C    0.817945
     5  C   -0.258861
     6  C   -0.882636
     7  C   -0.131292
     8  C   -0.339596
     9  C   -0.596574
    10  C   -0.061287
    11  C   -0.292332
    12  C   -0.412390
    13  H    0.119910
    14  H    0.146230
    15  H    0.138594
    16  H    0.127592
    17  H    0.133846
    18  H    0.154269
    19  Cl   0.690307
    20  Cl   0.673805
    21  Cl   0.538520
    22  Cl   0.415708
 Sum of Mulliken charges =  -0.00000
 Mulliken charges with hydrogens summed into heavy atoms:
               1
     1  C   -0.060741
     2  C   -0.236914
     3  C   -0.417963
     4  C    0.817945
     5  C   -0.120267
     6  C   -0.755044
     7  C   -0.131292
     8  C   -0.205750
     9  C   -0.442305
    10  C   -0.061287
    11  C   -0.292332
    12  C   -0.412390
    19  Cl   0.690307
    20  Cl   0.673805
    21  Cl   0.538520
    22  Cl   0.415708
 Electronic spatial extent (au):  <R**2>=           7150.4538
 Charge=             -0.0000 electrons
 Dipole moment (field-independent basis, Debye):
    X=              0.1663    Y=             -1.8947    Z=              0.0000  Tot=              1.9020
 Quadrupole moment (field-independent basis, Debye-Ang):
   XX=           -135.1144   YY=           -108.3801   ZZ=           -124.2497
   XY=             -1.6533   XZ=             -0.0000   YZ=              0.0000
 Traceless Quadrupole moment (field-independent basis, Debye-Ang):
   XX=            -12.5330   YY=             14.2013   ZZ=             -1.6683
   XY=             -1.6533   XZ=             -0.0000   YZ=              0.0000
 Octapole moment (field-independent basis, Debye-Ang**2):
  XXX=             59.0292  YYY=             -3.0712  ZZZ=             -0.0001  XYY=             -5.9116
  XXY=              0.9495  XXZ=             -0.0000  XZZ=              9.9369  YZZ=              8.5822
  YYZ=             -0.0000  XYZ=             -0.0001
 Hexadecapole moment (field-independent basis, Debye-Ang**3):
 XXXX=          -8235.8571 YYYY=          -1327.8993 ZZZZ=           -145.5002 XXXY=             30.6580
 XXXZ=             -0.0003 YYYX=             -1.0709 YYYZ=              0.0001 ZZZX=             -0.0000
 ZZZY=              0.0000 XXYY=          -1482.1696 XXZZ=          -1385.3488 YYZZ=           -282.2704
 XXYZ=              0.0002 YYXZ=             -0.0001 ZZXY=              2.9550
 N-N= 1.427016189791D+03 E-N=-8.298247618819D+03  KE= 2.295680804857D+03
 Calling FoFJK, ICntrl=      2127 FMM=F ISym2X=0 I1Cent= 0 IOpClX= 0 NMat=1 NMatS=1 NMatT=0.
 ***** Axes restored to original set *****
 -------------------------------------------------------------------
 Center     Atomic                   Forces (Hartrees/Bohr)
 Number     Number              X              Y              Z
 -------------------------------------------------------------------
      1        6          -0.015369231   -0.026471896    0.000091714
      2        6          -0.004079580    0.021480907    0.005378479
      3        6          -0.010618354   -0.002986825    0.002937434
      4        6          -0.008042898   -0.008584864    0.001037218
      5        6           0.013270769   -0.011738744   -0.006576700
      6        6           0.048495600    0.030626366   -0.010225398
      7        6           0.019805131    0.035756916    0.000190696
      8        6          -0.026013050   -0.011166610    0.006473062
      9        6          -0.002557998    0.015470802    0.003748244
     10        6           0.002594967   -0.000204245   -0.000893228
     11        6          -0.012610666   -0.000121175    0.004132117
     12        6           0.004356777   -0.006000869   -0.002562483
     13        1           0.007183321   -0.003245575   -0.002976191
     14        1           0.008658099    0.000639981   -0.002732249
     15        1          -0.003732473    0.008196971    0.002769180
     16        1           0.041785326    0.028159431   -0.008478161
     17        1           0.005376068   -0.002666034   -0.002272007
     18        1           0.002428328   -0.008102496   -0.002321717
     19       17          -0.084849114   -0.061336308    0.016434977
     20       17           0.007969889    0.000120189   -0.002603270
     21       17           0.006537603    0.004483677   -0.001311854
     22       17          -0.000588512   -0.002309599   -0.000239863
 -------------------------------------------------------------------
 Cartesian Forces:  Max     0.084849114 RMS     0.018597970

 GradGradGradGradGradGradGradGradGradGradGradGradGradGradGradGradGradGrad
 Berny optimization.
 FormGI is forming the generalized inverse of G from B-inverse, IUseBI=4.
 Internal  Forces:  Max     0.279978525 RMS     0.050924960
 Search for a local minimum.
 Step number   1 out of a maximum of  121
 All quantities printed in internal units (Hartrees-Bohrs-Radians)
 Mixed Optimization -- RFO/linear search
 Second derivative matrix not updated -- first step.
 ITU=  0
     Eigenvalues ---    0.00237   0.01506   0.01506   0.02070   0.02070
     Eigenvalues ---    0.02070   0.02070   0.02070   0.02070   0.02070
     Eigenvalues ---    0.02070   0.02070   0.02070   0.02070   0.02070
     Eigenvalues ---    0.02070   0.02070   0.02070   0.02070   0.16000
     Eigenvalues ---    0.16000   0.16000   0.16000   0.16000   0.16000
     Eigenvalues ---    0.22000   0.22489   0.22981   0.24000   0.24492
     Eigenvalues ---    0.25000   0.25000   0.25000   0.25000   0.25000
     Eigenvalues ---    0.25000   0.25000   0.28519   0.29539   0.29539
     Eigenvalues ---    0.29539   0.29539   0.37230   0.37230   0.37230
     Eigenvalues ---    0.37230   0.37230   0.37230   0.41268   0.41540
     Eigenvalues ---    0.41640   0.41720   0.45389   0.45389   0.45389
     Eigenvalues ---    0.45389   0.45389   0.45389   0.45389   0.45389
 RFO step:  Lambda=-4.21488975D-01 EMin= 2.36824176D-03
 Linear search not attempted -- first point.
 Maximum step size (   0.300) exceeded in Quadratic search.
    -- Step size scaled by   0.381
 Iteration  1 RMS(Cart)=  0.20296495 RMS(Int)=  0.01000557
 Iteration  2 RMS(Cart)=  0.03653253 RMS(Int)=  0.00029781
 Iteration  3 RMS(Cart)=  0.00056568 RMS(Int)=  0.00004815
 Iteration  4 RMS(Cart)=  0.00000016 RMS(Int)=  0.00004815
 Variable       Old X    -DE/DX   Delta X   Delta X   Delta X     New X
                                 (Linear)    (Quad)   (Total)
    R1        2.64826   0.01754   0.00000   0.00792   0.00797   2.65623
    R2        2.64826   0.01770   0.00000   0.00809   0.00813   2.65639
    R3        2.91018   0.06810   0.00000   0.03673   0.03673   2.94691
    R4        2.64826  -0.01372   0.00000  -0.00607  -0.00607   2.64220
    R5        2.02201   0.00684   0.00000   0.00328   0.00328   2.02529
    R6        2.64826  -0.02762   0.00000  -0.01241  -0.01245   2.63581
    R7        2.02201   0.00909   0.00000   0.00436   0.00436   2.02637
    R8        2.64826  -0.02560   0.00000  -0.01143  -0.01148   2.63678
    R9        3.32592  -0.00229   0.00000  -0.00122  -0.00122   3.32470
   R10        2.64826  -0.00128   0.00000  -0.00046  -0.00047   2.64780
   R11        2.02201   0.00941   0.00000   0.00452   0.00452   2.02652
   R12        2.02201  -0.04295   0.00000  -0.02062  -0.02062   2.00138
   R13        2.64826   0.01872   0.00000   0.00863   0.00874   2.65700
   R14        2.64826   0.12102   0.00000   0.05396   0.05403   2.70230
   R15        2.64826  -0.02538   0.00000  -0.01183  -0.01180   2.63646
   R16        2.02201   0.00576   0.00000   0.00276   0.00276   2.02477
   R17        2.64826  -0.04334   0.00000  -0.02013  -0.02021   2.62805
   R18        2.02201   0.00861   0.00000   0.00413   0.00413   2.02614
   R19        2.64826  -0.02311   0.00000  -0.01054  -0.01065   2.63761
   R20        3.32592  -0.00718   0.00000  -0.00382  -0.00382   3.32210
   R21        2.64826   0.01312   0.00000   0.00650   0.00647   2.65473
   R22        3.32592  -0.00839   0.00000  -0.00446  -0.00446   3.32146
   R23        3.32592  -0.00881   0.00000  -0.00468  -0.00468   3.32124
    A1        2.09440  -0.06292   0.00000  -0.03513  -0.03504   2.05935
    A2        2.09440  -0.13326   0.00000  -0.07593  -0.07598   2.01841
    A3        2.09440   0.19618   0.00000   0.11107   0.11102   2.20542
    A4        2.09440   0.03962   0.00000   0.02348   0.02354   2.11793
    A5        2.09440  -0.01484   0.00000  -0.00848  -0.00851   2.08589
    A6        2.09440  -0.02478   0.00000  -0.01500  -0.01503   2.07937
    A7        2.09440  -0.00120   0.00000  -0.00170  -0.00174   2.09266
    A8        2.09440   0.00106   0.00000   0.00115   0.00117   2.09557
    A9        2.09440   0.00014   0.00000   0.00055   0.00057   2.09496
   A10        2.09440  -0.00801   0.00000  -0.00574  -0.00583   2.08856
   A11        2.09440   0.00284   0.00000   0.00220   0.00225   2.09665
   A12        2.09440   0.00518   0.00000   0.00353   0.00358   2.09798
   A13        2.09440   0.01069   0.00000   0.00577   0.00572   2.10012
   A14        2.09440  -0.00590   0.00000  -0.00325  -0.00322   2.09117
   A15        2.09440  -0.00479   0.00000  -0.00252  -0.00250   2.09190
   A16        2.09440   0.02183   0.00000   0.01332   0.01336   2.10775
   A17        2.09440   0.01707   0.00000   0.01169   0.01167   2.10606
   A18        2.09440  -0.03890   0.00000  -0.02500  -0.02502   2.06937
   A19        2.09440  -0.20310   0.00000  -0.11632  -0.11642   1.97798
   A20        2.09440   0.27998   0.00000   0.15789   0.15780   2.25219
   A21        2.09440  -0.07687   0.00000  -0.04157  -0.04138   2.05302
   A22        2.09440   0.06087   0.00000   0.03549   0.03562   2.13002
   A23        2.09440  -0.02757   0.00000  -0.01587  -0.01593   2.07846
   A24        2.09440  -0.03330   0.00000  -0.01962  -0.01969   2.07471
   A25        2.09440   0.00225   0.00000  -0.00177  -0.00182   2.09258
   A26        2.09440   0.00057   0.00000   0.00199   0.00202   2.09641
   A27        2.09440  -0.00282   0.00000  -0.00023  -0.00020   2.09419
   A28        2.09440  -0.00588   0.00000  -0.00591  -0.00609   2.08830
   A29        2.09440  -0.00307   0.00000  -0.00046  -0.00036   2.09403
   A30        2.09440   0.00895   0.00000   0.00636   0.00646   2.10085
   A31        2.09440   0.03556   0.00000   0.02034   0.02020   2.11459
   A32        2.09440  -0.01788   0.00000  -0.01022  -0.01016   2.08424
   A33        2.09440  -0.01768   0.00000  -0.01011  -0.01004   2.08435
   A34        2.09440  -0.01593   0.00000  -0.00658  -0.00653   2.08786
   A35        2.09440   0.18360   0.00000   0.10298   0.10296   2.19735
   A36        2.09440  -0.16766   0.00000  -0.09640  -0.09643   1.99797
    D1        0.00000   0.00000   0.00000   0.00000   0.00000   0.00000
    D2        3.14159   0.00000   0.00000   0.00000   0.00000   3.14159
    D3       -3.14159   0.00000   0.00000  -0.00000  -0.00000  -3.14159
    D4       -0.00000  -0.00000   0.00000  -0.00000  -0.00000  -0.00000
    D5       -0.00000  -0.00000   0.00000  -0.00000  -0.00000  -0.00000
    D6        3.14159  -0.00000   0.00000  -0.00000  -0.00000   3.14159
    D7        3.14159   0.00000   0.00000   0.00000   0.00000   3.14159
    D8        0.00000  -0.00000   0.00000  -0.00000  -0.00000   0.00000
    D9       -0.00000  -0.00000   0.00000  -0.00000  -0.00000  -0.00000
   D10        3.14159  -0.00000   0.00000  -0.00000  -0.00000   3.14159
   D11        3.14159  -0.00000   0.00000  -0.00000  -0.00000   3.14159
   D12       -0.00000  -0.00000   0.00000  -0.00000  -0.00000  -0.00000
   D13        0.00000  -0.00000   0.00000  -0.00000  -0.00000   0.00000
   D14        3.14159  -0.00000   0.00000  -0.00000  -0.00000   3.14159
   D15       -3.14159  -0.00000   0.00000  -0.00000  -0.00000  -3.14159
   D16        0.00000  -0.00000   0.00000  -0.00000  -0.00000   0.00000
   D17       -0.00000   0.00000   0.00000   0.00000   0.00000  -0.00000
   D18        3.14159   0.00000   0.00000   0.00000   0.00000   3.14159
   D19        3.14159  -0.00000   0.00000  -0.00000  -0.00000   3.14159
   D20        0.00000  -0.00000   0.00000  -0.00000  -0.00000   0.00000
   D21        0.00000   0.00000   0.00000   0.00000   0.00000   0.00000
   D22       -3.14159   0.00000   0.00000   0.00000   0.00000  -3.14159
   D23       -3.14159  -0.00000   0.00000  -0.00000  -0.00000  -3.14159
   D24        0.00000   0.00000   0.00000   0.00000   0.00000   0.00000
   D25       -0.00000   0.00000   0.00000   0.00000   0.00000  -0.00000
   D26        3.14159   0.00000   0.00000   0.00000   0.00000   3.14159
   D27        3.14159   0.00000   0.00000   0.00000   0.00000   3.14159
   D28       -0.00000   0.00000   0.00000   0.00000   0.00000  -0.00000
   D29        3.14159   0.00000   0.00000   0.00000   0.00000   3.14159
   D30        0.00000   0.00000   0.00000   0.00000   0.00000   0.00000
   D31        0.00000   0.00000   0.00000   0.00000   0.00000   0.00000
   D32       -3.14159  -0.00000   0.00000  -0.00000  -0.00000  -3.14159
   D33       -3.14159   0.00000   0.00000   0.00000   0.00000  -3.14159
   D34        0.00000  -0.00000   0.00000  -0.00000  -0.00000   0.00000
   D35       -0.00000  -0.00000   0.00000  -0.00000  -0.00000  -0.00000
   D36        3.14159  -0.00000   0.00000  -0.00000  -0.00000   3.14159
   D37       -0.00000  -0.00000   0.00000  -0.00000  -0.00000  -0.00000
   D38        3.14159  -0.00000   0.00000  -0.00000  -0.00000   3.14159
   D39        3.14159   0.00000   0.00000   0.00000   0.00000   3.14159
   D40       -0.00000   0.00000   0.00000   0.00000   0.00000  -0.00000
   D41       -0.00000  -0.00000   0.00000  -0.00000  -0.00000  -0.00000
   D42       -3.14159  -0.00000   0.00000  -0.00000  -0.00000  -3.14159
   D43        3.14159   0.00000   0.00000   0.00000   0.00000   3.14159
   D44        0.00000  -0.00000   0.00000  -0.00000  -0.00000   0.00000
   D45        0.00000   0.00000   0.00000   0.00000   0.00000   0.00000
   D46       -3.14159  -0.00000   0.00000  -0.00000  -0.00000  -3.14159
   D47        3.14159   0.00000   0.00000   0.00000   0.00000   3.14159
   D48        0.00000   0.00000   0.00000   0.00000   0.00000   0.00000
   D49        0.00000   0.00000   0.00000   0.00000   0.00000   0.00000
   D50       -3.14159   0.00000   0.00000   0.00000   0.00000  -3.14159
   D51        3.14159   0.00000   0.00000   0.00000   0.00000   3.14159
   D52       -0.00000   0.00000   0.00000   0.00000   0.00000  -0.00000
         Item               Value     Threshold  Converged?
 Maximum Force            0.279979     0.000450     NO 
 RMS     Force            0.050925     0.000300     NO 
 Maximum Displacement     0.978452     0.001800     NO 
 RMS     Displacement     0.234676     0.001200     NO 
 Predicted change in Energy=-1.490005D-01
 GradGradGradGradGradGradGradGradGradGradGradGradGradGradGradGradGradGrad

                          Input orientation:                          
 ---------------------------------------------------------------------
 Center     Atomic      Atomic             Coordinates (Angstroms)
 Number     Number       Type             X           Y           Z
 ---------------------------------------------------------------------
      1          6           0       -0.147343   -0.329873    0.061709
      2          6           0        1.177011   -0.442201   -0.395702
      3          6           0        2.019815    0.671315   -0.464239
      4          6           0        1.548942    1.924809   -0.073689
      5          6           0        0.237388    2.058156    0.383450
      6          6           0       -0.605292    0.940781    0.451222
      7          6           0       -0.968655   -1.655325    0.083363
      8          6           0       -0.239018   -2.769906   -0.366349
      9          6           0       -0.797919   -4.047005   -0.422066
     10          6           0       -2.115973   -4.244746   -0.024961
     11          6           0       -2.870846   -3.161299    0.427219
     12          6           0       -2.323010   -1.869195    0.489399
     13          1           0        1.551454   -1.399546   -0.698860
     14          1           0        3.026718    0.562114   -0.816476
     15          1           0       -0.127127    3.020768    0.684327
     16          1           0       -1.595542    1.073843    0.802454
     17          1           0        0.777896   -2.636236   -0.676272
     18          1           0       -0.213111   -4.875440   -0.770323
     19         17           0       -3.427141   -0.638031    1.084391
     20         17           0       -4.536061   -3.418165    0.927600
     21         17           0       -2.822427   -5.853042   -0.094265
     22         17           0        2.604274    3.330010   -0.157462
 ---------------------------------------------------------------------
                    Distance matrix (angstroms):
                    1          2          3          4          5
     1  C    0.000000
     2  C    1.405617   0.000000
     3  C    2.444499   1.398190   0.000000
     4  C    2.824767   2.417594   1.394810   0.000000
     5  C    2.440127   2.782401   2.412250   1.395325   0.000000
     6  C    1.405702   2.409673   2.793183   2.425813   1.401153
     7  C    1.559437   2.510987   3.826758   4.379534   3.915933
     8  C    2.478991   2.724740   4.117513   5.032176   4.909108
     9  C    3.804518   4.110433   5.495812   6.425860   6.244494
    10  C    4.382835   5.043862   6.439361   7.176167   6.740302
    11  C    3.945635   4.945285   6.277117   6.756769   6.075009
    12  C    2.699251   3.881992   5.120913   5.450095   4.689451
    13  H    2.146760   1.071738   2.136089   3.382629   3.854072
    14  H    3.411966   2.146419   1.072310   2.143009   3.385014
    15  H    3.408058   3.854789   3.383562   2.141244   1.072390
    16  H    2.148582   3.379500   3.851928   3.373359   2.122279
    17  H    2.592295   2.247621   3.539381   4.664841   4.842775
    18  H    4.621556   4.661157   5.987165   7.059285   7.043358
    19  Cl   3.449335   4.840170   5.812226   5.715829   4.603207
    20  Cl   5.435821   6.576221   7.851151   8.159485   7.285053
    21  Cl   6.138875   6.735248   8.133352   8.922121   8.495747
    22  Cl   4.584122   4.040224   2.739409   1.759356   2.740866
                    6          7          8          9         10
     6  C    0.000000
     7  C    2.647096   0.000000
     8  C    3.817299   1.406024   0.000000
     9  C    5.067321   2.450459   1.395155   0.000000
    10  C    5.422047   2.834286   2.411360   1.390705   0.000000
    11  C    4.686189   2.450413   2.776591   2.408898   1.395764
    12  C    3.293626   1.429993   2.426233   2.810610   2.439400
    13  H    3.383988   2.651085   2.279087   3.550381   4.690344
    14  H    3.865481   4.657226   4.687217   6.002282   7.083761
    15  H    2.146934   4.789068   5.886284   7.185227   7.566128
    16  H    1.059087   2.891096   4.240362   5.325293   5.407666
    17  H    3.997436   2.142352   1.071463   2.130277   3.374313
    18  H    5.956039   3.415958   2.144094   1.072188   2.138743
    19  Cl   3.294902   2.842726   4.100447   4.561066   3.994773
    20  Cl   5.888827   4.067766   4.534217   4.023773   2.728999
    21  Cl   7.167235   4.592260   4.031595   2.732737   1.757981
    22  Cl   4.047249   6.138190   6.733269   8.128055   8.926097
                   11         12         13         14         15
    11  C    0.000000
    12  C    1.404821   0.000000
    13  H    4.891684   4.079706   0.000000
    14  H    7.084620   6.019648   2.457305   0.000000
    15  H    6.768460   5.363920   4.926462   4.271314   0.000000
    16  H    4.438877   3.047735   4.274949   4.924235   2.441457
    17  H    3.847947   3.400405   1.458871   3.912327   5.888292
    18  H    3.381707   3.882793   3.898799   6.329741   8.029539
    19  Cl   2.666124   1.757522   5.342874   6.834174   4.943375
    20  Cl   1.757641   2.736590   6.616497   8.722387   7.807543
    21  Cl   2.742220   4.057230   6.271363   8.711389   9.306736
    22  Cl   8.512101   7.192237   4.875473   2.876456   2.874855
                   16         17         18         19         20
    16  H    0.000000
    17  H    4.645915   0.000000
    18  H    6.307037   2.450505   0.000000
    19  Cl   2.522847   4.977458   5.632547   0.000000
    20  Cl   5.370330   5.605529   4.867699   2.997237   0.000000
    21  Cl   7.091621   4.863013   2.867279   5.380636   3.147916
    22  Cl   4.863145   6.261063   8.697279   7.325675   9.884310
                   21         22
    21  Cl   0.000000
    22  Cl  10.666841   0.000000
 Stoichiometry    C12H6Cl4
 Framework group  C1[X(C12H6Cl4)]
 Deg. of freedom    60
 Full point group                 C1      NOp   1
 Largest Abelian subgroup         C1      NOp   1
 Largest concise Abelian subgroup C1      NOp   1
                         Standard orientation:                         
 ---------------------------------------------------------------------
 Center     Atomic      Atomic             Coordinates (Angstroms)
 Number     Number       Type             X           Y           Z
 ---------------------------------------------------------------------
      1          6           0       -1.399552   -0.188060    0.000003
      2          6           0       -2.142333   -1.381389   -0.000000
      3          6           0       -3.540458   -1.367932   -0.000002
      4          6           0       -4.224090   -0.152143   -0.000001
      5          6           0       -3.505751    1.044068    0.000004
      6          6           0       -2.104690    1.027990    0.000006
      7          6           0        0.150607   -0.357921    0.000003
      8          6           0        0.563484   -1.701958    0.000003
      9          6           0        1.911324   -2.062217    0.000002
     10          6           0        2.892302   -1.076447    0.000002
     11          6           0        2.519564    0.268627    0.000002
     12          6           0        1.166946    0.648029    0.000002
     13          1           0       -1.629506   -2.322469   -0.000003
     14          1           0       -4.086607   -2.290737   -0.000005
     15          1           0       -4.028917    1.980188    0.000007
     16          1           0       -1.587619    1.952275    0.000009
     17          1           0       -0.178613   -2.474826    0.000001
     18          1           0        2.191557   -3.097135    0.000002
     19         17           0        0.897869    2.384831   -0.000000
     20         17           0        3.764422    1.509446   -0.000003
     21         17           0        4.591321   -1.527924   -0.000002
     22         17           0       -5.983283   -0.128188   -0.000004
 ---------------------------------------------------------------------
 Rotational constants (GHZ):           0.8807098           0.1469086           0.1259065
 Standard basis: 6-311+G(d,p) (5D, 7F)
 There are   436 symmetry adapted cartesian basis functions of A   symmetry.
 There are   420 symmetry adapted basis functions of A   symmetry.
   420 basis functions,   692 primitive gaussians,   436 cartesian basis functions
    73 alpha electrons       73 beta electrons
       nuclear repulsion energy      1408.8791119416 Hartrees.
 NAtoms=   22 NActive=   22 NUniq=   22 SFac= 1.00D+00 NAtFMM=   60 NAOKFM=F Big=F
 Integral buffers will be    131072 words long.
 Raffenetti 2 integral format.
 Two-electron integral symmetry is turned on.
 One-electron integrals computed using PRISM.
 NBasis=   420 RedAO= T EigKep=  1.03D-06  NBF=   420
 NBsUse=   415 1.00D-06 EigRej=  6.56D-07 NBFU=   415
 Initial guess from the checkpoint file:  "/scratch/pkc/Gau-53233.chk"
 B after Tr=    -0.000000   -0.000000   -0.000000
         Rot=    0.999816    0.000000    0.000000    0.019188 Ang=   2.20 deg.
 ExpMin= 4.38D-02 ExpMax= 1.06D+05 ExpMxC= 3.62D+03 IAcc=3 IRadAn=         5 AccDes= 0.00D+00
 Harris functional with IExCor=  402 and IRadAn=       5 diagonalized for initial guess.
 HarFok:  IExCor=  402 AccDes= 0.00D+00 IRadAn=         5 IDoV= 1 UseB2=F ITyADJ=14
 ICtDFT=  3500011 ScaDFX=  1.000000  1.000000  1.000000  1.000000
 FoFCou: FMM=F IPFlag=           0 FMFlag=      100000 FMFlg1=           0
         NFxFlg=           0 DoJE=T BraDBF=F KetDBF=T FulRan=T
         wScrn=  0.000000 ICntrl=       500 IOpCl=  0 I1Cent=   200000004 NGrid=           0
         NMat0=    1 NMatS0=      1 NMatT0=    0 NMatD0=    1 NMtDS0=    0 NMtDT0=    0
 Petite list used in FoFCou.
 Requested convergence on RMS density matrix=1.00D-08 within  32 cycles.
 Requested convergence on MAX density matrix=1.00D-06.
 Requested convergence on             energy=1.00D-06.
 No special actions if energy rises.
 SCF Done:  E(RB3LYP) =  -2301.87342614     A.U. after   16 cycles
            NFock= 16  Conv=0.80D-08     -V/T= 2.0028
 QCSCF skips out because SCF is already converged.
 Calling FoFJK, ICntrl=      2127 FMM=F ISym2X=0 I1Cent= 0 IOpClX= 0 NMat=1 NMatS=1 NMatT=0.
 ***** Axes restored to original set *****
 -------------------------------------------------------------------
 Center     Atomic                   Forces (Hartrees/Bohr)
 Number     Number              X              Y              Z
 -------------------------------------------------------------------
      1        6          -0.015167720   -0.022279963    0.000812641
      2        6           0.002135041    0.024473144    0.003893015
      3        6          -0.008280808   -0.002896902    0.002184202
      4        6          -0.006267959   -0.004958166    0.001133579
      5        6           0.002863285   -0.008672265   -0.002571999
      6        6           0.018532290   -0.002591204   -0.006592154
      7        6           0.008957282    0.025421501    0.001823504
      8        6          -0.025653829   -0.016496667    0.005353659
      9        6          -0.000865609    0.010761395    0.002306197
     10        6          -0.001060657   -0.003328043   -0.000275532
     11        6          -0.009332243   -0.001862199    0.002725018
     12        6           0.011978355   -0.001965508   -0.004315556
     13        1           0.010456904    0.008538393   -0.001841529
     14        1           0.006990514   -0.000722388   -0.002438720
     15        1          -0.002770967    0.006395551    0.002114092
     16        1          -0.013085370    0.002048723    0.004695764
     17        1          -0.003760876   -0.011023728   -0.000831469
     18        1           0.003065904   -0.006081413   -0.002152193
     19       17           0.012049637    0.006679020   -0.002715502
     20       17           0.005612038   -0.003020152   -0.002416238
     21       17           0.005416943    0.004061702   -0.001021893
     22       17          -0.001812159   -0.002480833    0.000131112
 -------------------------------------------------------------------
 Cartesian Forces:  Max     0.025653829 RMS     0.008740345

 GradGradGradGradGradGradGradGradGradGradGradGradGradGradGradGradGradGrad
 Berny optimization.
 Using GEDIIS/GDIIS optimizer.
 FormGI is forming the generalized inverse of G from B-inverse, IUseBI=4.
 Internal  Forces:  Max     0.063127329 RMS     0.011906324
 Search for a local minimum.
 Step number   2 out of a maximum of  121
 All quantities printed in internal units (Hartrees-Bohrs-Radians)
 Mixed Optimization -- RFO/linear search
 Update second derivatives using D2CorX and points    1    2
 DE= -3.80D-02 DEPred=-1.49D-01 R= 2.55D-01
 Trust test= 2.55D-01 RLast= 3.00D-01 DXMaxT set to 3.00D-01
 ITU=  0  0
 Use linear search instead of GDIIS.
     Eigenvalues ---    0.00237   0.01479   0.01484   0.02070   0.02070
     Eigenvalues ---    0.02070   0.02070   0.02070   0.02070   0.02070
     Eigenvalues ---    0.02070   0.02070   0.02070   0.02070   0.02070
     Eigenvalues ---    0.02070   0.02070   0.02070   0.02070   0.15967
     Eigenvalues ---    0.16000   0.16000   0.16000   0.16000   0.16035
     Eigenvalues ---    0.22003   0.22494   0.22937   0.23948   0.24401
     Eigenvalues ---    0.24927   0.25000   0.25000   0.25000   0.25000
     Eigenvalues ---    0.25000   0.28450   0.29526   0.29539   0.29539
     Eigenvalues ---    0.29539   0.37074   0.37201   0.37230   0.37230
     Eigenvalues ---    0.37230   0.37230   0.40466   0.41178   0.41505
     Eigenvalues ---    0.41701   0.45052   0.45352   0.45389   0.45389
     Eigenvalues ---    0.45389   0.45389   0.45389   0.45389   2.13905
 RFO step:  Lambda=-1.22090531D-02 EMin= 2.36824176D-03
 Quartic linear search produced a step of -0.33981.
 Iteration  1 RMS(Cart)=  0.13820351 RMS(Int)=  0.00396178
 Iteration  2 RMS(Cart)=  0.00670293 RMS(Int)=  0.00005445
 Iteration  3 RMS(Cart)=  0.00001660 RMS(Int)=  0.00005423
 Iteration  4 RMS(Cart)=  0.00000000 RMS(Int)=  0.00005423
 Variable       Old X    -DE/DX   Delta X   Delta X   Delta X     New X
                                 (Linear)    (Quad)   (Total)
    R1        2.65623   0.01056  -0.00271   0.02296   0.02032   2.67655
    R2        2.65639  -0.00167  -0.00276   0.00537   0.00271   2.65910
    R3        2.94691  -0.00607  -0.01248   0.01841   0.00593   2.95284
    R4        2.64220  -0.00772   0.00206  -0.01605  -0.01403   2.62817
    R5        2.02529  -0.00345  -0.00112  -0.00297  -0.00409   2.02120
    R6        2.63581  -0.00707   0.00423  -0.02171  -0.01758   2.61823
    R7        2.02637   0.00744  -0.00148   0.01668   0.01520   2.04157
    R8        2.63678  -0.01025   0.00390  -0.02574  -0.02191   2.61488
    R9        3.32470  -0.00307   0.00041  -0.00766  -0.00724   3.31746
   R10        2.64780  -0.00851   0.00016  -0.01289  -0.01270   2.63509
   R11        2.02652   0.00728  -0.00153   0.01654   0.01500   2.04153
   R12        2.00138   0.01405   0.00701   0.00559   0.01260   2.01398
   R13        2.65700   0.00688  -0.00297   0.01732   0.01443   2.67144
   R14        2.70230  -0.01779  -0.01836   0.02424   0.00596   2.70825
   R15        2.63646  -0.00848   0.00401  -0.02309  -0.01907   2.61739
   R16        2.02477  -0.00470  -0.00094  -0.00559  -0.00653   2.01824
   R17        2.62805  -0.00794   0.00687  -0.02967  -0.02288   2.60517
   R18        2.02614   0.00707  -0.00140   0.01584   0.01444   2.04058
   R19        2.63761  -0.00237   0.00362  -0.01275  -0.00921   2.62840
   R20        3.32210  -0.00585   0.00130  -0.01588  -0.01458   3.30752
   R21        2.65473   0.00683  -0.00220   0.01585   0.01364   2.66837
   R22        3.32146  -0.00556   0.00151  -0.01582  -0.01430   3.30716
   R23        3.32124  -0.00381   0.00159  -0.01226  -0.01066   3.31057
    A1        2.05935  -0.01415   0.01191  -0.06393  -0.05185   2.00751
    A2        2.01841   0.05723   0.02582   0.07868   0.10441   2.12282
    A3        2.20542  -0.04308  -0.03773  -0.01475  -0.05256   2.15286
    A4        2.11793   0.00395  -0.00800   0.03255   0.02459   2.14252
    A5        2.08589   0.01137   0.00289   0.03737   0.04024   2.12613
    A6        2.07937  -0.01532   0.00511  -0.06992  -0.06483   2.01454
    A7        2.09266   0.00045   0.00059  -0.00053  -0.00008   2.09258
    A8        2.09557  -0.00019  -0.00040   0.00064   0.00031   2.09587
    A9        2.09496  -0.00026  -0.00019  -0.00010  -0.00023   2.09473
   A10        2.08856   0.00154   0.00198  -0.00352  -0.00171   2.08685
   A11        2.09665  -0.00084  -0.00076   0.00102   0.00033   2.09698
   A12        2.09798  -0.00070  -0.00122   0.00251   0.00138   2.09935
   A13        2.10012  -0.00153  -0.00194  -0.00256  -0.00454   2.09558
   A14        2.09117   0.00111   0.00110   0.00230   0.00342   2.09459
   A15        2.09190   0.00043   0.00085   0.00026   0.00113   2.09302
   A16        2.10775   0.00975  -0.00454   0.03800   0.03359   2.14134
   A17        2.10606  -0.00458  -0.00396  -0.00374  -0.00777   2.09829
   A18        2.06937  -0.00516   0.00850  -0.03426  -0.02582   2.04355
   A19        1.97798   0.06313   0.03956   0.06034   0.09981   2.07779
   A20        2.25219  -0.04913  -0.05362   0.01100  -0.04271   2.20948
   A21        2.05302  -0.01400   0.01406  -0.07134  -0.05711   1.99591
   A22        2.13002   0.00733  -0.01211   0.04882   0.03680   2.16682
   A23        2.07846   0.00716   0.00541   0.01849   0.02386   2.10232
   A24        2.07471  -0.01448   0.00669  -0.06730  -0.06066   2.01405
   A25        2.09258   0.00221   0.00062   0.00389   0.00443   2.09701
   A26        2.09641  -0.00008  -0.00069   0.00285   0.00220   2.09861
   A27        2.09419  -0.00213   0.00007  -0.00674  -0.00663   2.08756
   A28        2.08830  -0.00235   0.00207  -0.01084  -0.00894   2.07936
   A29        2.09403  -0.00473   0.00012  -0.01233  -0.01213   2.08191
   A30        2.10085   0.00708  -0.00219   0.02317   0.02106   2.12191
   A31        2.11459  -0.00627  -0.00686   0.00204  -0.00492   2.10967
   A32        2.08424  -0.00341   0.00345  -0.01752  -0.01402   2.07022
   A33        2.08435   0.00967   0.00341   0.01548   0.01894   2.10329
   A34        2.08786   0.01308   0.00222   0.02744   0.02973   2.11759
   A35        2.19735  -0.02898  -0.03499   0.01456  -0.02047   2.17689
   A36        1.99797   0.01590   0.03277  -0.04199  -0.00926   1.98871
    D1        0.00000  -0.00000  -0.00000  -0.00000  -0.00000   0.00000
    D2        3.14159  -0.00000  -0.00000  -0.00000  -0.00000   3.14159
    D3       -3.14159  -0.00000   0.00000  -0.00000  -0.00000  -3.14159
    D4       -0.00000  -0.00000   0.00000   0.00000   0.00000  -0.00000
    D5       -0.00000   0.00000   0.00000   0.00000   0.00000  -0.00000
    D6        3.14159   0.00000   0.00000   0.00000   0.00000   3.14159
    D7        3.14159  -0.00000  -0.00000   0.00000   0.00000   3.14159
    D8        0.00000  -0.00000   0.00000  -0.00000  -0.00000  -0.00000
    D9       -0.00000  -0.00000   0.00000  -0.00000  -0.00000  -0.00000
   D10        3.14159  -0.00000   0.00000  -0.00000  -0.00000   3.14159
   D11        3.14159  -0.00000   0.00000  -0.00000  -0.00000   3.14159
   D12       -0.00000   0.00000   0.00000  -0.00000  -0.00000  -0.00000
   D13        0.00000  -0.00000   0.00000  -0.00000  -0.00000   0.00000
   D14        3.14159   0.00000   0.00000   0.00000   0.00000   3.14159
   D15       -3.14159  -0.00000   0.00000  -0.00000  -0.00000  -3.14159
   D16        0.00000  -0.00000   0.00000  -0.00000  -0.00000   0.00000
   D17       -0.00000   0.00000  -0.00000   0.00000   0.00000  -0.00000
   D18        3.14159   0.00000  -0.00000  -0.00000  -0.00000   3.14159
   D19        3.14159   0.00000   0.00000   0.00000   0.00000   3.14159
   D20        0.00000  -0.00000   0.00000  -0.00000  -0.00000   0.00000
   D21        0.00000  -0.00000  -0.00000  -0.00000  -0.00000   0.00000
   D22       -3.14159  -0.00000  -0.00000  -0.00000  -0.00000  -3.14159
   D23       -3.14159   0.00000   0.00000   0.00000   0.00000  -3.14159
   D24        0.00000   0.00000  -0.00000   0.00000   0.00000   0.00000
   D25       -0.00000   0.00000  -0.00000   0.00000   0.00000  -0.00000
   D26        3.14159   0.00000  -0.00000   0.00000   0.00000   3.14159
   D27        3.14159   0.00000  -0.00000   0.00000   0.00000   3.14159
   D28       -0.00000   0.00000  -0.00000   0.00000   0.00000  -0.00000
   D29        3.14159  -0.00000  -0.00000   0.00000   0.00000  -3.14159
   D30        0.00000  -0.00000  -0.00000  -0.00000  -0.00000   0.00000
   D31        0.00000  -0.00000  -0.00000  -0.00000  -0.00000   0.00000
   D32       -3.14159  -0.00000   0.00000  -0.00000  -0.00000  -3.14159
   D33       -3.14159  -0.00000  -0.00000  -0.00000  -0.00000   3.14159
   D34        0.00000  -0.00000   0.00000  -0.00000  -0.00000  -0.00000
   D35       -0.00000   0.00000   0.00000   0.00000   0.00000  -0.00000
   D36        3.14159   0.00000   0.00000   0.00000   0.00000   3.14159
   D37       -0.00000  -0.00000   0.00000   0.00000   0.00000  -0.00000
   D38        3.14159  -0.00000   0.00000  -0.00000  -0.00000   3.14159
   D39        3.14159   0.00000  -0.00000   0.00000   0.00000   3.14159
   D40       -0.00000   0.00000  -0.00000   0.00000   0.00000  -0.00000
   D41       -0.00000   0.00000   0.00000   0.00000   0.00000   0.00000
   D42       -3.14159  -0.00000   0.00000  -0.00000  -0.00000  -3.14159
   D43        3.14159   0.00000  -0.00000   0.00000   0.00000  -3.14159
   D44        0.00000  -0.00000   0.00000  -0.00000  -0.00000   0.00000
   D45        0.00000   0.00000  -0.00000   0.00000   0.00000   0.00000
   D46       -3.14159  -0.00000   0.00000  -0.00000  -0.00000  -3.14159
   D47        3.14159   0.00000  -0.00000   0.00000   0.00000   3.14159
   D48        0.00000  -0.00000  -0.00000  -0.00000  -0.00000   0.00000
   D49        0.00000  -0.00000  -0.00000  -0.00000  -0.00000   0.00000
   D50       -3.14159  -0.00000  -0.00000  -0.00000  -0.00000  -3.14159
   D51        3.14159   0.00000  -0.00000   0.00000   0.00000   3.14159
   D52       -0.00000   0.00000  -0.00000   0.00000   0.00000  -0.00000
         Item               Value     Threshold  Converged?
 Maximum Force            0.063127     0.000450     NO 
 RMS     Force            0.011906     0.000300     NO 
 Maximum Displacement     0.525533     0.001800     NO 
 RMS     Displacement     0.139498     0.001200     NO 
 Predicted change in Energy=-8.132852D-03
 GradGradGradGradGradGradGradGradGradGradGradGradGradGradGradGradGradGrad

                          Input orientation:                          
 ---------------------------------------------------------------------
 Center     Atomic      Atomic             Coordinates (Angstroms)
 Number     Number       Type             X           Y           Z
 ---------------------------------------------------------------------
      1          6           0       -0.048056   -0.388239    0.018038
      2          6           0        1.298410   -0.362030   -0.420638
      3          6           0        2.057165    0.803112   -0.451790
      4          6           0        1.497744    2.002662   -0.042201
      5          6           0        0.185278    2.029856    0.395302
      6          6           0       -0.566559    0.855785    0.422498
      7          6           0       -0.876393   -1.712972    0.042142
      8          6           0       -0.263968   -2.913335   -0.385067
      9          6           0       -0.898015   -4.144549   -0.407409
     10          6           0       -2.209185   -4.255731    0.003685
     11          6           0       -2.881316   -3.118386    0.438729
     12          6           0       -2.238296   -1.861486    0.462940
     13          1           0        1.800782   -1.246158   -0.752192
     14          1           0        3.081214    0.773501   -0.794728
[...]

 **********************************************************************

 Orbital symmetries:
       Occupied  (A) (A) (A) (A) (A) (A) (A) (A) (A) (A) (A) (A)
                 (A) (A) (A) (A) (A) (A) (A) (A) (A) (A) (A) (A)
                 (A) (A) (A) (A) (A) (A) (A) (A) (A) (A) (A) (A)
                 (A) (A) (A) (A) (A) (A) (A) (A) (A) (A) (A) (A)
                 (A) (A) (A) (A) (A) (A) (A) (A) (A) (A) (A) (A)
                 (A) (A) (A) (A) (A) (A) (A) (A) (A) (A) (A) (A)
                 (A)
       Virtual   (A) (A) (A) (A) (A) (A) (A) (A) (A) (A) (A) (A)
                 (A) (A) (A) (A) (A) (A) (A) (A) (A) (A) (A) (A)
                 (A) (A) (A) (A) (A) (A) (A) (A) (A) (A) (A) (A)
                 (A) (A) (A) (A) (A) (A) (A) (A) (A) (A) (A) (A)
                 (A) (A) (A) (A) (A) (A) (A) (A) (A) (A) (A) (A)
                 (A) (A) (A) (A) (A) (A) (A) (A) (A) (A) (A) (A)
                 (A) (A) (A) (A) (A) (A) (A) (A) (A) (A) (A) (A)
                 (A) (A) (A) (A) (A) (A) (A) (A) (A) (A) (A) (A)
                 (A) (A) (A) (A) (A) (A) (A) (A) (A) (A) (A) (A)
                 (A) (A) (A) (A) (A) (A) (A) (A) (A) (A) (A) (A)
                 (A) (A) (A) (A) (A) (A) (A) (A) (A) (A) (A) (A)
                 (A) (A) (A) (A) (A) (A) (A) (A) (A) (A) (A) (A)
                 (A) (A) (A) (A) (A) (A) (A) (A) (A) (A) (A) (A)
                 (A) (A) (A) (A) (A) (A) (A) (A) (A) (A) (A) (A)
                 (A) (A) (A) (A) (A) (A) (A) (A) (A) (A) (A) (A)
                 (A) (A) (A) (A) (A) (A) (A) (A) (A) (A) (A) (A)
                 (A) (A) (A) (A) (A) (A) (A) (A) (A) (A) (A) (A)
                 (A) (A) (A) (A) (A) (A) (A) (A) (A) (A) (A) (A)
                 (A) (A) (A) (A) (A) (A) (A) (A) (A) (A) (A) (A)
                 (A) (A) (A) (A) (A) (A) (A) (A) (A) (A) (A) (A)
                 (A) (A) (A) (A) (A) (A) (A) (A) (A) (A) (A) (A)
                 (A) (A) (A) (A) (A) (A) (A) (A) (A) (A) (A) (A)
                 (A) (A) (A) (A) (A) (A) (A) (A) (A) (A) (A) (A)
                 (A) (A) (A) (A) (A) (A) (A) (A) (A) (A) (A) (A)
                 (A) (A) (A) (A) (A) (A) (A) (A) (A) (A) (A) (A)
                 (A) (A) (A) (A) (A) (A) (A) (A) (A) (A) (A) (A)
                 (A) (A) (A) (A) (A) (A) (A) (A) (A) (A) (A) (A)
                 (A) (A) (A) (A) (A) (A) (A) (A) (A) (A) (A) (A)
                 (A) (A) (A) (A) (A) (A) (A) (A)
 The electronic state is 1-A.
 Alpha  occ. eigenvalues -- -101.57361-101.57307-101.57168-101.56298 -10.27316
 Alpha  occ. eigenvalues --  -10.27147 -10.26869 -10.25286 -10.22592 -10.21294
 Alpha  occ. eigenvalues --  -10.21258 -10.21098 -10.20339 -10.20263 -10.20260
 Alpha  occ. eigenvalues --  -10.20204  -9.48828  -9.48765  -9.48649  -9.47755
 Alpha  occ. eigenvalues --   -7.25327  -7.25250  -7.25133  -7.24312  -7.24247
 Alpha  occ. eigenvalues --   -7.24227  -7.24214  -7.24186  -7.24137  -7.24056
 Alpha  occ. eigenvalues --   -7.23240  -7.23204  -0.94807  -0.91058  -0.89747
 Alpha  occ. eigenvalues --   -0.87777  -0.85813  -0.84623  -0.78540  -0.77848
 Alpha  occ. eigenvalues --   -0.75867  -0.73248  -0.64698  -0.64404  -0.63241
 Alpha  occ. eigenvalues --   -0.60628  -0.55319  -0.52923  -0.51637  -0.49422
 Alpha  occ. eigenvalues --   -0.49058  -0.47755  -0.46295  -0.45483  -0.45329
 Alpha  occ. eigenvalues --   -0.44539  -0.42169  -0.41587  -0.40569  -0.38573
 Alpha  occ. eigenvalues --   -0.38459  -0.38018  -0.36185  -0.35070  -0.34905
 Alpha  occ. eigenvalues --   -0.34013  -0.33636  -0.32614  -0.31569  -0.28297
 Alpha  occ. eigenvalues --   -0.27856  -0.27135  -0.25441
 Alpha virt. eigenvalues --   -0.06077  -0.05283  -0.03952  -0.03439  -0.02858
 Alpha virt. eigenvalues --   -0.00983   0.00442   0.00837   0.01335   0.01772
 Alpha virt. eigenvalues --    0.02253   0.02676   0.03236   0.04017   0.04268
 Alpha virt. eigenvalues --    0.04923   0.05454   0.05947   0.06463   0.06701
 Alpha virt. eigenvalues --    0.07151   0.07878   0.08311   0.08348   0.09025
 Alpha virt. eigenvalues --    0.09168   0.09555   0.10476   0.10611   0.11054
 Alpha virt. eigenvalues --    0.11612   0.11785   0.11957   0.12215   0.12948
 Alpha virt. eigenvalues --    0.13078   0.13850   0.14278   0.14618   0.14838
 Alpha virt. eigenvalues --    0.15084   0.15371   0.16114   0.16396   0.16864
 Alpha virt. eigenvalues --    0.17304   0.17599   0.17864   0.18407   0.18628
 Alpha virt. eigenvalues --    0.19092   0.19336   0.19700   0.20122   0.20467
 Alpha virt. eigenvalues --    0.20932   0.21188   0.21431   0.21725   0.22574
 Alpha virt. eigenvalues --    0.22638   0.22936   0.23256   0.23987   0.24169
 Alpha virt. eigenvalues --    0.24927   0.25092   0.25596   0.26142   0.26552
 Alpha virt. eigenvalues --    0.26882   0.27053   0.27518   0.27676   0.28327
 Alpha virt. eigenvalues --    0.28940   0.29262   0.29512   0.30611   0.31051
 Alpha virt. eigenvalues --    0.31414   0.32463   0.33543   0.33784   0.34531
 Alpha virt. eigenvalues --    0.34839   0.41198   0.41802   0.43219   0.43823
 Alpha virt. eigenvalues --    0.44546   0.44711   0.45588   0.45798   0.46855
 Alpha virt. eigenvalues --    0.47229   0.47535   0.48693   0.49375   0.49767
 Alpha virt. eigenvalues --    0.50730   0.51219   0.51523   0.52714   0.54646
 Alpha virt. eigenvalues --    0.55027   0.56225   0.56721   0.56986   0.57517
 Alpha virt. eigenvalues --    0.57811   0.59508   0.60335   0.60626   0.61651
 Alpha virt. eigenvalues --    0.62188   0.63111   0.63353   0.63812   0.64746
 Alpha virt. eigenvalues --    0.65462   0.66184   0.67343   0.68258   0.68533
 Alpha virt. eigenvalues --    0.68889   0.69658   0.70121   0.71276   0.71495
 Alpha virt. eigenvalues --    0.72256   0.73092   0.75126   0.77583   0.79013
 Alpha virt. eigenvalues --    0.79675   0.82250   0.82494   0.83261   0.83624
 Alpha virt. eigenvalues --    0.84087   0.84599   0.84687   0.85071   0.85204
 Alpha virt. eigenvalues --    0.85300   0.85748   0.85983   0.86259   0.87172
 Alpha virt. eigenvalues --    0.87442   0.88097   0.89473   0.90420   0.90741
 Alpha virt. eigenvalues --    0.91479   0.91851   0.93163   0.93722   0.94259
 Alpha virt. eigenvalues --    0.94751   0.95565   0.96360   0.96801   0.97887
 Alpha virt. eigenvalues --    0.98946   1.00129   1.01217   1.02013   1.03761
 Alpha virt. eigenvalues --    1.04898   1.06365   1.07623   1.10166   1.12135
 Alpha virt. eigenvalues --    1.12993   1.13988   1.16200   1.18800   1.22699
 Alpha virt. eigenvalues --    1.23244   1.23694   1.26067   1.27394   1.27779
 Alpha virt. eigenvalues --    1.28658   1.29787   1.30620   1.34218   1.35323
 Alpha virt. eigenvalues --    1.37344   1.39507   1.43358   1.48449   1.49419
 Alpha virt. eigenvalues --    1.49927   1.50913   1.51916   1.54953   1.55548
 Alpha virt. eigenvalues --    1.56438   1.58518   1.60406   1.61555   1.63935
 Alpha virt. eigenvalues --    1.65168   1.66777   1.68304   1.70569   1.71557
 Alpha virt. eigenvalues --    1.73099   1.75110   1.75870   1.77787   1.80088
 Alpha virt. eigenvalues --    1.83027   1.84973   1.85385   1.86381   1.88512
 Alpha virt. eigenvalues --    1.90128   1.91128   1.92702   1.92961   1.94358
 Alpha virt. eigenvalues --    1.94890   1.95509   1.96189   1.97783   2.00725
 Alpha virt. eigenvalues --    2.04379   2.06015   2.06490   2.07520   2.13307
 Alpha virt. eigenvalues --    2.14069   2.17154   2.21190   2.23603   2.25530
 Alpha virt. eigenvalues --    2.26478   2.27054   2.28094   2.28587   2.30941
 Alpha virt. eigenvalues --    2.31907   2.35029   2.36116   2.38538   2.40708
 Alpha virt. eigenvalues --    2.41105   2.42049   2.44316   2.44858   2.45526
 Alpha virt. eigenvalues --    2.50729   2.53453   2.53759   2.55484   2.59776
 Alpha virt. eigenvalues --    2.61581   2.63460   2.65135   2.65601   2.66654
 Alpha virt. eigenvalues --    2.68789   2.70776   2.71939   2.74262   2.74790
 Alpha virt. eigenvalues --    2.74879   2.75771   2.76526   2.77651   2.79007
 Alpha virt. eigenvalues --    2.79630   2.80773   2.83142   2.84408   2.88468
 Alpha virt. eigenvalues --    2.91742   2.92146   2.97711   2.99247   3.07175
 Alpha virt. eigenvalues --    3.08240   3.09221   3.12578   3.13695   3.16630
 Alpha virt. eigenvalues --    3.18707   3.21666   3.23156   3.33003   3.36550
 Alpha virt. eigenvalues --    3.39770   3.43580   3.48056   3.57456   3.58182
 Alpha virt. eigenvalues --    3.67087   3.69472   3.77293   3.85413   3.96582
 Alpha virt. eigenvalues --    4.00776   4.06892   4.12513   4.13597   4.36579
 Alpha virt. eigenvalues --    4.80327   4.83218   9.74569   9.77239   9.79603
 Alpha virt. eigenvalues --    9.81987  23.37686  23.59266  23.83739  23.87584
 Alpha virt. eigenvalues --   23.90055  23.93951  23.95572  23.97810  24.05702
 Alpha virt. eigenvalues --   24.07832  24.12822  24.16347  25.78020  25.82728
 Alpha virt. eigenvalues --   25.84221  25.92270  26.09849  26.11993  26.15348
 Alpha virt. eigenvalues --   26.27062  26.48544  26.59128  26.65653  26.87275
 Alpha virt. eigenvalues --  215.73517 215.76275 215.79178 215.82065
          Condensed to atoms (all electrons):
               1          2          3          4          5          6
     1  C   23.649617  -2.601146  -0.828253  -7.271280   0.875266  -6.025126
     2  C   -2.601146  26.790265  -2.246753   0.550238  -1.295803 -14.174249
     3  C   -0.828253  -2.246753  19.606212  -2.155140  -8.173980  -0.829120
     4  C   -7.271280   0.550238  -2.155140  17.799446  -3.912533   2.041614
     5  C    0.875266  -1.295803  -8.173980  -3.912533  23.031741  -5.568874
     6  C   -6.025126 -14.174249  -0.829120   2.041614  -5.568874  31.900506
     7  C    0.958544  -1.203890   0.615870  -0.677667   0.929225  -1.022622
     8  C   -0.873681   1.393986   0.100398  -0.034799   0.449372  -1.778479
     9  C    0.031527  -0.041856  -0.007069   0.075318  -0.008901   0.300150
    10  C   -0.324689   0.195393   0.071935  -0.039548   0.022410  -0.417914
    11  C   -1.375544  -0.005923   0.054576  -0.026851   0.137880  -0.180241
    12  C   -1.108691  -1.327476   0.317926  -0.113750  -0.384260   2.276530
    13  H    0.058293   0.282620  -0.019779  -0.026055  -0.016653   0.023659
    14  H   -0.006383  -0.018632   0.263058   0.079386   0.052381  -0.010582
    15  H    0.000046  -0.021675   0.070551   0.078271   0.243354  -0.018399
    16  H    0.065130   0.057414  -0.028079  -0.003249  -0.048634   0.317385
    17  H   -0.022915   0.109607  -0.007265   0.005681  -0.009393  -0.046668
    18  H   -0.003514   0.001090  -0.000090  -0.000091  -0.000027  -0.001663
    19  Cl  -0.114099  -0.158358  -0.068486  -0.039975   0.275001  -0.075492
    20  Cl  -0.021439  -0.015564  -0.001319   0.002755   0.005237   0.048736
    21  Cl  -0.020851   0.007273   0.003862   0.000225  -0.000015  -0.009653
    22  Cl  -0.210411   0.342284  -0.017293  -1.228167   0.166925   0.257244
               7          8          9         10         11         12
     1  C    0.958544  -0.873681   0.031527  -0.324689  -1.375544  -1.108691
     2  C   -1.203890   1.393986  -0.041856   0.195393  -0.005923  -1.327476
     3  C    0.615870   0.100398  -0.007069   0.071935   0.054576   0.317926
     4  C   -0.677667  -0.034799   0.075318  -0.039548  -0.026851  -0.113750
     5  C    0.929225   0.449372  -0.008901   0.022410   0.137880  -0.384260
     6  C   -1.022622  -1.778479   0.300150  -0.417914  -0.180241   2.276530
     7  C   13.132002  -4.248795  -0.749580   0.251747  -1.846747   0.365437
     8  C   -4.248795  17.275564  -0.219947   0.762336  -0.365530  -6.563639
     9  C   -0.749580  -0.219947  11.368442  -2.537940  -3.129992   1.151015
    10  C    0.251747   0.762336  -2.537940  15.401246  -1.082615  -5.141482
    11  C   -1.846747  -0.365530  -3.129992  -1.082615  13.849661  -0.080279
    12  C    0.365437  -6.563639   1.151015  -5.141482  -0.080279  18.013577
    13  H    0.002572   0.023494  -0.009537   0.005860   0.004579   0.022339
    14  H   -0.001461  -0.004502  -0.000187  -0.000114  -0.000202   0.001055
    15  H   -0.000658  -0.000857  -0.000470   0.000088   0.000388   0.004414
    16  H   -0.014654  -0.022918  -0.002872  -0.008476  -0.004838   0.046276
    17  H    0.024945   0.384305  -0.070876   0.000539  -0.007028  -0.011433
    18  H    0.009801  -0.025692   0.352012   0.018451  -0.006230   0.004621
    19  Cl  -0.312521   0.116660   0.295842  -0.301670   0.322834  -0.975296
    20  Cl  -0.459053   0.138687   0.227837  -0.520482  -0.861218   0.873088
    21  Cl  -0.124117  -0.008240  -0.255332  -0.391387   0.600716  -0.384416
    22  Cl  -0.018582   0.013030   0.003726  -0.000408   0.000984  -0.025255
              13         14         15         16         17         18
     1  C    0.058293  -0.006383   0.000046   0.065130  -0.022915  -0.003514
     2  C    0.282620  -0.018632  -0.021675   0.057414   0.109607   0.001090
     3  C   -0.019779   0.263058   0.070551  -0.028079  -0.007265  -0.000090
     4  C   -0.026055   0.079386   0.078271  -0.003249   0.005681  -0.000091
     5  C   -0.016653   0.052381   0.243354  -0.048634  -0.009393  -0.000027
     6  C    0.023659  -0.010582  -0.018399   0.317385  -0.046668  -0.001663
     7  C    0.002572  -0.001461  -0.000658  -0.014654   0.024945   0.009801
     8  C    0.023494  -0.004502  -0.000857  -0.022918   0.384305  -0.025692
     9  C   -0.009537  -0.000187  -0.000470  -0.002872  -0.070876   0.352012
    10  C    0.005860  -0.000114   0.000088  -0.008476   0.000539   0.018451
    11  C    0.004579  -0.000202   0.000388  -0.004838  -0.007028  -0.006230
    12  C    0.022339   0.001055   0.004414   0.046276  -0.011433   0.004621
    13  H    0.528445  -0.007799   0.000069  -0.000244  -0.000613   0.000019
    14  H   -0.007799   0.512937  -0.000314   0.000065   0.000028   0.000000
    15  H    0.000069  -0.000314   0.512934  -0.007777   0.000002   0.000000
    16  H   -0.000244   0.000065  -0.007777   0.519406  -0.000001   0.000004
    17  H   -0.000613   0.000028   0.000002  -0.000001   0.520134  -0.007109
    18  H    0.000019   0.000000   0.000000   0.000004  -0.007109   0.506455
    19  Cl  -0.002408  -0.000352  -0.001403  -0.001527  -0.002049   0.001830
    20  Cl  -0.000143   0.000000  -0.000003   0.000553   0.000558  -0.000734
    21  Cl   0.000054  -0.000002  -0.000000  -0.000149  -0.000049  -0.005606
    22  Cl  -0.000086  -0.010109  -0.011105   0.000023  -0.000117  -0.000001
              19         20         21         22
     1  C   -0.114099  -0.021439  -0.020851  -0.210411
     2  C   -0.158358  -0.015564   0.007273   0.342284
     3  C   -0.068486  -0.001319   0.003862  -0.017293
     4  C   -0.039975   0.002755   0.000225  -1.228167
     5  C    0.275001   0.005237  -0.000015   0.166925
     6  C   -0.075492   0.048736  -0.009653   0.257244
     7  C   -0.312521  -0.459053  -0.124117  -0.018582
     8  C    0.116660   0.138687  -0.008240   0.013030
     9  C    0.295842   0.227837  -0.255332   0.003726
    10  C   -0.301670  -0.520482  -0.391387  -0.000408
    11  C    0.322834  -0.861218   0.600716   0.000984
    12  C   -0.975296   0.873088  -0.384416  -0.025255
    13  H   -0.002408  -0.000143   0.000054  -0.000086
    14  H   -0.000352   0.000000  -0.000002  -0.010109
    15  H   -0.001403  -0.000003  -0.000000  -0.011105
    16  H   -0.001527   0.000553  -0.000149   0.000023
    17  H   -0.002049   0.000558  -0.000049  -0.000117
    18  H    0.001830  -0.000734  -0.005606  -0.000001
    19  Cl  17.672056  -0.187983  -0.017194   0.003941
    20  Cl  -0.187983  17.378679  -0.172444   0.000044
    21  Cl  -0.017194  -0.172444  17.286976   0.000020
    22  Cl   0.003941   0.000044   0.000020  17.362316
 Mulliken charges:
               1
     1  C    1.169600
     2  C   -0.618847
     3  C   -0.721761
     4  C    0.896171
     5  C   -0.769720
     6  C   -1.006745
     7  C    0.390205
     8  C   -0.510752
     9  C   -0.771310
    10  C    0.036719
    11  C    0.001621
    12  C   -0.960301
    13  H    0.131313
    14  H    0.151728
    15  H    0.152543
    16  H    0.137164
    17  H    0.139718
    18  H    0.156473
    19  Cl   0.570647
    20  Cl   0.564206
    21  Cl   0.490331
    22  Cl   0.370996
 Sum of Mulliken charges =  -0.00000
 Mulliken charges with hydrogens summed into heavy atoms:
               1
     1  C    1.169600
     2  C   -0.487533
     3  C   -0.570032
     4  C    0.896171
     5  C   -0.617177
     6  C   -0.869581
     7  C    0.390205
     8  C   -0.371035
     9  C   -0.614836
    10  C    0.036719
    11  C    0.001621
    12  C   -0.960301
    19  Cl   0.570647
    20  Cl   0.564206
    21  Cl   0.490331
    22  Cl   0.370996
 Electronic spatial extent (au):  <R**2>=           7135.4728
 Charge=             -0.0000 electrons
 Dipole moment (field-independent basis, Debye):
    X=             -0.3581    Y=             -1.9761    Z=             -0.2385  Tot=              2.0224
 Quadrupole moment (field-independent basis, Debye-Ang):
   XX=           -133.6245   YY=           -115.3411   ZZ=           -117.7042
   XY=             -1.6920   XZ=             -0.3837   YZ=             -3.5867
 Traceless Quadrupole moment (field-independent basis, Debye-Ang):
   XX=            -11.4012   YY=              6.8822   ZZ=              4.5191
   XY=             -1.6920   XZ=             -0.3837   YZ=             -3.5867
 Octapole moment (field-independent basis, Debye-Ang**2):
  XXX=             52.3568  YYY=              1.2498  ZZZ=              1.5548  XYY=             10.6037
  XXY=              6.1354  XXZ=              2.4741  XZZ=             -7.6560  YZZ=              6.0203
  YYZ=              1.0419  XYZ=             12.6939
 Hexadecapole moment (field-independent basis, Debye-Ang**3):
 XXXX=          -8171.1659 YYYY=          -1208.8945 ZZZZ=           -321.6091 XXXY=              9.0422
 XXXZ=             -8.3525 YYYX=            -10.0692 YYYZ=             10.9224 ZZZX=              1.6246
 ZZZY=            -15.6677 XXYY=          -1503.6559 XXZZ=          -1348.2409 YYZZ=           -267.9349
 XXYZ=            -35.2680 YYXZ=             -7.0407 ZZXY=              7.3989
 N-N= 1.422930427620D+03 E-N=-8.290246430215D+03  KE= 2.295553016138D+03
 1\1\GINC-DAMODAR\FOpt\RB3LYP\6-311+G(d,p)\C12H6Cl4\PKC\15-Mar-2022\0\\
 # opt b3lyp/6-311+g(d,p) scf=xqc\\Title Card Required\\0,1\C,-0.084093
 3185,-0.4208976719,-0.0090430267\C,0.8788764318,-0.2090394123,-1.00177
 83032\C,1.6302514748,0.9632985285,-1.0366882379\C,1.419464973,1.930591
 1202,-0.0608948571\C,0.4728039227,1.7432665871,0.9421162699\C,-0.27522
 95351,0.5707662849,0.960326797\C,-0.836524381,-1.7065014776,0.03465025
 93\C,-0.1248559134,-2.901803605,0.1883671239\C,-0.764692245,-4.1307245
 046,0.2419885039\C,-2.149726068,-4.1939905038,0.1406333116\C,-2.899585
 0573,-3.0229524845,-0.023608731\C,-2.2336466287,-1.786477656,-0.078883
 2194\H,1.0358837961,-0.9612717256,-1.7664919939\H,2.3669456412,1.12391
 22407,-1.81330521\H,0.3250571337,2.5029335462,1.6989047733\H,-1.008904
 7907,0.424902107,1.7439220644\H,0.9530782857,-2.8574509148,0.285716043
 8\H,-0.1994914333,-5.0444103024,0.3702996435\Cl,-3.1648675506,-0.33047
 86949,-0.342665345\Cl,-4.6297538415,-3.1057862016,-0.1693838007\Cl,-2.
 9215558229,-5.7580944308,0.2221041314\Cl,2.3645972169,3.4119952713,-0.
 0918160172\\Version=EM64L-G16RevB.01\State=1-A\HF=-2301.8970243\RMSD=5
 .743e-09\RMSF=9.284e-06\Dipole=0.7073554,-0.3474317,0.1096283\Quadrupo
 le=-0.8743733,-2.3691256,3.243499,-6.9425857,-2.1636739,1.4510033\PG=C
 01 [X(C12H6Cl4)]\\@


 THIS CURIOUS WORLD WHICH WE INHABIT IS MORE WONDERFUL THAN IT IS CONVENIENT;
 MORE BEAUTIFUL THAN IT IS USEFUL;
 IT IS MORE TO BE ADMIRED THAN IT IS TO BE USED.

                                                                 -- THOREAU
 Job cpu time:       0 days  9 hours 53 minutes 38.2 seconds.
 Elapsed time:       0 days  2 hours 28 minutes 51.6 seconds.
 File lengths (MBytes):  RWF=    120 Int=      0 D2E=      0 Chk=     18 Scr=      1
 Normal termination of Gaussian 16 at Tue Mar 15 22:46:22 2022.
