 Entering Gaussian System, Link 0=g16
 Input=2,3,3prime-Trichlorobiphenyl.gjf
 Output=2,3,3prime-Trichlorobiphenyl.log
 Initial command:
 /usr/local/g16/l1.exe "/scratch/pkc/Gau-17909.inp" -scrdir="/scratch/pkc/"
 Entering Link 1 = /usr/local/g16/l1.exe PID=     17910.
  
 Copyright (c) 1988-2017, Gaussian, Inc.  All Rights Reserved.
  
 This is part of the Gaussian(R) 16 program.  It is based on
 the Gaussian(R) 09 system (copyright 2009, Gaussian, Inc.),
 the Gaussian(R) 03 system (copyright 2003, Gaussian, Inc.),
 the Gaussian(R) 98 system (copyright 1998, Gaussian, Inc.),
 the Gaussian(R) 94 system (copyright 1995, Gaussian, Inc.),
 the Gaussian 92(TM) system (copyright 1992, Gaussian, Inc.),
 the Gaussian 90(TM) system (copyright 1990, Gaussian, Inc.),
 the Gaussian 88(TM) system (copyright 1988, Gaussian, Inc.),
 the Gaussian 86(TM) system (copyright 1986, Carnegie Mellon
 University), and the Gaussian 82(TM) system (copyright 1983,
 Carnegie Mellon University). Gaussian is a federally registered
 trademark of Gaussian, Inc.
  
 This software contains proprietary and confidential information,
 including trade secrets, belonging to Gaussian, Inc.
  
 This software is provided under written license and may be
 used, copied, transmitted, or stored only in accord with that
 written license.
  
 The following legend is applicable only to US Government
 contracts under FAR:
  
                    RESTRICTED RIGHTS LEGEND
  
 Use, reproduction and disclosure by the US Government is
 subject to restrictions as set forth in subparagraphs (a)
 and (c) of the Commercial Computer Software - Restricted
 Rights clause in FAR 52.227-19.
  
 Gaussian, Inc.
 340 Quinnipiac St., Bldg. 40, Wallingford CT 06492
  
  
 ---------------------------------------------------------------
 Warning -- This program may not be used in any manner that
 competes with the business of Gaussian, Inc. or will provide
 assistance to any competitor of Gaussian, Inc.  The licensee
 of this program is prohibited from giving any competitor of
 Gaussian, Inc. access to this program.  By using this program,
 the user acknowledges that Gaussian, Inc. is engaged in the
 business of creating and licensing software in the field of
 computational chemistry and represents and warrants to the
 licensee that it is not a competitor of Gaussian, Inc. and that
 it will not use this program in any manner prohibited above.
 ---------------------------------------------------------------
  

 Cite this work as:
 Gaussian 16, Revision B.01,
 M. J. Frisch, G. W. Trucks, H. B. Schlegel, G. E. Scuseria, 
 M. A. Robb, J. R. Cheeseman, G. Scalmani, V. Barone, 
 G. A. Petersson, H. Nakatsuji, X. Li, M. Caricato, A. V. Marenich, 
 J. Bloino, B. G. Janesko, R. Gomperts, B. Mennucci, H. P. Hratchian, 
 J. V. Ortiz, A. F. Izmaylov, J. L. Sonnenberg, D. Williams-Young, 
 F. Ding, F. Lipparini, F. Egidi, J. Goings, B. Peng, A. Petrone, 
 T. Henderson, D. Ranasinghe, V. G. Zakrzewski, J. Gao, N. Rega, 
 G. Zheng, W. Liang, M. Hada, M. Ehara, K. Toyota, R. Fukuda, 
 J. Hasegawa, M. Ishida, T. Nakajima, Y. Honda, O. Kitao, H. Nakai, 
 T. Vreven, K. Throssell, J. A. Montgomery, Jr., J. E. Peralta, 
 F. Ogliaro, M. J. Bearpark, J. J. Heyd, E. N. Brothers, K. N. Kudin, 
 V. N. Staroverov, T. A. Keith, R. Kobayashi, J. Normand, 
 K. Raghavachari, A. P. Rendell, J. C. Burant, S. S. Iyengar, 
 J. Tomasi, M. Cossi, J. M. Millam, M. Klene, C. Adamo, R. Cammi, 
 J. W. Ochterski, R. L. Martin, K. Morokuma, O. Farkas, 
 J. B. Foresman, and D. J. Fox, Gaussian, Inc., Wallingford CT, 2016.
 
 ******************************************
 Gaussian 16:  EM64L-G16RevB.01 20-Dec-2017
                15-Mar-2022 
 ******************************************
 %mem=10GB
 %nprocshared=4
 Will use up to    4 processors via shared memory.
 --------------------------------
 # opt b3lyp/6-311+g(d,p) scf=xqc
 --------------------------------
 1/18=20,19=15,26=3,38=1/1,3;
 2/9=110,12=2,17=6,18=5,40=1/2;
 3/5=4,6=6,7=111,11=2,25=1,30=1,71=1,74=-5/1,2,3;
 4//1;
 5/5=2,8=3,13=1,38=5/2,8;
 6/7=2,8=2,9=2,10=2,28=1/1;
 7//1,2,3,16;
 1/18=20,19=15,26=3/3(2);
 2/9=110/2;
 99//99;
 2/9=110/2;
 3/5=4,6=6,7=111,11=2,25=1,30=1,71=1,74=-5/1,2,3;
 4/5=5,16=3,69=1/1;
 5/5=2,8=3,13=1,38=5/2,8;
 7//1,2,3,16;
 1/18=20,19=15,26=3/3(-5);
 2/9=110/2;
 6/7=2,8=2,9=2,10=2,19=2,28=1/1;
 99/9=1/99;
 -------------------
 Title Card Required
 -------------------
 Symbolic Z-matrix:
 Charge =  0 Multiplicity = 1
 C                    -3.51175  -1.34188   0.36008 
 C                    -2.17937  -1.312    -0.07327 
 C                    -1.47148  -0.10254  -0.07934 
 C                    -2.09597   1.07702   0.34794 
 C                    -3.42835   1.04713   0.78128 
 C                    -4.13624  -0.16232   0.78735 
 C                    -4.28966  -2.67095   0.36675 
 C                    -3.66517  -3.85051  -0.06052 
 C                    -4.37307  -5.05997  -0.05445 
 C                    -5.70545  -5.08985   0.3789 
 C                    -6.32993  -3.91029   0.80618 
 C                    -5.62204  -2.70084   0.8001 
 H                    -1.70256  -2.21262  -0.3995 
 H                    -0.45418  -0.07973  -0.41021 
 H                    -1.55547   2.00046   0.3433 
 H                    -2.64787  -3.8277   -0.39139 
 H                    -3.89626  -5.96059  -0.38068 
 H                    -6.24594  -6.01329   0.38354 
 H                    -6.09885  -1.80021   1.12634 
 Cl                   -5.80956  -0.19985   1.33159 
 Cl                   -4.21264   2.52854   1.31789 
 Cl                   -8.00325  -3.94782   1.35042 
 

 GradGradGradGradGradGradGradGradGradGradGradGradGradGradGradGradGradGrad
 Berny optimization.
 Initialization pass.
                           ----------------------------
                           !    Initial Parameters    !
                           ! (Angstroms and Degrees)  !
 --------------------------                            --------------------------
 ! Name  Definition              Value          Derivative Info.                !
 --------------------------------------------------------------------------------
 ! R1    R(1,2)                  1.4014         estimate D2E/DX2                !
 ! R2    R(1,6)                  1.4014         estimate D2E/DX2                !
 ! R3    R(1,7)                  1.54           estimate D2E/DX2                !
 ! R4    R(2,3)                  1.4014         estimate D2E/DX2                !
 ! R5    R(2,13)                 1.07           estimate D2E/DX2                !
 ! R6    R(3,4)                  1.4014         estimate D2E/DX2                !
 ! R7    R(3,14)                 1.07           estimate D2E/DX2                !
 ! R8    R(4,5)                  1.4014         estimate D2E/DX2                !
 ! R9    R(4,15)                 1.07           estimate D2E/DX2                !
 ! R10   R(5,6)                  1.4014         estimate D2E/DX2                !
 ! R11   R(5,21)                 1.76           estimate D2E/DX2                !
 ! R12   R(6,20)                 1.76           estimate D2E/DX2                !
 ! R13   R(7,8)                  1.4014         estimate D2E/DX2                !
 ! R14   R(7,12)                 1.4014         estimate D2E/DX2                !
 ! R15   R(8,9)                  1.4014         estimate D2E/DX2                !
 ! R16   R(8,16)                 1.07           estimate D2E/DX2                !
 ! R17   R(9,10)                 1.4014         estimate D2E/DX2                !
 ! R18   R(9,17)                 1.07           estimate D2E/DX2                !
 ! R19   R(10,11)                1.4014         estimate D2E/DX2                !
 ! R20   R(10,18)                1.07           estimate D2E/DX2                !
 ! R21   R(11,12)                1.4014         estimate D2E/DX2                !
 ! R22   R(11,22)                1.76           estimate D2E/DX2                !
 ! R23   R(12,19)                1.07           estimate D2E/DX2                !
 ! A1    A(2,1,6)              120.0            estimate D2E/DX2                !
 ! A2    A(2,1,7)              120.0            estimate D2E/DX2                !
 ! A3    A(6,1,7)              120.0            estimate D2E/DX2                !
 ! A4    A(1,2,3)              120.0            estimate D2E/DX2                !
 ! A5    A(1,2,13)             120.0            estimate D2E/DX2                !
 ! A6    A(3,2,13)             120.0            estimate D2E/DX2                !
 ! A7    A(2,3,4)              120.0            estimate D2E/DX2                !
 ! A8    A(2,3,14)             120.0            estimate D2E/DX2                !
 ! A9    A(4,3,14)             120.0            estimate D2E/DX2                !
 ! A10   A(3,4,5)              120.0            estimate D2E/DX2                !
 ! A11   A(3,4,15)             120.0            estimate D2E/DX2                !
 ! A12   A(5,4,15)             120.0            estimate D2E/DX2                !
 ! A13   A(4,5,6)              120.0            estimate D2E/DX2                !
 ! A14   A(4,5,21)             120.0            estimate D2E/DX2                !
 ! A15   A(6,5,21)             120.0            estimate D2E/DX2                !
 ! A16   A(1,6,5)              120.0            estimate D2E/DX2                !
 ! A17   A(1,6,20)             120.0            estimate D2E/DX2                !
 ! A18   A(5,6,20)             120.0            estimate D2E/DX2                !
 ! A19   A(1,7,8)              120.0            estimate D2E/DX2                !
 ! A20   A(1,7,12)             120.0            estimate D2E/DX2                !
 ! A21   A(8,7,12)             120.0            estimate D2E/DX2                !
 ! A22   A(7,8,9)              120.0            estimate D2E/DX2                !
 ! A23   A(7,8,16)             120.0            estimate D2E/DX2                !
 ! A24   A(9,8,16)             120.0            estimate D2E/DX2                !
 ! A25   A(8,9,10)             120.0            estimate D2E/DX2                !
 ! A26   A(8,9,17)             120.0            estimate D2E/DX2                !
 ! A27   A(10,9,17)            120.0            estimate D2E/DX2                !
 ! A28   A(9,10,11)            120.0            estimate D2E/DX2                !
 ! A29   A(9,10,18)            120.0            estimate D2E/DX2                !
 ! A30   A(11,10,18)           120.0            estimate D2E/DX2                !
 ! A31   A(10,11,12)           120.0            estimate D2E/DX2                !
 ! A32   A(10,11,22)           120.0            estimate D2E/DX2                !
 ! A33   A(12,11,22)           120.0            estimate D2E/DX2                !
 ! A34   A(7,12,11)            120.0            estimate D2E/DX2                !
 ! A35   A(7,12,19)            120.0            estimate D2E/DX2                !
 ! A36   A(11,12,19)           120.0            estimate D2E/DX2                !
 ! D1    D(6,1,2,3)              0.0001         estimate D2E/DX2                !
 ! D2    D(6,1,2,13)           180.0            estimate D2E/DX2                !
 ! D3    D(7,1,2,3)           -180.0            estimate D2E/DX2                !
 ! D4    D(7,1,2,13)            -0.0001         estimate D2E/DX2                !
 ! D5    D(2,1,6,5)             -0.0001         estimate D2E/DX2                !
 ! D6    D(2,1,6,20)           180.0            estimate D2E/DX2                !
 ! D7    D(7,1,6,5)            180.0            estimate D2E/DX2                !
 ! D8    D(7,1,6,20)             0.0            estimate D2E/DX2                !
 ! D9    D(2,1,7,8)             -0.0001         estimate D2E/DX2                !
 ! D10   D(2,1,7,12)           179.9998         estimate D2E/DX2                !
 ! D11   D(6,1,7,8)            179.9999         estimate D2E/DX2                !
 ! D12   D(6,1,7,12)            -0.0002         estimate D2E/DX2                !
 ! D13   D(1,2,3,4)              0.0            estimate D2E/DX2                !
 ! D14   D(1,2,3,14)           180.0            estimate D2E/DX2                !
 ! D15   D(13,2,3,4)          -179.9999         estimate D2E/DX2                !
 ! D16   D(13,2,3,14)            0.0001         estimate D2E/DX2                !
 ! D17   D(2,3,4,5)             -0.0001         estimate D2E/DX2                !
 ! D18   D(2,3,4,15)           180.0            estimate D2E/DX2                !
 ! D19   D(14,3,4,5)           179.9999         estimate D2E/DX2                !
 ! D20   D(14,3,4,15)            0.0            estimate D2E/DX2                !
 ! D21   D(3,4,5,6)              0.0001         estimate D2E/DX2                !
 ! D22   D(3,4,5,21)          -179.9999         estimate D2E/DX2                !
 ! D23   D(15,4,5,6)          -180.0            estimate D2E/DX2                !
 ! D24   D(15,4,5,21)            0.0            estimate D2E/DX2                !
 ! D25   D(4,5,6,1)              0.0            estimate D2E/DX2                !
 ! D26   D(4,5,6,20)           179.9999         estimate D2E/DX2                !
 ! D27   D(21,5,6,1)           180.0            estimate D2E/DX2                !
 ! D28   D(21,5,6,20)           -0.0001         estimate D2E/DX2                !
 ! D29   D(1,7,8,9)            179.9999         estimate D2E/DX2                !
 ! D30   D(1,7,8,16)             0.0001         estimate D2E/DX2                !
 ! D31   D(12,7,8,9)             0.0001         estimate D2E/DX2                !
 ! D32   D(12,7,8,16)         -179.9998         estimate D2E/DX2                !
 ! D33   D(1,7,12,11)         -179.9999         estimate D2E/DX2                !
 ! D34   D(1,7,12,19)            0.0            estimate D2E/DX2                !
 ! D35   D(8,7,12,11)           -0.0001         estimate D2E/DX2                !
 ! D36   D(8,7,12,19)          179.9999         estimate D2E/DX2                !
 ! D37   D(7,8,9,10)             0.0            estimate D2E/DX2                !
 ! D38   D(7,8,9,17)           180.0            estimate D2E/DX2                !
 ! D39   D(16,8,9,10)          179.9998         estimate D2E/DX2                !
 ! D40   D(16,8,9,17)           -0.0002         estimate D2E/DX2                !
 ! D41   D(8,9,10,11)            0.0            estimate D2E/DX2                !
 ! D42   D(8,9,10,18)         -179.9999         estimate D2E/DX2                !
 ! D43   D(17,9,10,11)         180.0            estimate D2E/DX2                !
 ! D44   D(17,9,10,18)           0.0001         estimate D2E/DX2                !
 ! D45   D(9,10,11,12)           0.0            estimate D2E/DX2                !
 ! D46   D(9,10,11,22)        -179.9998         estimate D2E/DX2                !
 ! D47   D(18,10,11,12)        179.9999         estimate D2E/DX2                !
 ! D48   D(18,10,11,22)          0.0001         estimate D2E/DX2                !
 ! D49   D(10,11,12,7)           0.0            estimate D2E/DX2                !
 ! D50   D(10,11,12,19)       -179.9999         estimate D2E/DX2                !
 ! D51   D(22,11,12,7)         179.9999         estimate D2E/DX2                !
 ! D52   D(22,11,12,19)         -0.0001         estimate D2E/DX2                !
 --------------------------------------------------------------------------------
 Trust Radius=3.00D-01 FncErr=1.00D-07 GrdErr=1.00D-06 EigMax=2.50D+02 EigMin=1.00D-04
 Number of steps in this run=    121 maximum allowed number of steps=    132.
 GradGradGradGradGradGradGradGradGradGradGradGradGradGradGradGradGradGrad

                          Input orientation:                          
 ---------------------------------------------------------------------
 Center     Atomic      Atomic             Coordinates (Angstroms)
 Number     Number       Type             X           Y           Z
 ---------------------------------------------------------------------
      1          6           0       -3.511755   -1.341882    0.360081
      2          6           0       -2.179374   -1.311996   -0.073266
      3          6           0       -1.471480   -0.102545   -0.079338
      4          6           0       -2.095967    1.077020    0.347937
      5          6           0       -3.428349    1.047135    0.781281
      6          6           0       -4.136243   -0.162316    0.787354
      7          6           0       -4.289660   -2.670949    0.366755
      8          6           0       -3.665172   -3.850514   -0.060520
      9          6           0       -4.373065   -5.059965   -0.054446
     10          6           0       -5.705445   -5.089852    0.378904
     11          6           0       -6.329932   -3.910287    0.806179
     12          6           0       -5.622039   -2.700835    0.800105
     13          1           0       -1.702563   -2.212620   -0.399498
     14          1           0       -0.454177   -0.079726   -0.410207
     15          1           0       -1.555475    2.000463    0.343301
     16          1           0       -2.647870   -3.827695   -0.391390
     17          1           0       -3.896255   -5.960589   -0.380680
     18          1           0       -6.245937   -6.013295    0.383543
     19          1           0       -6.098849   -1.800212    1.126340
     20         17           0       -5.809563   -0.199849    1.331587
     21         17           0       -4.212636    2.528536    1.317887
     22         17           0       -8.003250   -3.947822    1.350422
 ---------------------------------------------------------------------
                    Distance matrix (angstroms):
                    1          2          3          4          5
     1  C    0.000000
     2  C    1.401400   0.000000
     3  C    2.427296   1.401400   0.000000
     4  C    2.802800   2.427296   1.401400   0.000000
     5  C    2.427296   2.802800   2.427296   1.401400   0.000000
     6  C    1.401400   2.427296   2.802800   2.427296   1.401400
     7  C    1.540000   2.548270   3.838989   4.342800   3.838989
     8  C    2.548270   2.941400   4.342800   5.187469   4.975106
     9  C    3.838989   4.342800   5.744200   6.558176   6.235992
    10  C    4.342800   5.187469   6.558176   7.145600   6.558176
    11  C    3.838989   4.975106   6.235992   6.558176   5.744200
    12  C    2.548270   3.813607   4.975106   5.187469   4.342800
    13  H    2.146700   1.070000   2.146700   3.396345   3.872800
    14  H    3.396345   2.146700   1.070000   2.146700   3.396345
    15  H    3.872800   3.396345   2.146700   1.070000   2.146700
    16  H    2.736837   2.578650   3.918930   4.990735   5.074276
    17  H    4.693509   4.965039   6.347206   7.300676   7.118798
    18  H    5.412800   6.232802   7.612271   8.215600   7.612271
    19  H    2.736837   4.127917   5.074276   4.990735   3.918930
    20  Cl   2.743718   4.048303   4.562800   4.048303   2.743718
    21  Cl   4.048303   4.562800   4.048303   2.743718   1.760000
    22  Cl   5.286324   6.549198   7.713260   7.819846   6.797295
                    6          7          8          9         10
     6  C    0.000000
     7  C    2.548270   0.000000
     8  C    3.813607   1.401400   0.000000
     9  C    4.975106   2.427296   1.401400   0.000000
    10  C    5.187469   2.802800   2.427296   1.401400   0.000000
    11  C    4.342800   2.427296   2.802800   2.427296   1.401400
    12  C    2.941400   1.401400   2.427296   2.802800   2.427296
    13  H    3.396345   2.736837   2.578650   3.918930   4.990735
    14  H    3.872800   4.693509   4.965039   6.347206   7.300676
    15  H    3.396345   5.412800   6.232802   7.612271   8.215600
    16  H    4.127917   2.146700   1.070000   2.146700   3.396345
    17  H    5.919617   3.396345   2.146700   1.070000   2.146700
    18  H    6.232802   3.872800   3.396345   2.146700   1.070000
    19  H    2.578650   2.146700   3.396345   3.872800   3.396345
    20  Cl   1.760000   3.057342   4.456874   5.254079   4.983028
    21  Cl   2.743718   5.286324   6.549198   7.713260   7.819846
    22  Cl   5.440665   4.048303   4.562800   4.048303   2.743718
                   11         12         13         14         15
    11  C    0.000000
    12  C    1.401400   0.000000
    13  H    5.074276   4.127917   0.000000
    14  H    7.118798   5.919617   2.471400   0.000000
    15  H    7.612271   6.232802   4.280590   2.471400   0.000000
    16  H    3.872800   3.396345   1.871400   4.342800   5.974992
    17  H    3.396345   3.872800   4.342800   6.814200   8.329571
    18  H    2.146700   3.396345   5.974992   8.329571   9.285600
    19  H    2.146700   1.070000   4.671787   6.097816   5.974992
    20  Cl   3.783409   2.563702   4.890333   5.632800   4.890332
    21  Cl   6.797295   5.440665   5.632800   4.890332   2.879094
    22  Cl   1.760000   2.743718   6.765486   8.663168   8.830073
                   16         17         18         19         20
    16  H    0.000000
    17  H    2.471400   0.000000
    18  H    4.280590   2.471400   0.000000
    19  H    4.280590   4.942800   4.280590   0.000000
    20  Cl   5.111382   6.307038   5.906383   1.639199   0.000000
    21  Cl   6.765486   8.663168   8.830073   4.725732   3.161400
    22  Cl   5.632800   4.890332   2.879094   2.879094   4.342800
                   21         22
    21  Cl   0.000000
    22  Cl   7.504200   0.000000
 Stoichiometry    C12H7Cl3
 Framework group  C1[X(C12H7Cl3)]
 Deg. of freedom    60
 Full point group                 C1      NOp   1
 Largest Abelian subgroup         C1      NOp   1
 Largest concise Abelian subgroup C1      NOp   1
                         Standard orientation:                         
 ---------------------------------------------------------------------
 Center     Atomic      Atomic             Coordinates (Angstroms)
 Number     Number       Type             X           Y           Z
 ---------------------------------------------------------------------
      1          6           0       -0.673195    1.042463   -0.000000
      2          6           0       -1.342247    2.273841    0.000002
      3          6           0       -2.743178    2.310114    0.000004
      4          6           0       -3.475056    1.115009    0.000005
      5          6           0       -2.806004   -0.116369    0.000001
      6          6           0       -1.405074   -0.152642   -0.000001
      7          6           0        0.866289    1.002603   -0.000002
      8          6           0        1.598167    2.197708   -0.000003
      9          6           0        2.999098    2.161435   -0.000004
     10          6           0        3.668150    0.930057   -0.000002
     11          6           0        2.936271   -0.265048   -0.000001
     12          6           0        1.535341   -0.228775   -0.000000
     13          1           0       -0.783442    3.186330    0.000003
     14          1           0       -3.254014    3.250298    0.000006
     15          1           0       -4.544698    1.142704    0.000008
     16          1           0        1.087331    3.137892   -0.000002
     17          1           0        3.557903    3.073924   -0.000005
     18          1           0        4.737791    0.902362   -0.000001
     19          1           0        0.976535   -1.141264    0.000002
     20         17           0       -0.564820   -1.699113   -0.000005
     21         17           0       -3.725161   -1.617286   -0.000001
     22         17           0        3.776525   -1.811520    0.000006
 ---------------------------------------------------------------------
 Rotational constants (GHZ):           0.7871420           0.2679622           0.1999085
 Standard basis: 6-311+G(d,p) (5D, 7F)
 There are   411 symmetry adapted cartesian basis functions of A   symmetry.
 There are   396 symmetry adapted basis functions of A   symmetry.
   396 basis functions,   647 primitive gaussians,   411 cartesian basis functions
    65 alpha electrons       65 beta electrons
       nuclear repulsion energy      1213.8569839911 Hartrees.
 NAtoms=   22 NActive=   22 NUniq=   22 SFac= 1.00D+00 NAtFMM=   60 NAOKFM=F Big=F
 Integral buffers will be    131072 words long.
 Raffenetti 2 integral format.
 Two-electron integral symmetry is turned on.
 One-electron integrals computed using PRISM.
 NBasis=   396 RedAO= T EigKep=  1.65D-06  NBF=   396
 NBsUse=   391 1.00D-06 EigRej=  8.49D-07 NBFU=   391
 ExpMin= 4.38D-02 ExpMax= 1.06D+05 ExpMxC= 3.62D+03 IAcc=3 IRadAn=         5 AccDes= 0.00D+00
 Harris functional with IExCor=  402 and IRadAn=       5 diagonalized for initial guess.
 HarFok:  IExCor=  402 AccDes= 0.00D+00 IRadAn=         5 IDoV= 1 UseB2=F ITyADJ=14
 ICtDFT=  3500011 ScaDFX=  1.000000  1.000000  1.000000  1.000000
 FoFCou: FMM=F IPFlag=           0 FMFlag=      100000 FMFlg1=           0
         NFxFlg=           0 DoJE=T BraDBF=F KetDBF=T FulRan=T
         wScrn=  0.000000 ICntrl=       500 IOpCl=  0 I1Cent=   200000004 NGrid=           0
         NMat0=    1 NMatS0=      1 NMatT0=    0 NMatD0=    1 NMtDS0=    0 NMtDT0=    0
 Petite list used in FoFCou.
 Requested convergence on RMS density matrix=1.00D-08 within  32 cycles.
 Requested convergence on MAX density matrix=1.00D-06.
 Requested convergence on             energy=1.00D-06.
 No special actions if energy rises.
 SCF Done:  E(RB3LYP) =  -1842.21993632     A.U. after   16 cycles
            NFock= 16  Conv=0.79D-08     -V/T= 2.0028
 QCSCF skips out because SCF is already converged.

 **********************************************************************

            Population analysis using the SCF Density.

 **********************************************************************

 Orbital symmetries:
       Occupied  (A) (A) (A) (A) (A) (A) (A) (A) (A) (A) (A) (A)
                 (A) (A) (A) (A) (A) (A) (A) (A) (A) (A) (A) (A)
                 (A) (A) (A) (A) (A) (A) (A) (A) (A) (A) (A) (A)
                 (A) (A) (A) (A) (A) (A) (A) (A) (A) (A) (A) (A)
                 (A) (A) (A) (A) (A) (A) (A) (A) (A) (A) (A) (A)
                 (A) (A) (A) (A) (A)
       Virtual   (A) (A) (A) (A) (A) (A) (A) (A) (A) (A) (A) (A)
                 (A) (A) (A) (A) (A) (A) (A) (A) (A) (A) (A) (A)
                 (A) (A) (A) (A) (A) (A) (A) (A) (A) (A) (A) (A)
                 (A) (A) (A) (A) (A) (A) (A) (A) (A) (A) (A) (A)
                 (A) (A) (A) (A) (A) (A) (A) (A) (A) (A) (A) (A)
                 (A) (A) (A) (A) (A) (A) (A) (A) (A) (A) (A) (A)
                 (A) (A) (A) (A) (A) (A) (A) (A) (A) (A) (A) (A)
                 (A) (A) (A) (A) (A) (A) (A) (A) (A) (A) (A) (A)
                 (A) (A) (A) (A) (A) (A) (A) (A) (A) (A) (A) (A)
                 (A) (A) (A) (A) (A) (A) (A) (A) (A) (A) (A) (A)
                 (A) (A) (A) (A) (A) (A) (A) (A) (A) (A) (A) (A)
                 (A) (A) (A) (A) (A) (A) (A) (A) (A) (A) (A) (A)
                 (A) (A) (A) (A) (A) (A) (A) (A) (A) (A) (A) (A)
                 (A) (A) (A) (A) (A) (A) (A) (A) (A) (A) (A) (A)
                 (A) (A) (A) (A) (A) (A) (A) (A) (A) (A) (A) (A)
                 (A) (A) (A) (A) (A) (A) (A) (A) (A) (A) (A) (A)
                 (A) (A) (A) (A) (A) (A) (A) (A) (A) (A) (A) (A)
                 (A) (A) (A) (A) (A) (A) (A) (A) (A) (A) (A) (A)
                 (A) (A) (A) (A) (A) (A) (A) (A) (A) (A) (A) (A)
                 (A) (A) (A) (A) (A) (A) (A) (A) (A) (A) (A) (A)
                 (A) (A) (A) (A) (A) (A) (A) (A) (A) (A) (A) (A)
                 (A) (A) (A) (A) (A) (A) (A) (A) (A) (A) (A) (A)
                 (A) (A) (A) (A) (A) (A) (A) (A) (A) (A) (A) (A)
                 (A) (A) (A) (A) (A) (A) (A) (A) (A) (A) (A) (A)
                 (A) (A) (A) (A) (A) (A) (A) (A) (A) (A) (A) (A)
                 (A) (A) (A) (A) (A) (A) (A) (A) (A) (A) (A) (A)
                 (A) (A) (A) (A) (A) (A) (A) (A) (A) (A) (A) (A)
                 (A) (A)
 The electronic state is 1-A.
 Alpha  occ. eigenvalues -- -101.57173-101.56941-101.55663 -10.26787 -10.26734
 Alpha  occ. eigenvalues --  -10.24378 -10.22767 -10.21249 -10.20994 -10.20779
 Alpha  occ. eigenvalues --  -10.20564 -10.19512 -10.19396 -10.19282 -10.17304
 Alpha  occ. eigenvalues --   -9.48968  -9.48372  -9.47111  -7.25382  -7.24860
 Alpha  occ. eigenvalues --   -7.24423  -7.24383  -7.23855  -7.23795  -7.23566
 Alpha  occ. eigenvalues --   -7.22597  -7.22564  -0.93850  -0.89747  -0.88054
 Alpha  occ. eigenvalues --   -0.86395  -0.84356  -0.79038  -0.76129  -0.75407
 Alpha  occ. eigenvalues --   -0.73938  -0.65367  -0.63766  -0.62472  -0.59548
 Alpha  occ. eigenvalues --   -0.54663  -0.53623  -0.51430  -0.49119  -0.48406
 Alpha  occ. eigenvalues --   -0.46979  -0.45783  -0.44945  -0.44705  -0.44007
 Alpha  occ. eigenvalues --   -0.40435  -0.40268  -0.39992  -0.38946  -0.37347
 Alpha  occ. eigenvalues --   -0.36693  -0.36108  -0.34033  -0.33254  -0.31961
 Alpha  occ. eigenvalues --   -0.29842  -0.28120  -0.27011  -0.26031  -0.24817
 Alpha virt. eigenvalues --   -0.06713  -0.04925  -0.02840  -0.02835  -0.00586
 Alpha virt. eigenvalues --   -0.00445   0.00542   0.01198   0.01716   0.01964
 Alpha virt. eigenvalues --    0.02723   0.03858   0.04252   0.04591   0.05338
 Alpha virt. eigenvalues --    0.05955   0.06081   0.07161   0.07243   0.07952
 Alpha virt. eigenvalues --    0.08385   0.08712   0.08862   0.09297   0.09336
 Alpha virt. eigenvalues --    0.10408   0.11338   0.11352   0.12049   0.12435
 Alpha virt. eigenvalues --    0.12794   0.13304   0.13766   0.13773   0.14267
 Alpha virt. eigenvalues --    0.14665   0.15114   0.15711   0.16196   0.16441
 Alpha virt. eigenvalues --    0.16928   0.17372   0.17601   0.18031   0.18524
 Alpha virt. eigenvalues --    0.18679   0.18708   0.19018   0.19943   0.20074
 Alpha virt. eigenvalues --    0.21015   0.21068   0.21549   0.21855   0.21944
 Alpha virt. eigenvalues --    0.22441   0.22668   0.23037   0.23898   0.24342
 Alpha virt. eigenvalues --    0.24721   0.25332   0.25657   0.25945   0.27377
 Alpha virt. eigenvalues --    0.27547   0.28270   0.28738   0.29409   0.29716
 Alpha virt. eigenvalues --    0.30840   0.31650   0.32062   0.32718   0.33681
 Alpha virt. eigenvalues --    0.34145   0.34686   0.36154   0.36423   0.38992
 Alpha virt. eigenvalues --    0.41286   0.41792   0.43294   0.43780   0.44850
 Alpha virt. eigenvalues --    0.45433   0.46125   0.46562   0.48183   0.48265
 Alpha virt. eigenvalues --    0.49786   0.51338   0.51516   0.51528   0.52813
 Alpha virt. eigenvalues --    0.53126   0.53774   0.54360   0.55274   0.55917
 Alpha virt. eigenvalues --    0.56535   0.57592   0.57667   0.58384   0.58912
 Alpha virt. eigenvalues --    0.59499   0.61347   0.61419   0.61802   0.62882
 Alpha virt. eigenvalues --    0.64017   0.64701   0.65571   0.65702   0.67411
 Alpha virt. eigenvalues --    0.68248   0.68666   0.68817   0.69044   0.70252
 Alpha virt. eigenvalues --    0.72908   0.75148   0.77172   0.77690   0.79407
 Alpha virt. eigenvalues --    0.80248   0.81053   0.82542   0.82712   0.82840
 Alpha virt. eigenvalues --    0.83766   0.85266   0.85337   0.85978   0.86332
 Alpha virt. eigenvalues --    0.86596   0.87334   0.88025   0.88345   0.89596
 Alpha virt. eigenvalues --    0.90094   0.90314   0.90671   0.90840   0.92858
 Alpha virt. eigenvalues --    0.94335   0.95246   0.96259   0.96327   0.96914
 Alpha virt. eigenvalues --    0.96951   0.97821   0.98790   1.00063   1.00133
 Alpha virt. eigenvalues --    1.02813   1.02828   1.05127   1.05639   1.08303
 Alpha virt. eigenvalues --    1.08575   1.10200   1.10384   1.12396   1.12454
 Alpha virt. eigenvalues --    1.14238   1.18605   1.23170   1.25334   1.25438
 Alpha virt. eigenvalues --    1.26903   1.27477   1.28272   1.29990   1.32712
 Alpha virt. eigenvalues --    1.33708   1.36723   1.37776   1.44647   1.46875
 Alpha virt. eigenvalues --    1.47781   1.49097   1.50044   1.50935   1.54161
 Alpha virt. eigenvalues --    1.55221   1.56224   1.56290   1.58100   1.59014
 Alpha virt. eigenvalues --    1.61765   1.64471   1.65399   1.66223   1.67223
 Alpha virt. eigenvalues --    1.69022   1.72623   1.72981   1.75311   1.75770
 Alpha virt. eigenvalues --    1.78852   1.82105   1.83608   1.83863   1.86070
 Alpha virt. eigenvalues --    1.86599   1.87592   1.90183   1.90778   1.91071
 Alpha virt. eigenvalues --    1.92693   1.93579   1.94610   1.96994   1.98466
 Alpha virt. eigenvalues --    1.99125   1.99820   2.00636   2.02121   2.05763
 Alpha virt. eigenvalues --    2.06790   2.10242   2.14138   2.18149   2.19656
 Alpha virt. eigenvalues --    2.23596   2.25189   2.25339   2.26278   2.28905
 Alpha virt. eigenvalues --    2.29594   2.31081   2.34299   2.34692   2.35969
 Alpha virt. eigenvalues --    2.37750   2.39811   2.41575   2.43423   2.44685
 Alpha virt. eigenvalues --    2.48406   2.51655   2.52446   2.55152   2.56333
 Alpha virt. eigenvalues --    2.61261   2.61751   2.64234   2.64383   2.65823
 Alpha virt. eigenvalues --    2.68258   2.69724   2.71383   2.73371   2.73848
 Alpha virt. eigenvalues --    2.73911   2.74992   2.75121   2.76198   2.77497
 Alpha virt. eigenvalues --    2.79103   2.81239   2.82059   2.82851   2.84299
 Alpha virt. eigenvalues --    2.86098   2.86264   2.91772   2.93714   2.96700
 Alpha virt. eigenvalues --    3.05619   3.07120   3.09336   3.12622   3.14817
 Alpha virt. eigenvalues --    3.18542   3.20182   3.22773   3.24038   3.33210
 Alpha virt. eigenvalues --    3.34877   3.37841   3.39136   3.50717   3.52983
 Alpha virt. eigenvalues --    3.57936   3.61060   3.69780   3.71286   3.80653
 Alpha virt. eigenvalues --    3.95429   4.03359   4.05614   4.10222   4.16029
 Alpha virt. eigenvalues --    4.20544   4.47438   4.80039   4.83965   9.77590
 Alpha virt. eigenvalues --    9.78518   9.88475  23.42765  23.60398  23.86349
 Alpha virt. eigenvalues --   23.88238  23.89456  23.94482  23.98341  24.02546
 Alpha virt. eigenvalues --   24.03917  24.06964  24.12275  24.15068  25.78498
 Alpha virt. eigenvalues --   25.82744  25.88724  26.14149  26.15560  26.48860
 Alpha virt. eigenvalues --   26.61826  26.76691  26.84174 215.76973 215.77722
 Alpha virt. eigenvalues --  215.91000
          Condensed to atoms (all electrons):
               1          2          3          4          5          6
     1  C   12.121943  -3.124275  -1.086463  -0.883999  -1.465820   1.156694
     2  C   -3.124275  15.560806  -2.170815   2.019973  -1.383631  -2.957448
     3  C   -1.086463  -2.170815  11.069477   0.821309  -1.064567   0.923999
     4  C   -0.883999   2.019973   0.821309  13.584182  -4.810995  -4.823678
     5  C   -1.465820  -1.383631  -1.064567  -4.810995  16.429593   0.234666
     6  C    1.156694  -2.957448   0.923999  -4.823678   0.234666  14.891682
     7  C    4.020924  -1.917857  -1.007389  -0.361232  -2.211963  -0.885729
     8  C   -1.582902   4.179729  -1.685895   0.999645  -1.554999  -3.262911
     9  C   -0.427410  -0.804079   0.028569  -0.090700  -0.447955  -0.203242
    10  C   -0.678825   0.403858  -0.135418   0.116243   0.312895   0.045736
    11  C   -1.536925  -1.102441  -0.157254   0.080372   1.401887   0.356946
    12  C   -0.147200  -3.642396   0.292558  -0.632515   0.664110   2.388809
    13  H    0.032643   0.362681  -0.148251  -0.009321  -0.013293  -0.032041
    14  H    0.024523  -0.004620   0.354322   0.017165  -0.042155  -0.010653
    15  H    0.028463  -0.020365  -0.070556   0.357006   0.013598   0.042780
    16  H    0.060881  -0.017435   0.020224  -0.004505   0.007555   0.035474
    17  H   -0.004109   0.007712  -0.000456   0.000271   0.000098   0.001162
    18  H    0.008449   0.002963   0.000399  -0.000037  -0.000335  -0.001297
    19  H   -0.050845   0.000539  -0.007094  -0.002359   0.058530   0.152178
    20  Cl   0.113232   0.852078   0.155777   0.697735  -0.145919  -2.086975
    21  Cl  -0.454804  -0.085481   0.225804  -0.524739  -0.377744   0.777418
    22  Cl  -0.173627  -0.094069  -0.006463  -0.005335  -0.015568   0.020519
               7          8          9         10         11         12
     1  C    4.020924  -1.582902  -0.427410  -0.678825  -1.536925  -0.147200
     2  C   -1.917857   4.179729  -0.804079   0.403858  -1.102441  -3.642396
     3  C   -1.007389  -1.685895   0.028569  -0.135418  -0.157254   0.292558
     4  C   -0.361232   0.999645  -0.090700   0.116243   0.080372  -0.632515
     5  C   -2.211963  -1.554999  -0.447955   0.312895   1.401887   0.664110
     6  C   -0.885729  -3.262911  -0.203242   0.045736   0.356946   2.388809
     7  C   14.356364  -2.396017  -0.239718  -2.305484  -3.340006   2.336260
     8  C   -2.396017  17.313112  -1.564926   1.149385  -1.257929  -4.978762
     9  C   -0.239718  -1.564926  10.460843   1.030669  -2.160592   0.559466
    10  C   -2.305484   1.149385   1.030669  14.579274  -2.817091  -5.758728
    11  C   -3.340006  -1.257929  -2.160592  -2.817091  15.797344   1.309000
    12  C    2.336260  -4.978762   0.559466  -5.758728   1.309000  15.302336
    13  H    0.040802   0.058095   0.030394  -0.001480  -0.002256   0.006278
    14  H   -0.002133   0.013393   0.000576   0.000226  -0.000148  -0.001376
    15  H    0.001721   0.001096   0.000267  -0.000019  -0.000140   0.000526
    16  H    0.072043   0.270125  -0.137197  -0.013861   0.001275   0.024949
    17  H    0.028500  -0.022700   0.366321   0.019969  -0.029678  -0.018229
    18  H    0.044600  -0.028586  -0.058774   0.308662   0.007488   0.069369
    19  H   -0.260278  -0.053387  -0.025375   0.137564   0.120619   0.386309
    20  Cl   0.674620   0.550173  -0.007385   0.034889  -0.719532  -1.688646
    21  Cl  -0.213376  -0.124174  -0.005890  -0.004723   0.035870   0.133471
    22  Cl  -0.364990   0.094686   0.179640  -0.164943  -0.885535   0.675995
              13         14         15         16         17         18
     1  C    0.032643   0.024523   0.028463   0.060881  -0.004109   0.008449
     2  C    0.362681  -0.004620  -0.020365  -0.017435   0.007712   0.002963
     3  C   -0.148251   0.354322  -0.070556   0.020224  -0.000456   0.000399
     4  C   -0.009321   0.017165   0.357006  -0.004505   0.000271  -0.000037
     5  C   -0.013293  -0.042155   0.013598   0.007555   0.000098  -0.000335
     6  C   -0.032041  -0.010653   0.042780   0.035474   0.001162  -0.001297
     7  C    0.040802  -0.002133   0.001721   0.072043   0.028500   0.044600
     8  C    0.058095   0.013393   0.001096   0.270125  -0.022700  -0.028586
     9  C    0.030394   0.000576   0.000267  -0.137197   0.366321  -0.058774
    10  C   -0.001480   0.000226  -0.000019  -0.013861   0.019969   0.308662
    11  C   -0.002256  -0.000148  -0.000140   0.001275  -0.029678   0.007488
    12  C    0.006278  -0.001376   0.000526   0.024949  -0.018229   0.069369
    13  H    0.551839  -0.006611  -0.000247   0.001962  -0.000021  -0.000001
    14  H   -0.006611   0.526798  -0.007358  -0.000004   0.000000  -0.000000
    15  H   -0.000247  -0.007358   0.507997  -0.000001  -0.000000   0.000000
    16  H    0.001962  -0.000004  -0.000001   0.568380  -0.007045  -0.000241
    17  H   -0.000021   0.000000  -0.000000  -0.007045   0.533444  -0.007633
    18  H   -0.000001  -0.000000   0.000000  -0.000241  -0.007633   0.519219
    19  H   -0.000104  -0.000000   0.000001  -0.000104   0.000118  -0.000585
    20  Cl  -0.000765   0.000840   0.000672  -0.000512  -0.000130   0.000504
    21  Cl   0.000592  -0.000467  -0.006262   0.000071  -0.000001   0.000001
    22  Cl   0.000074  -0.000000   0.000001   0.000189  -0.000080  -0.006420
              19         20         21         22
     1  C   -0.050845   0.113232  -0.454804  -0.173627
     2  C    0.000539   0.852078  -0.085481  -0.094069
     3  C   -0.007094   0.155777   0.225804  -0.006463
     4  C   -0.002359   0.697735  -0.524739  -0.005335
     5  C    0.058530  -0.145919  -0.377744  -0.015568
     6  C    0.152178  -2.086975   0.777418   0.020519
     7  C   -0.260278   0.674620  -0.213376  -0.364990
     8  C   -0.053387   0.550173  -0.124174   0.094686
     9  C   -0.025375  -0.007385  -0.005890   0.179640
    10  C    0.137564   0.034889  -0.004723  -0.164943
    11  C    0.120619  -0.719532   0.035870  -0.885535
    12  C    0.386309  -1.688646   0.133471   0.675995
    13  H   -0.000104  -0.000765   0.000592   0.000074
    14  H   -0.000000   0.000840  -0.000467  -0.000000
    15  H    0.000001   0.000672  -0.006262   0.000001
    16  H   -0.000104  -0.000512   0.000071   0.000189
    17  H    0.000118  -0.000130  -0.000001  -0.000080
    18  H   -0.000585   0.000504   0.000001  -0.006420
    19  H    0.683782  -0.256711   0.005890  -0.031782
    20  Cl  -0.256711  18.429175  -0.247614  -0.063487
    21  Cl   0.005890  -0.247614  17.339603   0.000999
    22  Cl  -0.031782  -0.063487   0.000999  17.451450
 Mulliken charges:
               1
     1  C    0.049452
     2  C   -0.065428
     3  C   -0.351816
     4  C   -0.544487
     5  C    0.412010
     6  C   -0.764092
     7  C   -0.069662
     8  C   -0.116249
     9  C   -0.483503
    10  C   -0.258801
    11  C    0.898726
    12  C   -1.281584
    13  H    0.129032
    14  H    0.137682
    15  H    0.150820
    16  H    0.117776
    17  H    0.132488
    18  H    0.142254
    19  H    0.143094
    20  Cl   0.707982
    21  Cl   0.525556
    22  Cl   0.388747
 Sum of Mulliken charges =  -0.00000
 Mulliken charges with hydrogens summed into heavy atoms:
               1
     1  C    0.049452
     2  C    0.063605
     3  C   -0.214134
     4  C   -0.393666
     5  C    0.412010
     6  C   -0.764092
     7  C   -0.069662
     8  C    0.001527
     9  C   -0.351015
    10  C   -0.116547
    11  C    0.898726
    12  C   -1.138490
    20  Cl   0.707982
    21  Cl   0.525556
    22  Cl   0.388747
 Electronic spatial extent (au):  <R**2>=           4885.7210
 Charge=             -0.0000 electrons
 Dipole moment (field-independent basis, Debye):
    X=             -1.0176    Y=              3.6885    Z=              0.0000  Tot=              3.8263
 Quadrupole moment (field-independent basis, Debye-Ang):
   XX=           -103.9801   YY=            -98.7116   ZZ=           -112.6764
   XY=             -0.6658   XZ=             -0.0000   YZ=              0.0000
 Traceless Quadrupole moment (field-independent basis, Debye-Ang):
   XX=              1.1426   YY=              6.4111   ZZ=             -7.5537
   XY=             -0.6658   XZ=             -0.0000   YZ=              0.0000
 Octapole moment (field-independent basis, Debye-Ang**2):
  XXX=            -16.6274  YYY=              4.5949  ZZZ=              0.0000  XYY=             -4.4097
  XXY=             36.2730  XXZ=              0.0001  XZZ=             -2.6475  YZZ=            -15.6721
  YYZ=              0.0000  XYZ=             -0.0001
 Hexadecapole moment (field-independent basis, Debye-Ang**3):
 XXXX=          -4566.7903 YYYY=          -1580.2143 ZZZZ=           -132.8623 XXXY=             18.6186
 XXXZ=             -0.0004 YYYX=             -6.0361 YYYZ=              0.0001 ZZZX=              0.0002
 ZZZY=              0.0000 XXYY=          -1004.9332 XXZZ=           -863.0445 YYZZ=           -334.4504
 XXYZ=              0.0001 YYXZ=             -0.0001 ZZXY=              0.3557
 N-N= 1.213856983991D+03 E-N=-6.779822465683D+03  KE= 1.837152437368D+03
 Calling FoFJK, ICntrl=      2127 FMM=F ISym2X=0 I1Cent= 0 IOpClX= 0 NMat=1 NMatS=1 NMatT=0.
 ***** Axes restored to original set *****
 -------------------------------------------------------------------
 Center     Atomic                   Forces (Hartrees/Bohr)
 Number     Number              X              Y              Z
 -------------------------------------------------------------------
      1        6          -0.019802368   -0.032564224    0.000408030
      2        6          -0.001157887    0.023963610    0.004882164
      3        6          -0.019730763   -0.004356037    0.005682407
      4        6          -0.006513773   -0.011883890   -0.000086144
      5        6           0.001083814    0.001566837   -0.000062751
      6        6           0.004717010    0.001797402   -0.001216415
      7        6           0.013517974    0.020942403   -0.000520259
      8        6          -0.015302212   -0.008337852    0.003475555
      9        6          -0.005485423    0.020569693    0.005670328
     10        6           0.000331837    0.007469079    0.001293457
     11        6           0.022765218   -0.003645875   -0.008184728
     12        6          -0.009668790   -0.052711591   -0.006714166
     13        1           0.004141436   -0.004228874   -0.002158695
     14        1           0.008818215    0.001109451   -0.002696826
     15        1           0.002679065    0.008399344    0.000694851
     16        1           0.006424263   -0.003529101   -0.002779426
     17        1           0.003510578   -0.008252619   -0.002706466
     18        1          -0.004931530   -0.008321548    0.000061811
     19        1          -0.003883283   -0.048056900   -0.007745917
     20       17           0.010278062    0.102610667    0.015884601
     21       17           0.006178079   -0.002910709   -0.002582009
     22       17           0.002030476    0.000370735   -0.000599403
 -------------------------------------------------------------------
 Cartesian Forces:  Max     0.102610667 RMS     0.018040022

 GradGradGradGradGradGradGradGradGradGradGradGradGradGradGradGradGradGrad
 Berny optimization.
 FormGI is forming the generalized inverse of G from B-inverse, IUseBI=4.
 Internal  Forces:  Max     0.276341166 RMS     0.050236323
 Search for a local minimum.
 Step number   1 out of a maximum of  121
 All quantities printed in internal units (Hartrees-Bohrs-Radians)
 Mixed Optimization -- RFO/linear search
 Second derivative matrix not updated -- first step.
 ITU=  0
     Eigenvalues ---    0.00237   0.01506   0.01506   0.02070   0.02070
     Eigenvalues ---    0.02070   0.02070   0.02070   0.02070   0.02070
     Eigenvalues ---    0.02070   0.02070   0.02070   0.02070   0.02070
     Eigenvalues ---    0.02070   0.02070   0.02070   0.02070   0.16000
     Eigenvalues ---    0.16000   0.16000   0.16000   0.16000   0.16000
     Eigenvalues ---    0.16000   0.22000   0.22085   0.23478   0.23478
     Eigenvalues ---    0.23493   0.24913   0.25000   0.25000   0.25000
     Eigenvalues ---    0.25000   0.25000   0.28519   0.29539   0.29539
     Eigenvalues ---    0.29539   0.37230   0.37230   0.37230   0.37230
     Eigenvalues ---    0.37230   0.37230   0.37230   0.41364   0.41535
     Eigenvalues ---    0.41554   0.41554   0.45389   0.45389   0.45389
     Eigenvalues ---    0.45389   0.45389   0.45389   0.45389   0.45389
 RFO step:  Lambda=-4.14283807D-01 EMin= 2.36824243D-03
 Linear search not attempted -- first point.
 Maximum step size (   0.300) exceeded in Quadratic search.
    -- Step size scaled by   0.383
 Iteration  1 RMS(Cart)=  0.19978490 RMS(Int)=  0.00996961
 Iteration  2 RMS(Cart)=  0.03622449 RMS(Int)=  0.00030480
 Iteration  3 RMS(Cart)=  0.00057339 RMS(Int)=  0.00004579
 Iteration  4 RMS(Cart)=  0.00000018 RMS(Int)=  0.00004579
 Variable       Old X    -DE/DX   Delta X   Delta X   Delta X     New X
                                 (Linear)    (Quad)   (Total)
    R1        2.64826   0.01854   0.00000   0.00869   0.00879   2.65705
    R2        2.64826   0.12142   0.00000   0.05476   0.05484   2.70310
    R3        2.91018   0.06728   0.00000   0.03679   0.03679   2.94697
    R4        2.64826  -0.02279   0.00000  -0.01079  -0.01076   2.63750
    R5        2.02201   0.00606   0.00000   0.00295   0.00295   2.02496
    R6        2.64826  -0.04196   0.00000  -0.01975  -0.01983   2.62843
    R7        2.02201   0.00924   0.00000   0.00449   0.00449   2.02650
    R8        2.64826  -0.03140   0.00000  -0.01436  -0.01446   2.63380
    R9        2.02201   0.00860   0.00000   0.00418   0.00418   2.02619
   R10        2.64826   0.01204   0.00000   0.00605   0.00602   2.65429
   R11        3.32592  -0.00599   0.00000  -0.00323  -0.00323   3.32269
   R12        3.32592  -0.00705   0.00000  -0.00380  -0.00380   3.32212
   R13        2.64826   0.01752   0.00000   0.00794   0.00798   2.65624
   R14        2.64826   0.01548   0.00000   0.00715   0.00719   2.65545
   R15        2.64826  -0.01210   0.00000  -0.00544  -0.00544   2.64282
   R16        2.02201   0.00689   0.00000   0.00335   0.00335   2.02536
   R17        2.64826  -0.02633   0.00000  -0.01193  -0.01197   2.63630
   R18        2.02201   0.00934   0.00000   0.00454   0.00454   2.02655
   R19        2.64826  -0.02560   0.00000  -0.01149  -0.01154   2.63673
   R20        2.02201   0.00967   0.00000   0.00470   0.00470   2.02671
   R21        2.64826  -0.00420   0.00000  -0.00174  -0.00174   2.64652
   R22        3.32592  -0.00212   0.00000  -0.00114  -0.00114   3.32477
   R23        2.02201  -0.04108   0.00000  -0.01998  -0.01998   2.00203
    A1        2.09440  -0.07497   0.00000  -0.04099  -0.04080   2.05360
    A2        2.09440  -0.20137   0.00000  -0.11704  -0.11714   1.97726
    A3        2.09440   0.27634   0.00000   0.15803   0.15794   2.25233
    A4        2.09440   0.05783   0.00000   0.03436   0.03448   2.12888
    A5        2.09440  -0.02718   0.00000  -0.01603  -0.01609   2.07831
    A6        2.09440  -0.03064   0.00000  -0.01833  -0.01839   2.07600
    A7        2.09440   0.00350   0.00000  -0.00090  -0.00096   2.09344
    A8        2.09440  -0.00081   0.00000   0.00107   0.00110   2.09550
    A9        2.09440  -0.00269   0.00000  -0.00018  -0.00015   2.09425
   A10        2.09440  -0.00776   0.00000  -0.00738  -0.00756   2.08683
   A11        2.09440   0.00597   0.00000   0.00508   0.00517   2.09957
   A12        2.09440   0.00179   0.00000   0.00230   0.00239   2.09679
   A13        2.09440   0.04042   0.00000   0.02337   0.02325   2.11764
   A14        2.09440  -0.02715   0.00000  -0.01568  -0.01562   2.07877
   A15        2.09440  -0.01327   0.00000  -0.00769  -0.00763   2.08677
   A16        2.09440  -0.01901   0.00000  -0.00847  -0.00841   2.08598
   A17        2.09440   0.18262   0.00000   0.10392   0.10389   2.19828
   A18        2.09440  -0.16361   0.00000  -0.09545  -0.09548   1.99892
   A19        2.09440  -0.13054   0.00000  -0.07544  -0.07549   2.01891
   A20        2.09440   0.19087   0.00000   0.10963   0.10959   2.20398
   A21        2.09440  -0.06033   0.00000  -0.03419  -0.03410   2.06029
   A22        2.09440   0.03683   0.00000   0.02218   0.02222   2.11662
   A23        2.09440  -0.01464   0.00000  -0.00858  -0.00860   2.08580
   A24        2.09440  -0.02219   0.00000  -0.01361  -0.01363   2.08077
   A25        2.09440   0.00368   0.00000   0.00144   0.00139   2.09579
   A26        2.09440  -0.00106   0.00000  -0.00020  -0.00018   2.09422
   A27        2.09440  -0.00262   0.00000  -0.00124  -0.00122   2.09318
   A28        2.09440  -0.01755   0.00000  -0.01152  -0.01160   2.08279
   A29        2.09440   0.00883   0.00000   0.00580   0.00584   2.10023
   A30        2.09440   0.00872   0.00000   0.00572   0.00576   2.10016
   A31        2.09440   0.02024   0.00000   0.01134   0.01130   2.10569
   A32        2.09440  -0.00957   0.00000  -0.00535  -0.00533   2.08906
   A33        2.09440  -0.01067   0.00000  -0.00599  -0.00596   2.08843
   A34        2.09440   0.01712   0.00000   0.01075   0.01079   2.10518
   A35        2.09440   0.01813   0.00000   0.01240   0.01238   2.10678
   A36        2.09440  -0.03525   0.00000  -0.02315  -0.02317   2.07122
    D1        0.00000   0.00000   0.00000   0.00000   0.00000   0.00000
    D2        3.14159   0.00000   0.00000   0.00000   0.00000   3.14159
    D3       -3.14159   0.00000   0.00000   0.00000   0.00000  -3.14159
    D4       -0.00000   0.00000   0.00000   0.00000   0.00000  -0.00000
    D5       -0.00000  -0.00000   0.00000  -0.00000  -0.00000  -0.00000
    D6        3.14159  -0.00000   0.00000  -0.00000  -0.00000   3.14159
    D7        3.14159   0.00000   0.00000   0.00000   0.00000   3.14159
    D8        0.00000  -0.00000   0.00000  -0.00000  -0.00000  -0.00000
    D9       -0.00000  -0.00000   0.00000  -0.00000  -0.00000  -0.00000
   D10        3.14159  -0.00000   0.00000  -0.00000  -0.00000   3.14159
   D11        3.14159  -0.00000   0.00000  -0.00000  -0.00000   3.14159
   D12       -0.00000  -0.00000   0.00000  -0.00000  -0.00000  -0.00000
   D13        0.00000  -0.00000   0.00000  -0.00000  -0.00000   0.00000
   D14        3.14159  -0.00000   0.00000  -0.00000  -0.00000   3.14159
   D15       -3.14159  -0.00000   0.00000  -0.00000  -0.00000  -3.14159
   D16        0.00000  -0.00000   0.00000  -0.00000  -0.00000   0.00000
   D17       -0.00000  -0.00000   0.00000  -0.00000  -0.00000  -0.00000
   D18        3.14159   0.00000   0.00000   0.00000   0.00000   3.14159
   D19        3.14159  -0.00000   0.00000  -0.00000  -0.00000   3.14159
   D20        0.00000   0.00000   0.00000   0.00000   0.00000   0.00000
   D21        0.00000   0.00000   0.00000   0.00000   0.00000   0.00000
   D22       -3.14159   0.00000   0.00000   0.00000   0.00000  -3.14159
   D23       -3.14159  -0.00000   0.00000  -0.00000  -0.00000  -3.14159
   D24        0.00000   0.00000   0.00000   0.00000   0.00000   0.00000
   D25       -0.00000   0.00000   0.00000   0.00000   0.00000  -0.00000
   D26        3.14159   0.00000   0.00000   0.00000   0.00000   3.14159
   D27        3.14159  -0.00000   0.00000  -0.00000  -0.00000   3.14159
   D28       -0.00000   0.00000   0.00000   0.00000   0.00000  -0.00000
   D29        3.14159   0.00000   0.00000   0.00000   0.00000   3.14159
   D30        0.00000   0.00000   0.00000   0.00000   0.00000   0.00000
   D31        0.00000   0.00000   0.00000   0.00000   0.00000   0.00000
   D32       -3.14159  -0.00000   0.00000  -0.00000  -0.00000  -3.14159
   D33       -3.14159   0.00000   0.00000   0.00000   0.00000  -3.14159
   D34        0.00000   0.00000   0.00000  -0.00000  -0.00000   0.00000
   D35       -0.00000  -0.00000   0.00000  -0.00000  -0.00000  -0.00000
   D36        3.14159  -0.00000   0.00000  -0.00000  -0.00000   3.14159
   D37       -0.00000  -0.00000   0.00000  -0.00000  -0.00000  -0.00000
   D38        3.14159  -0.00000   0.00000  -0.00000  -0.00000   3.14159
   D39        3.14159   0.00000   0.00000   0.00000   0.00000   3.14159
   D40       -0.00000   0.00000   0.00000   0.00000   0.00000  -0.00000
   D41       -0.00000  -0.00000   0.00000  -0.00000  -0.00000  -0.00000
   D42       -3.14159  -0.00000   0.00000  -0.00000  -0.00000  -3.14159
   D43        3.14159  -0.00000   0.00000  -0.00000  -0.00000   3.14159
   D44        0.00000  -0.00000   0.00000  -0.00000  -0.00000   0.00000
   D45        0.00000   0.00000   0.00000   0.00000   0.00000   0.00000
   D46       -3.14159   0.00000   0.00000   0.00000   0.00000  -3.14159
   D47        3.14159   0.00000   0.00000   0.00000   0.00000   3.14159
   D48        0.00000   0.00000   0.00000   0.00000   0.00000   0.00000
   D49        0.00000   0.00000   0.00000   0.00000   0.00000   0.00000
   D50       -3.14159   0.00000   0.00000   0.00000   0.00000  -3.14159
   D51        3.14159   0.00000   0.00000   0.00000   0.00000   3.14159
   D52       -0.00000   0.00000   0.00000   0.00000   0.00000  -0.00000
         Item               Value     Threshold  Converged?
 Maximum Force            0.276341     0.000450     NO 
 RMS     Force            0.050236     0.000300     NO 
 Maximum Displacement     1.161084     0.001800     NO 
 RMS     Displacement     0.231290     0.001200     NO 
 Predicted change in Energy=-1.467984D-01
 GradGradGradGradGradGradGradGradGradGradGradGradGradGradGradGradGradGrad

                          Input orientation:                          
 ---------------------------------------------------------------------
 Center     Atomic      Atomic             Coordinates (Angstroms)
 Number     Number       Type             X           Y           Z
 ---------------------------------------------------------------------
      1          6           0       -3.690204   -1.245126    0.437043
      2          6           0       -2.363517   -1.342606   -0.018347
      3          6           0       -1.522046   -0.231200   -0.086841
      4          6           0       -1.990431    1.019312    0.302329
      5          6           0       -3.300665    1.151436    0.758803
      6          6           0       -4.162625    0.045051    0.834990
      7          6           0       -4.446281   -2.609034    0.429983
      8          6           0       -3.704558   -3.714195   -0.021942
      9          6           0       -4.267690   -4.993163   -0.076616
     10          6           0       -5.589784   -5.192641    0.321494
     11          6           0       -6.339278   -4.105611    0.772575
     12          6           0       -5.776675   -2.824298    0.827863
     13          1           0       -1.986101   -2.298367   -0.322188
     14          1           0       -0.515117   -0.340648   -0.439134
     15          1           0       -1.348841    1.876909    0.252019
     16          1           0       -2.687616   -3.576644   -0.331145
     17          1           0       -3.682927   -5.821890   -0.424913
     18          1           0       -6.025738   -6.171701    0.281248
     19          1           0       -6.374085   -2.021395    1.175479
     20         17           0       -5.773206    0.414570    1.435001
     21         17           0       -3.880143    2.737882    1.247661
     22         17           0       -8.007528   -4.346435    1.276968
 ---------------------------------------------------------------------
                    Distance matrix (angstroms):
                    1          2          3          4          5
     1  C    0.000000
     2  C    1.406051   0.000000
     3  C    2.450186   1.395704   0.000000
     4  C    2.834617   2.412610   1.390906   0.000000
     5  C    2.449240   2.775330   2.406301   1.393749   0.000000
     6  C    1.430419   2.427049   2.810471   2.439536   1.404588
     7  C    1.559470   2.478456   3.804255   4.383194   3.944831
     8  C    2.511409   2.724489   4.110819   5.044748   4.944397
     9  C    3.826894   4.117746   5.496814   6.440448   6.276078
    10  C    4.382309   5.034586   6.428774   7.179420   6.758596
    11  C    3.913125   4.905754   6.241425   6.737836   6.072059
    12  C    2.645730   3.815904   5.065838   5.420809   4.684213
    13  H    2.142363   1.071560   2.131646   3.375950   3.846786
    14  H    3.415691   2.144193   1.072378   2.139115   3.379445
    15  H    3.906829   3.386435   2.142183   1.072213   2.143072
    16  H    2.651655   2.278992   3.551089   4.691500   4.890660
    17  H    4.657230   4.687230   6.003292   7.084877   7.083402
    18  H    5.454368   6.068094   7.463798   8.245897   7.828308
    19  H    2.889826   4.239177   5.323583   5.405988   4.436934
    20  Cl   2.844188   4.101934   4.561292   3.994752   2.667147
    21  Cl   4.069095   4.533577   4.019573   2.723627   1.758292
    22  Cl   5.381717   6.523472   7.801065   8.120753   7.256007
                    6          7          8          9         10
     6  C    0.000000
     7  C    2.699751   0.000000
     8  C    3.882794   1.405622   0.000000
     9  C    5.121100   2.443893   1.398523   0.000000
    10  C    5.452878   2.827437   2.420295   1.395068   0.000000
    11  C    4.687186   2.437324   2.779606   2.408391   1.395296
    12  C    3.292169   1.405202   2.409928   2.792685   2.429071
    13  H    3.401166   2.591286   2.246734   3.539475   4.666656
    14  H    3.882843   4.621146   4.661266   5.988249   7.062056
    15  H    3.407776   5.454309   6.073294   7.471651   8.244329
    16  H    4.080710   2.146739   1.071774   2.137276   3.385257
    17  H    6.019839   3.411159   2.145980   1.072402   2.142237
    18  H    6.513511   3.899923   3.393985   2.146567   1.072489
    19  H    3.045765   2.148839   3.380201   3.851759   3.376569
    20  Cl   1.757990   3.451517   4.842384   5.813359   5.719647
    21  Cl   2.738874   5.438623   6.578148   7.853214   8.165406
    22  Cl   5.853527   4.051966   4.538992   4.029496   2.733950
                   11         12         13         14         15
    11  C    0.000000
    12  C    1.400479   0.000000
    13  H    4.838883   3.995957   0.000000
    14  H    7.040173   5.954644   2.451557   0.000000
    15  H    7.808071   6.483722   4.262481   2.467863   0.000000
    16  H    3.851316   3.384022   1.458148   3.899113   5.645674
    17  H    3.381684   3.865072   3.912159   6.330816   8.073271
    18  H    2.146727   3.400871   5.628989   8.055251   9.308831
    19  H    2.123087   1.059429   4.644795   6.305504   6.426711
    20  Cl   4.603399   3.295284   4.978946   5.632960   4.807586
    21  Cl   7.287417   5.891597   5.604965   4.862718   2.853080
    22  Cl   1.759394   2.737755   6.558161   8.667616   9.171621
                   16         17         18         19         20
    16  H    0.000000
    17  H    2.457757   0.000000
    18  H    4.272283   2.471799   0.000000
    19  H    4.275367   4.924159   4.259816   0.000000
    20  Cl   5.345084   6.835348   6.691329   2.522366   0.000000
    21  Cl   6.617249   8.723881   9.215107   5.373609   3.002759
    22  Cl   5.610711   4.876017   2.872377   2.843282   5.261591
                   21         22
    21  Cl   0.000000
    22  Cl   8.199007   0.000000
 Stoichiometry    C12H7Cl3
 Framework group  C1[X(C12H7Cl3)]
 Deg. of freedom    60
 Full point group                 C1      NOp   1
 Largest Abelian subgroup         C1      NOp   1
 Largest concise Abelian subgroup C1      NOp   1
                         Standard orientation:                         
 ---------------------------------------------------------------------
 Center     Atomic      Atomic             Coordinates (Angstroms)
 Number     Number       Type             X           Y           Z
 ---------------------------------------------------------------------
      1          6           0       -0.582926    0.842682   -0.000000
      2          6           0       -1.096043    2.151763    0.000001
      3          6           0       -2.468056    2.407833    0.000004
      4          6           0       -3.371694    1.350450    0.000006
      5          6           0       -2.896920    0.040058    0.000002
      6          6           0       -1.520120   -0.237950   -0.000001
      7          6           0        0.975701    0.791387   -0.000002
      8          6           0        1.626049    2.037509   -0.000004
      9          6           0        3.021635    2.128087   -0.000004
     10          6           0        3.797571    0.968717   -0.000003
     11          6           0        3.166912   -0.275919   -0.000001
     12          6           0        1.769473   -0.368147   -0.000000
     13          1           0       -0.414186    2.978389    0.000002
     14          1           0       -2.825868    3.418756    0.000006
     15          1           0       -4.426892    1.540706    0.000008
     16          1           0        1.043376    2.937060   -0.000002
     17          1           0        3.496390    3.089676   -0.000006
     18          1           0        4.868106    1.033422   -0.000002
     19          1           0        1.323474   -1.329122    0.000003
     20         17           0       -1.121260   -1.950094   -0.000005
     21         17           0       -4.049973   -1.287368   -0.000000
     22         17           0        4.136299   -1.744168    0.000006
 ---------------------------------------------------------------------
 Rotational constants (GHZ):           0.8125139           0.2380572           0.1841140
 Standard basis: 6-311+G(d,p) (5D, 7F)
 There are   411 symmetry adapted cartesian basis functions of A   symmetry.
 There are   396 symmetry adapted basis functions of A   symmetry.
   396 basis functions,   647 primitive gaussians,   411 cartesian basis functions
    65 alpha electrons       65 beta electrons
       nuclear repulsion energy      1189.3608787466 Hartrees.
 NAtoms=   22 NActive=   22 NUniq=   22 SFac= 1.00D+00 NAtFMM=   60 NAOKFM=F Big=F
 Integral buffers will be    131072 words long.
 Raffenetti 2 integral format.
 Two-electron integral symmetry is turned on.
 One-electron integrals computed using PRISM.
 NBasis=   396 RedAO= T EigKep=  1.77D-06  NBF=   396
 NBsUse=   391 1.00D-06 EigRej=  8.08D-07 NBFU=   391
 Initial guess from the checkpoint file:  "/scratch/pkc/Gau-17910.chk"
 B after Tr=    -0.000000    0.000000    0.000000
         Rot=    0.999810    0.000000   -0.000000    0.019501 Ang=   2.23 deg.
 ExpMin= 4.38D-02 ExpMax= 1.06D+05 ExpMxC= 3.62D+03 IAcc=3 IRadAn=         5 AccDes= 0.00D+00
 Harris functional with IExCor=  402 and IRadAn=       5 diagonalized for initial guess.
 HarFok:  IExCor=  402 AccDes= 0.00D+00 IRadAn=         5 IDoV= 1 UseB2=F ITyADJ=14
 ICtDFT=  3500011 ScaDFX=  1.000000  1.000000  1.000000  1.000000
 FoFCou: FMM=F IPFlag=           0 FMFlag=      100000 FMFlg1=           0
         NFxFlg=           0 DoJE=T BraDBF=F KetDBF=T FulRan=T
         wScrn=  0.000000 ICntrl=       500 IOpCl=  0 I1Cent=   200000004 NGrid=           0
         NMat0=    1 NMatS0=      1 NMatT0=    0 NMatD0=    1 NMtDS0=    0 NMtDT0=    0
 Petite list used in FoFCou.
 Requested convergence on RMS density matrix=1.00D-08 within  32 cycles.
 Requested convergence on MAX density matrix=1.00D-06.
 Requested convergence on             energy=1.00D-06.
 No special actions if energy rises.
 SCF Done:  E(RB3LYP) =  -1842.25678710     A.U. after   16 cycles
            NFock= 16  Conv=0.97D-08     -V/T= 2.0029
 QCSCF skips out because SCF is already converged.
 Calling FoFJK, ICntrl=      2127 FMM=F ISym2X=0 I1Cent= 0 IOpClX= 0 NMat=1 NMatS=1 NMatT=0.
 ***** Axes restored to original set *****
 -------------------------------------------------------------------
 Center     Atomic                   Forces (Hartrees/Bohr)
 Number     Number              X              Y              Z
 -------------------------------------------------------------------
      1        6          -0.016123402   -0.018296111    0.001875669
      2        6           0.003504937    0.026606889    0.003842418
      3        6          -0.014196954   -0.003049615    0.004104620
      4        6          -0.004008584   -0.004652382    0.000446667
      5        6           0.001735237   -0.000674363   -0.000698286
      6        6           0.005562349   -0.006779351   -0.003105723
      7        6           0.011241542    0.019018237   -0.000131674
      8        6          -0.015191546   -0.014662149    0.002251320
      9        6          -0.005177012    0.017080090    0.004913336
     10        6          -0.000618134    0.004646026    0.001076247
     11        6           0.012044407    0.002612031   -0.003477374
     12        6           0.005188246   -0.009158309   -0.003429405
     13        1           0.006980222    0.008294332   -0.000741955
     14        1           0.007216155   -0.000488489   -0.002469126
     15        1           0.002822224    0.006747844    0.000337521
     16        1          -0.002608696   -0.012342120   -0.001458667
     17        1           0.003975765   -0.006082210   -0.002452103
     18        1          -0.003703924   -0.006360965    0.000025584
     19        1          -0.007738822    0.010504973    0.004522528
     20       17          -0.001074668   -0.013900912   -0.002256678
     21       17           0.007768245    0.000029075   -0.002553779
     22       17           0.002402414    0.000907480   -0.000621142
 -------------------------------------------------------------------
 Cartesian Forces:  Max     0.026606889 RMS     0.008023582

 GradGradGradGradGradGradGradGradGradGradGradGradGradGradGradGradGradGrad
 Berny optimization.
 Using GEDIIS/GDIIS optimizer.
 FormGI is forming the generalized inverse of G from B-inverse, IUseBI=4.
 Internal  Forces:  Max     0.063537212 RMS     0.012069918
 Search for a local minimum.
 Step number   2 out of a maximum of  121
 All quantities printed in internal units (Hartrees-Bohrs-Radians)
 Mixed Optimization -- RFO/linear search
 Update second derivatives using D2CorX and points    1    2
 DE= -3.69D-02 DEPred=-1.47D-01 R= 2.51D-01
 Trust test= 2.51D-01 RLast= 3.00D-01 DXMaxT set to 3.00D-01
 ITU=  0  0
 Use linear search instead of GDIIS.
     Eigenvalues ---    0.00237   0.01479   0.01484   0.02070   0.02070
     Eigenvalues ---    0.02070   0.02070   0.02070   0.02070   0.02070
     Eigenvalues ---    0.02070   0.02070   0.02070   0.02070   0.02070
     Eigenvalues ---    0.02070   0.02070   0.02070   0.02070   0.15971
     Eigenvalues ---    0.16000   0.16000   0.16000   0.16000   0.16000
     Eigenvalues ---    0.16034   0.21995   0.22093   0.23354   0.23462
     Eigenvalues ---    0.23493   0.24849   0.24947   0.25000   0.25000
     Eigenvalues ---    0.25000   0.28448   0.29535   0.29539   0.29539
     Eigenvalues ---    0.37076   0.37188   0.37230   0.37230   0.37230
     Eigenvalues ---    0.37230   0.37230   0.40292   0.41307   0.41462
     Eigenvalues ---    0.41584   0.45047   0.45350   0.45389   0.45389
     Eigenvalues ---    0.45389   0.45389   0.45389   0.45389   2.12083
 RFO step:  Lambda=-1.21017751D-02 EMin= 2.36824243D-03
 Quartic linear search produced a step of -0.34663.
 Iteration  1 RMS(Cart)=  0.13913060 RMS(Int)=  0.00403862
 Iteration  2 RMS(Cart)=  0.00710570 RMS(Int)=  0.00004363
 Iteration  3 RMS(Cart)=  0.00002069 RMS(Int)=  0.00004322
 Iteration  4 RMS(Cart)=  0.00000000 RMS(Int)=  0.00004322
 Variable       Old X    -DE/DX   Delta X   Delta X   Delta X     New X
                                 (Linear)    (Quad)   (Total)
    R1        2.65705   0.00742  -0.00305   0.01844   0.01547   2.67252
    R2        2.70310  -0.01670  -0.01901   0.02745   0.00852   2.71162
    R3        2.94697  -0.00531  -0.01275   0.02065   0.00790   2.95487
    R4        2.63750  -0.00624   0.00373  -0.01871  -0.01498   2.62252
    R5        2.02496  -0.00473  -0.00102  -0.00535  -0.00637   2.01858
    R6        2.62843  -0.00709   0.00687  -0.02827  -0.02147   2.60696
    R7        2.02650   0.00764  -0.00156   0.01706   0.01550   2.04200
    R8        2.63380  -0.00949   0.00501  -0.02666  -0.02172   2.61209
    R9        2.02619   0.00707  -0.00145   0.01581   0.01436   2.04055
   R10        2.65429   0.00539  -0.00209   0.01309   0.01100   2.66528
   R11        3.32269  -0.00324   0.00112  -0.00974  -0.00862   3.31407
   R12        3.32212  -0.00271   0.00132  -0.00910  -0.00778   3.31434
   R13        2.65624   0.01060  -0.00277   0.02292   0.02018   2.67642
   R14        2.65545  -0.00225  -0.00249   0.00377   0.00134   2.65679
   R15        2.64282  -0.00657   0.00188  -0.01384  -0.01199   2.63083
   R16        2.02536  -0.00364  -0.00116  -0.00313  -0.00429   2.02107
   R17        2.63630  -0.00602   0.00415  -0.01980  -0.01572   2.62058
   R18        2.02655   0.00766  -0.00157   0.01715   0.01557   2.04212
   R19        2.63673  -0.01045   0.00400  -0.02602  -0.02205   2.61468
   R20        2.02671   0.00731  -0.00163   0.01670   0.01507   2.04178
   R21        2.64652  -0.00871   0.00060  -0.01423  -0.01359   2.63293
   R22        3.32477  -0.00258   0.00040  -0.00649  -0.00609   3.31868
   R23        2.00203   0.01381   0.00692   0.00528   0.01220   2.01423
    A1        2.05360  -0.01310   0.01414  -0.06783  -0.05354   2.00006
    A2        1.97726   0.06354   0.04060   0.05770   0.09822   2.07548
    A3        2.25233  -0.05044  -0.05475   0.01013  -0.04469   2.20764
    A4        2.12888   0.00519  -0.01195   0.04341   0.03153   2.16041
    A5        2.07831   0.00731   0.00558   0.01676   0.02230   2.10061
    A6        2.07600  -0.01250   0.00638  -0.06017  -0.05384   2.02217
    A7        2.09344   0.00318   0.00033   0.00814   0.00839   2.10183
    A8        2.09550  -0.00129  -0.00038  -0.00244  -0.00279   2.09271
    A9        2.09425  -0.00189   0.00005  -0.00570  -0.00561   2.08864
   A10        2.08683  -0.00424   0.00262  -0.01834  -0.01587   2.07097
   A11        2.09957   0.00405  -0.00179   0.01757   0.01585   2.11542
   A12        2.09679   0.00019  -0.00083   0.00077   0.00002   2.09680
   A13        2.11764  -0.00135  -0.00806   0.01640   0.00827   2.12591
   A14        2.07877  -0.01180   0.00541  -0.04270  -0.03724   2.04153
   A15        2.08677   0.01314   0.00264   0.02629   0.02897   2.11574
   A16        2.08598   0.01031   0.00292   0.01822   0.02121   2.10719
   A17        2.19828  -0.02818  -0.03601   0.01918  -0.01686   2.18142
   A18        1.99892   0.01787   0.03310  -0.03740  -0.00434   1.99457
   A19        2.01891   0.05833   0.02617   0.07968   0.10579   2.12470
   A20        2.20398  -0.04572  -0.03799  -0.02049  -0.05853   2.14545
   A21        2.06029  -0.01261   0.01182  -0.05919  -0.04726   2.01303
   A22        2.11662   0.00185  -0.00770   0.02579   0.01808   2.13470
   A23        2.08580   0.01140   0.00298   0.03580   0.03878   2.12458
   A24        2.08077  -0.01325   0.00472  -0.06158  -0.05686   2.02391
   A25        2.09579   0.00524  -0.00048   0.01589   0.01530   2.11109
   A26        2.09422  -0.00236   0.00006  -0.00654  -0.00642   2.08779
   A27        2.09318  -0.00289   0.00042  -0.00935  -0.00887   2.08430
   A28        2.08279  -0.00642   0.00402  -0.03008  -0.02617   2.05663
   A29        2.10023   0.00407  -0.00202   0.01834   0.01637   2.11660
   A30        2.10016   0.00235  -0.00200   0.01174   0.00980   2.10996
   A31        2.10569   0.00598  -0.00392   0.02235   0.01844   2.12413
   A32        2.08906  -0.00205   0.00185  -0.00855  -0.00670   2.08236
   A33        2.08843  -0.00393   0.00207  -0.01380  -0.01173   2.07670
   A34        2.10518   0.00596  -0.00374   0.02525   0.02162   2.12680
   A35        2.10678  -0.00304  -0.00429   0.00094  -0.00341   2.10337
   A36        2.07122  -0.00292   0.00803  -0.02618  -0.01821   2.05302
    D1        0.00000  -0.00000  -0.00000  -0.00000  -0.00000   0.00000
    D2        3.14159  -0.00000  -0.00000  -0.00000  -0.00000   3.14159
    D3       -3.14159  -0.00000  -0.00000  -0.00000  -0.00000  -3.14159
    D4       -0.00000  -0.00000  -0.00000   0.00000   0.00000  -0.00000
    D5       -0.00000   0.00000   0.00000   0.00000   0.00000  -0.00000
    D6        3.14159   0.00000   0.00000   0.00000   0.00000   3.14159
    D7        3.14159  -0.00000  -0.00000   0.00000   0.00000   3.14159
    D8       -0.00000  -0.00000   0.00000  -0.00000  -0.00000  -0.00000
    D9       -0.00000  -0.00000   0.00000  -0.00000  -0.00000  -0.00000
   D10        3.14159  -0.00000   0.00000  -0.00000  -0.00000   3.14159
   D11        3.14159  -0.00000   0.00000  -0.00000  -0.00000   3.14159
   D12       -0.00000  -0.00000   0.00000  -0.00000   0.00000  -0.00000
   D13        0.00000  -0.00000   0.00000  -0.00000  -0.00000   0.00000
   D14        3.14159   0.00000   0.00000   0.00000   0.00000   3.14159
   D15       -3.14159  -0.00000   0.00000  -0.00000  -0.00000  -3.14159
   D16        0.00000  -0.00000   0.00000  -0.00000  -0.00000   0.00000
   D17       -0.00000   0.00000   0.00000   0.00000   0.00000  -0.00000
   D18        3.14159   0.00000  -0.00000   0.00000   0.00000   3.14159
   D19        3.14159   0.00000   0.00000   0.00000   0.00000   3.14159
   D20        0.00000  -0.00000  -0.00000  -0.00000  -0.00000   0.00000
   D21        0.00000  -0.00000  -0.00000  -0.00000  -0.00000   0.00000
   D22       -3.14159  -0.00000  -0.00000  -0.00000  -0.00000  -3.14159
   D23       -3.14159  -0.00000   0.00000  -0.00000  -0.00000  -3.14159
   D24        0.00000  -0.00000  -0.00000  -0.00000  -0.00000   0.00000
   D25       -0.00000   0.00000  -0.00000   0.00000   0.00000  -0.00000
   D26        3.14159   0.00000  -0.00000   0.00000   0.00000   3.14159
   D27        3.14159   0.00000   0.00000   0.00000   0.00000   3.14159
   D28       -0.00000   0.00000  -0.00000   0.00000   0.00000  -0.00000
   D29        3.14159  -0.00000  -0.00000   0.00000   0.00000  -3.14159
   D30        0.00000  -0.00000  -0.00000  -0.00000  -0.00000   0.00000
   D31        0.00000  -0.00000  -0.00000  -0.00000  -0.00000   0.00000
   D32       -3.14159  -0.00000   0.00000  -0.00000  -0.00000  -3.14159
   D33       -3.14159  -0.00000  -0.00000  -0.00000  -0.00000  -3.14159
   D34        0.00000  -0.00000   0.00000  -0.00000  -0.00000  -0.00000
   D35       -0.00000   0.00000   0.00000   0.00000   0.00000  -0.00000
   D36        3.14159   0.00000   0.00000   0.00000   0.00000   3.14159
   D37       -0.00000  -0.00000   0.00000   0.00000   0.00000  -0.00000
   D38        3.14159  -0.00000   0.00000  -0.00000  -0.00000   3.14159
   D39        3.14159   0.00000  -0.00000   0.00000   0.00000   3.14159
   D40       -0.00000   0.00000  -0.00000   0.00000   0.00000  -0.00000
   D41       -0.00000   0.00000   0.00000   0.00000   0.00000   0.00000
   D42       -3.14159  -0.00000   0.00000  -0.00000  -0.00000  -3.14159
   D43        3.14159   0.00000   0.00000   0.00000   0.00000  -3.14159
   D44        0.00000  -0.00000   0.00000  -0.00000  -0.00000   0.00000
   D45        0.00000   0.00000  -0.00000   0.00000   0.00000   0.00000
   D46       -3.14159  -0.00000  -0.00000  -0.00000  -0.00000  -3.14159
   D47        3.14159   0.00000  -0.00000   0.00000   0.00000   3.14159
   D48        0.00000  -0.00000  -0.00000  -0.00000  -0.00000   0.00000
   D49        0.00000  -0.00000  -0.00000  -0.00000  -0.00000  -0.00000
   D50       -3.14159  -0.00000  -0.00000  -0.00000  -0.00000  -3.14159
   D51        3.14159   0.00000  -0.00000   0.00000   0.00000   3.14159
   D52       -0.00000   0.00000  -0.00000   0.00000   0.00000  -0.00000
         Item               Value     Threshold  Converged?
 Maximum Force            0.063537     0.000450     NO 
 RMS     Force            0.012070     0.000300     NO 
 Maximum Displacement     0.556857     0.001800     NO 
 RMS     Displacement     0.141228     0.001200     NO 
 Predicted change in Energy=-8.086833D-03
 GradGradGradGradGradGradGradGradGradGradGradGradGradGradGradGradGradGrad

                          Input orientation:                          
 ---------------------------------------------------------------------
 Center     Atomic      Atomic             Coordinates (Angstroms)
 Number     Number       Type             X           Y           Z
 ---------------------------------------------------------------------
      1          6           0       -3.597502   -1.300080    0.396182
      2          6           0       -2.252417   -1.252594   -0.038043
      3          6           0       -1.492513   -0.091808   -0.070391
      4          6           0       -2.035428    1.110143    0.334211
      5          6           0       -3.346898    1.131789    0.770344
      6          6           0       -4.136136   -0.036417    0.810963
      7          6           0       -4.347434   -2.672118    0.385571
      8          6           0       -3.715051   -3.863463   -0.046519
      9          6           0       -4.371280   -5.091188   -0.060899
     10          6           0       -5.690276   -5.199898    0.353238
     11          6           0       -6.330301   -4.049859    0.780089
     12          6           0       -5.683545   -2.815920    0.798756
     13          1           0       -1.759737   -2.141357   -0.367275
     14          1           0       -0.468768   -0.127524   -0.414375
     15          1           0       -1.455622    2.020869    0.314234
     16          1           0       -2.699724   -3.871319   -0.382502
     17          1           0       -3.846737   -5.973274   -0.399379
     18          1           0       -6.204487   -6.150110    0.344191
     19          1           0       -6.238307   -1.972172    1.139992
     20         17           0       -5.769768    0.216899    1.396744
     21         17           0       -3.992070    2.682749    1.274180
     22         17           0       -8.001056   -4.143144    1.313016
[...]
     18          1           0        4.712608    0.603087    0.897485
     19          1           0        1.266583   -0.856603   -1.195299
     20         17           0       -0.926693   -1.659695    0.884406
     21         17           0       -3.990580   -1.294641    0.125652
     22         17           0        4.061860   -1.381903   -1.057232
 ---------------------------------------------------------------------
 Rotational constants (GHZ):           0.8246487           0.2344589           0.2048244

 **********************************************************************

            Population analysis using the SCF Density.

 **********************************************************************

 Orbital symmetries:
       Occupied  (A) (A) (A) (A) (A) (A) (A) (A) (A) (A) (A) (A)
                 (A) (A) (A) (A) (A) (A) (A) (A) (A) (A) (A) (A)
                 (A) (A) (A) (A) (A) (A) (A) (A) (A) (A) (A) (A)
                 (A) (A) (A) (A) (A) (A) (A) (A) (A) (A) (A) (A)
                 (A) (A) (A) (A) (A) (A) (A) (A) (A) (A) (A) (A)
                 (A) (A) (A) (A) (A)
       Virtual   (A) (A) (A) (A) (A) (A) (A) (A) (A) (A) (A) (A)
                 (A) (A) (A) (A) (A) (A) (A) (A) (A) (A) (A) (A)
                 (A) (A) (A) (A) (A) (A) (A) (A) (A) (A) (A) (A)
                 (A) (A) (A) (A) (A) (A) (A) (A) (A) (A) (A) (A)
                 (A) (A) (A) (A) (A) (A) (A) (A) (A) (A) (A) (A)
                 (A) (A) (A) (A) (A) (A) (A) (A) (A) (A) (A) (A)
                 (A) (A) (A) (A) (A) (A) (A) (A) (A) (A) (A) (A)
                 (A) (A) (A) (A) (A) (A) (A) (A) (A) (A) (A) (A)
                 (A) (A) (A) (A) (A) (A) (A) (A) (A) (A) (A) (A)
                 (A) (A) (A) (A) (A) (A) (A) (A) (A) (A) (A) (A)
                 (A) (A) (A) (A) (A) (A) (A) (A) (A) (A) (A) (A)
                 (A) (A) (A) (A) (A) (A) (A) (A) (A) (A) (A) (A)
                 (A) (A) (A) (A) (A) (A) (A) (A) (A) (A) (A) (A)
                 (A) (A) (A) (A) (A) (A) (A) (A) (A) (A) (A) (A)
                 (A) (A) (A) (A) (A) (A) (A) (A) (A) (A) (A) (A)
                 (A) (A) (A) (A) (A) (A) (A) (A) (A) (A) (A) (A)
                 (A) (A) (A) (A) (A) (A) (A) (A) (A) (A) (A) (A)
                 (A) (A) (A) (A) (A) (A) (A) (A) (A) (A) (A) (A)
                 (A) (A) (A) (A) (A) (A) (A) (A) (A) (A) (A) (A)
                 (A) (A) (A) (A) (A) (A) (A) (A) (A) (A) (A) (A)
                 (A) (A) (A) (A) (A) (A) (A) (A) (A) (A) (A) (A)
                 (A) (A) (A) (A) (A) (A) (A) (A) (A) (A) (A) (A)
                 (A) (A) (A) (A) (A) (A) (A) (A) (A) (A) (A) (A)
                 (A) (A) (A) (A) (A) (A) (A) (A) (A) (A) (A) (A)
                 (A) (A) (A) (A) (A) (A) (A) (A) (A) (A) (A) (A)
                 (A) (A) (A) (A) (A) (A) (A) (A) (A) (A) (A) (A)
                 (A) (A) (A) (A) (A) (A) (A) (A) (A) (A) (A) (A)
                 (A) (A) (A) (A) (A) (A)
 The electronic state is 1-A.
 Alpha  occ. eigenvalues -- -101.56627-101.56544-101.55911 -10.26266 -10.26081
 Alpha  occ. eigenvalues --  -10.24935 -10.22083 -10.21231 -10.20618 -10.20283
 Alpha  occ. eigenvalues --  -10.20209 -10.19931 -10.19874 -10.19811 -10.19537
 Alpha  occ. eigenvalues --   -9.48089  -9.48024  -9.47368  -7.24569  -7.24504
 Alpha  occ. eigenvalues --   -7.23827  -7.23573  -7.23513  -7.23512  -7.23436
 Alpha  occ. eigenvalues --   -7.22852  -7.22818  -0.93167  -0.90548  -0.87298
 Alpha  occ. eigenvalues --   -0.86056  -0.84703  -0.79664  -0.75908  -0.74884
 Alpha  occ. eigenvalues --   -0.74307  -0.65892  -0.63090  -0.61867  -0.60077
 Alpha  occ. eigenvalues --   -0.54548  -0.52606  -0.51133  -0.48899  -0.48813
 Alpha  occ. eigenvalues --   -0.46803  -0.45353  -0.45017  -0.44547  -0.42920
 Alpha  occ. eigenvalues --   -0.41148  -0.40551  -0.39302  -0.37914  -0.37648
 Alpha  occ. eigenvalues --   -0.35770  -0.35103  -0.34405  -0.33872  -0.32261
 Alpha  occ. eigenvalues --   -0.31749  -0.28768  -0.26546  -0.26360  -0.25908
 Alpha virt. eigenvalues --   -0.05557  -0.04454  -0.03208  -0.02464  -0.01827
 Alpha virt. eigenvalues --   -0.00689   0.00459   0.01149   0.01921   0.02387
 Alpha virt. eigenvalues --    0.02601   0.02835   0.04151   0.04501   0.04805
 Alpha virt. eigenvalues --    0.05446   0.05628   0.06463   0.07087   0.07587
 Alpha virt. eigenvalues --    0.08033   0.08167   0.09011   0.09408   0.09662
 Alpha virt. eigenvalues --    0.10229   0.10669   0.10788   0.11615   0.12108
 Alpha virt. eigenvalues --    0.12382   0.12652   0.13166   0.13427   0.13814
 Alpha virt. eigenvalues --    0.13938   0.14434   0.15072   0.15559   0.15943
 Alpha virt. eigenvalues --    0.16030   0.16786   0.17191   0.17586   0.17978
 Alpha virt. eigenvalues --    0.18482   0.18568   0.19080   0.19084   0.19364
 Alpha virt. eigenvalues --    0.19927   0.20436   0.20605   0.20990   0.21360
 Alpha virt. eigenvalues --    0.21920   0.22219   0.22502   0.23250   0.23557
 Alpha virt. eigenvalues --    0.23717   0.24370   0.24488   0.24939   0.25016
 Alpha virt. eigenvalues --    0.26087   0.26864   0.27185   0.27631   0.28156
 Alpha virt. eigenvalues --    0.28403   0.28504   0.28938   0.29514   0.29980
 Alpha virt. eigenvalues --    0.30149   0.30615   0.31495   0.31636   0.32361
 Alpha virt. eigenvalues --    0.33940   0.34496   0.34740   0.35938   0.42154
 Alpha virt. eigenvalues --    0.43908   0.44119   0.45190   0.45609   0.46213
 Alpha virt. eigenvalues --    0.46732   0.47001   0.47749   0.49512   0.50196
 Alpha virt. eigenvalues --    0.50531   0.51189   0.52228   0.53322   0.53486
 Alpha virt. eigenvalues --    0.55311   0.55775   0.56442   0.56861   0.57401
 Alpha virt. eigenvalues --    0.57845   0.58918   0.59857   0.60552   0.61690
 Alpha virt. eigenvalues --    0.62088   0.62469   0.63393   0.63932   0.64869
 Alpha virt. eigenvalues --    0.66385   0.67221   0.67470   0.68250   0.69005
 Alpha virt. eigenvalues --    0.69072   0.69265   0.70406   0.71086   0.71210
 Alpha virt. eigenvalues --    0.72179   0.72948   0.73849   0.76183   0.78149
 Alpha virt. eigenvalues --    0.80552   0.81324   0.81885   0.82369   0.83239
 Alpha virt. eigenvalues --    0.83369   0.84501   0.85056   0.85253   0.85643
 Alpha virt. eigenvalues --    0.85919   0.86607   0.87158   0.87645   0.89082
 Alpha virt. eigenvalues --    0.89836   0.90094   0.90794   0.92597   0.93256
 Alpha virt. eigenvalues --    0.94476   0.94890   0.95591   0.95972   0.97022
 Alpha virt. eigenvalues --    0.97813   0.98564   0.99646   1.00086   1.01655
 Alpha virt. eigenvalues --    1.02789   1.04119   1.04935   1.06310   1.06908
 Alpha virt. eigenvalues --    1.09823   1.10923   1.11814   1.13595   1.16129
 Alpha virt. eigenvalues --    1.19878   1.20584   1.24620   1.25705   1.26189
 Alpha virt. eigenvalues --    1.28441   1.29318   1.30822   1.32324   1.35375
 Alpha virt. eigenvalues --    1.36029   1.39023   1.43348   1.47987   1.48853
 Alpha virt. eigenvalues --    1.49922   1.50862   1.52789   1.54481   1.56001
 Alpha virt. eigenvalues --    1.56525   1.57548   1.58615   1.60238   1.61714
 Alpha virt. eigenvalues --    1.63351   1.65330   1.67317   1.68666   1.70237
 Alpha virt. eigenvalues --    1.70736   1.72059   1.74474   1.74810   1.77519
 Alpha virt. eigenvalues --    1.79749   1.83289   1.85636   1.87051   1.88959
 Alpha virt. eigenvalues --    1.89161   1.90297   1.90898   1.91754   1.92842
 Alpha virt. eigenvalues --    1.94002   1.95398   1.95761   1.97478   1.98374
 Alpha virt. eigenvalues --    1.99511   2.00379   2.02476   2.04332   2.06249
 Alpha virt. eigenvalues --    2.08899   2.12747   2.17918   2.19690   2.20154
 Alpha virt. eigenvalues --    2.25544   2.26223   2.28606   2.29813   2.29988
 Alpha virt. eigenvalues --    2.31735   2.34308   2.35503   2.38325   2.39449
 Alpha virt. eigenvalues --    2.40638   2.42280   2.43473   2.45822   2.47966
 Alpha virt. eigenvalues --    2.51724   2.52931   2.54057   2.55129   2.60513
 Alpha virt. eigenvalues --    2.62592   2.64283   2.66966   2.67982   2.68435
 Alpha virt. eigenvalues --    2.69720   2.69967   2.73359   2.74464   2.75426
 Alpha virt. eigenvalues --    2.76260   2.77155   2.77404   2.77968   2.79684
 Alpha virt. eigenvalues --    2.80140   2.81046   2.82285   2.84440   2.85274
 Alpha virt. eigenvalues --    2.86297   2.89225   2.92517   2.98719   3.00137
 Alpha virt. eigenvalues --    3.07387   3.09036   3.13662   3.16703   3.17108
 Alpha virt. eigenvalues --    3.20300   3.22144   3.22321   3.34937   3.35630
 Alpha virt. eigenvalues --    3.37152   3.39639   3.49905   3.51892   3.59372
 Alpha virt. eigenvalues --    3.60057   3.71533   3.74731   3.79120   3.94778
 Alpha virt. eigenvalues --    3.99912   4.04577   4.09650   4.10922   4.13323
 Alpha virt. eigenvalues --    4.38187   4.81456   4.83872   9.77267   9.78441
 Alpha virt. eigenvalues --    9.82199  23.43710  23.60886  23.88615  23.89196
 Alpha virt. eigenvalues --   23.90667  23.93742  23.99680  24.03435  24.05495
 Alpha virt. eigenvalues --   24.08410  24.14895  24.16932  25.80804  25.83488
 Alpha virt. eigenvalues --   25.91984  26.13037  26.15203  26.26812  26.56206
 Alpha virt. eigenvalues --   26.60772  26.81914 215.76515 215.77639 215.82212
          Condensed to atoms (all electrons):
               1          2          3          4          5          6
     1  C   31.275227  -3.437987  -1.154866  -5.889638  -2.897346  -5.649666
     2  C   -3.437987  30.572217  -1.945359   4.007003  -9.988624  -8.320424
     3  C   -1.154866  -1.945359   9.575835   0.448349   0.676315  -3.477250
     4  C   -5.889638   4.007003   0.448349  19.397525  -4.875109  -4.780300
     5  C   -2.897346  -9.988624   0.676315  -4.875109  30.068009 -10.587517
     6  C   -5.649666  -8.320424  -3.477250  -4.780300 -10.587517  47.248811
     7  C   -3.748402  -4.421859   1.606343  -2.549298   5.284803 -11.643787
     8  C    0.185208   0.548826   0.387702  -0.210395   0.483731  -1.581259
     9  C   -0.351368  -0.065439   0.176036  -0.094544   0.191957  -0.352810
    10  C    0.117985   0.011188  -0.095635   0.056521  -0.088935   0.348208
    11  C    2.577244   1.224103   0.305655  -0.260825   0.273672  -3.154534
    12  C   -6.312265  -2.623523  -0.712843   0.637781  -0.800096   8.004790
    13  H   -0.011748   0.304404  -0.023939  -0.028131   0.028292  -0.051288
    14  H   -0.001300   0.012423   0.370872   0.004350  -0.025004  -0.015570
    15  H    0.070832  -0.080251  -0.004164   0.217784   0.148779  -0.016459
    16  H   -0.003394   0.057806  -0.009837   0.007074  -0.004678   0.002183
    17  H    0.014857  -0.001336  -0.000491   0.000129  -0.000846   0.001548
    18  H    0.009022   0.000140  -0.000018  -0.000005  -0.000140  -0.001789
    19  H    0.035281  -0.026010  -0.006213   0.005764  -0.007719   0.111490
    20  Cl   0.302884   0.865328  -0.024061   1.009134  -1.114611   0.190640
    21  Cl  -0.041225   0.009890   0.139794  -0.430987  -1.177733   0.950981
    22  Cl  -0.097718  -0.003335   0.010822  -0.007502   0.024983  -0.081109
               7          8          9         10         11         12
     1  C   -3.748402   0.185208  -0.351368   0.117985   2.577244  -6.312265
     2  C   -4.421859   0.548826  -0.065439   0.011188   1.224103  -2.623523
     3  C    1.606343   0.387702   0.176036  -0.095635   0.305655  -0.712843
     4  C   -2.549298  -0.210395  -0.094544   0.056521  -0.260825   0.637781
     5  C    5.284803   0.483731   0.191957  -0.088935   0.273672  -0.800096
     6  C  -11.643787  -1.581259  -0.352810   0.348208  -3.154534   8.004790
     7  C   32.799225  -1.029506  -0.804885  -1.691761  -1.078899  -4.998091
     8  C   -1.029506  19.098216   0.725981   1.219418  -1.433302 -12.264640
     9  C   -0.804885   0.725981   8.570780   0.654637   0.158161  -2.931040
    10  C   -1.691761   1.219418   0.654637  15.527734  -2.024248  -7.528968
    11  C   -1.078899  -1.433302   0.158161  -2.024248  20.997084 -11.759213
    12  C   -4.998091 -12.264640  -2.931040  -7.528968 -11.759213  48.325382
    13  H    0.078068   0.089711   0.000428   0.006500  -0.018226  -0.026549
    14  H    0.003719  -0.000798  -0.000240   0.000049  -0.000671   0.000563
    15  H    0.014519  -0.000170   0.000044  -0.000019   0.000094  -0.001496
    16  H    0.005778   0.336176  -0.052631  -0.001211  -0.007326   0.024547
    17  H    0.004847   0.015853   0.354197   0.007944  -0.017582  -0.032321
    18  H    0.036143  -0.052882  -0.007328   0.286805   0.067519   0.016165
    19  H   -0.055643   0.064718  -0.026629   0.059169  -0.018076   0.219359
    20  Cl  -2.756857  -0.217793  -0.052546  -0.093534   0.357202  -0.090704
    21  Cl   0.047438  -0.000335   0.006057  -0.003460   0.032656  -0.040932
    22  Cl  -0.152017   0.092927   0.228549  -0.173943  -1.003224   0.422603
              13         14         15         16         17         18
     1  C   -0.011748  -0.001300   0.070832  -0.003394   0.014857   0.009022
     2  C    0.304404   0.012423  -0.080251   0.057806  -0.001336   0.000140
     3  C   -0.023939   0.370872  -0.004164  -0.009837  -0.000491  -0.000018
     4  C   -0.028131   0.004350   0.217784   0.007074   0.000129  -0.000005
     5  C    0.028292  -0.025004   0.148779  -0.004678  -0.000846  -0.000140
     6  C   -0.051288  -0.015570  -0.016459   0.002183   0.001548  -0.001789
     7  C    0.078068   0.003719   0.014519   0.005778   0.004847   0.036143
     8  C    0.089711  -0.000798  -0.000170   0.336176   0.015853  -0.052882
     9  C    0.000428  -0.000240   0.000044  -0.052631   0.354197  -0.007328
    10  C    0.006500   0.000049  -0.000019  -0.001211   0.007944   0.286805
    11  C   -0.018226  -0.000671   0.000094  -0.007326  -0.017582   0.067519
    12  C   -0.026549   0.000563  -0.001496   0.024547  -0.032321   0.016165
    13  H    0.527523  -0.007029  -0.000225  -0.000218   0.000014  -0.000001
    14  H   -0.007029   0.527381  -0.007647   0.000016   0.000000  -0.000000
    15  H   -0.000225  -0.007647   0.510030  -0.000000  -0.000000  -0.000000
    16  H   -0.000218   0.000016  -0.000000   0.528692  -0.007276  -0.000200
    17  H    0.000014   0.000000  -0.000000  -0.007276   0.532328  -0.008026
    18  H   -0.000001  -0.000000  -0.000000  -0.000200  -0.008026   0.512079
    19  H    0.000006   0.000002  -0.000001  -0.000172   0.000064  -0.000260
    20  Cl  -0.003935   0.001214  -0.002282  -0.002730  -0.000123   0.000248
    21  Cl   0.000573  -0.000486  -0.003867  -0.000091  -0.000000   0.000000
    22  Cl   0.000034  -0.000001  -0.000000   0.000424   0.000546  -0.007781
              19         20         21         22
     1  C    0.035281   0.302884  -0.041225  -0.097718
     2  C   -0.026010   0.865328   0.009890  -0.003335
     3  C   -0.006213  -0.024061   0.139794   0.010822
     4  C    0.005764   1.009134  -0.430987  -0.007502
     5  C   -0.007719  -1.114611  -1.177733   0.024983
     6  C    0.111490   0.190640   0.950981  -0.081109
     7  C   -0.055643  -2.756857   0.047438  -0.152017
     8  C    0.064718  -0.217793  -0.000335   0.092927
     9  C   -0.026629  -0.052546   0.006057   0.228549
    10  C    0.059169  -0.093534  -0.003460  -0.173943
    11  C   -0.018076   0.357202   0.032656  -1.003224
    12  C    0.219359  -0.090704  -0.040932   0.422603
    13  H    0.000006  -0.003935   0.000573   0.000034
    14  H    0.000002   0.001214  -0.000486  -0.000001
    15  H   -0.000001  -0.002282  -0.003867  -0.000000
    16  H   -0.000172  -0.002730  -0.000091   0.000424
    17  H    0.000064  -0.000123  -0.000000   0.000546
    18  H   -0.000260   0.000248   0.000000  -0.007781
    19  H    0.499845   0.001443   0.000141  -0.009057
    20  Cl   0.001443  18.220557  -0.194107  -0.001470
    21  Cl   0.000141  -0.194107  17.279435   0.000286
    22  Cl  -0.009057  -0.001470   0.000286  17.351546
 Mulliken charges:
               1
     1  C    1.008381
     2  C   -0.699180
     3  C   -0.243048
     4  C   -0.664681
     5  C    0.387815
     6  C   -1.144889
     7  C    1.050121
     8  C   -0.457389
     9  C   -0.327366
    10  C   -0.594444
    11  C    0.782735
    12  C   -1.528510
    13  H    0.135736
    14  H    0.138157
    15  H    0.154499
    16  H    0.127067
    17  H    0.135673
    18  H    0.150310
    19  H    0.152497
    20  Cl   0.606104
    21  Cl   0.425972
    22  Cl   0.404438
 Sum of Mulliken charges =  -0.00000
 Mulliken charges with hydrogens summed into heavy atoms:
               1
     1  C    1.008381
     2  C   -0.563443
     3  C   -0.104891
     4  C   -0.510182
     5  C    0.387815
     6  C   -1.144889
     7  C    1.050121
     8  C   -0.330321
     9  C   -0.191693
    10  C   -0.444134
    11  C    0.782735
    12  C   -1.376014
    20  Cl   0.606104
    21  Cl   0.425972
    22  Cl   0.404438
 Electronic spatial extent (au):  <R**2>=           5028.3139
 Charge=             -0.0000 electrons
 Dipole moment (field-independent basis, Debye):
    X=             -0.2721    Y=              3.4027    Z=              0.0319  Tot=              3.4137
 Quadrupole moment (field-independent basis, Debye-Ang):
   XX=           -106.6233   YY=           -102.7594   ZZ=           -107.8128
   XY=             -1.1879   XZ=              7.3919   YZ=              0.6687
 Traceless Quadrupole moment (field-independent basis, Debye-Ang):
   XX=             -0.8915   YY=              2.9724   ZZ=             -2.0810
   XY=             -1.1879   XZ=              7.3919   YZ=              0.6687
 Octapole moment (field-independent basis, Debye-Ang**2):
  XXX=            -10.8529  YYY=             -6.9859  ZZZ=              3.7384  XYY=             -8.7804
  XXY=             24.5754  XXZ=              9.6298  XZZ=              1.2764  YZZ=             -1.9184
  YYZ=             -0.5440  XYZ=             14.7092
 Hexadecapole moment (field-independent basis, Debye-Ang**3):
 XXXX=          -4874.1638 YYYY=          -1227.5699 ZZZZ=           -524.1004 XXXY=             11.5801
 XXXZ=            100.6135 YYYX=            -11.5213 YYYZ=            -18.4867 ZZZX=            -23.4219
 ZZZY=             12.7407 XXYY=          -1015.0559 XXZZ=           -913.4381 YYZZ=           -274.2118
 XXYZ=              0.1747 YYXZ=             21.7807 ZZXY=              7.6851
 N-N= 1.200845232601D+03 E-N=-6.753860452199D+03  KE= 1.836981461620D+03
 1\1\GINC-DAMODAR\FOpt\RB3LYP\6-311+G(d,p)\C12H7Cl3\PKC\15-Mar-2022\0\\
 # opt b3lyp/6-311+g(d,p) scf=xqc\\Title Card Required\\0,1\C,-3.588637
 5684,-1.3350409062,0.3823568465\C,-2.5916847147,-1.1610488648,-0.58509
 20481\C,-1.8846479696,0.0313042747,-0.6891053249\C,-2.1603943421,1.080
 4832765,0.1787585018\C,-3.1413354599,0.9276712917,1.1546744864\C,-3.85
 54411615,-0.2725263083,1.2640055946\C,-4.3139492844,-2.6375024092,0.43
 83113723\C,-3.6099182495,-3.8191658434,0.6938592925\C,-4.2707794325,-5
 .0455007328,0.703500483\C,-5.6381976516,-5.1153798937,0.4520680312\C,-
 6.3293750967,-3.9356036034,0.1926420476\C,-5.6888165052,-2.7029262871,
 0.184238302\H,-2.3892361181,-1.9748343893,-1.2710252872\H,-1.122180601
 6,0.1483878845,-1.4498834549\H,-1.6235475386,2.0178212779,0.1121286808
 \H,-2.5467317307,-3.774630754,0.8988528199\H,-3.7190844942,-5.95513508
 88,0.9110566045\H,-6.1604476883,-6.0633455408,0.4564082844\H,-6.253078
 2813,-1.8035556789,-0.0243567684\Cl,-5.0471838019,-0.4612998063,2.5300
 033852\Cl,-3.4445865763,2.2668578948,2.2380888763\Cl,-8.0558011028,-4.
 0048250735,-0.1391612955\\Version=EM64L-G16RevB.01\State=1-A\HF=-1842.
 2807248\RMSD=8.064e-09\RMSF=1.201e-05\Dipole=1.1126661,-0.4241931,-0.6
 211205\Quadrupole=0.0639912,2.7768851,-2.8408764,-1.0314439,-3.9506646
 ,-3.2440082\PG=C01 [X(C12H7Cl3)]\\@


 SOME PEOPLE TRY TO PULL THE WOOL OVER YOUR EYES
 USING THE WRONG YARN.
 Job cpu time:       0 days  9 hours 25 minutes  8.7 seconds.
 Elapsed time:       0 days  2 hours 48 minutes 37.4 seconds.
 File lengths (MBytes):  RWF=    107 Int=      0 D2E=      0 Chk=     17 Scr=      1
 Normal termination of Gaussian 16 at Tue Mar 15 02:49:36 2022.
