 Entering Gaussian System, Link 0=g16
 Input=2,3,3prime,5,5prime,6-Hexachlorobiphenyl.gjf
 Output=2,3,3prime,5,5prime,6-Hexachlorobiphenyl.log
 Initial command:
 /home/apps/g16/l1.exe "./Gau-266983.inp" -scrdir="./"
 Entering Link 1 = /home/apps/g16/l1.exe PID=    266984.
  
 Copyright (c) 1988-2017, Gaussian, Inc.  All Rights Reserved.
  
 This is part of the Gaussian(R) 16 program.  It is based on
 the Gaussian(R) 09 system (copyright 2009, Gaussian, Inc.),
 the Gaussian(R) 03 system (copyright 2003, Gaussian, Inc.),
 the Gaussian(R) 98 system (copyright 1998, Gaussian, Inc.),
 the Gaussian(R) 94 system (copyright 1995, Gaussian, Inc.),
 the Gaussian 92(TM) system (copyright 1992, Gaussian, Inc.),
 the Gaussian 90(TM) system (copyright 1990, Gaussian, Inc.),
 the Gaussian 88(TM) system (copyright 1988, Gaussian, Inc.),
 the Gaussian 86(TM) system (copyright 1986, Carnegie Mellon
 University), and the Gaussian 82(TM) system (copyright 1983,
 Carnegie Mellon University). Gaussian is a federally registered
 trademark of Gaussian, Inc.
  
 This software contains proprietary and confidential information,
 including trade secrets, belonging to Gaussian, Inc.
  
 This software is provided under written license and may be
 used, copied, transmitted, or stored only in accord with that
 written license.
  
 The following legend is applicable only to US Government
 contracts under FAR:
  
                    RESTRICTED RIGHTS LEGEND
  
 Use, reproduction and disclosure by the US Government is
 subject to restrictions as set forth in subparagraphs (a)
 and (c) of the Commercial Computer Software - Restricted
 Rights clause in FAR 52.227-19.
  
 Gaussian, Inc.
 340 Quinnipiac St., Bldg. 40, Wallingford CT 06492
  
  
 ---------------------------------------------------------------
 Warning -- This program may not be used in any manner that
 competes with the business of Gaussian, Inc. or will provide
 assistance to any competitor of Gaussian, Inc.  The licensee
 of this program is prohibited from giving any competitor of
 Gaussian, Inc. access to this program.  By using this program,
 the user acknowledges that Gaussian, Inc. is engaged in the
 business of creating and licensing software in the field of
 computational chemistry and represents and warrants to the
 licensee that it is not a competitor of Gaussian, Inc. and that
 it will not use this program in any manner prohibited above.
 ---------------------------------------------------------------
  

 Cite this work as:
 Gaussian 16, Revision B.01,
 M. J. Frisch, G. W. Trucks, H. B. Schlegel, G. E. Scuseria, 
 M. A. Robb, J. R. Cheeseman, G. Scalmani, V. Barone, 
 G. A. Petersson, H. Nakatsuji, X. Li, M. Caricato, A. V. Marenich, 
 J. Bloino, B. G. Janesko, R. Gomperts, B. Mennucci, H. P. Hratchian, 
 J. V. Ortiz, A. F. Izmaylov, J. L. Sonnenberg, D. Williams-Young, 
 F. Ding, F. Lipparini, F. Egidi, J. Goings, B. Peng, A. Petrone, 
 T. Henderson, D. Ranasinghe, V. G. Zakrzewski, J. Gao, N. Rega, 
 G. Zheng, W. Liang, M. Hada, M. Ehara, K. Toyota, R. Fukuda, 
 J. Hasegawa, M. Ishida, T. Nakajima, Y. Honda, O. Kitao, H. Nakai, 
 T. Vreven, K. Throssell, J. A. Montgomery, Jr., J. E. Peralta, 
 F. Ogliaro, M. J. Bearpark, J. J. Heyd, E. N. Brothers, K. N. Kudin, 
 V. N. Staroverov, T. A. Keith, R. Kobayashi, J. Normand, 
 K. Raghavachari, A. P. Rendell, J. C. Burant, S. S. Iyengar, 
 J. Tomasi, M. Cossi, J. M. Millam, M. Klene, C. Adamo, R. Cammi, 
 J. W. Ochterski, R. L. Martin, K. Morokuma, O. Farkas, 
 J. B. Foresman, and D. J. Fox, Gaussian, Inc., Wallingford CT, 2016.
 
 ******************************************
 Gaussian 16:  EM64L-G16RevB.01 20-Dec-2017
                24-Mar-2022 
 ******************************************
 %mem=10GB
 %nprocshared=4
 Will use up to    4 processors via shared memory.
 --------------------------------
 # opt b3lyp/6-311+g(d,p) scf=xqc
 --------------------------------
 1/18=20,19=15,26=3,38=1/1,3;
 2/9=110,12=2,17=6,18=5,40=1/2;
 3/5=4,6=6,7=111,11=2,25=1,30=1,71=1,74=-5/1,2,3;
 4//1;
 5/5=2,8=3,13=1,38=5/2,8;
 6/7=2,8=2,9=2,10=2,28=1/1;
 7//1,2,3,16;
 1/18=20,19=15,26=3/3(2);
 2/9=110/2;
 99//99;
 2/9=110/2;
 3/5=4,6=6,7=111,11=2,25=1,30=1,71=1,74=-5/1,2,3;
 4/5=5,16=3,69=1/1;
 5/5=2,8=3,13=1,38=5/2,8;
 7//1,2,3,16;
 1/18=20,19=15,26=3/3(-5);
 2/9=110/2;
 6/7=2,8=2,9=2,10=2,19=2,28=1/1;
 99/9=1/99;
 -------------------
 Title Card Required
 -------------------
 Symbolic Z-matrix:
 Charge =  0 Multiplicity = 1
 C                    -0.37545   0.2802   -0.00285 
 C                     0.95693   0.31008  -0.4362 
 C                     1.66482   1.51953  -0.44227 
 C                     1.04033   2.6991   -0.015 
 C                    -0.29205   2.66921   0.41835 
 C                    -0.99994   1.45976   0.42442 
 C                    -1.15336  -1.04887   0.00382 
 C                    -0.52887  -2.22844  -0.42345 
 C                    -1.23676  -3.43789  -0.41738 
 C                    -2.56914  -3.46777   0.01597 
 C                    -3.19363  -2.28821   0.44325 
 C                    -2.48574  -1.07876   0.43717 
 H                     1.43374  -0.59054  -0.76243 
 H                     1.58083   3.62254  -0.01963 
 H                    -2.01724   1.43694   0.75529 
 H                    -3.10963  -4.39122   0.02061 
 Cl                   -3.27002   0.40264   0.97378 
 Cl                   -4.86695  -2.32574   0.98749 
 Cl                   -1.07633   4.15061   0.95496 
 Cl                   -0.45248  -4.91929  -0.95399 
 Cl                    3.33814   1.55707  -0.9865 
 Cl                    1.14445  -2.1909   -0.96769 
 

 GradGradGradGradGradGradGradGradGradGradGradGradGradGradGradGradGradGrad
 Berny optimization.
 Initialization pass.
                           ----------------------------
                           !    Initial Parameters    !
                           ! (Angstroms and Degrees)  !
 --------------------------                            --------------------------
 ! Name  Definition              Value          Derivative Info.                !
 --------------------------------------------------------------------------------
 ! R1    R(1,2)                  1.4014         estimate D2E/DX2                !
 ! R2    R(1,6)                  1.4014         estimate D2E/DX2                !
 ! R3    R(1,7)                  1.54           estimate D2E/DX2                !
 ! R4    R(2,3)                  1.4014         estimate D2E/DX2                !
 ! R5    R(2,13)                 1.07           estimate D2E/DX2                !
 ! R6    R(3,4)                  1.4014         estimate D2E/DX2                !
 ! R7    R(3,21)                 1.76           estimate D2E/DX2                !
 ! R8    R(4,5)                  1.4014         estimate D2E/DX2                !
 ! R9    R(4,14)                 1.07           estimate D2E/DX2                !
 ! R10   R(5,6)                  1.4014         estimate D2E/DX2                !
 ! R11   R(5,19)                 1.76           estimate D2E/DX2                !
 ! R12   R(6,15)                 1.07           estimate D2E/DX2                !
 ! R13   R(7,8)                  1.4014         estimate D2E/DX2                !
 ! R14   R(7,12)                 1.4014         estimate D2E/DX2                !
 ! R15   R(8,9)                  1.4014         estimate D2E/DX2                !
 ! R16   R(8,22)                 1.76           estimate D2E/DX2                !
 ! R17   R(9,10)                 1.4014         estimate D2E/DX2                !
 ! R18   R(9,20)                 1.76           estimate D2E/DX2                !
 ! R19   R(10,11)                1.4014         estimate D2E/DX2                !
 ! R20   R(10,16)                1.07           estimate D2E/DX2                !
 ! R21   R(11,12)                1.4014         estimate D2E/DX2                !
 ! R22   R(11,18)                1.76           estimate D2E/DX2                !
 ! R23   R(12,17)                1.76           estimate D2E/DX2                !
 ! A1    A(2,1,6)              120.0            estimate D2E/DX2                !
 ! A2    A(2,1,7)              120.0            estimate D2E/DX2                !
 ! A3    A(6,1,7)              120.0            estimate D2E/DX2                !
 ! A4    A(1,2,3)              120.0            estimate D2E/DX2                !
 ! A5    A(1,2,13)             120.0            estimate D2E/DX2                !
 ! A6    A(3,2,13)             120.0            estimate D2E/DX2                !
 ! A7    A(2,3,4)              120.0            estimate D2E/DX2                !
 ! A8    A(2,3,21)             120.0            estimate D2E/DX2                !
 ! A9    A(4,3,21)             120.0            estimate D2E/DX2                !
 ! A10   A(3,4,5)              120.0            estimate D2E/DX2                !
 ! A11   A(3,4,14)             120.0            estimate D2E/DX2                !
 ! A12   A(5,4,14)             120.0            estimate D2E/DX2                !
 ! A13   A(4,5,6)              120.0            estimate D2E/DX2                !
 ! A14   A(4,5,19)             120.0            estimate D2E/DX2                !
 ! A15   A(6,5,19)             120.0            estimate D2E/DX2                !
 ! A16   A(1,6,5)              120.0            estimate D2E/DX2                !
 ! A17   A(1,6,15)             120.0            estimate D2E/DX2                !
 ! A18   A(5,6,15)             120.0            estimate D2E/DX2                !
 ! A19   A(1,7,8)              120.0            estimate D2E/DX2                !
 ! A20   A(1,7,12)             120.0            estimate D2E/DX2                !
 ! A21   A(8,7,12)             120.0            estimate D2E/DX2                !
 ! A22   A(7,8,9)              120.0            estimate D2E/DX2                !
 ! A23   A(7,8,22)             120.0            estimate D2E/DX2                !
 ! A24   A(9,8,22)             120.0            estimate D2E/DX2                !
 ! A25   A(8,9,10)             120.0            estimate D2E/DX2                !
 ! A26   A(8,9,20)             120.0            estimate D2E/DX2                !
 ! A27   A(10,9,20)            120.0            estimate D2E/DX2                !
 ! A28   A(9,10,11)            120.0            estimate D2E/DX2                !
 ! A29   A(9,10,16)            120.0            estimate D2E/DX2                !
 ! A30   A(11,10,16)           120.0            estimate D2E/DX2                !
 ! A31   A(10,11,12)           120.0            estimate D2E/DX2                !
 ! A32   A(10,11,18)           120.0            estimate D2E/DX2                !
 ! A33   A(12,11,18)           120.0            estimate D2E/DX2                !
 ! A34   A(7,12,11)            120.0            estimate D2E/DX2                !
 ! A35   A(7,12,17)            120.0            estimate D2E/DX2                !
 ! A36   A(11,12,17)           120.0            estimate D2E/DX2                !
 ! D1    D(6,1,2,3)              0.0001         estimate D2E/DX2                !
 ! D2    D(6,1,2,13)           180.0            estimate D2E/DX2                !
 ! D3    D(7,1,2,3)           -180.0            estimate D2E/DX2                !
 ! D4    D(7,1,2,13)            -0.0001         estimate D2E/DX2                !
 ! D5    D(2,1,6,5)             -0.0001         estimate D2E/DX2                !
 ! D6    D(2,1,6,15)           180.0            estimate D2E/DX2                !
 ! D7    D(7,1,6,5)            180.0            estimate D2E/DX2                !
 ! D8    D(7,1,6,15)             0.0            estimate D2E/DX2                !
 ! D9    D(2,1,7,8)             -0.0001         estimate D2E/DX2                !
 ! D10   D(2,1,7,12)           179.9998         estimate D2E/DX2                !
 ! D11   D(6,1,7,8)            179.9999         estimate D2E/DX2                !
 ! D12   D(6,1,7,12)            -0.0002         estimate D2E/DX2                !
 ! D13   D(1,2,3,4)              0.0            estimate D2E/DX2                !
 ! D14   D(1,2,3,21)           180.0            estimate D2E/DX2                !
 ! D15   D(13,2,3,4)          -179.9999         estimate D2E/DX2                !
 ! D16   D(13,2,3,21)            0.0001         estimate D2E/DX2                !
 ! D17   D(2,3,4,5)             -0.0001         estimate D2E/DX2                !
 ! D18   D(2,3,4,14)           180.0            estimate D2E/DX2                !
 ! D19   D(21,3,4,5)           179.9999         estimate D2E/DX2                !
 ! D20   D(21,3,4,14)            0.0            estimate D2E/DX2                !
 ! D21   D(3,4,5,6)              0.0001         estimate D2E/DX2                !
 ! D22   D(3,4,5,19)          -179.9999         estimate D2E/DX2                !
 ! D23   D(14,4,5,6)          -180.0            estimate D2E/DX2                !
 ! D24   D(14,4,5,19)            0.0            estimate D2E/DX2                !
 ! D25   D(4,5,6,1)              0.0            estimate D2E/DX2                !
 ! D26   D(4,5,6,15)           179.9999         estimate D2E/DX2                !
 ! D27   D(19,5,6,1)           180.0            estimate D2E/DX2                !
 ! D28   D(19,5,6,15)           -0.0001         estimate D2E/DX2                !
 ! D29   D(1,7,8,9)            179.9999         estimate D2E/DX2                !
 ! D30   D(1,7,8,22)             0.0001         estimate D2E/DX2                !
 ! D31   D(12,7,8,9)             0.0001         estimate D2E/DX2                !
 ! D32   D(12,7,8,22)         -179.9998         estimate D2E/DX2                !
 ! D33   D(1,7,12,11)         -179.9999         estimate D2E/DX2                !
 ! D34   D(1,7,12,17)            0.0            estimate D2E/DX2                !
 ! D35   D(8,7,12,11)           -0.0001         estimate D2E/DX2                !
 ! D36   D(8,7,12,17)          179.9999         estimate D2E/DX2                !
 ! D37   D(7,8,9,10)             0.0            estimate D2E/DX2                !
 ! D38   D(7,8,9,20)           180.0            estimate D2E/DX2                !
 ! D39   D(22,8,9,10)          179.9998         estimate D2E/DX2                !
 ! D40   D(22,8,9,20)           -0.0002         estimate D2E/DX2                !
 ! D41   D(8,9,10,11)            0.0            estimate D2E/DX2                !
 ! D42   D(8,9,10,16)         -179.9999         estimate D2E/DX2                !
 ! D43   D(20,9,10,11)         180.0            estimate D2E/DX2                !
 ! D44   D(20,9,10,16)           0.0001         estimate D2E/DX2                !
 ! D45   D(9,10,11,12)           0.0            estimate D2E/DX2                !
 ! D46   D(9,10,11,18)        -179.9998         estimate D2E/DX2                !
 ! D47   D(16,10,11,12)        179.9999         estimate D2E/DX2                !
 ! D48   D(16,10,11,18)          0.0001         estimate D2E/DX2                !
 ! D49   D(10,11,12,7)           0.0            estimate D2E/DX2                !
 ! D50   D(10,11,12,17)       -179.9999         estimate D2E/DX2                !
 ! D51   D(18,11,12,7)         179.9999         estimate D2E/DX2                !
 ! D52   D(18,11,12,17)         -0.0001         estimate D2E/DX2                !
 --------------------------------------------------------------------------------
 Trust Radius=3.00D-01 FncErr=1.00D-07 GrdErr=1.00D-06 EigMax=2.50D+02 EigMin=1.00D-04
 Number of steps in this run=    121 maximum allowed number of steps=    132.
 GradGradGradGradGradGradGradGradGradGradGradGradGradGradGradGradGradGrad

                          Input orientation:                          
 ---------------------------------------------------------------------
 Center     Atomic      Atomic             Coordinates (Angstroms)
 Number     Number       Type             X           Y           Z
 ---------------------------------------------------------------------
      1          6           0       -0.375453    0.280197   -0.002851
      2          6           0        0.956928    0.310082   -0.436198
      3          6           0        1.664822    1.519533   -0.442270
      4          6           0        1.040335    2.699098   -0.014995
      5          6           0       -0.292047    2.669213    0.418350
      6          6           0       -0.999941    1.459762    0.424422
      7          6           0       -1.153358   -1.048871    0.003823
      8          6           0       -0.528870   -2.228436   -0.423452
      9          6           0       -1.236763   -3.437887   -0.417378
     10          6           0       -2.569143   -3.467774    0.015972
     11          6           0       -3.193630   -2.288209    0.443247
     12          6           0       -2.485737   -1.078757    0.437173
     13          1           0        1.433739   -0.590542   -0.762430
     14          1           0        1.580827    3.622541   -0.019631
     15          1           0       -2.017243    1.436943    0.755291
     16          1           0       -3.109635   -4.391217    0.020611
     17         17           0       -3.270022    0.402643    0.973785
     18         17           0       -4.866948   -2.325743    0.987490
     19         17           0       -1.076334    4.150614    0.954955
     20         17           0       -0.452478   -4.919287   -0.953987
     21         17           0        3.338142    1.557066   -0.986504
     22         17           0        1.144450   -2.190902   -0.967687
 ---------------------------------------------------------------------
                    Distance matrix (angstroms):
                    1          2          3          4          5
     1  C    0.000000
     2  C    1.401400   0.000000
     3  C    2.427296   1.401400   0.000000
     4  C    2.802800   2.427296   1.401400   0.000000
     5  C    2.427296   2.802800   2.427296   1.401400   0.000000
     6  C    1.401400   2.427296   2.802800   2.427296   1.401400
     7  C    1.540000   2.548270   3.838989   4.342800   3.838989
     8  C    2.548270   2.941400   4.342800   5.187469   4.975106
     9  C    3.838989   4.342800   5.744200   6.558176   6.235992
    10  C    4.342800   5.187469   6.558176   7.145600   6.558176
    11  C    3.838989   4.975106   6.235992   6.558176   5.744200
    12  C    2.548270   3.813607   4.975106   5.187469   4.342800
    13  H    2.146700   1.070000   2.146700   3.396345   3.872800
    14  H    3.872800   3.396345   2.146700   1.070000   2.146700
    15  H    2.146700   3.396345   3.872800   3.396345   2.146700
    16  H    5.412800   6.232802   7.612271   8.215600   7.612271
    17  Cl   3.057342   4.456874   5.254079   4.983028   3.783409
    18  Cl   5.286324   6.549198   7.713260   7.819846   6.797295
    19  Cl   4.048303   4.562800   4.048303   2.743718   1.760000
    20  Cl   5.286324   5.440665   6.797295   7.819846   7.713260
    21  Cl   4.048303   2.743718   1.760000   2.743718   4.048303
    22  Cl   3.057342   2.563702   3.783409   4.983028   5.254079
                    6          7          8          9         10
     6  C    0.000000
     7  C    2.548270   0.000000
     8  C    3.813607   1.401400   0.000000
     9  C    4.975106   2.427296   1.401400   0.000000
    10  C    5.187469   2.802800   2.427296   1.401400   0.000000
    11  C    4.342800   2.427296   2.802800   2.427296   1.401400
    12  C    2.941400   1.401400   2.427296   2.802800   2.427296
    13  H    3.396345   2.736837   2.578650   3.918930   4.990735
    14  H    3.396345   5.412800   6.232802   7.612271   8.215600
    15  H    1.070000   2.736837   4.127917   5.074276   4.990735
    16  H    6.232802   3.872800   3.396345   2.146700   1.070000
    17  Cl   2.563702   2.743718   4.048303   4.562800   4.048303
    18  Cl   5.440665   4.048303   4.562800   4.048303   2.743718
    19  Cl   2.743718   5.286324   6.549198   7.713260   7.819846
    20  Cl   6.549198   4.048303   2.743718   1.760000   2.743718
    21  Cl   4.562800   5.286324   5.440665   6.797295   7.819846
    22  Cl   4.456874   2.743718   1.760000   2.743718   4.048303
                   11         12         13         14         15
    11  C    0.000000
    12  C    1.401400   0.000000
    13  H    5.074276   4.127917   0.000000
    14  H    7.612271   6.232802   4.280590   0.000000
    15  H    3.918930   2.578650   4.280590   4.280590   0.000000
    16  H    2.146700   3.396345   5.974992   9.285600   5.974992
    17  Cl   2.743718   1.760000   5.111382   5.906383   1.639199
    18  Cl   1.760000   2.743718   6.765486   8.830073   4.725732
    19  Cl   6.797295   5.440665   5.632800   2.879094   2.879094
    20  Cl   4.048303   4.562800   4.725732   8.830073   6.765486
    21  Cl   7.713260   6.549198   2.879094   2.879094   5.632800
    22  Cl   4.562800   4.048303   1.639199   5.906383   5.111382
                   16         17         18         19         20
    16  H    0.000000
    17  Cl   4.890332   0.000000
    18  Cl   2.879094   3.161400   0.000000
    19  Cl   8.830073   4.342800   7.504200   0.000000
    20  Cl   2.879094   6.322800   5.475705   9.289584   0.000000
    21  Cl   8.830073   6.988795   9.289584   5.475705   7.504200
    22  Cl   4.890332   5.475705   6.322800   6.988795   3.161400
                   21         22
    21  Cl   0.000000
    22  Cl   4.342800   0.000000
 Stoichiometry    C12H4Cl6
 Framework group  C1[X(C12H4Cl6)]
 Deg. of freedom    60
 Full point group                 C1      NOp   1
 Largest Abelian subgroup         C1      NOp   1
 Largest concise Abelian subgroup C1      NOp   1
                         Standard orientation:                         
 ---------------------------------------------------------------------
 Center     Atomic      Atomic             Coordinates (Angstroms)
 Number     Number       Type             X           Y           Z
 ---------------------------------------------------------------------
      1          6           0       -0.872317    0.000000    0.000002
      2          6           0       -1.573017   -1.213648   -0.000000
      3          6           0       -2.974417   -1.213648   -0.000002
      4          6           0       -3.675117    0.000000   -0.000002
      5          6           0       -2.974417    1.213648    0.000002
      6          6           0       -1.573017    1.213648    0.000004
      7          6           0        0.667683    0.000000    0.000003
      8          6           0        1.368383   -1.213648    0.000003
      9          6           0        2.769783   -1.213648    0.000003
     10          6           0        3.470483    0.000000    0.000001
     11          6           0        2.769783    1.213648    0.000000
     12          6           0        1.368383    1.213648    0.000001
     13          1           0       -1.038017   -2.140295   -0.000002
     14          1           0       -4.745117   -0.000000   -0.000004
     15          1           0       -1.038017    2.140295    0.000006
     16          1           0        4.540483    0.000000   -0.000001
     17         17           0        0.488383    2.737853   -0.000002
     18         17           0        3.649783    2.737853   -0.000006
     19         17           0       -3.854417    2.737853    0.000005
     20         17           0        3.649783   -2.737853    0.000003
     21         17           0       -3.854417   -2.737853   -0.000006
     22         17           0        0.488383   -2.737853    0.000000
 ---------------------------------------------------------------------
 Rotational constants (GHZ):           0.2932520           0.1770257           0.1103883
 Standard basis: 6-311+G(d,p) (5D, 7F)
 There are   486 symmetry adapted cartesian basis functions of A   symmetry.
 There are   468 symmetry adapted basis functions of A   symmetry.
   468 basis functions,   782 primitive gaussians,   486 cartesian basis functions
    89 alpha electrons       89 beta electrons
       nuclear repulsion energy      2012.4811205455 Hartrees.
 NAtoms=   22 NActive=   22 NUniq=   22 SFac= 1.00D+00 NAtFMM=   60 NAOKFM=F Big=F
 Integral buffers will be    131072 words long.
 Raffenetti 2 integral format.
 Two-electron integral symmetry is turned on.
 One-electron integrals computed using PRISM.
 NBasis=   468 RedAO= T EigKep=  1.10D-06  NBF=   468
 NBsUse=   462 1.00D-06 EigRej=  5.11D-07 NBFU=   462
 ExpMin= 4.38D-02 ExpMax= 1.06D+05 ExpMxC= 3.62D+03 IAcc=3 IRadAn=         5 AccDes= 0.00D+00
 Harris functional with IExCor=  402 and IRadAn=       5 diagonalized for initial guess.
 HarFok:  IExCor=  402 AccDes= 0.00D+00 IRadAn=         5 IDoV= 1 UseB2=F ITyADJ=14
 ICtDFT=  3500011 ScaDFX=  1.000000  1.000000  1.000000  1.000000
 FoFCou: FMM=F IPFlag=           0 FMFlag=      100000 FMFlg1=           0
         NFxFlg=           0 DoJE=T BraDBF=F KetDBF=T FulRan=T
         wScrn=  0.000000 ICntrl=       500 IOpCl=  0 I1Cent=   200000004 NGrid=           0
         NMat0=    1 NMatS0=      1 NMatT0=    0 NMatD0=    1 NMtDS0=    0 NMtDT0=    0
 Petite list used in FoFCou.
 Requested convergence on RMS density matrix=1.00D-08 within  32 cycles.
 Requested convergence on MAX density matrix=1.00D-06.
 Requested convergence on             energy=1.00D-06.
 No special actions if energy rises.
 SCF Done:  E(RB3LYP) =  -3221.01796914     A.U. after   16 cycles
            NFock= 16  Conv=0.35D-08     -V/T= 2.0025
 QCSCF skips out because SCF is already converged.

 **********************************************************************

            Population analysis using the SCF Density.

 **********************************************************************

 Orbital symmetries:
       Occupied  (A) (A) (A) (A) (A) (A) (A) (A) (A) (A) (A) (A)
                 (A) (A) (A) (A) (A) (A) (A) (A) (A) (A) (A) (A)
                 (A) (A) (A) (A) (A) (A) (A) (A) (A) (A) (A) (A)
                 (A) (A) (A) (A) (A) (A) (A) (A) (A) (A) (A) (A)
                 (A) (A) (A) (A) (A) (A) (A) (A) (A) (A) (A) (A)
                 (A) (A) (A) (A) (A) (A) (A) (A) (A) (A) (A) (A)
                 (A) (A) (A) (A) (A) (A) (A) (A) (A) (A) (A) (A)
                 (A) (A) (A) (A) (A)
       Virtual   (A) (A) (A) (A) (A) (A) (A) (A) (A) (A) (A) (A)
                 (A) (A) (A) (A) (A) (A) (A) (A) (A) (A) (A) (A)
                 (A) (A) (A) (A) (A) (A) (A) (A) (A) (A) (A) (A)
                 (A) (A) (A) (A) (A) (A) (A) (A) (A) (A) (A) (A)
                 (A) (A) (A) (A) (A) (A) (A) (A) (A) (A) (A) (A)
                 (A) (A) (A) (A) (A) (A) (A) (A) (A) (A) (A) (A)
                 (A) (A) (A) (A) (A) (A) (A) (A) (A) (A) (A) (A)
                 (A) (A) (A) (A) (A) (A) (A) (A) (A) (A) (A) (A)
                 (A) (A) (A) (A) (A) (A) (A) (A) (A) (A) (A) (A)
                 (A) (A) (A) (A) (A) (A) (A) (A) (A) (A) (A) (A)
                 (A) (A) (A) (A) (A) (A) (A) (A) (A) (A) (A) (A)
                 (A) (A) (A) (A) (A) (A) (A) (A) (A) (A) (A) (A)
                 (A) (A) (A) (A) (A) (A) (A) (A) (A) (A) (A) (A)
                 (A) (A) (A) (A) (A) (A) (A) (A) (A) (A) (A) (A)
                 (A) (A) (A) (A) (A) (A) (A) (A) (A) (A) (A) (A)
                 (A) (A) (A) (A) (A) (A) (A) (A) (A) (A) (A) (A)
                 (A) (A) (A) (A) (A) (A) (A) (A) (A) (A) (A) (A)
                 (A) (A) (A) (A) (A) (A) (A) (A) (A) (A) (A) (A)
                 (A) (A) (A) (A) (A) (A) (A) (A) (A) (A) (A) (A)
                 (A) (A) (A) (A) (A) (A) (A) (A) (A) (A) (A) (A)
                 (A) (A) (A) (A) (A) (A) (A) (A) (A) (A) (A) (A)
                 (A) (A) (A) (A) (A) (A) (A) (A) (A) (A) (A) (A)
                 (A) (A) (A) (A) (A) (A) (A) (A) (A) (A) (A) (A)
                 (A) (A) (A) (A) (A) (A) (A) (A) (A) (A) (A) (A)
                 (A) (A) (A) (A) (A) (A) (A) (A) (A) (A) (A) (A)
                 (A) (A) (A) (A) (A) (A) (A) (A) (A) (A) (A) (A)
                 (A) (A) (A) (A) (A) (A) (A) (A) (A) (A) (A) (A)
                 (A) (A) (A) (A) (A) (A) (A) (A) (A) (A) (A) (A)
                 (A) (A) (A) (A) (A) (A) (A) (A) (A) (A) (A) (A)
                 (A) (A) (A) (A) (A) (A) (A) (A) (A) (A) (A) (A)
                 (A) (A) (A) (A) (A) (A) (A) (A) (A) (A) (A) (A)
                 (A)
 The electronic state is 1-A.
 Alpha  occ. eigenvalues -- -101.58861-101.58861-101.58682-101.58682-101.56613
 Alpha  occ. eigenvalues -- -101.56613 -10.29006 -10.29004 -10.28927 -10.28926
 Alpha  occ. eigenvalues --  -10.25656 -10.25568 -10.25568 -10.23695 -10.22861
 Alpha  occ. eigenvalues --  -10.20726 -10.18458 -10.18457  -9.50637  -9.50637
 Alpha  occ. eigenvalues --   -9.50096  -9.50095  -9.48050  -9.48050  -7.27067
 Alpha  occ. eigenvalues --   -7.27067  -7.26600  -7.26600  -7.26084  -7.26084
 Alpha  occ. eigenvalues --   -7.26046  -7.26046  -7.25572  -7.25572  -7.25510
 Alpha  occ. eigenvalues --   -7.25510  -7.24517  -7.24517  -7.23530  -7.23530
 Alpha  occ. eigenvalues --   -7.23500  -7.23500  -0.96954  -0.93559  -0.91918
 Alpha  occ. eigenvalues --   -0.90170  -0.89197  -0.88141  -0.85783  -0.84050
 Alpha  occ. eigenvalues --   -0.79553  -0.76411  -0.76248  -0.74473  -0.67625
 Alpha  occ. eigenvalues --   -0.63885  -0.62672  -0.62240  -0.56504  -0.55213
 Alpha  occ. eigenvalues --   -0.54249  -0.49873  -0.49690  -0.49212  -0.49111
 Alpha  occ. eigenvalues --   -0.47230  -0.46807  -0.46634  -0.43542  -0.43093
 Alpha  occ. eigenvalues --   -0.42340  -0.41946  -0.41530  -0.41261  -0.39059
 Alpha  occ. eigenvalues --   -0.37586  -0.37038  -0.35345  -0.35085  -0.34642
 Alpha  occ. eigenvalues --   -0.33476  -0.33307  -0.32590  -0.30246  -0.30201
 Alpha  occ. eigenvalues --   -0.29151  -0.27940  -0.26484  -0.25840
 Alpha virt. eigenvalues --   -0.08474  -0.06898  -0.05887  -0.03953  -0.02616
 Alpha virt. eigenvalues --   -0.02155  -0.00972  -0.00741  -0.00536   0.01150
 Alpha virt. eigenvalues --    0.01324   0.01869   0.02310   0.02391   0.03714
 Alpha virt. eigenvalues --    0.04855   0.05047   0.05098   0.05201   0.06204
 Alpha virt. eigenvalues --    0.06376   0.06490   0.06878   0.07570   0.08023
 Alpha virt. eigenvalues --    0.08040   0.08704   0.09262   0.09285   0.10047
 Alpha virt. eigenvalues --    0.10320   0.10558   0.10774   0.11220   0.11514
 Alpha virt. eigenvalues --    0.11757   0.12242   0.12620   0.13172   0.13225
 Alpha virt. eigenvalues --    0.13405   0.14176   0.14529   0.14880   0.15051
 Alpha virt. eigenvalues --    0.15095   0.15367   0.15512   0.16934   0.17365
 Alpha virt. eigenvalues --    0.17640   0.18181   0.18632   0.18876   0.19215
 Alpha virt. eigenvalues --    0.19460   0.19560   0.19747   0.19956   0.20551
 Alpha virt. eigenvalues --    0.20881   0.21035   0.21869   0.22211   0.22900
 Alpha virt. eigenvalues --    0.23480   0.23718   0.24180   0.24465   0.24708
 Alpha virt. eigenvalues --    0.25066   0.25275   0.25537   0.26295   0.26942
 Alpha virt. eigenvalues --    0.27211   0.27529   0.28912   0.29598   0.29686
 Alpha virt. eigenvalues --    0.29943   0.30618   0.31986   0.32088   0.32649
 Alpha virt. eigenvalues --    0.33059   0.33123   0.35079   0.35472   0.35956
 Alpha virt. eigenvalues --    0.36521   0.38987   0.40839   0.41357   0.41582
 Alpha virt. eigenvalues --    0.42464   0.42662   0.42692   0.43223   0.44394
 Alpha virt. eigenvalues --    0.44622   0.44955   0.45655   0.45967   0.46110
 Alpha virt. eigenvalues --    0.46400   0.47677   0.47796   0.47949   0.49742
 Alpha virt. eigenvalues --    0.50632   0.50865   0.52093   0.52465   0.52951
 Alpha virt. eigenvalues --    0.54227   0.55813   0.55865   0.57391   0.57553
 Alpha virt. eigenvalues --    0.57730   0.57876   0.58358   0.59191   0.60184
 Alpha virt. eigenvalues --    0.60348   0.61066   0.62313   0.62611   0.63021
 Alpha virt. eigenvalues --    0.63215   0.64607   0.67115   0.67164   0.67448
 Alpha virt. eigenvalues --    0.67716   0.68301   0.69235   0.72957   0.74392
 Alpha virt. eigenvalues --    0.76740   0.78629   0.78667   0.80343   0.80796
 Alpha virt. eigenvalues --    0.81275   0.82403   0.82615   0.83207   0.83393
 Alpha virt. eigenvalues --    0.84287   0.84587   0.84926   0.84946   0.85589
 Alpha virt. eigenvalues --    0.85840   0.86072   0.86197   0.86609   0.86891
 Alpha virt. eigenvalues --    0.86994   0.87183   0.87985   0.88265   0.88776
 Alpha virt. eigenvalues --    0.89126   0.89847   0.90113   0.92315   0.93274
 Alpha virt. eigenvalues --    0.93485   0.93617   0.94803   0.94868   0.95255
 Alpha virt. eigenvalues --    0.95651   0.96689   0.96733   0.97871   0.98672
 Alpha virt. eigenvalues --    0.98806   0.99030   0.99416   1.01281   1.03233
 Alpha virt. eigenvalues --    1.06054   1.07832   1.08970   1.09757   1.10413
 Alpha virt. eigenvalues --    1.12375   1.13851   1.14381   1.16691   1.17013
 Alpha virt. eigenvalues --    1.19349   1.22131   1.22299   1.23561   1.23976
 Alpha virt. eigenvalues --    1.25277   1.25362   1.26827   1.27877   1.28565
 Alpha virt. eigenvalues --    1.30008   1.30443   1.32326   1.34419   1.35115
 Alpha virt. eigenvalues --    1.38229   1.39802   1.42258   1.43146   1.45979
 Alpha virt. eigenvalues --    1.49376   1.50201   1.53822   1.56037   1.56817
 Alpha virt. eigenvalues --    1.58112   1.60720   1.60725   1.62510   1.63462
 Alpha virt. eigenvalues --    1.65642   1.67893   1.68208   1.71742   1.73615
 Alpha virt. eigenvalues --    1.74883   1.75617   1.80828   1.81434   1.83734
 Alpha virt. eigenvalues --    1.83832   1.85891   1.87200   1.88466   1.88707
 Alpha virt. eigenvalues --    1.92298   1.93953   1.95667   1.95861   1.96435
 Alpha virt. eigenvalues --    1.99545   2.01607   2.02068   2.03651   2.06607
 Alpha virt. eigenvalues --    2.09691   2.13660   2.13706   2.15133   2.19775
 Alpha virt. eigenvalues --    2.19810   2.21029   2.22586   2.23412   2.23903
 Alpha virt. eigenvalues --    2.26193   2.26711   2.27357   2.28046   2.32260
 Alpha virt. eigenvalues --    2.33138   2.33810   2.35473   2.36025   2.40128
 Alpha virt. eigenvalues --    2.41047   2.42563   2.43248   2.43431   2.49721
 Alpha virt. eigenvalues --    2.51800   2.52567   2.54096   2.55983   2.56124
 Alpha virt. eigenvalues --    2.58298   2.58409   2.60601   2.60633   2.63124
 Alpha virt. eigenvalues --    2.64563   2.69216   2.69551   2.72331   2.72541
 Alpha virt. eigenvalues --    2.72582   2.73818   2.74430   2.78112   2.80151
 Alpha virt. eigenvalues --    2.80206   2.81370   2.83016   2.84862   2.90293
 Alpha virt. eigenvalues --    2.92266   2.95352   3.01911   3.03854   3.06644
 Alpha virt. eigenvalues --    3.09119   3.11116   3.12462   3.12524   3.17881
 Alpha virt. eigenvalues --    3.21125   3.22636   3.23202   3.25717   3.32514
 Alpha virt. eigenvalues --    3.34319   3.41430   3.51118   3.54174   3.59250
 Alpha virt. eigenvalues --    3.68759   3.74457   3.74912   3.82770   3.89112
 Alpha virt. eigenvalues --    3.99048   4.12145   4.19385   4.44136   4.78196
 Alpha virt. eigenvalues --    4.83141   9.74433   9.76567   9.77478   9.78760
 Alpha virt. eigenvalues --    9.86897   9.87776  23.30602  23.54376  23.77085
 Alpha virt. eigenvalues --   23.82573  23.85337  23.88633  23.91948  23.97021
 Alpha virt. eigenvalues --   24.02672  24.03653  24.05112  24.12048  25.76125
 Alpha virt. eigenvalues --   25.77733  25.81418  25.82123  25.86610  25.87887
 Alpha virt. eigenvalues --   26.08746  26.09346  26.17007  26.22156  26.45806
 Alpha virt. eigenvalues --   26.49663  26.59801  26.65456  26.73900  26.76115
 Alpha virt. eigenvalues --   26.83060  26.95375 215.73625 215.75563 215.76997
 Alpha virt. eigenvalues --  215.78225 215.89475 215.90334
          Condensed to atoms (all electrons):
               1          2          3          4          5          6
     1  C   29.891144   2.349073  -5.711711  -1.001209  -5.711711   2.349073
     2  C    2.349073  17.750057   3.919755  -8.628224  -0.139079  -1.270142
     3  C   -5.711711   3.919755  24.023277  -4.477495  -4.961168  -0.139080
     4  C   -1.001209  -8.628224  -4.477495  33.388901  -4.477499  -8.628223
     5  C   -5.711711  -0.139079  -4.961168  -4.477499  24.023277   3.919756
     6  C    2.349073  -1.270142  -0.139080  -8.628223   3.919756  17.750056
     7  C   11.046799   0.251066  -3.213931  -1.882391  -3.213931   0.251066
     8  C   -3.575800  -0.454788   0.505505   0.910568  -3.325794  -4.705445
     9  C   -7.543346   0.040996   0.513162   0.207897  -1.047408  -2.407531
    10  C   -2.243801   0.498831  -0.036917   0.173313  -0.036918   0.498829
    11  C   -7.543346  -2.407531  -1.047408   0.207896   0.513162   0.040996
    12  C   -3.575801  -4.705446  -3.325794   0.910567   0.505506  -0.454787
    13  H   -0.253450   0.365497   0.126827   0.181808  -0.011778  -0.054824
    14  H    0.081200   0.069526  -0.000446   0.101196  -0.000446   0.069526
    15  H   -0.253449  -0.054824  -0.011778   0.181808   0.126827   0.365497
    16  H    0.009731   0.000640   0.000092  -0.000010   0.000092   0.000640
    17  Cl   0.339363   0.051017   0.181476  -0.095511  -1.118645  -1.190025
    18  Cl  -0.037712  -0.044180  -0.003149  -0.002323   0.031385   0.016055
    19  Cl  -0.517022   0.231351   0.037938  -0.302794  -0.398608   0.584975
    20  Cl  -0.037712   0.016055   0.031385  -0.002323  -0.003149  -0.044180
    21  Cl  -0.517021   0.584975  -0.398608  -0.302794   0.037938   0.231351
    22  Cl   0.339363  -1.190025  -1.118645  -0.095511   0.181476   0.051017
               7          8          9         10         11         12
     1  C   11.046799  -3.575800  -7.543346  -2.243801  -7.543346  -3.575801
     2  C    0.251066  -0.454788   0.040996   0.498831  -2.407531  -4.705446
     3  C   -3.213931   0.505505   0.513162  -0.036917  -1.047408  -3.325794
     4  C   -1.882391   0.910568   0.207897   0.173313   0.207896   0.910567
     5  C   -3.213931  -3.325794  -1.047408  -0.036918   0.513162   0.505506
     6  C    0.251066  -4.705445  -2.407531   0.498829   0.040996  -0.454787
     7  C   26.819990  -1.499593  -9.842393   1.471653  -9.842393  -1.499593
     8  C   -1.499593  17.982745   1.139644  -7.313149   3.593072   3.340075
     9  C   -9.842393   1.139644  27.506586  -3.031359  -4.294362   3.593072
    10  C    1.471653  -7.313149  -3.031359  27.174070  -3.031358  -7.313148
    11  C   -9.842393   3.593072  -4.294362  -3.031358  27.506586   1.139644
    12  C   -1.499593   3.340075   3.593072  -7.313148   1.139644  17.982744
    13  H   -0.092072   0.164127   0.032010  -0.007251  -0.003167   0.002534
    14  H    0.027183   0.003266   0.000327  -0.000054   0.000327   0.003266
    15  H   -0.092072   0.002534  -0.003167  -0.007251   0.032010   0.164127
    16  H    0.047216   0.058056  -0.000449   0.175615  -0.000449   0.058056
    17  Cl  -0.153197   0.202056   0.791125   0.618692   0.274409  -1.473161
    18  Cl  -0.411980   0.206681  -0.189356  -0.682992  -0.508112   0.995780
    19  Cl  -0.212887  -0.135761  -0.025281  -0.002074  -0.019625  -0.056182
    20  Cl  -0.411980   0.995780  -0.508112  -0.682992  -0.189356   0.206681
    21  Cl  -0.212887  -0.056182  -0.019625  -0.002074  -0.025281  -0.135761
    22  Cl  -0.153197  -1.473161   0.274409   0.618692   0.791125   0.202056
              13         14         15         16         17         18
     1  C   -0.253450   0.081200  -0.253449   0.009731   0.339363  -0.037712
     2  C    0.365497   0.069526  -0.054824   0.000640   0.051017  -0.044180
     3  C    0.126827  -0.000446  -0.011778   0.000092   0.181476  -0.003149
     4  C    0.181808   0.101196   0.181808  -0.000010  -0.095511  -0.002323
     5  C   -0.011778  -0.000446   0.126827   0.000092  -1.118645   0.031385
     6  C   -0.054824   0.069526   0.365497   0.000640  -1.190025   0.016055
     7  C   -0.092072   0.027183  -0.092072   0.047216  -0.153197  -0.411980
     8  C    0.164127   0.003266   0.002534   0.058056   0.202056   0.206681
     9  C    0.032010   0.000327  -0.003167  -0.000449   0.791125  -0.189356
    10  C   -0.007251  -0.000054  -0.007251   0.175615   0.618692  -0.682992
    11  C   -0.003167   0.000327   0.032010  -0.000449   0.274409  -0.508112
    12  C    0.002534   0.003266   0.164127   0.058056  -1.473161   0.995780
    13  H    0.693124  -0.000536  -0.000129   0.000002   0.001473   0.000088
    14  H   -0.000536   0.504900  -0.000536   0.000000   0.000066   0.000000
    15  H   -0.000129  -0.000536   0.693124   0.000002  -0.257386   0.006075
    16  H    0.000002   0.000000   0.000002   0.483292  -0.000212  -0.003184
    17  Cl   0.001473   0.000066  -0.257386  -0.000212  18.487236  -0.302263
    18  Cl   0.000088   0.000000   0.006075  -0.003184  -0.302263  17.409647
    19  Cl   0.000981  -0.008947  -0.036309   0.000000  -0.068280   0.000966
    20  Cl   0.006075   0.000000   0.000088  -0.003184   0.003674  -0.029346
    21  Cl  -0.036309  -0.008947   0.000981   0.000000   0.004266  -0.000015
    22  Cl  -0.257386   0.000066   0.001473  -0.000212  -0.046002   0.003674
              19         20         21         22
     1  C   -0.517022  -0.037712  -0.517021   0.339363
     2  C    0.231351   0.016055   0.584975  -1.190025
     3  C    0.037938   0.031385  -0.398608  -1.118645
     4  C   -0.302794  -0.002323  -0.302794  -0.095511
     5  C   -0.398608  -0.003149   0.037938   0.181476
     6  C    0.584975  -0.044180   0.231351   0.051017
     7  C   -0.212887  -0.411980  -0.212887  -0.153197
     8  C   -0.135761   0.995780  -0.056182  -1.473161
     9  C   -0.025281  -0.508112  -0.019625   0.274409
    10  C   -0.002074  -0.682992  -0.002074   0.618692
    11  C   -0.019625  -0.189356  -0.025281   0.791125
    12  C   -0.056182   0.206681  -0.135761   0.202056
    13  H    0.000981   0.006075  -0.036309  -0.257386
    14  H   -0.008947   0.000000  -0.008947   0.000066
    15  H   -0.036309   0.000088   0.000981   0.001473
    16  H    0.000000  -0.003184   0.000000  -0.000212
    17  Cl  -0.068280   0.003674   0.004266  -0.046002
    18  Cl   0.000966  -0.029346  -0.000015   0.003674
    19  Cl  17.530974  -0.000015  -0.018282   0.004266
    20  Cl  -0.000015  17.409647   0.000966  -0.302263
    21  Cl  -0.018282   0.000966  17.530974  -0.068280
    22  Cl   0.004266  -0.302263  -0.068280  18.487236
 Mulliken charges:
               1
     1  C   -1.882653
     2  C   -1.234602
     3  C    1.106713
     4  C   -0.367648
     5  C    1.106713
     6  C   -1.234602
     7  C   -1.180475
     8  C   -0.564433
     9  C    0.813161
    10  C   -0.838357
    11  C    0.813161
    12  C   -0.564433
    13  H    0.142355
    14  H    0.159061
    15  H    0.142355
    16  H    0.174268
    17  Cl   0.749830
    18  Cl   0.544261
    19  Cl   0.410617
    20  Cl   0.544261
    21  Cl   0.410617
    22  Cl   0.749830
 Sum of Mulliken charges =  -0.00000
 Mulliken charges with hydrogens summed into heavy atoms:
               1
     1  C   -1.882653
     2  C   -1.092247
     3  C    1.106713
     4  C   -0.208587
     5  C    1.106713
     6  C   -1.092247
     7  C   -1.180475
     8  C   -0.564433
     9  C    0.813161
    10  C   -0.664089
    11  C    0.813161
    12  C   -0.564433
    17  Cl   0.749830
    18  Cl   0.544261
    19  Cl   0.410617
    20  Cl   0.544261
    21  Cl   0.410617
    22  Cl   0.749830
 Electronic spatial extent (au):  <R**2>=           8421.4710
 Charge=             -0.0000 electrons
 Dipole moment (field-independent basis, Debye):
    X=              2.1791    Y=             -0.0000    Z=             -0.0000  Tot=              2.1791
 Quadrupole moment (field-independent basis, Debye-Ang):
   XX=           -144.1730   YY=           -147.8534   ZZ=           -147.2291
   XY=              0.0000   XZ=              0.0000   YZ=              0.0000
 Traceless Quadrupole moment (field-independent basis, Debye-Ang):
   XX=              2.2455   YY=             -1.4349   ZZ=             -0.8106
   XY=              0.0000   XZ=              0.0000   YZ=              0.0000
 Octapole moment (field-independent basis, Debye-Ang**2):
  XXX=             40.3114  YYY=             -0.0000  ZZZ=             -0.0000  XYY=              6.9387
  XXY=             -0.0000  XXZ=             -0.0001  XZZ=              3.7119  YZZ=             -0.0000
  YYZ=             -0.0000  XYZ=              0.0000
 Hexadecapole moment (field-independent basis, Debye-Ang**3):
 XXXX=          -6730.0260 YYYY=          -3879.2321 ZZZZ=           -170.5532 XXXY=              0.0000
 XXXZ=             -0.0000 YYYX=              0.0000 YYYZ=             -0.0001 ZZZX=             -0.0001
 ZZZY=             -0.0000 XXYY=          -1854.6495 XXZZ=          -1214.1350 YYZZ=           -710.0427
 XXYZ=             -0.0001 YYXZ=             -0.0001 ZZXY=              0.0000
 N-N= 2.012481120546D+03 E-N=-1.165364561960D+04  KE= 3.213022881133D+03
 Calling FoFJK, ICntrl=      2127 FMM=F ISym2X=0 I1Cent= 0 IOpClX= 0 NMat=1 NMatS=1 NMatT=0.
 ***** Axes restored to original set *****
 -------------------------------------------------------------------
 Center     Atomic                   Forces (Hartrees/Bohr)
 Number     Number              X              Y              Z
 -------------------------------------------------------------------
      1        6          -0.010150322   -0.017341978    0.000086993
      2        6           0.012072521    0.049757285    0.005367685
      3        6          -0.024486180    0.000054741    0.008077484
      4        6           0.000196517    0.000335872   -0.000001864
      5        6           0.012002831   -0.021382901   -0.007970251
      6        6           0.037447704    0.034849108   -0.005792552
      7        6           0.022631212    0.038665838   -0.000194060
      8        6          -0.003510788   -0.003713517    0.000459326
      9        6           0.000876683   -0.000847383   -0.000448040
     10        6           0.006982435    0.011929645   -0.000059880
     11        6          -0.001166112    0.000352778    0.000450637
     12        6          -0.001520624   -0.004882763   -0.000416136
     13        1           0.004318781    0.049177598    0.007813150
     14        1           0.004825282    0.008244087   -0.000041377
     15        1           0.040728341    0.027786630   -0.008199939
     16        1          -0.003922937   -0.006702398    0.000033619
     17       17          -0.082750117   -0.061340473    0.015742656
     18       17           0.008137489   -0.004603549   -0.003545648
     19       17           0.001861023   -0.003044817   -0.001184932
     20       17          -0.007983069    0.004867435    0.003544247
     21       17          -0.003560856    0.000140591    0.001199545
     22       17          -0.013029812   -0.102301829   -0.014920661
 -------------------------------------------------------------------
 Cartesian Forces:  Max     0.102301829 RMS     0.023478175

 GradGradGradGradGradGradGradGradGradGradGradGradGradGradGradGradGradGrad
 Berny optimization.
 FormGI is forming the generalized inverse of G from B-inverse, IUseBI=4.
 Internal  Forces:  Max     0.189030333 RMS     0.049002541
 Search for a local minimum.
 Step number   1 out of a maximum of  121
 All quantities printed in internal units (Hartrees-Bohrs-Radians)
 Mixed Optimization -- RFO/linear search
 Second derivative matrix not updated -- first step.
 ITU=  0
     Eigenvalues ---    0.00237   0.01506   0.01506   0.02070   0.02070
     Eigenvalues ---    0.02070   0.02070   0.02070   0.02070   0.02070
     Eigenvalues ---    0.02070   0.02070   0.02070   0.02070   0.02070
     Eigenvalues ---    0.02070   0.02070   0.02070   0.02070   0.16000
     Eigenvalues ---    0.16000   0.16000   0.16000   0.23478   0.23478
     Eigenvalues ---    0.23485   0.23500   0.25000   0.25000   0.25000
     Eigenvalues ---    0.25000   0.25000   0.25000   0.25000   0.25000
     Eigenvalues ---    0.25000   0.25000   0.28519   0.29539   0.29539
     Eigenvalues ---    0.29539   0.29539   0.29539   0.29539   0.37230
     Eigenvalues ---    0.37230   0.37230   0.37230   0.41554   0.41554
     Eigenvalues ---    0.41635   0.41797   0.45389   0.45389   0.45389
     Eigenvalues ---    0.45389   0.45389   0.45389   0.45389   0.45389
 RFO step:  Lambda=-3.92779896D-01 EMin= 2.36824177D-03
 Linear search not attempted -- first point.
 Maximum step size (   0.300) exceeded in Quadratic search.
    -- Step size scaled by   0.392
 Iteration  1 RMS(Cart)=  0.09862265 RMS(Int)=  0.00388001
 Iteration  2 RMS(Cart)=  0.00441927 RMS(Int)=  0.00015653
 Iteration  3 RMS(Cart)=  0.00000771 RMS(Int)=  0.00015649
 Iteration  4 RMS(Cart)=  0.00000000 RMS(Int)=  0.00015649
 Variable       Old X    -DE/DX   Delta X   Delta X   Delta X     New X
                                 (Linear)    (Quad)   (Total)
    R1        2.64826   0.03191   0.00000   0.01529   0.01543   2.66369
    R2        2.64826   0.03191   0.00000   0.01529   0.01543   2.66369
    R3        2.91018   0.14898   0.00000   0.08623   0.08623   2.99640
    R4        2.64826  -0.00907   0.00000  -0.00420  -0.00420   2.64406
    R5        2.02201  -0.04185   0.00000  -0.02146  -0.02146   2.00054
    R6        2.64826  -0.04286   0.00000  -0.02036  -0.02050   2.62776
    R7        3.32592  -0.00375   0.00000  -0.00214  -0.00214   3.32378
    R8        2.64826  -0.04286   0.00000  -0.02036  -0.02050   2.62776
    R9        2.02201   0.00955   0.00000   0.00490   0.00490   2.02691
   R10        2.64826  -0.00907   0.00000  -0.00420  -0.00420   2.64406
   R11        3.32592  -0.00375   0.00000  -0.00214  -0.00214   3.32378
   R12        2.02201  -0.04185   0.00000  -0.02146  -0.02146   2.00054
   R13        2.64826   0.13975   0.00000   0.06679   0.06709   2.71536
   R14        2.64826   0.13975   0.00000   0.06679   0.06709   2.71536
   R15        2.64826  -0.00289   0.00000  -0.00134  -0.00135   2.64692
   R16        3.32592  -0.00996   0.00000  -0.00568  -0.00568   3.32024
   R17        2.64826  -0.06400   0.00000  -0.03168  -0.03199   2.61627
   R18        3.32592  -0.00873   0.00000  -0.00498  -0.00498   3.32094
   R19        2.64826  -0.06400   0.00000  -0.03168  -0.03199   2.61627
   R20        2.02201   0.00777   0.00000   0.00398   0.00398   2.02599
   R21        2.64826  -0.00289   0.00000  -0.00134  -0.00135   2.64692
   R22        3.32592  -0.00873   0.00000  -0.00498  -0.00498   3.32094
   R23        3.32592  -0.00996   0.00000  -0.00568  -0.00568   3.32024
    A1        2.09440  -0.10899   0.00000  -0.06552  -0.06522   2.02918
    A2        2.09440   0.05449   0.00000   0.03276   0.03261   2.12700
    A3        2.09440   0.05449   0.00000   0.03276   0.03261   2.12700
    A4        2.09440   0.04924   0.00000   0.03189   0.03204   2.12643
    A5        2.09440   0.00301   0.00000   0.00366   0.00359   2.09799
    A6        2.09440  -0.05224   0.00000  -0.03556  -0.03563   2.05877
    A7        2.09440   0.02136   0.00000   0.01205   0.01190   2.10630
    A8        2.09440  -0.01031   0.00000  -0.00580  -0.00572   2.08867
    A9        2.09440  -0.01105   0.00000  -0.00625  -0.00618   2.08822
   A10        2.09440  -0.03221   0.00000  -0.02236  -0.02266   2.07173
   A11        2.09440   0.01610   0.00000   0.01118   0.01133   2.10573
   A12        2.09440   0.01610   0.00000   0.01118   0.01133   2.10573
   A13        2.09440   0.02136   0.00000   0.01205   0.01190   2.10630
   A14        2.09440  -0.01105   0.00000  -0.00625  -0.00618   2.08822
   A15        2.09440  -0.01031   0.00000  -0.00580  -0.00572   2.08867
   A16        2.09440   0.04924   0.00000   0.03189   0.03204   2.12643
   A17        2.09440   0.00301   0.00000   0.00366   0.00359   2.09799
   A18        2.09440  -0.05225   0.00000  -0.03556  -0.03563   2.05877
   A19        2.09440   0.06850   0.00000   0.03904   0.03872   2.13311
   A20        2.09440   0.06850   0.00000   0.03904   0.03872   2.13311
   A21        2.09440  -0.13700   0.00000  -0.07809  -0.07743   2.01697
   A22        2.09440   0.03308   0.00000   0.02302   0.02333   2.11772
   A23        2.09440   0.15595   0.00000   0.09379   0.09363   2.18803
   A24        2.09440  -0.18903   0.00000  -0.11681  -0.11696   1.97743
   A25        2.09440   0.04150   0.00000   0.02272   0.02240   2.11679
   A26        2.09440  -0.01266   0.00000  -0.00642  -0.00626   2.08814
   A27        2.09440  -0.02884   0.00000  -0.01630  -0.01614   2.07826
   A28        2.09440  -0.01216   0.00000  -0.01338  -0.01402   2.08037
   A29        2.09440   0.00608   0.00000   0.00669   0.00701   2.10141
   A30        2.09440   0.00608   0.00000   0.00669   0.00701   2.10141
   A31        2.09440   0.04150   0.00000   0.02272   0.02240   2.11679
   A32        2.09440  -0.02884   0.00000  -0.01630  -0.01614   2.07826
   A33        2.09440  -0.01266   0.00000  -0.00642  -0.00626   2.08814
   A34        2.09440   0.03308   0.00000   0.02302   0.02333   2.11772
   A35        2.09440   0.15595   0.00000   0.09379   0.09363   2.18803
   A36        2.09440  -0.18903   0.00000  -0.11681  -0.11696   1.97743
    D1        0.00000   0.00000   0.00000   0.00000   0.00000   0.00000
    D2        3.14159  -0.00000   0.00000   0.00000   0.00000   3.14159
    D3       -3.14159  -0.00000   0.00000  -0.00000  -0.00000  -3.14159
    D4       -0.00000  -0.00000   0.00000  -0.00000  -0.00000  -0.00000
    D5       -0.00000  -0.00000   0.00000  -0.00000  -0.00000  -0.00000
    D6        3.14159  -0.00000   0.00000  -0.00000  -0.00000   3.14159
    D7        3.14159   0.00000   0.00000   0.00000   0.00000   3.14159
    D8        0.00000  -0.00000   0.00000  -0.00000  -0.00000  -0.00000
    D9       -0.00000  -0.00000   0.00000  -0.00000  -0.00000  -0.00000
   D10        3.14159  -0.00000   0.00000  -0.00000  -0.00000   3.14159
   D11        3.14159  -0.00000   0.00000  -0.00000  -0.00000   3.14159
   D12       -0.00000  -0.00000   0.00000  -0.00000  -0.00000  -0.00000
   D13        0.00000  -0.00000   0.00000  -0.00000  -0.00000   0.00000
   D14        3.14159  -0.00000   0.00000  -0.00000  -0.00000   3.14159
   D15       -3.14159  -0.00000   0.00000  -0.00000  -0.00000  -3.14159
   D16        0.00000  -0.00000   0.00000  -0.00000  -0.00000   0.00000
   D17       -0.00000  -0.00000   0.00000   0.00000   0.00000  -0.00000
   D18        3.14159   0.00000   0.00000   0.00000   0.00000   3.14159
   D19        3.14159  -0.00000   0.00000  -0.00000  -0.00000   3.14159
   D20        0.00000  -0.00000   0.00000  -0.00000  -0.00000   0.00000
   D21        0.00000   0.00000   0.00000   0.00000   0.00000   0.00000
   D22       -3.14159   0.00000   0.00000   0.00000   0.00000  -3.14159
   D23       -3.14159  -0.00000   0.00000  -0.00000  -0.00000  -3.14159
   D24        0.00000   0.00000   0.00000   0.00000   0.00000   0.00000
   D25       -0.00000   0.00000   0.00000   0.00000   0.00000  -0.00000
   D26        3.14159   0.00000   0.00000   0.00000   0.00000   3.14159
   D27        3.14159  -0.00000   0.00000  -0.00000  -0.00000   3.14159
   D28       -0.00000   0.00000   0.00000   0.00000   0.00000  -0.00000
   D29        3.14159   0.00000   0.00000   0.00000   0.00000   3.14159
   D30        0.00000   0.00000   0.00000   0.00000   0.00000   0.00000
   D31        0.00000   0.00000   0.00000   0.00000   0.00000   0.00000
   D32       -3.14159  -0.00000   0.00000  -0.00000  -0.00000  -3.14159
   D33       -3.14159  -0.00000   0.00000  -0.00000  -0.00000  -3.14159
   D34        0.00000  -0.00000   0.00000  -0.00000  -0.00000  -0.00000
   D35       -0.00000   0.00000   0.00000   0.00000   0.00000  -0.00000
   D36        3.14159  -0.00000   0.00000  -0.00000  -0.00000   3.14159
   D37       -0.00000  -0.00000   0.00000  -0.00000  -0.00000  -0.00000
   D38        3.14159  -0.00000   0.00000  -0.00000  -0.00000   3.14159
   D39        3.14159   0.00000   0.00000   0.00000   0.00000   3.14159
   D40       -0.00000   0.00000   0.00000   0.00000   0.00000  -0.00000
   D41       -0.00000   0.00000   0.00000   0.00000   0.00000  -0.00000
   D42       -3.14159  -0.00000   0.00000  -0.00000  -0.00000  -3.14159
   D43        3.14159   0.00000   0.00000   0.00000   0.00000   3.14159
   D44        0.00000   0.00000   0.00000   0.00000   0.00000   0.00000
   D45        0.00000   0.00000   0.00000   0.00000   0.00000   0.00000
   D46       -3.14159  -0.00000   0.00000  -0.00000  -0.00000  -3.14159
   D47        3.14159   0.00000   0.00000   0.00000   0.00000   3.14159
   D48        0.00000  -0.00000   0.00000  -0.00000  -0.00000   0.00000
   D49        0.00000  -0.00000   0.00000  -0.00000  -0.00000   0.00000
   D50       -3.14159   0.00000   0.00000   0.00000   0.00000  -3.14159
   D51        3.14159   0.00000   0.00000   0.00000   0.00000   3.14159
   D52       -0.00000   0.00000   0.00000   0.00000   0.00000  -0.00000
         Item               Value     Threshold  Converged?
 Maximum Force            0.189030     0.000450     NO 
 RMS     Force            0.049003     0.000300     NO 
 Maximum Displacement     0.533627     0.001800     NO 
 RMS     Displacement     0.099953     0.001200     NO 
 Predicted change in Energy=-1.415369D-01
 GradGradGradGradGradGradGradGradGradGradGradGradGradGradGradGradGradGrad

                          Input orientation:                          
 ---------------------------------------------------------------------
 Center     Atomic      Atomic             Coordinates (Angstroms)
 Number     Number       Type             X           Y           Z
 ---------------------------------------------------------------------
      1          6           0       -0.350306    0.323160   -0.003067
      2          6           0        0.990705    0.398434   -0.430732
      3          6           0        1.696833    1.606343   -0.436512
      4          6           0        1.090464    2.784745   -0.015425
      5          6           0       -0.232059    2.739586    0.411802
      6          6           0       -0.939472    1.532431    0.418148
      7          6           0       -1.151260   -1.045286    0.003805
      8          6           0       -0.558179   -2.282226   -0.423899
      9          6           0       -1.283003   -3.480711   -0.410187
     10          6           0       -2.599588   -3.519789    0.016233
     11          6           0       -3.208357   -2.349547    0.436579
     12          6           0       -2.518283   -1.130646    0.438151
     13          1           0        1.494349   -0.472485   -0.760225
     14          1           0        1.632266    3.710425   -0.020073
     15          1           0       -1.944000    1.547579    0.751938
     16          1           0       -3.141144   -4.445051    0.020881
     17         17           0       -3.489270    0.216909    1.011137
     18         17           0       -4.879650   -2.402813    0.977201
     19         17           0       -1.023450    4.215386    0.949696
     20         17           0       -0.513410   -4.968022   -0.943067
     21         17           0        3.368743    1.634930   -0.981961
     22         17           0        1.089709   -2.473286   -1.002687
 ---------------------------------------------------------------------
                    Distance matrix (angstroms):
                    1          2          3          4          5
     1  C    0.000000
     2  C    1.409565   0.000000
     3  C    2.454631   1.399176   0.000000
     4  C    2.852258   2.424235   1.390550   0.000000
     5  C    2.454631   2.772365   2.392593   1.390550   0.000000
     6  C    1.409565   2.394186   2.772365   2.424235   1.399176
     7  C    1.585629   2.619382   3.916203   4.437886   3.916203
     8  C    2.647328   3.095969   4.495131   5.344069   5.101308
     9  C    3.937652   4.496436   5.895611   6.711566   6.361779
    10  C    4.452853   5.333146   6.703837   7.305110   6.703837
    11  C    3.937652   5.092715   6.361779   6.711566   5.895611
    12  C    2.647328   3.925052   5.101308   5.344069   4.495131
    13  H    2.146880   1.058642   2.113602   3.365620   3.830343
    14  H    3.924850   3.398460   2.145869   1.072593   2.145869
    15  H    2.146880   3.366264   3.830343   3.365620   2.113602
    16  H    5.524960   6.382435   7.761095   8.377218   7.761095
    17  Cl   3.300453   4.709789   5.560744   5.349914   4.163235
    18  Cl   5.376505   6.655098   7.830839   7.971093   6.954426
    19  Cl   4.063287   4.531172   4.016045   2.728886   1.758867
    20  Cl   5.376505   5.596758   6.954426   7.971093   7.830839
    21  Cl   4.063287   2.736392   1.758867   2.728886   4.016045
    22  Cl   3.300453   2.929797   4.163235   5.349914   5.560744
                    6          7          8          9         10
     6  C    0.000000
     7  C    2.619382   0.000000
     8  C    3.925052   1.436904   0.000000
     9  C    5.092715   2.473871   1.400687   0.000000
    10  C    5.333146   2.867224   2.427474   1.384470   0.000000
    11  C    4.496436   2.473871   2.787184   2.388206   1.384470
    12  C    3.095969   1.436904   2.431311   2.787184   2.427474
    13  H    3.366264   2.812666   2.757019   4.109214   5.162293
    14  H    3.398460   5.510479   6.393199   7.769390   8.377703
    15  H    1.058642   2.812666   4.239162   5.202994   5.162293
    16  H    6.382435   3.939331   3.398139   2.137395   1.072108
    17  Cl   2.929797   2.841505   4.110511   4.534332   3.967906
    18  Cl   5.596758   4.085495   4.544528   4.002821   2.714733
    19  Cl   2.736392   5.346561   6.657492   7.819626   7.949119
    20  Cl   6.655098   4.085495   2.735880   1.757364   2.714733
    21  Cl   4.531172   5.346561   5.574609   6.937972   7.949119
    22  Cl   4.709789   2.841505   1.756996   2.644943   3.967906
                   11         12         13         14         15
    11  C    0.000000
    12  C    1.400687   0.000000
    13  H    5.202994   4.239162   0.000000
    14  H    7.769390   6.393199   4.250127   0.000000
    15  H    4.109214   2.757019   4.264919   4.250127   0.000000
    16  H    2.137395   3.398139   6.154609   9.449810   6.154609
    17  Cl   2.644943   1.756996   5.333803   6.284758   2.055657
    18  Cl   1.757364   2.735880   6.882782   8.987285   4.926904
    19  Cl   6.937972   5.574609   5.589210   2.871979   2.829084
    20  Cl   4.002821   4.544528   4.926904   8.987285   6.882782
    21  Cl   7.819626   6.657492   2.829084   2.871979   5.589210
    22  Cl   4.534332   4.110511   2.055657   6.284758   5.333803
                   16         17         18         19         20
    16  H    0.000000
    17  Cl   4.778668   0.000000
    18  Cl   2.847399   2.966016   0.000000
    19  Cl   8.963844   4.698070   7.659739   0.000000
    20  Cl   2.847399   6.289528   5.415882   9.390296   0.000000
    21  Cl   8.963844   7.281179   9.390296   5.448064   7.659739
    22  Cl   4.778668   5.679761   6.289528   7.281179   2.966016
                   21         22
    21  Cl   0.000000
    22  Cl   4.698070   0.000000
 Stoichiometry    C12H4Cl6
 Framework group  C1[X(C12H4Cl6)]
 Deg. of freedom    60
 Full point group                 C1      NOp   1
 Largest Abelian subgroup         C1      NOp   1
 Largest concise Abelian subgroup C1      NOp   1
                         Standard orientation:                         
 ---------------------------------------------------------------------
 Center     Atomic      Atomic             Coordinates (Angstroms)
 Number     Number       Type             X           Y           Z
 ---------------------------------------------------------------------
      1          6           0       -0.962965    0.000000    0.000002
      2          6           0       -1.707171   -1.197093   -0.000001
      3          6           0       -3.106347   -1.196296   -0.000003
      4          6           0       -3.815223    0.000000   -0.000002
      5          6           0       -3.106347    1.196296    0.000002
      6          6           0       -1.707171    1.197093    0.000004
      7          6           0        0.622664    0.000000    0.000002
      8          6           0        1.388742   -1.215655    0.000003
      9          6           0        2.789264   -1.194103    0.000003
     10          6           0        3.489887    0.000000    0.000002
     11          6           0        2.789264    1.194103    0.000000
     12          6           0        1.388742    1.215655    0.000000
     13          1           0       -1.211377   -2.132460   -0.000003
     14          1           0       -4.887815    0.000000   -0.000004
     15          1           0       -1.211377    2.132460    0.000006
     16          1           0        4.561995    0.000000   -0.000000
     17         17           0        0.718722    2.839881   -0.000004
     18         17           0        3.681802    2.707941   -0.000006
     19         17           0       -3.977920    2.724032    0.000007
     20         17           0        3.681802   -2.707941    0.000004
     21         17           0       -3.977920   -2.724032   -0.000006
     22         17           0        0.718722   -2.839881    0.000001
 ---------------------------------------------------------------------
 Rotational constants (GHZ):           0.2898733           0.1679012           0.1063189
 Standard basis: 6-311+G(d,p) (5D, 7F)
 There are   486 symmetry adapted cartesian basis functions of A   symmetry.
 There are   468 symmetry adapted basis functions of A   symmetry.
   468 basis functions,   782 primitive gaussians,   486 cartesian basis functions
    89 alpha electrons       89 beta electrons
       nuclear repulsion energy      1985.9470390473 Hartrees.
 NAtoms=   22 NActive=   22 NUniq=   22 SFac= 1.00D+00 NAtFMM=   60 NAOKFM=F Big=F
 Integral buffers will be    131072 words long.
 Raffenetti 2 integral format.
 Two-electron integral symmetry is turned on.
 One-electron integrals computed using PRISM.
 NBasis=   468 RedAO= T EigKep=  1.13D-06  NBF=   468
 NBsUse=   462 1.00D-06 EigRej=  6.24D-07 NBFU=   462
 Initial guess from the checkpoint file:  "./Gau-266984.chk"
 B after Tr=    -0.000000   -0.000000   -0.000000
         Rot=    1.000000   -0.000000    0.000000    0.000000 Ang=   0.00 deg.
 ExpMin= 4.38D-02 ExpMax= 1.06D+05 ExpMxC= 3.62D+03 IAcc=3 IRadAn=         5 AccDes= 0.00D+00
 Harris functional with IExCor=  402 and IRadAn=       5 diagonalized for initial guess.
 HarFok:  IExCor=  402 AccDes= 0.00D+00 IRadAn=         5 IDoV= 1 UseB2=F ITyADJ=14
 ICtDFT=  3500011 ScaDFX=  1.000000  1.000000  1.000000  1.000000
 FoFCou: FMM=F IPFlag=           0 FMFlag=      100000 FMFlg1=           0
         NFxFlg=           0 DoJE=T BraDBF=F KetDBF=T FulRan=T
         wScrn=  0.000000 ICntrl=       500 IOpCl=  0 I1Cent=   200000004 NGrid=           0
         NMat0=    1 NMatS0=      1 NMatT0=    0 NMatD0=    1 NMtDS0=    0 NMtDT0=    0
 Petite list used in FoFCou.
 Requested convergence on RMS density matrix=1.00D-08 within  32 cycles.
 Requested convergence on MAX density matrix=1.00D-06.
 Requested convergence on             energy=1.00D-06.
 No special actions if energy rises.
 SCF Done:  E(RB3LYP) =  -3221.08992082     A.U. after   16 cycles
            NFock= 16  Conv=0.25D-08     -V/T= 2.0027
 QCSCF skips out because SCF is already converged.
 Calling FoFJK, ICntrl=      2127 FMM=F ISym2X=0 I1Cent= 0 IOpClX= 0 NMat=1 NMatS=1 NMatT=0.
 ***** Axes restored to original set *****
 -------------------------------------------------------------------
 Center     Atomic                   Forces (Hartrees/Bohr)
 Number     Number              X              Y              Z
 -------------------------------------------------------------------
      1        6          -0.009498885   -0.016228977    0.000081408
      2        6           0.000742691    0.012424945    0.002088980
      3        6          -0.014770471   -0.005401606    0.003851839
      4        6           0.001561081    0.002667264   -0.000013563
      5        6           0.002506389   -0.015551926   -0.003746498
      6        6           0.010460396    0.006715689   -0.002184997
      7        6           0.013127506    0.022428530   -0.000112486
      8        6          -0.004994493    0.007149333    0.002988276
      9        6           0.003134690   -0.000977914   -0.001216493
     10        6           0.001273419    0.002175638   -0.000010895
     11        6          -0.002382279    0.002263362    0.001210118
     12        6           0.008666068   -0.000876380   -0.003019751
     13        1           0.006232534    0.001175152   -0.001832673
     14        1           0.003472932    0.005933570   -0.000029781
     15        1          -0.002019370    0.006023226    0.001796402
     16        1          -0.003116959   -0.005325363    0.000026701
     17       17          -0.004232688   -0.004934064    0.000467870
     18       17           0.004176470   -0.009227605   -0.003109096
     19       17           0.001389332   -0.003147493   -0.001048810
     20       17          -0.010077012   -0.000853545    0.003159651
     21       17          -0.003419994   -0.000321966    0.001066265
     22       17          -0.002231358   -0.006109868   -0.000412464
 -------------------------------------------------------------------
 Cartesian Forces:  Max     0.022428530 RMS     0.006264641

 GradGradGradGradGradGradGradGradGradGradGradGradGradGradGradGradGradGrad
 Berny optimization.
 Using GEDIIS/GDIIS optimizer.
 FormGI is forming the generalized inverse of G from B-inverse, IUseBI=4.
 Internal  Forces:  Max     0.017780177 RMS     0.005783237
 Search for a local minimum.
 Step number   2 out of a maximum of  121
 All quantities printed in internal units (Hartrees-Bohrs-Radians)
 Mixed Optimization -- RFO/linear search
 Update second derivatives using D2CorX and points    1    2
 DE= -7.20D-02 DEPred=-1.42D-01 R= 5.08D-01
 TightC=F SS=  1.41D+00  RLast= 3.00D-01 DXNew= 5.0454D-01 8.9996D-01
 Trust test= 5.08D-01 RLast= 3.00D-01 DXMaxT set to 5.05D-01
 ITU=  1  0
 Use linear search instead of GDIIS.
     Eigenvalues ---    0.00237   0.01461   0.01467   0.02070   0.02070
     Eigenvalues ---    0.02070   0.02070   0.02070   0.02070   0.02070
     Eigenvalues ---    0.02070   0.02070   0.02070   0.02070   0.02070
     Eigenvalues ---    0.02070   0.02070   0.02070   0.02070   0.16000
     Eigenvalues ---    0.16000   0.16000   0.16080   0.23460   0.23476
     Eigenvalues ---    0.23478   0.23722   0.24871   0.25000   0.25000
     Eigenvalues ---    0.25000   0.25000   0.25000   0.25000   0.25000
     Eigenvalues ---    0.25000   0.27925   0.29527   0.29537   0.29539
     Eigenvalues ---    0.29539   0.29539   0.29539   0.36257   0.37213
     Eigenvalues ---    0.37230   0.37230   0.38186   0.41382   0.41674
     Eigenvalues ---    0.41720   0.45067   0.45329   0.45389   0.45389
     Eigenvalues ---    0.45389   0.45389   0.45389   0.45389   1.62621
 RFO step:  Lambda=-1.04784896D-02 EMin= 2.36824177D-03
 Quartic linear search produced a step of  0.15162.
 Iteration  1 RMS(Cart)=  0.04040164 RMS(Int)=  0.00105083
 Iteration  2 RMS(Cart)=  0.00107788 RMS(Int)=  0.00004226
 Iteration  3 RMS(Cart)=  0.00000030 RMS(Int)=  0.00004226
 Variable       Old X    -DE/DX   Delta X   Delta X   Delta X     New X
                                 (Linear)    (Quad)   (Total)
    R1        2.66369   0.00170   0.00234  -0.00178   0.00054   2.66423
    R2        2.66369   0.00170   0.00234  -0.00178   0.00054   2.66424
    R3        2.99640  -0.00662   0.01307  -0.06468  -0.05160   2.94480
    R4        2.64406  -0.00917  -0.00064  -0.02100  -0.02164   2.62242
    R5        2.00054   0.00257  -0.00325   0.01684   0.01359   2.01413
    R6        2.62776  -0.00849  -0.00311  -0.01297  -0.01607   2.61169
    R7        3.32378  -0.00359  -0.00032  -0.01254  -0.01287   3.31091
    R8        2.62776  -0.00849  -0.00311  -0.01297  -0.01607   2.61169
    R9        2.02691   0.00688   0.00074   0.01860   0.01934   2.04624
   R10        2.64406  -0.00917  -0.00064  -0.02100  -0.02164   2.62242
   R11        3.32378  -0.00359  -0.00032  -0.01254  -0.01287   3.31091
   R12        2.00054   0.00257  -0.00325   0.01684   0.01359   2.01413
   R13        2.71536   0.00762   0.01017  -0.00698   0.00328   2.71863
   R14        2.71536   0.00762   0.01017  -0.00698   0.00328   2.71863
   R15        2.64692   0.00676  -0.00020   0.01732   0.01711   2.66402
   R16        3.32024  -0.00129  -0.00086  -0.00232  -0.00319   3.31706
   R17        2.61627  -0.01249  -0.00485  -0.01944  -0.02439   2.59188
   R18        3.32094  -0.00465  -0.00076  -0.01527  -0.01602   3.30491
   R19        2.61627  -0.01249  -0.00485  -0.01944  -0.02439   2.59188
   R20        2.02599   0.00617   0.00060   0.01687   0.01747   2.04346
   R21        2.64692   0.00676  -0.00020   0.01732   0.01711   2.66402
   R22        3.32094  -0.00465  -0.00076  -0.01527  -0.01602   3.30491
   R23        3.32024  -0.00129  -0.00086  -0.00232  -0.00319   3.31706
    A1        2.02918  -0.01189  -0.00989  -0.02046  -0.03038   1.99879
    A2        2.12700   0.00594   0.00494   0.01023   0.01519   2.14220
    A3        2.12700   0.00594   0.00494   0.01023   0.01519   2.14220
    A4        2.12643   0.00304   0.00486   0.00087   0.00571   2.13214
    A5        2.09799   0.00457   0.00054   0.03012   0.03067   2.12865
    A6        2.05877  -0.00760  -0.00540  -0.03098  -0.03638   2.02239
    A7        2.10630   0.00836   0.00180   0.03138   0.03320   2.13950
    A8        2.08867  -0.00462  -0.00087  -0.01776  -0.01864   2.07003
    A9        2.08822  -0.00373  -0.00094  -0.01362  -0.01456   2.07366
   A10        2.07173  -0.01090  -0.00344  -0.04403  -0.04743   2.02430
   A11        2.10573   0.00545   0.00172   0.02202   0.02372   2.12944
   A12        2.10573   0.00545   0.00172   0.02202   0.02372   2.12944
   A13        2.10630   0.00836   0.00180   0.03138   0.03320   2.13950
   A14        2.08822  -0.00373  -0.00094  -0.01362  -0.01456   2.07366
   A15        2.08867  -0.00462  -0.00087  -0.01776  -0.01864   2.07003
   A16        2.12643   0.00304   0.00486   0.00087   0.00571   2.13214
   A17        2.09799   0.00457   0.00054   0.03012   0.03067   2.12865
   A18        2.05877  -0.00760  -0.00540  -0.03098  -0.03638   2.02239
   A19        2.13311   0.00735   0.00587   0.01152   0.01729   2.15040
   A20        2.13311   0.00735   0.00587   0.01152   0.01729   2.15040
   A21        2.01697  -0.01470  -0.01174  -0.02304  -0.03459   1.98238
   A22        2.11772   0.00440   0.00354   0.01156   0.01519   2.13291
   A23        2.18803   0.00840   0.01420  -0.00808   0.00607   2.19410
   A24        1.97743  -0.01281  -0.01773  -0.00348  -0.02125   1.95618
   A25        2.11679   0.00394   0.00340   0.00448   0.00778   2.12457
   A26        2.08814   0.01384  -0.00095   0.06532   0.06442   2.15256
   A27        2.07826  -0.01778  -0.00245  -0.06980  -0.07220   2.00606
   A28        2.08037  -0.00199  -0.00213  -0.00903  -0.01135   2.06903
   A29        2.10141   0.00100   0.00106   0.00452   0.00567   2.10708
   A30        2.10141   0.00100   0.00106   0.00452   0.00567   2.10708
   A31        2.11679   0.00394   0.00340   0.00448   0.00778   2.12457
   A32        2.07826  -0.01778  -0.00245  -0.06980  -0.07220   2.00606
   A33        2.08814   0.01384  -0.00095   0.06532   0.06442   2.15256
   A34        2.11772   0.00440   0.00354   0.01156   0.01519   2.13291
   A35        2.18803   0.00840   0.01420  -0.00808   0.00607   2.19410
   A36        1.97743  -0.01281  -0.01773  -0.00348  -0.02125   1.95618
    D1        0.00000  -0.00000   0.00000  -0.00000  -0.00000   0.00000
    D2        3.14159   0.00000   0.00000   0.00000   0.00000  -3.14159
    D3       -3.14159  -0.00000  -0.00000  -0.00000  -0.00000   3.14159
    D4       -0.00000  -0.00000  -0.00000  -0.00000  -0.00000  -0.00000
    D5       -0.00000   0.00000  -0.00000   0.00000   0.00000  -0.00000
    D6        3.14159  -0.00000  -0.00000  -0.00000  -0.00000   3.14159
    D7        3.14159   0.00000   0.00000   0.00000   0.00000  -3.14159
    D8       -0.00000  -0.00000  -0.00000  -0.00000  -0.00000  -0.00000
    D9       -0.00000  -0.00000  -0.00000  -0.00001  -0.00001  -0.00002
   D10        3.14159  -0.00000  -0.00000  -0.00001  -0.00001   3.14158
   D11        3.14159  -0.00000  -0.00000  -0.00001  -0.00001   3.14158
   D12       -0.00000  -0.00000  -0.00000  -0.00001  -0.00001  -0.00002
   D13        0.00000  -0.00000  -0.00000  -0.00000  -0.00000  -0.00000
   D14        3.14159   0.00000  -0.00000   0.00000   0.00000   3.14159
   D15       -3.14159  -0.00000  -0.00000  -0.00000  -0.00000  -3.14159
   D16        0.00000  -0.00000  -0.00000  -0.00000  -0.00000   0.00000
   D17       -0.00000   0.00000   0.00000   0.00000   0.00000  -0.00000
   D18        3.14159   0.00000   0.00000   0.00000   0.00000   3.14159
   D19        3.14159   0.00000  -0.00000   0.00000   0.00000   3.14159
   D20        0.00000  -0.00000  -0.00000  -0.00000  -0.00000  -0.00000
   D21        0.00000  -0.00000   0.00000  -0.00000  -0.00000   0.00000
   D22       -3.14159  -0.00000   0.00000  -0.00000  -0.00000  -3.14159
   D23       -3.14159  -0.00000  -0.00000  -0.00000  -0.00000  -3.14159
   D24        0.00000   0.00000   0.00000   0.00000   0.00000   0.00000
   D25       -0.00000   0.00000   0.00000   0.00000   0.00000  -0.00000
   D26        3.14159   0.00000   0.00000   0.00000   0.00000  -3.14159
   D27        3.14159   0.00000  -0.00000   0.00000   0.00000   3.14159
   D28       -0.00000   0.00000   0.00000   0.00000   0.00000   0.00000
   D29        3.14159   0.00000   0.00000   0.00000   0.00000  -3.14159
   D30        0.00000  -0.00000   0.00000  -0.00000  -0.00000   0.00000
   D31        0.00000   0.00000   0.00000   0.00000   0.00000   0.00000
   D32       -3.14159  -0.00000  -0.00000  -0.00000  -0.00000   3.14159
   D33       -3.14159  -0.00000  -0.00000  -0.00000  -0.00000   3.14159
   D34       -0.00000  -0.00000  -0.00000  -0.00000  -0.00000  -0.00000
   D35       -0.00000   0.00000   0.00000   0.00000   0.00000  -0.00000
   D36        3.14159  -0.00000  -0.00000   0.00000   0.00000   3.14159
   D37       -0.00000  -0.00000  -0.00000  -0.00000  -0.00000  -0.00000
   D38        3.14159  -0.00000  -0.00000  -0.00000  -0.00000   3.14159
   D39        3.14159   0.00000   0.00000   0.00000   0.00000  -3.14159
   D40       -0.00000   0.00000   0.00000   0.00000   0.00000  -0.00000
   D41       -0.00000   0.00000   0.00000   0.00000   0.00000   0.00000
   D42       -3.14159  -0.00000  -0.00000  -0.00000  -0.00000  -3.14159
   D43        3.14159   0.00000   0.00000   0.00000   0.00000  -3.14159
   D44        0.00000  -0.00000   0.00000  -0.00000  -0.00000   0.00000
   D45        0.00000   0.00000   0.00000   0.00000   0.00000   0.00000
   D46       -3.14159  -0.00000  -0.00000  -0.00000  -0.00000  -3.14159
   D47        3.14159   0.00000   0.00000   0.00000   0.00000  -3.14159
   D48        0.00000  -0.00000  -0.00000  -0.00000  -0.00000   0.00000
   D49        0.00000  -0.00000  -0.00000  -0.00000  -0.00000  -0.00000
   D50       -3.14159  -0.00000   0.00000  -0.00000  -0.00000  -3.14159
   D51        3.14159   0.00000   0.00000   0.00000   0.00000   3.14159
   D52       -0.00000   0.00000   0.00000   0.00000   0.00000   0.00000
         Item               Value     Threshold  Converged?
 Maximum Force            0.017780     0.000450     NO 
 RMS     Force            0.005783     0.000300     NO 
 Maximum Displacement     0.232548     0.001800     NO 
 RMS     Displacement     0.040400     0.001200     NO 
 Predicted change in Energy=-4.806445D-03
 GradGradGradGradGradGradGradGradGradGradGradGradGradGradGradGradGradGrad

                          Input orientation:                          
 ---------------------------------------------------------------------
 Center     Atomic      Atomic             Coordinates (Angstroms)
 Number     Number       Type             X           Y           Z
 ---------------------------------------------------------------------
[...]
                 (A) (A) (A) (A) (A) (A) (A) (A) (A) (A) (A) (A)
                 (A) (A) (A) (A) (A) (A) (A) (A) (A) (A) (A) (A)
                 (A) (A) (A) (A) (A) (A) (A) (A) (A) (A) (A) (A)
                 (A) (A) (A) (A) (A) (A) (A) (A) (A) (A) (A) (A)
                 (A) (A) (A) (A) (A) (A) (A) (A) (A) (A) (A) (A)
                 (A) (A) (A) (A) (A) (A) (A) (A) (A) (A) (A) (A)
                 (A) (A) (A) (A) (A) (A) (A) (A) (A) (A) (A) (A)
                 (A) (A) (A) (A) (A) (A) (A) (A) (A) (A) (A) (A)
                 (A) (A) (A) (A) (A) (A) (A) (A) (A) (A) (A) (A)
                 (A) (A) (A) (A) (A) (A) (A) (A) (A) (A) (A) (A)
                 (A) (A) (A) (A) (A) (A) (A) (A) (A) (A) (A) (A)
                 (A) (A) (A) (A) (A) (A) (A) (A) (A) (A) (A) (A)
                 (A) (A) (A) (A) (A) (A) (A) (A) (A) (A) (A) (A)
                 (A) (A) (A) (A) (A) (A) (A) (A) (A) (A) (A) (A)
                 (A) (A) (A) (A) (A) (A) (A) (A) (A) (A) (A) (A)
                 (A) (A) (A) (A) (A) (A) (A) (A) (A) (A) (A) (A)
                 (A) (A) (A) (A) (A) (A) (A) (A) (A) (A) (A) (A)
                 (A) (A) (A) (A) (A) (A) (A) (A) (A) (A) (A) (A)
                 (A) (A) (A) (A) (A) (A) (A) (A) (A) (A) (A) (A)
                 (A) (A) (A) (A) (A) (A) (A) (A) (A) (A) (A) (A)
                 (A) (A) (A) (A) (A) (A) (A) (A) (A) (A) (A) (A)
                 (A) (A) (A) (A) (A) (A) (A) (A) (A) (A) (A) (A)
                 (A) (A) (A) (A) (A) (A) (A) (A) (A) (A) (A) (A)
                 (A) (A) (A) (A) (A) (A) (A) (A) (A) (A) (A) (A)
                 (A) (A) (A) (A) (A) (A) (A) (A) (A) (A) (A) (A)
                 (A) (A) (A) (A) (A) (A) (A) (A) (A) (A) (A) (A)
                 (A) (A) (A)
 The electronic state is 1-A.
 Alpha  occ. eigenvalues -- -101.58191-101.58191-101.58079-101.58079-101.57083
 Alpha  occ. eigenvalues -- -101.57083 -10.28116 -10.28115 -10.27936 -10.27936
 Alpha  occ. eigenvalues --  -10.26504 -10.26504 -10.24588 -10.23032 -10.22944
 Alpha  occ. eigenvalues --  -10.21483 -10.21198 -10.21197  -9.49647  -9.49647
 Alpha  occ. eigenvalues --   -9.49550  -9.49549  -9.48539  -9.48538  -7.26140
 Alpha  occ. eigenvalues --   -7.26140  -7.26041  -7.26041  -7.25124  -7.25124
 Alpha  occ. eigenvalues --   -7.25064  -7.25064  -7.25032  -7.25032  -7.25008
 Alpha  occ. eigenvalues --   -7.25008  -7.24954  -7.24954  -7.24018  -7.24018
 Alpha  occ. eigenvalues --   -7.23981  -7.23981  -0.96294  -0.93000  -0.92379
 Alpha  occ. eigenvalues --   -0.89683  -0.89161  -0.88048  -0.85553  -0.84145
 Alpha  occ. eigenvalues --   -0.79848  -0.76231  -0.75937  -0.74559  -0.68268
 Alpha  occ. eigenvalues --   -0.62815  -0.62706  -0.62044  -0.55222  -0.55195
 Alpha  occ. eigenvalues --   -0.53747  -0.52047  -0.50121  -0.48213  -0.47290
 Alpha  occ. eigenvalues --   -0.46686  -0.46207  -0.45773  -0.43798  -0.43783
 Alpha  occ. eigenvalues --   -0.42485  -0.41160  -0.40279  -0.40271  -0.38047
 Alpha  occ. eigenvalues --   -0.37880  -0.36486  -0.35884  -0.35216  -0.34382
 Alpha  occ. eigenvalues --   -0.33771  -0.33530  -0.33362  -0.33015  -0.32528
 Alpha  occ. eigenvalues --   -0.28629  -0.28061  -0.27036  -0.26801
 Alpha virt. eigenvalues --   -0.06568  -0.06230  -0.05374  -0.04547  -0.04517
 Alpha virt. eigenvalues --   -0.01549  -0.01080  -0.00665   0.00302   0.01308
 Alpha virt. eigenvalues --    0.01498   0.01898   0.02223   0.02426   0.02763
 Alpha virt. eigenvalues --    0.04122   0.04630   0.04783   0.05490   0.05886
 Alpha virt. eigenvalues --    0.06114   0.06433   0.07064   0.07812   0.07980
 Alpha virt. eigenvalues --    0.08078   0.08138   0.08934   0.09453   0.09572
 Alpha virt. eigenvalues --    0.10503   0.10504   0.10665   0.10696   0.10779
 Alpha virt. eigenvalues --    0.11679   0.11797   0.12263   0.12556   0.12985
 Alpha virt. eigenvalues --    0.13007   0.13685   0.13832   0.14047   0.14399
 Alpha virt. eigenvalues --    0.14442   0.14750   0.15269   0.16457   0.16738
 Alpha virt. eigenvalues --    0.17506   0.17787   0.18186   0.18511   0.18631
 Alpha virt. eigenvalues --    0.19333   0.19700   0.19812   0.20006   0.20192
 Alpha virt. eigenvalues --    0.20342   0.20580   0.21414   0.21656   0.21911
 Alpha virt. eigenvalues --    0.22084   0.22150   0.22648   0.23065   0.24001
 Alpha virt. eigenvalues --    0.24246   0.24442   0.24842   0.25735   0.25887
 Alpha virt. eigenvalues --    0.26188   0.26724   0.27505   0.27707   0.27946
 Alpha virt. eigenvalues --    0.28185   0.28263   0.28967   0.29081   0.29364
 Alpha virt. eigenvalues --    0.29790   0.30467   0.31217   0.32104   0.32273
 Alpha virt. eigenvalues --    0.32780   0.34878   0.35960   0.39311   0.41863
 Alpha virt. eigenvalues --    0.42169   0.42529   0.43139   0.43157   0.43833
 Alpha virt. eigenvalues --    0.44198   0.45044   0.45789   0.46054   0.46206
 Alpha virt. eigenvalues --    0.47190   0.47202   0.47972   0.48042   0.48291
 Alpha virt. eigenvalues --    0.48895   0.50416   0.50847   0.51030   0.53877
 Alpha virt. eigenvalues --    0.54667   0.54699   0.55735   0.56214   0.57288
 Alpha virt. eigenvalues --    0.57726   0.58182   0.58677   0.58916   0.59242
 Alpha virt. eigenvalues --    0.60144   0.60458   0.61255   0.62066   0.63371
 Alpha virt. eigenvalues --    0.64090   0.64692   0.64887   0.65177   0.65866
 Alpha virt. eigenvalues --    0.66949   0.68174   0.68244   0.68433   0.69638
 Alpha virt. eigenvalues --    0.69715   0.70665   0.71452   0.75558   0.78206
 Alpha virt. eigenvalues --    0.79298   0.79555   0.81650   0.82331   0.82601
 Alpha virt. eigenvalues --    0.83166   0.83447   0.83647   0.83842   0.84178
 Alpha virt. eigenvalues --    0.84293   0.84371   0.85182   0.85391   0.85708
 Alpha virt. eigenvalues --    0.85725   0.85943   0.86138   0.86247   0.87212
 Alpha virt. eigenvalues --    0.87690   0.87860   0.88898   0.89363   0.92145
 Alpha virt. eigenvalues --    0.92363   0.92966   0.93159   0.94081   0.94409
 Alpha virt. eigenvalues --    0.94477   0.95166   0.95230   0.95572   0.96268
 Alpha virt. eigenvalues --    0.97385   0.97843   0.98243   0.98472   0.99254
 Alpha virt. eigenvalues --    1.00355   1.02441   1.04423   1.05031   1.05937
 Alpha virt. eigenvalues --    1.08461   1.09905   1.10591   1.14613   1.14758
 Alpha virt. eigenvalues --    1.16829   1.18906   1.19436   1.21407   1.22407
 Alpha virt. eigenvalues --    1.23586   1.24247   1.24805   1.26076   1.27903
 Alpha virt. eigenvalues --    1.28215   1.28354   1.29424   1.29534   1.30886
 Alpha virt. eigenvalues --    1.34006   1.36324   1.37397   1.38860   1.42720
 Alpha virt. eigenvalues --    1.44967   1.47234   1.49761   1.54450   1.55074
 Alpha virt. eigenvalues --    1.56499   1.57266   1.58444   1.59320   1.59624
 Alpha virt. eigenvalues --    1.59651   1.60872   1.67035   1.67987   1.68285
 Alpha virt. eigenvalues --    1.72779   1.73602   1.73941   1.74489   1.77994
 Alpha virt. eigenvalues --    1.81500   1.81948   1.84381   1.85547   1.89264
 Alpha virt. eigenvalues --    1.90935   1.91203   1.92407   1.94388   1.95010
 Alpha virt. eigenvalues --    1.95352   1.95646   2.00342   2.02064   2.02842
 Alpha virt. eigenvalues --    2.03298   2.04617   2.10309   2.11005   2.11798
 Alpha virt. eigenvalues --    2.11866   2.16736   2.22602   2.22869   2.24577
 Alpha virt. eigenvalues --    2.24976   2.25914   2.26767   2.27856   2.28114
 Alpha virt. eigenvalues --    2.28945   2.31593   2.33062   2.34597   2.36580
 Alpha virt. eigenvalues --    2.37931   2.40378   2.41277   2.41957   2.44262
 Alpha virt. eigenvalues --    2.45895   2.49576   2.50095   2.50840   2.52954
 Alpha virt. eigenvalues --    2.53387   2.55563   2.56731   2.58162   2.60805
 Alpha virt. eigenvalues --    2.63660   2.64224   2.65035   2.68345   2.69259
 Alpha virt. eigenvalues --    2.70147   2.72550   2.73596   2.73632   2.74106
 Alpha virt. eigenvalues --    2.75113   2.76464   2.77474   2.82309   2.82741
 Alpha virt. eigenvalues --    2.84059   2.88610   2.89913   2.95829   2.98618
 Alpha virt. eigenvalues --    3.05379   3.07136   3.08792   3.11527   3.12285
 Alpha virt. eigenvalues --    3.14347   3.14718   3.21538   3.21922   3.24751
 Alpha virt. eigenvalues --    3.27793   3.34171   3.34959   3.37710   3.50784
 Alpha virt. eigenvalues --    3.57539   3.57933   3.70808   3.74772   3.78244
 Alpha virt. eigenvalues --    3.81033   3.89008   3.99808   4.08704   4.10169
 Alpha virt. eigenvalues --    4.32473   4.79803   4.81913   9.75757   9.76905
 Alpha virt. eigenvalues --    9.77598   9.78734   9.80857   9.84162  23.33966
 Alpha virt. eigenvalues --   23.55108  23.78152  23.85413  23.85442  23.90719
 Alpha virt. eigenvalues --   23.92446  23.99105  24.03718  24.05954  24.07406
 Alpha virt. eigenvalues --   24.14583  25.78706  25.79968  25.81592  25.83081
 Alpha virt. eigenvalues --   25.87507  25.93328  26.07901  26.11507  26.14898
 Alpha virt. eigenvalues --   26.17835  26.23291  26.27072  26.52502  26.57874
 Alpha virt. eigenvalues --   26.60815  26.67897  26.74038  26.96672 215.74985
 Alpha virt. eigenvalues --  215.75957 215.76952 215.78175 215.80803 215.84957
          Condensed to atoms (all electrons):
               1          2          3          4          5          6
     1  C   22.081595  -1.565235  -4.145297   2.655784  -4.144330  -1.567714
     2  C   -1.565235  76.098773 -22.401895 -13.074024   3.066889 -28.119942
     3  C   -4.145297 -22.401895  32.231576  -3.345851  -1.103756   3.064772
     4  C    2.655784 -13.074024  -3.345851  36.433220  -3.345552 -13.073132
     5  C   -4.144330   3.066889  -1.103756  -3.345552  32.234658 -22.408745
     6  C   -1.567714 -28.119942   3.064772 -13.073132 -22.408745  76.108351
     7  C    2.160894  -4.207557   3.190394  -1.537861   3.188384  -4.203552
     8  C   -0.848271  -1.567092  -0.501152   1.174140  -0.503883  -1.561205
     9  C   -3.480640  -0.393119  -0.267185   0.313494  -0.263562  -0.399908
    10  C   -0.223430   0.799147  -0.549867   0.228802  -0.549837   0.798955
    11  C   -3.480857  -0.400000  -0.263805   0.313577  -0.267053  -0.393059
    12  C   -0.847808  -1.560047  -0.504688   1.173932  -0.500140  -1.568135
    13  H    0.114395  -0.116479   0.081866   0.105683  -0.044876   0.072101
    14  H    0.034161   0.038248   0.037004   0.157393   0.036999   0.038242
    15  H    0.114402   0.072102  -0.044871   0.105675   0.081902  -0.116498
    16  H    0.013985  -0.000447   0.000057  -0.000038   0.000057  -0.000445
    17  Cl  -0.222669  -0.281024   0.581744  -0.397577   0.581789  -0.281217
    18  Cl  -0.068127  -0.029482   0.012186  -0.002847   0.012197  -0.029495
    19  Cl  -0.264265   0.479249   0.097024  -0.217662  -1.424431   0.736741
    20  Cl  -0.068121  -0.029486   0.012197  -0.002847   0.012187  -0.029488
    21  Cl  -0.264302   0.736861  -1.424459  -0.217655   0.097004   0.479186
    22  Cl  -0.222769  -0.281081   0.581718  -0.397502   0.581722  -0.281154
               7          8          9         10         11         12
     1  C    2.160894  -0.848271  -3.480640  -0.223430  -3.480857  -0.847808
     2  C   -4.207557  -1.567092  -0.393119   0.799147  -0.400000  -1.560047
     3  C    3.190394  -0.501152  -0.267185  -0.549867  -0.263805  -0.504688
     4  C   -1.537861   1.174140   0.313494   0.228802   0.313577   1.173932
     5  C    3.188384  -0.503883  -0.263562  -0.549837  -0.267053  -0.500140
     6  C   -4.203552  -1.561205  -0.399908   0.798955  -0.393059  -1.568135
     7  C   17.301449  -1.317871  -4.814672   2.445202  -4.814658  -1.317656
     8  C   -1.317871  16.591025  -2.778022  -8.839615   2.258699   5.555657
     9  C   -4.814672  -2.778022  21.503318  -0.385541  -5.136263   2.258494
    10  C    2.445202  -8.839615  -0.385541  22.820519  -0.385040  -8.840675
    11  C   -4.814658   2.258699  -5.136263  -0.385040  21.503885  -2.778877
    12  C   -1.317656   5.555657   2.258494  -8.840675  -2.778877  16.592158
    13  H    0.025349   0.057462   0.013215   0.003701   0.013263   0.057416
    14  H    0.008326   0.000830   0.000096  -0.000014   0.000096   0.000830
    15  H    0.025311   0.057425   0.013260   0.003705   0.013216   0.057460
    16  H    0.039370   0.121291  -0.007579   0.067083  -0.007581   0.121307
    17  Cl   0.447359  -0.642781   0.692923   0.238038  -0.671881  -1.450328
    18  Cl  -0.417442   0.210816  -0.346543  -0.557576  -0.100148   0.782676
    19  Cl  -0.094885  -0.046251  -0.007926  -0.004853  -0.007927  -0.046241
    20  Cl  -0.417428   0.782696  -0.100143  -0.557649  -0.346547   0.210844
    21  Cl  -0.094892  -0.046235  -0.007918  -0.004853  -0.007922  -0.046229
    22  Cl   0.447322  -1.450393  -0.671732   0.238113   0.692922  -0.642713
              13         14         15         16         17         18
     1  C    0.114395   0.034161   0.114402   0.013985  -0.222669  -0.068127
     2  C   -0.116479   0.038248   0.072102  -0.000447  -0.281024  -0.029482
     3  C    0.081866   0.037004  -0.044871   0.000057   0.581744   0.012186
     4  C    0.105683   0.157393   0.105675  -0.000038  -0.397577  -0.002847
     5  C   -0.044876   0.036999   0.081902   0.000057   0.581789   0.012197
     6  C    0.072101   0.038242  -0.116498  -0.000445  -0.281217  -0.029495
     7  C    0.025349   0.008326   0.025311   0.039370   0.447359  -0.417442
     8  C    0.057462   0.000830   0.057425   0.121291  -0.642781   0.210816
     9  C    0.013215   0.000096   0.013260  -0.007579   0.692923  -0.346543
    10  C    0.003701  -0.000014   0.003705   0.067083   0.238038  -0.557576
    11  C    0.013263   0.000096   0.013216  -0.007581  -0.671881  -0.100148
    12  C    0.057416   0.000830   0.057460   0.121307  -1.450328   0.782676
    13  H    0.515371  -0.000214   0.000064  -0.000002  -0.009260   0.000152
    14  H   -0.000214   0.491359  -0.000214  -0.000000  -0.000113   0.000001
    15  H    0.000064  -0.000214   0.515370  -0.000002  -0.009258   0.000152
    16  H   -0.000002  -0.000000  -0.000002   0.487553  -0.000456  -0.003855
    17  Cl  -0.009260  -0.000113  -0.009258  -0.000456  18.177331  -0.259037
    18  Cl   0.000152   0.000001   0.000152  -0.003855  -0.259037  17.321074
    19  Cl  -0.000353  -0.007478  -0.019020  -0.000000   0.001003   0.000118
    20  Cl   0.000152   0.000001   0.000152  -0.003854   0.008571  -0.029330
    21  Cl  -0.019020  -0.007478  -0.000353  -0.000000   0.001000   0.000118
    22  Cl  -0.009257  -0.000113  -0.009258  -0.000456  -0.114510   0.008571
              19         20         21         22
     1  C   -0.264265  -0.068121  -0.264302  -0.222769
     2  C    0.479249  -0.029486   0.736861  -0.281081
     3  C    0.097024   0.012197  -1.424459   0.581718
     4  C   -0.217662  -0.002847  -0.217655  -0.397502
     5  C   -1.424431   0.012187   0.097004   0.581722
     6  C    0.736741  -0.029488   0.479186  -0.281154
     7  C   -0.094885  -0.417428  -0.094892   0.447322
     8  C   -0.046251   0.782696  -0.046235  -1.450393
     9  C   -0.007926  -0.100143  -0.007918  -0.671732
    10  C   -0.004853  -0.557649  -0.004853   0.238113
    11  C   -0.007927  -0.346547  -0.007922   0.692922
    12  C   -0.046241   0.210844  -0.046229  -0.642713
    13  H   -0.000353   0.000152  -0.019020  -0.009257
    14  H   -0.007478   0.000001  -0.007478  -0.000113
    15  H   -0.019020   0.000152  -0.000353  -0.009258
    16  H   -0.000000  -0.003854  -0.000000  -0.000456
    17  Cl   0.001003   0.008571   0.001000  -0.114510
    18  Cl   0.000118  -0.029330   0.000118   0.008571
    19  Cl  17.418514   0.000118  -0.015337   0.000995
    20  Cl   0.000118  17.321076   0.000118  -0.259038
    21  Cl  -0.015337   0.000118  17.418501   0.001003
    22  Cl   0.000995  -0.259038   0.001003  18.177250
 Mulliken charges:
               1
     1  C    0.238617
     2  C   -1.264361
     3  C    0.662289
     4  C   -1.049152
     5  C    0.662378
     6  C   -1.264659
     7  C   -0.040885
     8  C   -0.707270
     9  C    0.265952
    10  C   -0.744313
    11  C    0.265960
    12  C   -0.707237
    13  H    0.139273
    14  H    0.172037
    15  H    0.139275
    16  H    0.174012
    17  Cl   0.610353
    18  Cl   0.495821
    19  Cl   0.422866
    20  Cl   0.495821
    21  Cl   0.422862
    22  Cl   0.610360
 Sum of Mulliken charges =  -0.00000
 Mulliken charges with hydrogens summed into heavy atoms:
               1
     1  C    0.238617
     2  C   -1.125088
     3  C    0.662289
     4  C   -0.877115
     5  C    0.662378
     6  C   -1.125384
     7  C   -0.040885
     8  C   -0.707270
     9  C    0.265952
    10  C   -0.570301
    11  C    0.265960
    12  C   -0.707237
    17  Cl   0.610353
    18  Cl   0.495821
    19  Cl   0.422866
    20  Cl   0.495821
    21  Cl   0.422862
    22  Cl   0.610360
 Electronic spatial extent (au):  <R**2>=           8312.7053
 Charge=             -0.0000 electrons
 Dipole moment (field-independent basis, Debye):
    X=              1.1134    Y=              0.0000    Z=             -0.0000  Tot=              1.1134
 Quadrupole moment (field-independent basis, Debye-Ang):
   XX=           -141.5806   YY=           -149.6067   ZZ=           -146.3381
   XY=              0.0000   XZ=              0.0001   YZ=             -0.0004
 Traceless Quadrupole moment (field-independent basis, Debye-Ang):
   XX=              4.2612   YY=             -3.7649   ZZ=             -0.4962
   XY=              0.0000   XZ=              0.0001   YZ=             -0.0004
 Octapole moment (field-independent basis, Debye-Ang**2):
  XXX=             22.9094  YYY=             -0.0002  ZZZ=             -0.0000  XYY=             -2.6437
  XXY=             -0.0000  XXZ=              0.0024  XZZ=              9.8274  YZZ=             -0.0001
  YYZ=              0.0010  XYZ=             -0.0021
 Hexadecapole moment (field-independent basis, Debye-Ang**3):
 XXXX=          -6619.1696 YYYY=          -2492.4827 ZZZZ=          -1484.6985 XXXY=              0.0018
 XXXZ=              0.0005 YYYX=             -0.0005 YYYZ=              0.0171 ZZZX=              0.0037
 ZZZY=             -0.0134 XXYY=          -1579.1642 XXZZ=          -1442.6286 YYZZ=           -697.6264
 XXYZ=              0.0043 YYXZ=              0.0031 ZZXY=              0.0004
 N-N= 1.998764876980D+03 E-N=-1.162631676724D+04  KE= 3.212687799002D+03
 1\1\GINC-CN242\FOpt\RB3LYP\6-311+G(d,p)\C12H4Cl6\20CY91R06\24-Mar-2022
 \0\\# opt b3lyp/6-311+g(d,p) scf=xqc\\Title Card Required\\0,1\C,-0.37
 98007711,0.2725394397,-0.0025665737\C,0.8944336382,0.3346482111,0.5640
 863256\C,1.5826740938,1.5424798817,0.5498280785\C,1.0356264511,2.69036
 70493,-0.013855978\C,-0.2354089377,2.6015726265,-0.5717502786\C,-0.951
 7442078,1.4101137049,-0.5748047449\C,-1.1354051678,-1.0181489798,0.003
 4521\C,-1.0079520944,-1.925536695,-1.0602083543\C,-1.7167588821,-3.131
 8152964,-1.0504527473\C,-2.5529420046,-3.4393179974,0.0146952027\C,-2.
 6897323997,-2.5522937378,1.0743118164\C,-1.984721881,-1.3437572973,1.0
 728563277\H,1.3444427207,-0.5426912329,1.0094881246\H,1.5817703912,3.6
 232849409,-0.0182170111\H,-1.938869542,1.3699434882,-1.0159224447\H,-3
 .0991852251,-4.372258162,0.019016329\Cl,-2.1553242925,-0.2292016012,2.
 4021170692\Cl,-3.7528840302,-2.9896482845,2.3847635974\Cl,-0.949997933
 4,4.0341303746,-1.2898892913\Cl,-1.5831610734,-4.2819641417,-2.3535884
 428\Cl,3.1845769023,1.6255937338,1.2608733539\Cl,0.0420039352,-1.53797
 15827,-2.3964949193\\Version=EM64L-G16RevB.01\State=1-A\HF=-3221.13442
 8\RMSD=2.970e-09\RMSF=2.665e-06\Dipole=-0.2213224,-0.3780362,0.0017601
 \Quadrupole=0.137123,2.1243491,-2.2614721,1.778528,0.8594493,-0.528411
 9\PG=C01 [X(C12H4Cl6)]\\@


 NEVER TEACH A PIG TO SING.
 IT WASTES YOUR TIME AND ANNOYS THE PIG.
     -- SEEN ON A GREETING CARD
 Job cpu time:       0 days  7 hours 54 minutes 58.5 seconds.
 Elapsed time:       0 days  2 hours  4 minutes 25.9 seconds.
 File lengths (MBytes):  RWF=    143 Int=      0 D2E=      0 Chk=     23 Scr=      1
 Normal termination of Gaussian 16 at Thu Mar 24 12:48:33 2022.
