 Entering Gaussian System, Link 0=g16
 Input=2,3,4prime,6-Tetrachlorobiphenyl.gjf
 Output=2,3,4prime,6-Tetrachlorobiphenyl.log
 Initial command:
 /opt/g16/l1.exe "/scratch/gour/Gau-18035.inp" -scrdir="/scratch/gour/"
 Entering Link 1 = /opt/g16/l1.exe PID=     18036.
  
 Copyright (c) 1988-2017, Gaussian, Inc.  All Rights Reserved.
  
 This is part of the Gaussian(R) 16 program.  It is based on
 the Gaussian(R) 09 system (copyright 2009, Gaussian, Inc.),
 the Gaussian(R) 03 system (copyright 2003, Gaussian, Inc.),
 the Gaussian(R) 98 system (copyright 1998, Gaussian, Inc.),
 the Gaussian(R) 94 system (copyright 1995, Gaussian, Inc.),
 the Gaussian 92(TM) system (copyright 1992, Gaussian, Inc.),
 the Gaussian 90(TM) system (copyright 1990, Gaussian, Inc.),
 the Gaussian 88(TM) system (copyright 1988, Gaussian, Inc.),
 the Gaussian 86(TM) system (copyright 1986, Carnegie Mellon
 University), and the Gaussian 82(TM) system (copyright 1983,
 Carnegie Mellon University). Gaussian is a federally registered
 trademark of Gaussian, Inc.
  
 This software contains proprietary and confidential information,
 including trade secrets, belonging to Gaussian, Inc.
  
 This software is provided under written license and may be
 used, copied, transmitted, or stored only in accord with that
 written license.
  
 The following legend is applicable only to US Government
 contracts under FAR:
  
                    RESTRICTED RIGHTS LEGEND
  
 Use, reproduction and disclosure by the US Government is
 subject to restrictions as set forth in subparagraphs (a)
 and (c) of the Commercial Computer Software - Restricted
 Rights clause in FAR 52.227-19.
  
 Gaussian, Inc.
 340 Quinnipiac St., Bldg. 40, Wallingford CT 06492
  
  
 ---------------------------------------------------------------
 Warning -- This program may not be used in any manner that
 competes with the business of Gaussian, Inc. or will provide
 assistance to any competitor of Gaussian, Inc.  The licensee
 of this program is prohibited from giving any competitor of
 Gaussian, Inc. access to this program.  By using this program,
 the user acknowledges that Gaussian, Inc. is engaged in the
 business of creating and licensing software in the field of
 computational chemistry and represents and warrants to the
 licensee that it is not a competitor of Gaussian, Inc. and that
 it will not use this program in any manner prohibited above.
 ---------------------------------------------------------------
  

 Cite this work as:
 Gaussian 16, Revision B.01,
 M. J. Frisch, G. W. Trucks, H. B. Schlegel, G. E. Scuseria, 
 M. A. Robb, J. R. Cheeseman, G. Scalmani, V. Barone, 
 G. A. Petersson, H. Nakatsuji, X. Li, M. Caricato, A. V. Marenich, 
 J. Bloino, B. G. Janesko, R. Gomperts, B. Mennucci, H. P. Hratchian, 
 J. V. Ortiz, A. F. Izmaylov, J. L. Sonnenberg, D. Williams-Young, 
 F. Ding, F. Lipparini, F. Egidi, J. Goings, B. Peng, A. Petrone, 
 T. Henderson, D. Ranasinghe, V. G. Zakrzewski, J. Gao, N. Rega, 
 G. Zheng, W. Liang, M. Hada, M. Ehara, K. Toyota, R. Fukuda, 
 J. Hasegawa, M. Ishida, T. Nakajima, Y. Honda, O. Kitao, H. Nakai, 
 T. Vreven, K. Throssell, J. A. Montgomery, Jr., J. E. Peralta, 
 F. Ogliaro, M. J. Bearpark, J. J. Heyd, E. N. Brothers, K. N. Kudin, 
 V. N. Staroverov, T. A. Keith, R. Kobayashi, J. Normand, 
 K. Raghavachari, A. P. Rendell, J. C. Burant, S. S. Iyengar, 
 J. Tomasi, M. Cossi, J. M. Millam, M. Klene, C. Adamo, R. Cammi, 
 J. W. Ochterski, R. L. Martin, K. Morokuma, O. Farkas, 
 J. B. Foresman, and D. J. Fox, Gaussian, Inc., Wallingford CT, 2016.
 
 ******************************************
 Gaussian 16:  EM64L-G16RevB.01 20-Dec-2017
                15-Mar-2022 
 ******************************************
 %mem=10GB
 %nprocshared=4
 Will use up to    4 processors via shared memory.
 --------------------------------
 # opt b3lyp/6-311+g(d,p) scf=xqc
 --------------------------------
 1/18=20,19=15,26=3,38=1/1,3;
 2/9=110,12=2,17=6,18=5,40=1/2;
 3/5=4,6=6,7=111,11=2,25=1,30=1,71=1,74=-5/1,2,3;
 4//1;
 5/5=2,8=3,13=1,38=5/2,8;
 6/7=2,8=2,9=2,10=2,28=1/1;
 7//1,2,3,16;
 1/18=20,19=15,26=3/3(2);
 2/9=110/2;
 99//99;
 2/9=110/2;
 3/5=4,6=6,7=111,11=2,25=1,30=1,71=1,74=-5/1,2,3;
 4/5=5,16=3,69=1/1;
 5/5=2,8=3,13=1,38=5/2,8;
 7//1,2,3,16;
 1/18=20,19=15,26=3/3(-5);
 2/9=110/2;
 6/7=2,8=2,9=2,10=2,19=2,28=1/1;
 99/9=1/99;
 -------------------
 Title Card Required
 -------------------
 Symbolic Z-matrix:
 Charge =  0 Multiplicity = 1
 C                    -0.89131   0.9471    0.64122 
 C                     0.44107   0.97699   0.20787 
 C                     1.14897   2.18644   0.2018 
 C                     0.52448   3.36601   0.62908 
 C                    -0.8079    3.33612   1.06242 
 C                    -1.51579   2.12667   1.06849 
 C                    -1.66921  -0.38196   0.64789 
 C                    -1.04472  -1.56153   0.22062 
 C                    -1.75262  -2.77098   0.22669 
 C                    -3.085    -2.80087   0.66004 
 C                    -3.70948  -1.6213    1.08732 
 C                    -3.00159  -0.41185   1.08125 
 H                     0.91789   0.07637  -0.11836 
 H                     2.16627   2.20926  -0.12907 
 H                    -1.28471   4.23675   1.38865 
 H                    -2.5331    2.10385   1.39936 
 H                    -1.27581  -3.6716   -0.09954 
 H                    -3.62549  -3.72431   0.66468 
 Cl                   -3.78588   1.06955   1.61786 
 Cl                   -5.3828   -1.65884   1.63156 
 Cl                    1.41352   4.88494   0.62145 
 Cl                    0.6286   -1.52399  -0.32361 
 

 GradGradGradGradGradGradGradGradGradGradGradGradGradGradGradGradGradGrad
 Berny optimization.
 Initialization pass.
                           ----------------------------
                           !    Initial Parameters    !
                           ! (Angstroms and Degrees)  !
 --------------------------                            --------------------------
 ! Name  Definition              Value          Derivative Info.                !
 --------------------------------------------------------------------------------
 ! R1    R(1,2)                  1.4014         estimate D2E/DX2                !
 ! R2    R(1,6)                  1.4014         estimate D2E/DX2                !
 ! R3    R(1,7)                  1.54           estimate D2E/DX2                !
 ! R4    R(2,3)                  1.4014         estimate D2E/DX2                !
 ! R5    R(2,13)                 1.07           estimate D2E/DX2                !
 ! R6    R(3,4)                  1.4014         estimate D2E/DX2                !
 ! R7    R(3,14)                 1.07           estimate D2E/DX2                !
 ! R8    R(4,5)                  1.4014         estimate D2E/DX2                !
 ! R9    R(4,21)                 1.76           estimate D2E/DX2                !
 ! R10   R(5,6)                  1.4014         estimate D2E/DX2                !
 ! R11   R(5,15)                 1.07           estimate D2E/DX2                !
 ! R12   R(6,16)                 1.07           estimate D2E/DX2                !
 ! R13   R(7,8)                  1.4014         estimate D2E/DX2                !
 ! R14   R(7,12)                 1.4014         estimate D2E/DX2                !
 ! R15   R(8,9)                  1.4014         estimate D2E/DX2                !
 ! R16   R(8,22)                 1.76           estimate D2E/DX2                !
 ! R17   R(9,10)                 1.4014         estimate D2E/DX2                !
 ! R18   R(9,17)                 1.07           estimate D2E/DX2                !
 ! R19   R(10,11)                1.4014         estimate D2E/DX2                !
 ! R20   R(10,18)                1.07           estimate D2E/DX2                !
 ! R21   R(11,12)                1.4014         estimate D2E/DX2                !
 ! R22   R(11,20)                1.76           estimate D2E/DX2                !
 ! R23   R(12,19)                1.76           estimate D2E/DX2                !
 ! A1    A(2,1,6)              120.0            estimate D2E/DX2                !
 ! A2    A(2,1,7)              120.0            estimate D2E/DX2                !
 ! A3    A(6,1,7)              120.0            estimate D2E/DX2                !
 ! A4    A(1,2,3)              120.0            estimate D2E/DX2                !
 ! A5    A(1,2,13)             120.0            estimate D2E/DX2                !
 ! A6    A(3,2,13)             120.0            estimate D2E/DX2                !
 ! A7    A(2,3,4)              120.0            estimate D2E/DX2                !
 ! A8    A(2,3,14)             120.0            estimate D2E/DX2                !
 ! A9    A(4,3,14)             120.0            estimate D2E/DX2                !
 ! A10   A(3,4,5)              120.0            estimate D2E/DX2                !
 ! A11   A(3,4,21)             120.0            estimate D2E/DX2                !
 ! A12   A(5,4,21)             120.0            estimate D2E/DX2                !
 ! A13   A(4,5,6)              120.0            estimate D2E/DX2                !
 ! A14   A(4,5,15)             120.0            estimate D2E/DX2                !
 ! A15   A(6,5,15)             120.0            estimate D2E/DX2                !
 ! A16   A(1,6,5)              120.0            estimate D2E/DX2                !
 ! A17   A(1,6,16)             120.0            estimate D2E/DX2                !
 ! A18   A(5,6,16)             120.0            estimate D2E/DX2                !
 ! A19   A(1,7,8)              120.0            estimate D2E/DX2                !
 ! A20   A(1,7,12)             120.0            estimate D2E/DX2                !
 ! A21   A(8,7,12)             120.0            estimate D2E/DX2                !
 ! A22   A(7,8,9)              120.0            estimate D2E/DX2                !
 ! A23   A(7,8,22)             120.0            estimate D2E/DX2                !
 ! A24   A(9,8,22)             120.0            estimate D2E/DX2                !
 ! A25   A(8,9,10)             120.0            estimate D2E/DX2                !
 ! A26   A(8,9,17)             120.0            estimate D2E/DX2                !
 ! A27   A(10,9,17)            120.0            estimate D2E/DX2                !
 ! A28   A(9,10,11)            120.0            estimate D2E/DX2                !
 ! A29   A(9,10,18)            120.0            estimate D2E/DX2                !
 ! A30   A(11,10,18)           120.0            estimate D2E/DX2                !
 ! A31   A(10,11,12)           120.0            estimate D2E/DX2                !
 ! A32   A(10,11,20)           120.0            estimate D2E/DX2                !
 ! A33   A(12,11,20)           120.0            estimate D2E/DX2                !
 ! A34   A(7,12,11)            120.0            estimate D2E/DX2                !
 ! A35   A(7,12,19)            120.0            estimate D2E/DX2                !
 ! A36   A(11,12,19)           120.0            estimate D2E/DX2                !
 ! D1    D(6,1,2,3)              0.0001         estimate D2E/DX2                !
 ! D2    D(6,1,2,13)           180.0            estimate D2E/DX2                !
 ! D3    D(7,1,2,3)           -180.0            estimate D2E/DX2                !
 ! D4    D(7,1,2,13)            -0.0001         estimate D2E/DX2                !
 ! D5    D(2,1,6,5)             -0.0001         estimate D2E/DX2                !
 ! D6    D(2,1,6,16)           180.0            estimate D2E/DX2                !
 ! D7    D(7,1,6,5)            180.0            estimate D2E/DX2                !
 ! D8    D(7,1,6,16)             0.0            estimate D2E/DX2                !
 ! D9    D(2,1,7,8)             -0.0001         estimate D2E/DX2                !
 ! D10   D(2,1,7,12)           179.9998         estimate D2E/DX2                !
 ! D11   D(6,1,7,8)            179.9999         estimate D2E/DX2                !
 ! D12   D(6,1,7,12)            -0.0002         estimate D2E/DX2                !
 ! D13   D(1,2,3,4)              0.0            estimate D2E/DX2                !
 ! D14   D(1,2,3,14)           180.0            estimate D2E/DX2                !
 ! D15   D(13,2,3,4)          -179.9999         estimate D2E/DX2                !
 ! D16   D(13,2,3,14)            0.0001         estimate D2E/DX2                !
 ! D17   D(2,3,4,5)             -0.0001         estimate D2E/DX2                !
 ! D18   D(2,3,4,21)           180.0            estimate D2E/DX2                !
 ! D19   D(14,3,4,5)           179.9999         estimate D2E/DX2                !
 ! D20   D(14,3,4,21)            0.0            estimate D2E/DX2                !
 ! D21   D(3,4,5,6)              0.0001         estimate D2E/DX2                !
 ! D22   D(3,4,5,15)          -179.9999         estimate D2E/DX2                !
 ! D23   D(21,4,5,6)          -180.0            estimate D2E/DX2                !
 ! D24   D(21,4,5,15)            0.0            estimate D2E/DX2                !
 ! D25   D(4,5,6,1)              0.0            estimate D2E/DX2                !
 ! D26   D(4,5,6,16)           179.9999         estimate D2E/DX2                !
 ! D27   D(15,5,6,1)           180.0            estimate D2E/DX2                !
 ! D28   D(15,5,6,16)           -0.0001         estimate D2E/DX2                !
 ! D29   D(1,7,8,9)            179.9999         estimate D2E/DX2                !
 ! D30   D(1,7,8,22)             0.0001         estimate D2E/DX2                !
 ! D31   D(12,7,8,9)             0.0001         estimate D2E/DX2                !
 ! D32   D(12,7,8,22)         -179.9998         estimate D2E/DX2                !
 ! D33   D(1,7,12,11)         -179.9999         estimate D2E/DX2                !
 ! D34   D(1,7,12,19)            0.0            estimate D2E/DX2                !
 ! D35   D(8,7,12,11)           -0.0001         estimate D2E/DX2                !
 ! D36   D(8,7,12,19)          179.9999         estimate D2E/DX2                !
 ! D37   D(7,8,9,10)             0.0            estimate D2E/DX2                !
 ! D38   D(7,8,9,17)           180.0            estimate D2E/DX2                !
 ! D39   D(22,8,9,10)          179.9998         estimate D2E/DX2                !
 ! D40   D(22,8,9,17)           -0.0002         estimate D2E/DX2                !
 ! D41   D(8,9,10,11)            0.0            estimate D2E/DX2                !
 ! D42   D(8,9,10,18)         -179.9999         estimate D2E/DX2                !
 ! D43   D(17,9,10,11)         180.0            estimate D2E/DX2                !
 ! D44   D(17,9,10,18)           0.0001         estimate D2E/DX2                !
 ! D45   D(9,10,11,12)           0.0            estimate D2E/DX2                !
 ! D46   D(9,10,11,20)        -179.9998         estimate D2E/DX2                !
 ! D47   D(18,10,11,12)        179.9999         estimate D2E/DX2                !
 ! D48   D(18,10,11,20)          0.0001         estimate D2E/DX2                !
 ! D49   D(10,11,12,7)           0.0            estimate D2E/DX2                !
 ! D50   D(10,11,12,19)       -179.9999         estimate D2E/DX2                !
 ! D51   D(20,11,12,7)         179.9999         estimate D2E/DX2                !
 ! D52   D(20,11,12,19)         -0.0001         estimate D2E/DX2                !
 --------------------------------------------------------------------------------
 Trust Radius=3.00D-01 FncErr=1.00D-07 GrdErr=1.00D-06 EigMax=2.50D+02 EigMin=1.00D-04
 Number of steps in this run=    121 maximum allowed number of steps=    132.
 GradGradGradGradGradGradGradGradGradGradGradGradGradGradGradGradGradGrad

                          Input orientation:                          
 ---------------------------------------------------------------------
 Center     Atomic      Atomic             Coordinates (Angstroms)
 Number     Number       Type             X           Y           Z
 ---------------------------------------------------------------------
      1          6           0       -0.891306    0.947105    0.641221
      2          6           0        0.441075    0.976991    0.207874
      3          6           0        1.148968    2.186442    0.201802
      4          6           0        0.524481    3.366007    0.629077
      5          6           0       -0.807901    3.336121    1.062422
      6          6           0       -1.515794    2.126670    1.068494
      7          6           0       -1.669211   -0.381962    0.647895
      8          6           0       -1.044724   -1.561527    0.220620
      9          6           0       -1.752617   -2.770979    0.226694
     10          6           0       -3.084997   -2.800865    0.660044
     11          6           0       -3.709484   -1.621300    1.087319
     12          6           0       -3.001591   -0.411849    1.081245
     13          1           0        0.917885    0.076366   -0.118357
     14          1           0        2.166271    2.209260   -0.129067
     15          1           0       -1.284711    4.236746    1.388653
     16          1           0       -2.533097    2.103852    1.399363
     17          1           0       -1.275807   -3.671603   -0.099540
     18          1           0       -3.625488   -3.724309    0.664684
     19         17           0       -3.785876    1.069551    1.617857
     20         17           0       -5.382801   -1.658835    1.631562
     21         17           0        1.413516    4.884940    0.621451
     22         17           0        0.628596   -1.523994   -0.323614
 ---------------------------------------------------------------------
                    Distance matrix (angstroms):
                    1          2          3          4          5
     1  C    0.000000
     2  C    1.401400   0.000000
     3  C    2.427296   1.401400   0.000000
     4  C    2.802800   2.427296   1.401400   0.000000
     5  C    2.427296   2.802800   2.427296   1.401400   0.000000
     6  C    1.401400   2.427296   2.802800   2.427296   1.401400
     7  C    1.540000   2.548270   3.838989   4.342800   3.838989
     8  C    2.548270   2.941400   4.342800   5.187469   4.975106
     9  C    3.838989   4.342800   5.744200   6.558176   6.235992
    10  C    4.342800   5.187469   6.558176   7.145600   6.558176
    11  C    3.838989   4.975106   6.235992   6.558176   5.744200
    12  C    2.548270   3.813607   4.975106   5.187469   4.342800
    13  H    2.146700   1.070000   2.146700   3.396345   3.872800
    14  H    3.396345   2.146700   1.070000   2.146700   3.396345
    15  H    3.396345   3.872800   3.396345   2.146700   1.070000
    16  H    2.146700   3.396345   3.872800   3.396345   2.146700
    17  H    4.693509   4.965039   6.347206   7.300676   7.118798
    18  H    5.412800   6.232802   7.612271   8.215600   7.612271
    19  Cl   3.057342   4.456874   5.254079   4.983028   3.783409
    20  Cl   5.286324   6.549198   7.713260   7.819846   6.797295
    21  Cl   4.562800   4.048303   2.743718   1.760000   2.743718
    22  Cl   3.057342   2.563702   3.783409   4.983028   5.254079
                    6          7          8          9         10
     6  C    0.000000
     7  C    2.548270   0.000000
     8  C    3.813607   1.401400   0.000000
     9  C    4.975106   2.427296   1.401400   0.000000
    10  C    5.187469   2.802800   2.427296   1.401400   0.000000
    11  C    4.342800   2.427296   2.802800   2.427296   1.401400
    12  C    2.941400   1.401400   2.427296   2.802800   2.427296
    13  H    3.396345   2.736837   2.578650   3.918930   4.990735
    14  H    3.872800   4.693509   4.965039   6.347206   7.300676
    15  H    2.146700   4.693509   5.919617   7.118798   7.300676
    16  H    1.070000   2.736837   4.127917   5.074276   4.990735
    17  H    5.919617   3.396345   2.146700   1.070000   2.146700
    18  H    6.232802   3.872800   3.396345   2.146700   1.070000
    19  Cl   2.563702   2.743718   4.048303   4.562800   4.048303
    20  Cl   5.440665   4.048303   4.562800   4.048303   2.743718
    21  Cl   4.048303   6.102800   6.910901   8.294174   8.905600
    22  Cl   4.456874   2.743718   1.760000   2.743718   4.048303
                   11         12         13         14         15
    11  C    0.000000
    12  C    1.401400   0.000000
    13  H    5.074276   4.127917   0.000000
    14  H    7.118798   5.919617   2.471400   0.000000
    15  H    6.347206   4.965039   4.942800   4.280590   0.000000
    16  H    3.918930   2.578650   4.280590   4.942800   2.471400
    17  H    3.396345   3.872800   4.342800   6.814200   8.047159
    18  H    2.146700   3.396345   5.974992   8.329571   8.329571
    19  Cl   2.743718   1.760000   5.111382   6.307038   4.042212
    20  Cl   1.760000   2.743718   6.765486   8.663168   7.184095
    21  Cl   8.294174   6.910901   4.890332   2.879094   2.879094
    22  Cl   4.562800   4.048303   1.639199   4.042212   6.307038
                   16         17         18         19         20
    16  H    0.000000
    17  H    6.097816   0.000000
    18  H    5.974992   2.471400   0.000000
    19  Cl   1.639199   5.632800   4.890332   0.000000
    20  Cl   4.725732   4.890332   2.879094   3.161400   0.000000
    21  Cl   4.890332   8.998151   9.975600   6.525618   9.488480
    22  Cl   5.111382   2.879094   4.890332   5.475705   6.322800
                   21         22
    21  Cl   0.000000
    22  Cl   6.525618   0.000000
 Stoichiometry    C12H6Cl4
 Framework group  C1[X(C12H6Cl4)]
 Deg. of freedom    60
 Full point group                 C1      NOp   1
 Largest Abelian subgroup         C1      NOp   1
 Largest concise Abelian subgroup C1      NOp   1
                         Standard orientation:                         
 ---------------------------------------------------------------------
 Center     Atomic      Atomic             Coordinates (Angstroms)
 Number     Number       Type             X           Y           Z
 ---------------------------------------------------------------------
      1          6           0        0.767459    0.143815    0.000003
      2          6           0        1.710800    1.180168   -0.000000
      3          6           0        3.079980    0.881387   -0.000001
      4          6           0        3.505817   -0.453747   -0.000001
      5          6           0        2.562476   -1.490101    0.000004
      6          6           0        1.193297   -1.191320    0.000006
      7          6           0       -0.737134    0.472145    0.000003
      8          6           0       -1.162972    1.807280    0.000002
      9          6           0       -2.532151    2.106060    0.000001
     10          6           0       -3.475492    1.069707    0.000001
     11          6           0       -3.049655   -0.265428    0.000001
     12          6           0       -1.680475   -0.564209    0.000002
     13          1           0        1.385664    2.199573   -0.000003
     14          1           0        3.800242    1.672666   -0.000004
     15          1           0        2.887613   -2.509506    0.000007
     16          1           0        0.473035   -1.982599    0.000008
     17          1           0       -2.857288    3.125465    0.000001
     18          1           0       -4.520891    1.297833   -0.000001
     19         17           0       -1.145671   -2.240987    0.000000
     20         17           0       -4.234385   -1.566971   -0.000004
     21         17           0        5.225352   -0.828982   -0.000003
     22         17           0        0.021759    3.108823   -0.000001
 ---------------------------------------------------------------------
 Rotational constants (GHZ):           0.6026140           0.2044925           0.1526813
 Standard basis: 6-311+G(d,p) (5D, 7F)
 There are   436 symmetry adapted cartesian basis functions of A   symmetry.
 There are   420 symmetry adapted basis functions of A   symmetry.
   420 basis functions,   692 primitive gaussians,   436 cartesian basis functions
    73 alpha electrons       73 beta electrons
       nuclear repulsion energy      1459.1234242893 Hartrees.
 NAtoms=   22 NActive=   22 NUniq=   22 SFac= 1.00D+00 NAtFMM=   60 NAOKFM=F Big=F
 Integral buffers will be    131072 words long.
 Raffenetti 2 integral format.
 Two-electron integral symmetry is turned on.
 One-electron integrals computed using PRISM.
 NBasis=   420 RedAO= T EigKep=  1.03D-06  NBF=   420
 NBsUse=   415 1.00D-06 EigRej=  5.05D-07 NBFU=   415
 ExpMin= 4.38D-02 ExpMax= 1.06D+05 ExpMxC= 3.62D+03 IAcc=3 IRadAn=         5 AccDes= 0.00D+00
 Harris functional with IExCor=  402 and IRadAn=       5 diagonalized for initial guess.
 HarFok:  IExCor=  402 AccDes= 0.00D+00 IRadAn=         5 IDoV= 1 UseB2=F ITyADJ=14
 ICtDFT=  3500011 ScaDFX=  1.000000  1.000000  1.000000  1.000000
 FoFCou: FMM=F IPFlag=           0 FMFlag=      100000 FMFlg1=           0
         NFxFlg=           0 DoJE=T BraDBF=F KetDBF=T FulRan=T
         wScrn=  0.000000 ICntrl=       500 IOpCl=  0 I1Cent=   200000004 NGrid=           0
         NMat0=    1 NMatS0=      1 NMatT0=    0 NMatD0=    1 NMtDS0=    0 NMtDT0=    0
 Petite list used in FoFCou.
 Requested convergence on RMS density matrix=1.00D-08 within  32 cycles.
 Requested convergence on MAX density matrix=1.00D-06.
 Requested convergence on             energy=1.00D-06.
 No special actions if energy rises.
 SCF Done:  E(RB3LYP) =  -2301.78173338     A.U. after   16 cycles
            NFock= 16  Conv=0.87D-08     -V/T= 2.0025
 QCSCF skips out because SCF is already converged.

 **********************************************************************

            Population analysis using the SCF Density.

 **********************************************************************

 Orbital symmetries:
       Occupied  (A) (A) (A) (A) (A) (A) (A) (A) (A) (A) (A) (A)
                 (A) (A) (A) (A) (A) (A) (A) (A) (A) (A) (A) (A)
                 (A) (A) (A) (A) (A) (A) (A) (A) (A) (A) (A) (A)
                 (A) (A) (A) (A) (A) (A) (A) (A) (A) (A) (A) (A)
                 (A) (A) (A) (A) (A) (A) (A) (A) (A) (A) (A) (A)
                 (A) (A) (A) (A) (A) (A) (A) (A) (A) (A) (A) (A)
                 (A)
       Virtual   (A) (A) (A) (A) (A) (A) (A) (A) (A) (A) (A) (A)
                 (A) (A) (A) (A) (A) (A) (A) (A) (A) (A) (A) (A)
                 (A) (A) (A) (A) (A) (A) (A) (A) (A) (A) (A) (A)
                 (A) (A) (A) (A) (A) (A) (A) (A) (A) (A) (A) (A)
                 (A) (A) (A) (A) (A) (A) (A) (A) (A) (A) (A) (A)
                 (A) (A) (A) (A) (A) (A) (A) (A) (A) (A) (A) (A)
                 (A) (A) (A) (A) (A) (A) (A) (A) (A) (A) (A) (A)
                 (A) (A) (A) (A) (A) (A) (A) (A) (A) (A) (A) (A)
                 (A) (A) (A) (A) (A) (A) (A) (A) (A) (A) (A) (A)
                 (A) (A) (A) (A) (A) (A) (A) (A) (A) (A) (A) (A)
                 (A) (A) (A) (A) (A) (A) (A) (A) (A) (A) (A) (A)
                 (A) (A) (A) (A) (A) (A) (A) (A) (A) (A) (A) (A)
                 (A) (A) (A) (A) (A) (A) (A) (A) (A) (A) (A) (A)
                 (A) (A) (A) (A) (A) (A) (A) (A) (A) (A) (A) (A)
                 (A) (A) (A) (A) (A) (A) (A) (A) (A) (A) (A) (A)
                 (A) (A) (A) (A) (A) (A) (A) (A) (A) (A) (A) (A)
                 (A) (A) (A) (A) (A) (A) (A) (A) (A) (A) (A) (A)
                 (A) (A) (A) (A) (A) (A) (A) (A) (A) (A) (A) (A)
                 (A) (A) (A) (A) (A) (A) (A) (A) (A) (A) (A) (A)
                 (A) (A) (A) (A) (A) (A) (A) (A) (A) (A) (A) (A)
                 (A) (A) (A) (A) (A) (A) (A) (A) (A) (A) (A) (A)
                 (A) (A) (A) (A) (A) (A) (A) (A) (A) (A) (A) (A)
                 (A) (A) (A) (A) (A) (A) (A) (A) (A) (A) (A) (A)
                 (A) (A) (A) (A) (A) (A) (A) (A) (A) (A) (A) (A)
                 (A) (A) (A) (A) (A) (A) (A) (A) (A) (A) (A) (A)
                 (A) (A) (A) (A) (A) (A) (A) (A) (A) (A) (A) (A)
                 (A) (A) (A) (A) (A) (A) (A) (A) (A) (A) (A) (A)
                 (A) (A) (A) (A) (A) (A) (A) (A) (A) (A) (A) (A)
                 (A) (A) (A) (A) (A) (A)
 The electronic state is 1-A.
 Alpha  occ. eigenvalues -- -101.58060-101.57988-101.57670-101.55512 -10.27870
 Alpha  occ. eigenvalues --  -10.27636 -10.27390 -10.24383 -10.24075 -10.22303
 Alpha  occ. eigenvalues --  -10.22181 -10.20916 -10.18922 -10.18893 -10.17260
 Alpha  occ. eigenvalues --  -10.17183  -9.49839  -9.49774  -9.49096  -9.46961
 Alpha  occ. eigenvalues --   -7.26246  -7.26197  -7.25588  -7.25287  -7.25273
 Alpha  occ. eigenvalues --   -7.25226  -7.25183  -7.24577  -7.24516  -7.23411
 Alpha  occ. eigenvalues --   -7.22454  -7.22412  -0.95281  -0.92045  -0.89694
 Alpha  occ. eigenvalues --   -0.88721  -0.85373  -0.84311  -0.79359  -0.76654
 Alpha  occ. eigenvalues --   -0.75215  -0.73893  -0.65385  -0.64172  -0.63037
 Alpha  occ. eigenvalues --   -0.60831  -0.54531  -0.53960  -0.53025  -0.49334
 Alpha  occ. eigenvalues --   -0.48936  -0.48348  -0.47041  -0.45568  -0.45515
 Alpha  occ. eigenvalues --   -0.45320  -0.41913  -0.41486  -0.40595  -0.39816
 Alpha  occ. eigenvalues --   -0.39287  -0.38889  -0.37529  -0.34568  -0.34088
 Alpha  occ. eigenvalues --   -0.33918  -0.32207  -0.29858  -0.29564  -0.27810
 Alpha  occ. eigenvalues --   -0.27501  -0.26492  -0.24563
 Alpha virt. eigenvalues --   -0.06976  -0.05899  -0.04262  -0.02759  -0.01306
 Alpha virt. eigenvalues --   -0.00869  -0.00492   0.00971   0.01416   0.01543
 Alpha virt. eigenvalues --    0.02116   0.02530   0.04198   0.04355   0.04962
 Alpha virt. eigenvalues --    0.05617   0.05654   0.05677   0.06357   0.06601
 Alpha virt. eigenvalues --    0.07896   0.07901   0.08222   0.08748   0.08877
 Alpha virt. eigenvalues --    0.09330   0.09922   0.10890   0.11154   0.11747
 Alpha virt. eigenvalues --    0.11862   0.12417   0.12690   0.13188   0.13629
 Alpha virt. eigenvalues --    0.13936   0.14144   0.14483   0.14805   0.15794
 Alpha virt. eigenvalues --    0.15938   0.15976   0.16734   0.16869   0.17152
 Alpha virt. eigenvalues --    0.17241   0.17910   0.18140   0.18691   0.19398
 Alpha virt. eigenvalues --    0.19899   0.20429   0.20539   0.20980   0.21073
 Alpha virt. eigenvalues --    0.21469   0.21642   0.22508   0.22721   0.22824
 Alpha virt. eigenvalues --    0.23425   0.23866   0.24418   0.24723   0.25193
 Alpha virt. eigenvalues --    0.25555   0.26273   0.26458   0.27052   0.28357
 Alpha virt. eigenvalues --    0.28725   0.29115   0.29844   0.30508   0.31061
 Alpha virt. eigenvalues --    0.31732   0.32682   0.32909   0.33819   0.34200
 Alpha virt. eigenvalues --    0.34443   0.36027   0.37235   0.38813   0.40809
 Alpha virt. eigenvalues --    0.41389   0.42428   0.42827   0.43819   0.44038
 Alpha virt. eigenvalues --    0.44444   0.44748   0.46491   0.46530   0.46856
 Alpha virt. eigenvalues --    0.48024   0.48612   0.49865   0.50490   0.51329
 Alpha virt. eigenvalues --    0.51485   0.51955   0.53882   0.53921   0.54825
 Alpha virt. eigenvalues --    0.55588   0.56632   0.57430   0.58228   0.59045
 Alpha virt. eigenvalues --    0.59212   0.59241   0.60576   0.60800   0.62034
 Alpha virt. eigenvalues --    0.63401   0.63667   0.63738   0.64200   0.64729
 Alpha virt. eigenvalues --    0.67208   0.67328   0.67811   0.68699   0.69301
 Alpha virt. eigenvalues --    0.69737   0.71875   0.73173   0.76914   0.78220
 Alpha virt. eigenvalues --    0.79370   0.79680   0.81762   0.82184   0.82808
 Alpha virt. eigenvalues --    0.83201   0.83288   0.83514   0.84664   0.84997
 Alpha virt. eigenvalues --    0.85325   0.85860   0.86437   0.86646   0.86855
 Alpha virt. eigenvalues --    0.87290   0.88836   0.89322   0.89731   0.91048
 Alpha virt. eigenvalues --    0.92478   0.92807   0.93253   0.93809   0.94577
 Alpha virt. eigenvalues --    0.95019   0.95072   0.95760   0.96005   0.96684
 Alpha virt. eigenvalues --    0.98594   0.99543   1.00109   1.00350   1.01566
 Alpha virt. eigenvalues --    1.02635   1.03053   1.07696   1.08422   1.08535
 Alpha virt. eigenvalues --    1.09553   1.10929   1.11777   1.12710   1.13240
 Alpha virt. eigenvalues --    1.17603   1.21028   1.21065   1.22148   1.24343
 Alpha virt. eigenvalues --    1.26139   1.26987   1.28439   1.28833   1.29070
 Alpha virt. eigenvalues --    1.32475   1.33329   1.35288   1.36365   1.42437
 Alpha virt. eigenvalues --    1.44409   1.46740   1.48675   1.49891   1.50979
 Alpha virt. eigenvalues --    1.54845   1.55128   1.55492   1.56749   1.58883
 Alpha virt. eigenvalues --    1.59285   1.62172   1.62521   1.65677   1.66228
 Alpha virt. eigenvalues --    1.67347   1.70132   1.72634   1.73389   1.76392
 Alpha virt. eigenvalues --    1.78019   1.79284   1.82892   1.84196   1.84234
 Alpha virt. eigenvalues --    1.84692   1.86401   1.86588   1.91111   1.92642
 Alpha virt. eigenvalues --    1.93694   1.94446   1.94885   1.95416   1.98255
 Alpha virt. eigenvalues --    1.98366   2.00117   2.00907   2.06879   2.07294
 Alpha virt. eigenvalues --    2.08235   2.08891   2.12590   2.13044   2.19388
 Alpha virt. eigenvalues --    2.21176   2.23563   2.24494   2.25272   2.25632
 Alpha virt. eigenvalues --    2.27242   2.28502   2.28921   2.34197   2.35247
 Alpha virt. eigenvalues --    2.35593   2.37951   2.40338   2.41841   2.43495
 Alpha virt. eigenvalues --    2.44590   2.47309   2.51361   2.52231   2.54153
 Alpha virt. eigenvalues --    2.56206   2.57831   2.60079   2.60252   2.64722
 Alpha virt. eigenvalues --    2.65230   2.66197   2.67800   2.68354   2.71579
 Alpha virt. eigenvalues --    2.72320   2.73542   2.73725   2.74188   2.74552
 Alpha virt. eigenvalues --    2.76021   2.79473   2.80193   2.81342   2.83614
 Alpha virt. eigenvalues --    2.83742   2.86501   2.91526   2.93047   2.94132
 Alpha virt. eigenvalues --    3.00186   3.04914   3.06151   3.07695   3.11174
 Alpha virt. eigenvalues --    3.11615   3.14326   3.19759   3.20413   3.22868
 Alpha virt. eigenvalues --    3.26076   3.34043   3.36638   3.40168   3.42311
 Alpha virt. eigenvalues --    3.53215   3.55247   3.61731   3.63846   3.69801
 Alpha virt. eigenvalues --    3.80225   3.84366   3.99430   4.02584   4.05395
 Alpha virt. eigenvalues --    4.16914   4.22210   4.45313   4.79196   4.84035
 Alpha virt. eigenvalues --    9.76799   9.78046   9.85515   9.86843  23.37100
 Alpha virt. eigenvalues --   23.60464  23.81094  23.86120  23.88478  23.96131
 Alpha virt. eigenvalues --   23.97433  23.97829  24.02931  24.08437  24.08643
 Alpha virt. eigenvalues --   24.15980  25.77846  25.82937  25.83466  25.87643
 Alpha virt. eigenvalues --   26.12884  26.15361  26.47328  26.60019  26.65107
 Alpha virt. eigenvalues --   26.72385  26.78794  26.89994 215.76107 215.77178
 Alpha virt. eigenvalues --  215.87699 215.89119
          Condensed to atoms (all electrons):
               1          2          3          4          5          6
     1  C   19.569248  -0.067484  -2.564127  -2.607777  -2.216276   0.966707
     2  C   -0.067484  18.302890  -0.820970  -2.138313  -0.237187  -8.988381
     3  C   -2.564127  -0.820970  20.787228   0.615290  -9.415119   0.135676
     4  C   -2.607777  -2.138313   0.615290  13.928950   0.592268  -1.886959
     5  C   -2.216276  -0.237187  -9.415119   0.592268  18.491413   1.083298
     6  C    0.966707  -8.988381   0.135676  -1.886959   1.083298  21.701943
     7  C    8.160969  -3.177261  -1.686666  -1.168712  -0.900569   3.065531
     8  C   -5.678746   7.928004   0.500226  -0.253338  -1.467059  -9.962058
     9  C   -3.630726  -1.958683   0.521076  -0.216688  -0.450009   1.016671
    10  C    0.213431   1.474472   0.102121   0.003317   0.023669  -1.000398
    11  C   -2.867181   0.187772  -0.675419  -0.280213   0.262076  -2.660165
    12  C   -3.830582  -3.641360  -1.012252  -0.126036   0.679502   4.709150
    13  H   -0.258123   0.393777   0.279375  -0.033393  -0.127899   0.066823
    14  H    0.080362   0.024141   0.101096   0.067533   0.095023  -0.030014
    15  H    0.066195  -0.023691   0.087599   0.066406   0.148016  -0.005014
    16  H   -0.387257  -0.049685  -0.097073   0.026698   0.274066   0.654160
    17  H    0.009035   0.009976  -0.000013   0.000113   0.000215  -0.001877
    18  H    0.002526  -0.000957  -0.000002   0.000038   0.000067   0.002122
    19  Cl   1.058480   0.665555   0.157326  -0.153459  -1.090727  -2.244793
    20  Cl  -0.287667  -0.116723  -0.005207   0.000480   0.025053   0.141490
    21  Cl  -0.136794  -0.007328   0.327307  -1.292881   0.398003   0.009599
    22  Cl   0.721074  -0.956725  -0.969742  -0.037613   0.227557   0.131212
               7          8          9         10         11         12
     1  C    8.160969  -5.678746  -3.630726   0.213431  -2.867181  -3.830582
     2  C   -3.177261   7.928004  -1.958683   1.474472   0.187772  -3.641360
     3  C   -1.686666   0.500226   0.521076   0.102121  -0.675419  -1.012252
     4  C   -1.168712  -0.253338  -0.216688   0.003317  -0.280213  -0.126036
     5  C   -0.900569  -1.467059  -0.450009   0.023669   0.262076   0.679502
     6  C    3.065531  -9.962058   1.016671  -1.000398  -2.660165   4.709150
     7  C   23.430715 -11.907120  -3.540069  -0.484167  -6.928246   2.476922
     8  C  -11.907120  35.495870  -6.918612   1.324347   3.343608  -6.840209
     9  C   -3.540069  -6.918612  17.089436   0.784263  -0.347918   3.057311
    10  C   -0.484167   1.324347   0.784263  18.097408  -5.632272  -8.282533
    11  C   -6.928246   3.343608  -0.347918  -5.632272  21.482766  -0.993156
    12  C    2.476922  -6.840209   3.057311  -8.282533  -0.993156  21.400005
    13  H   -0.047798  -0.019930   0.197336   0.023138  -0.016036  -0.002184
    14  H    0.014146   0.004460  -0.004925   0.000075   0.001010   0.005797
    15  H    0.019990   0.002314   0.001273  -0.000542  -0.004062   0.001071
    16  H   -0.100257  -0.056004  -0.010328   0.007177   0.058821   0.151219
    17  H    0.064685   0.059431   0.318988  -0.005861  -0.066251  -0.021221
    18  H    0.028256   0.001148  -0.074771   0.325660   0.023303   0.042007
    19  Cl  -0.333188   1.251696   0.206306   0.849741   0.599767  -2.578049
    20  Cl  -0.568469  -0.146750   0.287240  -0.779782  -0.496732   1.304609
    21  Cl  -0.060728  -0.028009  -0.002863  -0.000641  -0.000638  -0.025330
    22  Cl   0.259229  -0.801382  -0.212973  -0.243022   0.294082   0.148558
              13         14         15         16         17         18
     1  C   -0.258123   0.080362   0.066195  -0.387257   0.009035   0.002526
     2  C    0.393777   0.024141  -0.023691  -0.049685   0.009976  -0.000957
     3  C    0.279375   0.101096   0.087599  -0.097073  -0.000013  -0.000002
     4  C   -0.033393   0.067533   0.066406   0.026698   0.000113   0.000038
     5  C   -0.127899   0.095023   0.148016   0.274066   0.000215   0.000067
     6  C    0.066823  -0.030014  -0.005014   0.654160  -0.001877   0.002122
     7  C   -0.047798   0.014146   0.019990  -0.100257   0.064685   0.028256
     8  C   -0.019930   0.004460   0.002314  -0.056004   0.059431   0.001148
     9  C    0.197336  -0.004925   0.001273  -0.010328   0.318988  -0.074771
    10  C    0.023138   0.000075  -0.000542   0.007177  -0.005861   0.325660
    11  C   -0.016036   0.001010  -0.004062   0.058821  -0.066251   0.023303
    12  C   -0.002184   0.005797   0.001071   0.151219  -0.021221   0.042007
    13  H    0.718087  -0.015894   0.000162  -0.000593  -0.000009  -0.000003
    14  H   -0.015894   0.533442  -0.000426   0.000147   0.000000  -0.000000
    15  H    0.000162  -0.000426   0.532715  -0.015598   0.000000  -0.000000
    16  H   -0.000593   0.000147  -0.015598   0.721961   0.000000   0.000002
    17  H   -0.000009   0.000000   0.000000   0.000000   0.504453  -0.007594
    18  H   -0.000003  -0.000000  -0.000000   0.000002  -0.007594   0.501586
    19  Cl   0.002950  -0.000274   0.004186  -0.309677   0.000944  -0.000036
    20  Cl   0.000167  -0.000003   0.000029   0.005197  -0.000424  -0.003431
    21  Cl   0.001424  -0.016428  -0.016411   0.001268  -0.000000   0.000000
    22  Cl  -0.287522   0.004419  -0.000272   0.003551  -0.020157   0.002462
              19         20         21         22
     1  C    1.058480  -0.287667  -0.136794   0.721074
     2  C    0.665555  -0.116723  -0.007328  -0.956725
     3  C    0.157326  -0.005207   0.327307  -0.969742
     4  C   -0.153459   0.000480  -1.292881  -0.037613
     5  C   -1.090727   0.025053   0.398003   0.227557
     6  C   -2.244793   0.141490   0.009599   0.131212
     7  C   -0.333188  -0.568469  -0.060728   0.259229
     8  C    1.251696  -0.146750  -0.028009  -0.801382
     9  C    0.206306   0.287240  -0.002863  -0.212973
    10  C    0.849741  -0.779782  -0.000641  -0.243022
    11  C    0.599767  -0.496732  -0.000638   0.294082
    12  C   -2.578049   1.304609  -0.025330   0.148558
    13  H    0.002950   0.000167   0.001424  -0.287522
    14  H   -0.000274  -0.000003  -0.016428   0.004419
    15  H    0.004186   0.000029  -0.016411  -0.000272
    16  H   -0.309677   0.005197   0.001268   0.003551
    17  H    0.000944  -0.000424  -0.000000  -0.020157
    18  H   -0.000036  -0.003431   0.000000   0.002462
    19  Cl  18.514653  -0.280029  -0.002125  -0.040944
    20  Cl  -0.280029  17.391513  -0.000033  -0.003787
    21  Cl  -0.002125  -0.000033  17.446816  -0.002579
    22  Cl  -0.040944  -0.003787  -0.002579  18.122968
 Mulliken charges:
               1
     1  C   -0.315285
     2  C   -0.801837
     3  C   -0.367730
     4  C    0.894291
     5  C   -0.395383
     6  C   -0.904723
     7  C   -0.617195
     8  C    0.168112
     9  C   -0.111334
    10  C   -0.799601
    11  C    0.715085
    12  C   -0.623241
    13  H    0.126146
    14  H    0.136314
    15  H    0.136062
    16  H    0.122205
    17  H    0.155568
    18  H    0.157616
    19  Cl   0.721696
    20  Cl   0.533258
    21  Cl   0.408371
    22  Cl   0.661607
 Sum of Mulliken charges =  -0.00000
 Mulliken charges with hydrogens summed into heavy atoms:
               1
     1  C   -0.315285
     2  C   -0.675691
     3  C   -0.231415
     4  C    0.894291
     5  C   -0.259321
     6  C   -0.782519
     7  C   -0.617195
     8  C    0.168112
     9  C    0.044233
    10  C   -0.641985
    11  C    0.715085
    12  C   -0.623241
    19  Cl   0.721696
    20  Cl   0.533258
    21  Cl   0.408371
    22  Cl   0.661607
 Electronic spatial extent (au):  <R**2>=           6214.4194
 Charge=             -0.0000 electrons
 Dipole moment (field-independent basis, Debye):
    X=             -2.5110    Y=              1.6589    Z=              0.0000  Tot=              3.0094
 Quadrupole moment (field-independent basis, Debye-Ang):
   XX=           -124.6782   YY=           -112.5830   ZZ=           -124.1291
   XY=             -3.7262   XZ=              0.0000   YZ=             -0.0000
 Traceless Quadrupole moment (field-independent basis, Debye-Ang):
   XX=             -4.2147   YY=              7.8804   ZZ=             -3.6657
   XY=             -3.7262   XZ=              0.0000   YZ=             -0.0000
 Octapole moment (field-independent basis, Debye-Ang**2):
  XXX=            -74.8448  YYY=            -10.1423  ZZZ=             -0.0001  XYY=              2.5763
  XXY=             37.9347  XXZ=             -0.0001  XZZ=             -2.4476  YZZ=             -4.0499
  YYZ=             -0.0000  XYZ=             -0.0001
 Hexadecapole moment (field-independent basis, Debye-Ang**3):
 XXXX=          -6145.9157 YYYY=          -2010.7644 ZZZZ=           -145.4172 XXXY=             -2.4669
 XXXZ=              0.0003 YYYX=             15.5972 YYYZ=             -0.0002 ZZZX=              0.0000
 ZZZY=              0.0000 XXYY=          -1272.1122 XXZZ=          -1072.8272 YYZZ=           -388.6892
 XXYZ=             -0.0001 YYXZ=              0.0001 ZZXY=             15.1583
 N-N= 1.459123424289D+03 E-N=-8.362766786870D+03  KE= 2.296008869171D+03
 Calling FoFJK, ICntrl=      2127 FMM=F ISym2X=0 I1Cent= 0 IOpClX= 0 NMat=1 NMatS=1 NMatT=0.
 ***** Axes restored to original set *****
 -------------------------------------------------------------------
 Center     Atomic                   Forces (Hartrees/Bohr)
 Number     Number              X              Y              Z
 -------------------------------------------------------------------
      1        6          -0.016099314   -0.025260781    0.000559703
      2        6           0.004720102    0.054867957    0.008749815
      3        6          -0.016235122    0.003806572    0.006063762
      4        6          -0.005673914   -0.009596824    0.000066689
      5        6           0.011417689   -0.012359476   -0.006082773
      6        6           0.046113803    0.031845713   -0.009211695
      7        6           0.027427079    0.042645095   -0.001026756
      8        6          -0.017551453   -0.006976069    0.004472373
      9        6          -0.002760487    0.012783445    0.003310240
     10        6           0.009854405    0.015239874   -0.000384386
     11        6          -0.002636404    0.000589885    0.000979564
     12        6          -0.001359552   -0.008848630   -0.001214029
     13        1           0.004911555    0.051006670    0.007961363
     14        1           0.008928181    0.000555110   -0.002837167
     15        1          -0.003863721    0.008090283    0.002792382
     16        1           0.042336591    0.029016097   -0.008498892
     17        1           0.003864092   -0.007383478   -0.002659702
     18        1          -0.004708815   -0.006658804    0.000300717
     19       17          -0.083745258   -0.061339993    0.016070610
     20       17           0.006317540   -0.004127469   -0.002856633
     21       17          -0.000571880   -0.001034103   -0.000005790
     22       17          -0.010685119   -0.106861074   -0.016549395
 -------------------------------------------------------------------
 Cartesian Forces:  Max     0.106861074 RMS     0.024668953

 GradGradGradGradGradGradGradGradGradGradGradGradGradGradGradGradGradGrad
 Berny optimization.
 FormGI is forming the generalized inverse of G from B-inverse, IUseBI=4.
 Internal  Forces:  Max     0.200393944 RMS     0.050186206
 Search for a local minimum.
 Step number   1 out of a maximum of  121
 All quantities printed in internal units (Hartrees-Bohrs-Radians)
 Mixed Optimization -- RFO/linear search
 Second derivative matrix not updated -- first step.
 ITU=  0
     Eigenvalues ---    0.00237   0.01506   0.01506   0.02070   0.02070
     Eigenvalues ---    0.02070   0.02070   0.02070   0.02070   0.02070
     Eigenvalues ---    0.02070   0.02070   0.02070   0.02070   0.02070
     Eigenvalues ---    0.02070   0.02070   0.02070   0.02070   0.16000
     Eigenvalues ---    0.16000   0.16000   0.16000   0.16000   0.16000
     Eigenvalues ---    0.22000   0.22489   0.22981   0.24000   0.24492
     Eigenvalues ---    0.25000   0.25000   0.25000   0.25000   0.25000
     Eigenvalues ---    0.25000   0.25000   0.28519   0.29539   0.29539
     Eigenvalues ---    0.29539   0.29539   0.37230   0.37230   0.37230
     Eigenvalues ---    0.37230   0.37230   0.37230   0.41268   0.41540
     Eigenvalues ---    0.41640   0.41720   0.45389   0.45389   0.45389
     Eigenvalues ---    0.45389   0.45389   0.45389   0.45389   0.45389
 RFO step:  Lambda=-4.05249653D-01 EMin= 2.36824128D-03
 Linear search not attempted -- first point.
 Maximum step size (   0.300) exceeded in Quadratic search.
    -- Step size scaled by   0.390
 Iteration  1 RMS(Cart)=  0.09841482 RMS(Int)=  0.00387305
 Iteration  2 RMS(Cart)=  0.00443734 RMS(Int)=  0.00016091
 Iteration  3 RMS(Cart)=  0.00000799 RMS(Int)=  0.00016087
 Iteration  4 RMS(Cart)=  0.00000000 RMS(Int)=  0.00016087
 Variable       Old X    -DE/DX   Delta X   Delta X   Delta X     New X
                                 (Linear)    (Quad)   (Total)
    R1        2.64826   0.03450   0.00000   0.01626   0.01642   2.66468
    R2        2.64826   0.03461   0.00000   0.01631   0.01646   2.66473
    R3        2.91018   0.15139   0.00000   0.08543   0.08543   2.99561
    R4        2.64826  -0.00614   0.00000  -0.00278  -0.00278   2.64548
    R5        2.02201  -0.04317   0.00000  -0.02163  -0.02163   2.00037
    R6        2.64826  -0.04230   0.00000  -0.01980  -0.01996   2.62831
    R7        2.02201   0.00938   0.00000   0.00470   0.00470   2.02671
    R8        2.64826  -0.04229   0.00000  -0.01979  -0.01995   2.62831
    R9        3.32592  -0.00118   0.00000  -0.00066  -0.00066   3.32526
   R10        2.64826  -0.00599   0.00000  -0.00271  -0.00271   2.64555
   R11        2.02201   0.00938   0.00000   0.00470   0.00470   2.02671
   R12        2.02201  -0.04350   0.00000  -0.02180  -0.02180   2.00021
   R13        2.64826   0.14028   0.00000   0.06554   0.06585   2.71411
   R14        2.64826   0.14209   0.00000   0.06654   0.06685   2.71511
   R15        2.64826  -0.01179   0.00000  -0.00553  -0.00553   2.64273
   R16        3.32592  -0.00732   0.00000  -0.00407  -0.00407   3.32185
   R17        2.64826  -0.06419   0.00000  -0.03121  -0.03153   2.61673
   R18        2.02201   0.00875   0.00000   0.00438   0.00438   2.02639
   R19        2.64826  -0.06252   0.00000  -0.03028  -0.03059   2.61767
   R20        2.02201   0.00813   0.00000   0.00407   0.00407   2.02608
   R21        2.64826  -0.00224   0.00000  -0.00084  -0.00084   2.64742
   R22        3.32592  -0.00680   0.00000  -0.00378  -0.00378   3.32214
   R23        3.32592  -0.00941   0.00000  -0.00523  -0.00523   3.32068
    A1        2.09440  -0.11362   0.00000  -0.06652  -0.06619   2.02820
    A2        2.09440   0.05496   0.00000   0.03216   0.03200   2.12639
    A3        2.09440   0.05865   0.00000   0.03436   0.03419   2.12859
    A4        2.09440   0.05535   0.00000   0.03471   0.03487   2.12926
    A5        2.09440   0.00137   0.00000   0.00267   0.00259   2.09698
    A6        2.09440  -0.05672   0.00000  -0.03737  -0.03745   2.05694
    A7        2.09440   0.01110   0.00000   0.00541   0.00525   2.09964
    A8        2.09440  -0.00518   0.00000  -0.00245  -0.00237   2.09202
    A9        2.09440  -0.00591   0.00000  -0.00295  -0.00287   2.09152
   A10        2.09440  -0.01918   0.00000  -0.01367  -0.01399   2.08041
   A11        2.09440   0.00954   0.00000   0.00680   0.00696   2.10136
   A12        2.09440   0.00964   0.00000   0.00686   0.00702   2.10142
   A13        2.09440   0.01113   0.00000   0.00543   0.00527   2.09967
   A14        2.09440  -0.00595   0.00000  -0.00298  -0.00290   2.09150
   A15        2.09440  -0.00518   0.00000  -0.00245  -0.00237   2.09202
   A16        2.09440   0.05522   0.00000   0.03464   0.03480   2.12919
   A17        2.09440   0.00124   0.00000   0.00257   0.00249   2.09688
   A18        2.09440  -0.05646   0.00000  -0.03721  -0.03728   2.05711
   A19        2.09440   0.07046   0.00000   0.03924   0.03890   2.13330
   A20        2.09440   0.07239   0.00000   0.04039   0.04005   2.13445
   A21        2.09440  -0.14285   0.00000  -0.07962  -0.07895   2.01544
   A22        2.09440   0.04021   0.00000   0.02617   0.02649   2.12089
   A23        2.09440   0.16018   0.00000   0.09411   0.09395   2.18835
   A24        2.09440  -0.20039   0.00000  -0.12029  -0.12045   1.97395
   A25        2.09440   0.03962   0.00000   0.02142   0.02110   2.11549
   A26        2.09440  -0.01977   0.00000  -0.01068  -0.01052   2.08387
   A27        2.09440  -0.01985   0.00000  -0.01074  -0.01058   2.08382
   A28        2.09440  -0.01188   0.00000  -0.01310  -0.01375   2.08064
   A29        2.09440   0.00670   0.00000   0.00707   0.00740   2.10179
   A30        2.09440   0.00518   0.00000   0.00603   0.00635   2.10075
   A31        2.09440   0.04056   0.00000   0.02172   0.02139   2.11579
   A32        2.09440  -0.02750   0.00000  -0.01515  -0.01499   2.07941
   A33        2.09440  -0.01306   0.00000  -0.00657  -0.00640   2.08799
   A34        2.09440   0.03435   0.00000   0.02341   0.02372   2.11812
   A35        2.09440   0.15681   0.00000   0.09174   0.09159   2.18598
   A36        2.09440  -0.19115   0.00000  -0.11515  -0.11531   1.97908
    D1        0.00000   0.00000   0.00000   0.00000   0.00000   0.00000
    D2        3.14159  -0.00000   0.00000   0.00000   0.00000   3.14159
    D3       -3.14159  -0.00000   0.00000  -0.00000  -0.00000  -3.14159
    D4       -0.00000  -0.00000   0.00000  -0.00000  -0.00000  -0.00000
    D5       -0.00000  -0.00000   0.00000  -0.00000  -0.00000  -0.00000
    D6        3.14159  -0.00000   0.00000  -0.00000  -0.00000   3.14159
    D7        3.14159   0.00000   0.00000   0.00000   0.00000   3.14159
    D8        0.00000  -0.00000   0.00000  -0.00000  -0.00000  -0.00000
    D9       -0.00000  -0.00000   0.00000  -0.00000  -0.00000  -0.00000
   D10        3.14159  -0.00000   0.00000  -0.00000  -0.00000   3.14159
   D11        3.14159  -0.00000   0.00000  -0.00000  -0.00000   3.14159
   D12       -0.00000  -0.00000   0.00000  -0.00000  -0.00000  -0.00000
   D13        0.00000  -0.00000   0.00000  -0.00000  -0.00000   0.00000
   D14        3.14159  -0.00000   0.00000  -0.00000  -0.00000   3.14159
   D15       -3.14159  -0.00000   0.00000  -0.00000  -0.00000  -3.14159
   D16        0.00000  -0.00000   0.00000  -0.00000  -0.00000   0.00000
   D17       -0.00000  -0.00000   0.00000   0.00000   0.00000  -0.00000
   D18        3.14159   0.00000   0.00000   0.00000   0.00000   3.14159
   D19        3.14159  -0.00000   0.00000  -0.00000  -0.00000   3.14159
   D20        0.00000  -0.00000   0.00000  -0.00000  -0.00000   0.00000
   D21        0.00000   0.00000   0.00000   0.00000   0.00000   0.00000
   D22       -3.14159   0.00000   0.00000   0.00000   0.00000  -3.14159
   D23       -3.14159  -0.00000   0.00000  -0.00000  -0.00000  -3.14159
   D24        0.00000   0.00000   0.00000   0.00000   0.00000   0.00000
   D25       -0.00000   0.00000   0.00000   0.00000   0.00000  -0.00000
   D26        3.14159   0.00000   0.00000   0.00000   0.00000   3.14159
   D27        3.14159   0.00000   0.00000  -0.00000  -0.00000   3.14159
   D28       -0.00000   0.00000   0.00000   0.00000   0.00000  -0.00000
   D29        3.14159   0.00000   0.00000   0.00000   0.00000   3.14159
   D30        0.00000   0.00000   0.00000   0.00000   0.00000   0.00000
   D31        0.00000   0.00000   0.00000   0.00000   0.00000   0.00000
   D32       -3.14159  -0.00000   0.00000  -0.00000  -0.00000  -3.14159
   D33       -3.14159  -0.00000   0.00000  -0.00000  -0.00000  -3.14159
   D34        0.00000  -0.00000   0.00000  -0.00000  -0.00000  -0.00000
   D35       -0.00000   0.00000   0.00000   0.00000   0.00000  -0.00000
   D36        3.14159  -0.00000   0.00000  -0.00000  -0.00000   3.14159
   D37       -0.00000  -0.00000   0.00000  -0.00000  -0.00000  -0.00000
   D38        3.14159  -0.00000   0.00000  -0.00000  -0.00000   3.14159
   D39        3.14159   0.00000   0.00000   0.00000   0.00000   3.14159
   D40       -0.00000   0.00000   0.00000   0.00000   0.00000  -0.00000
   D41       -0.00000   0.00000   0.00000   0.00000   0.00000  -0.00000
   D42       -3.14159  -0.00000   0.00000  -0.00000  -0.00000  -3.14159
   D43        3.14159   0.00000   0.00000   0.00000   0.00000   3.14159
   D44        0.00000   0.00000   0.00000   0.00000   0.00000   0.00000
   D45        0.00000   0.00000   0.00000   0.00000   0.00000   0.00000
   D46       -3.14159  -0.00000   0.00000  -0.00000  -0.00000  -3.14159
   D47        3.14159   0.00000   0.00000   0.00000   0.00000   3.14159
   D48        0.00000  -0.00000   0.00000  -0.00000  -0.00000   0.00000
   D49        0.00000  -0.00000   0.00000  -0.00000  -0.00000   0.00000
   D50       -3.14159   0.00000   0.00000   0.00000   0.00000  -3.14159
   D51        3.14159   0.00000   0.00000   0.00000   0.00000   3.14159
   D52       -0.00000   0.00000   0.00000   0.00000   0.00000  -0.00000
         Item               Value     Threshold  Converged?
 Maximum Force            0.200394     0.000450     NO 
 RMS     Force            0.050186     0.000300     NO 
 Maximum Displacement     0.535252     0.001800     NO 
 RMS     Displacement     0.099807     0.001200     NO 
 Predicted change in Energy=-1.453449D-01
 GradGradGradGradGradGradGradGradGradGradGradGradGradGradGradGradGradGrad

                          Input orientation:                          
 ---------------------------------------------------------------------
 Center     Atomic      Atomic             Coordinates (Angstroms)
 Number     Number       Type             X           Y           Z
 ---------------------------------------------------------------------
      1          6           0       -0.868478    0.990211    0.641796
      2          6           0        0.473023    1.063965    0.213684
      3          6           0        1.183977    2.269900    0.205943
      4          6           0        0.574297    3.446655    0.627811
      5          6           0       -0.748285    3.409649    1.056589
      6          6           0       -1.455347    2.201376    1.062609
      7          6           0       -1.669867   -0.377488    0.648952
      8          6           0       -1.077916   -1.614337    0.221637
      9          6           0       -1.798836   -2.812605    0.234103
     10          6           0       -3.115699   -2.853284    0.660314
     11          6           0       -3.726475   -1.683421    1.081250
     12          6           0       -3.036763   -0.464010    1.083037
     13          1           0        0.974776    0.191909   -0.115399
     14          1           0        2.203416    2.286706   -0.126759
     15          1           0       -1.228427    4.311014    1.384057
     16          1           0       -2.459636    2.217555    1.396515
     17          1           0       -1.323154   -3.716491   -0.092372
     18          1           0       -3.656603   -3.778984    0.664665
     19         17           0       -4.006222    0.885045    1.655801
     20         17           0       -5.398384   -1.737204    1.621978
     21         17           0        1.465506    4.963905    0.619153
     22         17           0        0.570484   -1.807237   -0.357665
 ---------------------------------------------------------------------
                    Distance matrix (angstroms):
                    1          2          3          4          5
     1  C    0.000000
     2  C    1.410087   0.000000
     3  C    2.457671   1.399927   0.000000
     4  C    2.848844   2.420531   1.390839   0.000000
     5  C    2.457677   2.775665   2.399221   1.390843   0.000000
     6  C    1.410113   2.394366   2.775718   2.420584   1.399964
     7  C    1.585206   2.619012   3.917825   4.434049   3.918914
     8  C    2.646521   3.094960   4.494854   5.339328   5.103552
     9  C    3.936139   4.493279   5.893202   6.705602   6.363693
    10  C    4.452281   5.331346   6.703782   7.301120   6.707161
    11  C    3.938220   5.092797   6.364547   6.709689   5.899965
    12  C    2.647813   3.925440   5.104724   5.342311   4.499229
    13  H    2.146676   1.058553   2.113073   3.362457   3.833582
    14  H    3.421711   2.145986   1.072487   2.137495   3.372514
    15  H    3.421731   3.848120   3.372505   2.137484   1.072488
    16  H    2.146569   3.366059   3.833552   3.362491   2.113140
    17  H    4.785267   5.115925   6.497044   7.445109   7.241026
    18  H    5.524435   6.380545   7.760840   8.373275   7.764558
    19  Cl   3.299197   4.709071   5.563999   5.347875   4.164953
    20  Cl   5.377695   6.656070   7.835146   7.970802   6.959395
    21  Cl   4.608496   4.044621   2.740011   1.759652   2.740061
    22  Cl   3.300796   2.929120   4.161380   5.345518   5.563737
                    6          7          8          9         10
     6  C    0.000000
     7  C    2.620624   0.000000
     8  C    3.925475   1.436245   0.000000
     9  C    5.093566   2.473566   1.398473   0.000000
    10  C    5.335559   2.867076   2.424868   1.384716   0.000000
    11  C    4.500001   2.474263   2.785421   2.389248   1.385212
    12  C    3.099285   1.436774   2.429475   2.787302   2.427665
    13  H    3.366179   2.811153   2.754934   4.103922   5.158189
    14  H    3.848172   4.764659   5.109467   6.492396   7.438546
    15  H    2.146019   4.766267   6.040171   7.238350   7.443975
    16  H    1.058466   2.813687   4.239444   5.204841   5.165832
    17  H    6.030971   3.437835   2.139578   1.072320   2.127177
    18  H    6.385028   3.939231   3.395820   2.137889   1.072155
    19  Cl   2.931137   2.840122   4.108372   4.535019   3.969777
    20  Cl   5.601146   4.086251   4.543401   4.004925   2.716814
    21  Cl   4.044701   6.193701   7.064014   8.442648   9.060772
    22  Cl   4.710642   2.841942   1.757846   2.640952   3.964649
                   11         12         13         14         15
    11  C    0.000000
    12  C    1.400953   0.000000
    13  H    5.201018   4.237797   0.000000
    14  H    7.237734   6.040655   2.428551   0.000000
    15  H    6.501168   5.114836   4.906068   4.261212   0.000000
    16  H    4.113622   2.760821   4.264307   4.906037   2.428704
    17  H    3.359570   3.859622   4.533939   6.962489   8.162699
    18  H    2.137711   3.398278   6.150297   8.471054   8.477124
    19  Cl   2.646769   1.757230   5.331785   6.610732   4.418965
    20  Cl   1.757998   2.736555   6.881651   8.777089   7.350245
    21  Cl   8.447316   7.067381   4.853075   2.875463   2.875521
    22  Cl   4.533173   4.110002   2.053955   4.413633   6.610800
                   16         17         18         19         20
    16  H    0.000000
    17  H    6.222643   0.000000
    18  H    6.158475   2.453975   0.000000
    19  Cl   2.057848   5.606166   4.780978   0.000000
    20  Cl   4.932261   4.843972   2.849405   2.969083   0.000000
    21  Cl   4.853192   9.145063  10.132925   6.903010   9.644870
    22  Cl   5.334579   2.702128   4.775061   5.678791   6.288980
                   21         22
    21  Cl   0.000000
    22  Cl   6.899537   0.000000
 Stoichiometry    C12H6Cl4
 Framework group  C1[X(C12H6Cl4)]
 Deg. of freedom    60
 Full point group                 C1      NOp   1
 Largest Abelian subgroup         C1      NOp   1
 Largest concise Abelian subgroup C1      NOp   1
                         Standard orientation:                         
 ---------------------------------------------------------------------
 Center     Atomic      Atomic             Coordinates (Angstroms)
 Number     Number       Type             X           Y           Z
 ---------------------------------------------------------------------
      1          6           0        0.861704    0.128648    0.000002
      2          6           0        1.830421    1.153310   -0.000001
      3          6           0        3.202755    0.876730   -0.000002
      4          6           0        3.653406   -0.439076   -0.000001
      5          6           0        2.724636   -1.474369    0.000005
      6          6           0        1.353234   -1.193024    0.000006
      7          6           0       -0.691352    0.446286    0.000003
      8          6           0       -1.198325    1.790078    0.000002
      9          6           0       -2.571808    2.053275    0.000002
     10          6           0       -3.499384    1.025149    0.000001
     11          6           0       -3.054552   -0.286696    0.000001
     12          6           0       -1.686778   -0.589787    0.000002
     13          1           0        1.530497    2.168485   -0.000004
     14          1           0        3.910019    1.682959   -0.000005
     15          1           0        3.060866   -2.492789    0.000008
     16          1           0        0.680578   -2.010265    0.000009
     17          1           0       -2.912934    3.069888    0.000002
     18          1           0       -4.549516    1.241339   -0.000001
     19         17           0       -1.354534   -2.315323   -0.000001
     20         17           0       -4.233790   -1.590521   -0.000004
     21         17           0        5.377775   -0.789688   -0.000003
     22         17           0       -0.216703    3.248310   -0.000001
 ---------------------------------------------------------------------
 Rotational constants (GHZ):           0.5772672           0.1943745           0.1454121
 Standard basis: 6-311+G(d,p) (5D, 7F)
 There are   436 symmetry adapted cartesian basis functions of A   symmetry.
 There are   420 symmetry adapted basis functions of A   symmetry.
   420 basis functions,   692 primitive gaussians,   436 cartesian basis functions
    73 alpha electrons       73 beta electrons
       nuclear repulsion energy      1434.7377094084 Hartrees.
 NAtoms=   22 NActive=   22 NUniq=   22 SFac= 1.00D+00 NAtFMM=   60 NAOKFM=F Big=F
 Integral buffers will be    131072 words long.
 Raffenetti 2 integral format.
 Two-electron integral symmetry is turned on.
 One-electron integrals computed using PRISM.
 NBasis=   420 RedAO= T EigKep=  1.28D-06  NBF=   420
 NBsUse=   415 1.00D-06 EigRej=  5.87D-07 NBFU=   415
 Initial guess from the checkpoint file:  "/scratch/gour/Gau-18036.chk"
 B after Tr=    -0.000000   -0.000000   -0.000000
         Rot=    0.999984   -0.000000   -0.000000   -0.005723 Ang=  -0.66 deg.
 ExpMin= 4.38D-02 ExpMax= 1.06D+05 ExpMxC= 3.62D+03 IAcc=3 IRadAn=         5 AccDes= 0.00D+00
 Harris functional with IExCor=  402 and IRadAn=       5 diagonalized for initial guess.
 HarFok:  IExCor=  402 AccDes= 0.00D+00 IRadAn=         5 IDoV= 1 UseB2=F ITyADJ=14
 ICtDFT=  3500011 ScaDFX=  1.000000  1.000000  1.000000  1.000000
 FoFCou: FMM=F IPFlag=           0 FMFlag=      100000 FMFlg1=           0
         NFxFlg=           0 DoJE=T BraDBF=F KetDBF=T FulRan=T
         wScrn=  0.000000 ICntrl=       500 IOpCl=  0 I1Cent=   200000004 NGrid=           0
         NMat0=    1 NMatS0=      1 NMatT0=    0 NMatD0=    1 NMtDS0=    0 NMtDT0=    0
 Petite list used in FoFCou.
 Requested convergence on RMS density matrix=1.00D-08 within  32 cycles.
 Requested convergence on MAX density matrix=1.00D-06.
 Requested convergence on             energy=1.00D-06.
 No special actions if energy rises.
 SCF Done:  E(RB3LYP) =  -2301.85814497     A.U. after   14 cycles
            NFock= 14  Conv=0.75D-08     -V/T= 2.0028
 QCSCF skips out because SCF is already converged.
 Calling FoFJK, ICntrl=      2127 FMM=F ISym2X=0 I1Cent= 0 IOpClX= 0 NMat=1 NMatS=1 NMatT=0.
 ***** Axes restored to original set *****
 -------------------------------------------------------------------
 Center     Atomic                   Forces (Hartrees/Bohr)
 Number     Number              X              Y              Z
 -------------------------------------------------------------------
      1        6          -0.014295036   -0.022498479    0.000484063
      2        6          -0.005135218    0.019193206    0.005296634
      3        6          -0.008872281   -0.002577942    0.002438964
      4        6          -0.003127887   -0.005241086    0.000045940
      5        6           0.002165726   -0.009051285   -0.002413371
      6        6           0.019575321    0.005286008   -0.005456448
      7        6           0.017925445    0.025719410   -0.001075149
      8        6          -0.018037703    0.005431555    0.006962827
      9        6          -0.001263669    0.009712296    0.002240292
     10        6           0.003923342    0.005412603   -0.000276002
     11        6          -0.003813270    0.002693618    0.001762371
     12        6           0.008527649   -0.004657032   -0.003684188
     13        1           0.006763341    0.001825687   -0.001885379
     14        1           0.006895705   -0.000789498   -0.002420087
     15        1          -0.004029250    0.005663588    0.002391166
     16        1          -0.001799093    0.006551324    0.001823003
     17        1           0.003878654   -0.005087561   -0.002233307
     18        1          -0.003826437   -0.005503548    0.000226977
     19       17          -0.005100085   -0.004807078    0.000777494
     20       17           0.002674790   -0.008652310   -0.002506303
     21       17          -0.001420447   -0.002454146    0.000007075
     22       17          -0.001609595   -0.016169329   -0.002506573
 -------------------------------------------------------------------
 Cartesian Forces:  Max     0.025719410 RMS     0.007957115

 GradGradGradGradGradGradGradGradGradGradGradGradGradGradGradGradGradGrad
 Berny optimization.
 Using GEDIIS/GDIIS optimizer.
 FormGI is forming the generalized inverse of G from B-inverse, IUseBI=4.
 Internal  Forces:  Max     0.033212364 RMS     0.006786485
 Search for a local minimum.
 Step number   2 out of a maximum of  121
 All quantities printed in internal units (Hartrees-Bohrs-Radians)
 Mixed Optimization -- RFO/linear search
 Update second derivatives using D2CorX and points    1    2
 DE= -7.64D-02 DEPred=-1.45D-01 R= 5.26D-01
 TightC=F SS=  1.41D+00  RLast= 3.00D-01 DXNew= 5.0454D-01 8.9996D-01
 Trust test= 5.26D-01 RLast= 3.00D-01 DXMaxT set to 5.05D-01
 ITU=  1  0
 Use linear search instead of GDIIS.
     Eigenvalues ---    0.00237   0.01460   0.01467   0.02070   0.02070
     Eigenvalues ---    0.02070   0.02070   0.02070   0.02070   0.02070
     Eigenvalues ---    0.02070   0.02070   0.02070   0.02070   0.02070
     Eigenvalues ---    0.02070   0.02070   0.02070   0.02070   0.15999
     Eigenvalues ---    0.16000   0.16000   0.16000   0.16000   0.16087
     Eigenvalues ---    0.22000   0.22521   0.23030   0.24106   0.24493
     Eigenvalues ---    0.24902   0.25000   0.25000   0.25000   0.25000
     Eigenvalues ---    0.25000   0.27886   0.29536   0.29537   0.29539
     Eigenvalues ---    0.29539   0.36220   0.37193   0.37230   0.37230
     Eigenvalues ---    0.37230   0.37230   0.38225   0.41101   0.41519
     Eigenvalues ---    0.41776   0.45068   0.45354   0.45389   0.45389
     Eigenvalues ---    0.45389   0.45389   0.45389   0.45389   1.61010
 RFO step:  Lambda=-1.08584590D-02 EMin= 2.36824128D-03
 Quartic linear search produced a step of  0.24718.
 Iteration  1 RMS(Cart)=  0.03895999 RMS(Int)=  0.00131945
 Iteration  2 RMS(Cart)=  0.00142065 RMS(Int)=  0.00008783
 Iteration  3 RMS(Cart)=  0.00000052 RMS(Int)=  0.00008783
 Variable       Old X    -DE/DX   Delta X   Delta X   Delta X     New X
                                 (Linear)    (Quad)   (Total)
    R1        2.66468   0.00308   0.00406  -0.00272   0.00142   2.66610
    R2        2.66473   0.00310   0.00407  -0.00270   0.00146   2.66618
    R3        2.99561  -0.00519   0.02112  -0.08790  -0.06679   2.92882
    R4        2.64548  -0.00837  -0.00069  -0.02047  -0.02115   2.62432
    R5        2.00037   0.00229  -0.00535   0.02332   0.01798   2.01835
    R6        2.62831  -0.00825  -0.00493  -0.00864  -0.01366   2.61465
    R7        2.02671   0.00729   0.00116   0.02028   0.02144   2.04815
    R8        2.62831  -0.00827  -0.00493  -0.00869  -0.01371   2.61461
    R9        3.32526  -0.00284  -0.00016  -0.01104  -0.01120   3.31406
   R10        2.64555  -0.00832  -0.00067  -0.02038  -0.02105   2.62450
   R11        2.02671   0.00729   0.00116   0.02028   0.02144   2.04815
   R12        2.00021   0.00238  -0.00539   0.02375   0.01836   2.01857
   R13        2.71411   0.00741   0.01628  -0.02607  -0.00960   2.70451
   R14        2.71511   0.01072   0.01652  -0.01623   0.00040   2.71551
   R15        2.64273  -0.00800  -0.00137  -0.01910  -0.02039   2.62234
   R16        3.32185   0.00109  -0.00101   0.00756   0.00656   3.32841
   R17        2.61673  -0.01334  -0.00779  -0.01583  -0.02374   2.59300
   R18        2.02639   0.00669   0.00108   0.01855   0.01963   2.04602
   R19        2.61767  -0.01068  -0.00756  -0.00778  -0.01553   2.60214
   R20        2.02608   0.00668   0.00101   0.01876   0.01976   2.04584
   R21        2.64742   0.00807  -0.00021   0.02383   0.02354   2.67096
   R22        3.32214  -0.00305  -0.00093  -0.00951  -0.01045   3.31169
   R23        3.32068  -0.00062  -0.00129   0.00148   0.00019   3.32087
    A1        2.02820  -0.01544  -0.01636  -0.01998  -0.03615   1.99205
    A2        2.12639   0.00732   0.00791   0.00897   0.01679   2.14318
    A3        2.12859   0.00812   0.00845   0.01101   0.01937   2.14795
    A4        2.12926   0.00809   0.00862   0.01495   0.02365   2.15291
    A5        2.09698   0.00284   0.00064   0.02476   0.02536   2.12234
    A6        2.05694  -0.01093  -0.00926  -0.03971  -0.04901   2.00793
    A7        2.09964  -0.00022   0.00130  -0.00815  -0.00694   2.09270
    A8        2.09202  -0.00082  -0.00059  -0.00294  -0.00348   2.08854
    A9        2.09152   0.00104  -0.00071   0.01109   0.01042   2.10194
   A10        2.08041  -0.00026  -0.00346   0.00640   0.00277   2.08317
   A11        2.10136   0.00010   0.00172  -0.00333  -0.00152   2.09984
   A12        2.10142   0.00016   0.00174  -0.00307  -0.00124   2.10018
   A13        2.09967  -0.00024   0.00130  -0.00823  -0.00701   2.09266
   A14        2.09150   0.00104  -0.00072   0.01108   0.01040   2.10190
   A15        2.09202  -0.00080  -0.00059  -0.00285  -0.00339   2.08863
   A16        2.12919   0.00808   0.00860   0.01500   0.02368   2.15287
   A17        2.09688   0.00258   0.00062   0.02292   0.02349   2.12037
   A18        2.05711  -0.01066  -0.00922  -0.03791  -0.04717   2.00994
   A19        2.13330   0.01161   0.00962   0.02165   0.03109   2.16439
   A20        2.13445   0.00997   0.00990   0.01290   0.02263   2.15707
   A21        2.01544  -0.02159  -0.01952  -0.03454  -0.05372   1.96172
   A22        2.12089   0.01193   0.00655   0.03467   0.04149   2.16238
   A23        2.18835   0.02128   0.02322   0.02752   0.05060   2.23895
   A24        1.97395  -0.03321  -0.02977  -0.06219  -0.09209   1.88186
   A25        2.11549   0.00503   0.00522   0.00208   0.00725   2.12274
   A26        2.08387  -0.00361  -0.00260  -0.00907  -0.01165   2.07223
   A27        2.08382  -0.00142  -0.00261   0.00699   0.00440   2.08822
   A28        2.08064  -0.00392  -0.00340  -0.01606  -0.01978   2.06086
   A29        2.10179   0.00253   0.00183   0.01173   0.01372   2.11551
   A30        2.10075   0.00139   0.00157   0.00433   0.00606   2.10681
   A31        2.11579   0.00265   0.00529  -0.00278   0.00222   2.11801
   A32        2.07941  -0.01609  -0.00370  -0.06574  -0.06931   2.01010
   A33        2.08799   0.01344  -0.00158   0.06853   0.06709   2.15508
   A34        2.11812   0.00590   0.00586   0.01663   0.02254   2.14066
   A35        2.18598   0.00871   0.02264  -0.03497  -0.01235   2.17363
   A36        1.97908  -0.01461  -0.02850   0.01833  -0.01019   1.96889
    D1        0.00000  -0.00000   0.00000  -0.00000  -0.00000   0.00000
    D2        3.14159   0.00000   0.00000   0.00000   0.00000  -3.14159
    D3       -3.14159  -0.00000  -0.00000  -0.00000  -0.00000   3.14159
    D4       -0.00000  -0.00000  -0.00000   0.00000   0.00000  -0.00000
    D5       -0.00000   0.00000  -0.00000   0.00000   0.00000  -0.00000
    D6        3.14159  -0.00000  -0.00000  -0.00000  -0.00000   3.14159
    D7        3.14159   0.00000   0.00000   0.00000   0.00000  -3.14159
    D8       -0.00000  -0.00000  -0.00000  -0.00000  -0.00000  -0.00000
    D9       -0.00000  -0.00000  -0.00000  -0.00001  -0.00001  -0.00002
   D10        3.14159  -0.00000  -0.00000  -0.00001  -0.00001   3.14158
   D11        3.14159  -0.00000  -0.00000  -0.00001  -0.00002   3.14158
   D12       -0.00000  -0.00000  -0.00000  -0.00001  -0.00001  -0.00002
   D13        0.00000  -0.00000  -0.00000  -0.00000  -0.00000  -0.00000
   D14        3.14159   0.00000  -0.00000   0.00000   0.00000   3.14159
   D15       -3.14159  -0.00000  -0.00000  -0.00000  -0.00000  -3.14159
   D16        0.00000  -0.00000  -0.00000  -0.00000  -0.00000   0.00000
   D17       -0.00000   0.00000   0.00000   0.00000   0.00000  -0.00000
   D18        3.14159   0.00000   0.00000  -0.00000  -0.00000   3.14159
   D19        3.14159   0.00000  -0.00000   0.00000   0.00000   3.14159
   D20        0.00000  -0.00000  -0.00000  -0.00000  -0.00000  -0.00000
   D21        0.00000  -0.00000   0.00000  -0.00000  -0.00000   0.00000
   D22       -3.14159  -0.00000   0.00000  -0.00000  -0.00000  -3.14159
   D23       -3.14159   0.00000  -0.00000   0.00000   0.00000  -3.14159
   D24        0.00000   0.00000   0.00000   0.00000   0.00000   0.00000
   D25       -0.00000   0.00000   0.00000   0.00000   0.00000   0.00000
   D26        3.14159   0.00000   0.00000   0.00000   0.00000  -3.14159
   D27        3.14159   0.00000  -0.00000   0.00000   0.00000   3.14159
   D28       -0.00000   0.00000   0.00000   0.00000   0.00000   0.00000
   D29        3.14159   0.00000   0.00000   0.00000   0.00000  -3.14159
   D30        0.00000  -0.00000   0.00000  -0.00000  -0.00000   0.00000
   D31        0.00000   0.00000   0.00000   0.00000   0.00000   0.00000
   D32       -3.14159  -0.00000  -0.00000  -0.00000  -0.00000   3.14159
   D33       -3.14159  -0.00000  -0.00000  -0.00000  -0.00000   3.14159
   D34       -0.00000  -0.00000  -0.00000  -0.00000  -0.00000  -0.00000
   D35       -0.00000   0.00000   0.00000   0.00000   0.00000  -0.00000
   D36        3.14159  -0.00000  -0.00000   0.00000   0.00000   3.14159
   D37       -0.00000  -0.00000  -0.00000  -0.00000  -0.00000  -0.00000
   D38        3.14159  -0.00000  -0.00000  -0.00000  -0.00000   3.14159
   D39        3.14159   0.00000   0.00000   0.00000   0.00000  -3.14159
   D40       -0.00000   0.00000   0.00000   0.00000   0.00000   0.00000
   D41       -0.00000   0.00000   0.00000   0.00000   0.00000  -0.00000
   D42       -3.14159  -0.00000  -0.00000  -0.00000  -0.00000  -3.14159
   D43        3.14159   0.00000   0.00000   0.00000   0.00000  -3.14159
   D44        0.00000  -0.00000   0.00000  -0.00000  -0.00000   0.00000
   D45        0.00000   0.00000   0.00000   0.00000   0.00000   0.00000
   D46       -3.14159  -0.00000  -0.00000  -0.00000  -0.00000  -3.14159
   D47        3.14159   0.00000   0.00000   0.00000   0.00000  -3.14159
   D48        0.00000  -0.00000  -0.00000  -0.00000  -0.00000   0.00000
   D49        0.00000  -0.00000  -0.00000  -0.00000  -0.00000  -0.00000
   D50       -3.14159  -0.00000   0.00000  -0.00000  -0.00000  -3.14159
   D51        3.14159   0.00000   0.00000   0.00000   0.00000   3.14159
   D52       -0.00000   0.00000   0.00000   0.00000   0.00000   0.00000
         Item               Value     Threshold  Converged?
 Maximum Force            0.033212     0.000450     NO 
 RMS     Force            0.006786     0.000300     NO 
 Maximum Displacement     0.238554     0.001800     NO 
 RMS     Displacement     0.039213     0.001200     NO 
 Predicted change in Energy=-4.118475D-03
 GradGradGradGradGradGradGradGradGradGradGradGradGradGradGradGradGradGrad

                          Input orientation:                          
 ---------------------------------------------------------------------
 Center     Atomic      Atomic             Coordinates (Angstroms)
 Number     Number       Type             X           Y           Z
 ---------------------------------------------------------------------
      1          6           0       -0.874218    0.992459    0.644113
      2          6           0        0.467940    1.087482    0.219787
      3          6           0        1.182500    2.278214    0.208000
      4          6           0        0.577621    3.449829    0.627309
      5          6           0       -0.737886    3.418692    1.054852
      6          6           0       -1.436133    2.218166    1.059425
      7          6           0       -1.659580   -0.343664    0.651920
      8          6           0       -1.109995   -1.597713    0.235325
      9          6           0       -1.815427   -2.792689    0.243303
     10          6           0       -3.120762   -2.854824    0.661691
     11          6           0       -3.723714   -1.689397    1.079226
     12          6           0       -3.026270   -0.460045    1.080335
     13          1           0        1.009609    0.231723   -0.119378
     14          1           0        2.212143    2.282580   -0.130393
     15          1           0       -1.228776    4.326111    1.386989
[...]

 Orbital symmetries:
       Occupied  (A) (A) (A) (A) (A) (A) (A) (A) (A) (A) (A) (A)
                 (A) (A) (A) (A) (A) (A) (A) (A) (A) (A) (A) (A)
                 (A) (A) (A) (A) (A) (A) (A) (A) (A) (A) (A) (A)
                 (A) (A) (A) (A) (A) (A) (A) (A) (A) (A) (A) (A)
                 (A) (A) (A) (A) (A) (A) (A) (A) (A) (A) (A) (A)
                 (A) (A) (A) (A) (A) (A) (A) (A) (A) (A) (A) (A)
                 (A)
       Virtual   (A) (A) (A) (A) (A) (A) (A) (A) (A) (A) (A) (A)
                 (A) (A) (A) (A) (A) (A) (A) (A) (A) (A) (A) (A)
                 (A) (A) (A) (A) (A) (A) (A) (A) (A) (A) (A) (A)
                 (A) (A) (A) (A) (A) (A) (A) (A) (A) (A) (A) (A)
                 (A) (A) (A) (A) (A) (A) (A) (A) (A) (A) (A) (A)
                 (A) (A) (A) (A) (A) (A) (A) (A) (A) (A) (A) (A)
                 (A) (A) (A) (A) (A) (A) (A) (A) (A) (A) (A) (A)
                 (A) (A) (A) (A) (A) (A) (A) (A) (A) (A) (A) (A)
                 (A) (A) (A) (A) (A) (A) (A) (A) (A) (A) (A) (A)
                 (A) (A) (A) (A) (A) (A) (A) (A) (A) (A) (A) (A)
                 (A) (A) (A) (A) (A) (A) (A) (A) (A) (A) (A) (A)
                 (A) (A) (A) (A) (A) (A) (A) (A) (A) (A) (A) (A)
                 (A) (A) (A) (A) (A) (A) (A) (A) (A) (A) (A) (A)
                 (A) (A) (A) (A) (A) (A) (A) (A) (A) (A) (A) (A)
                 (A) (A) (A) (A) (A) (A) (A) (A) (A) (A) (A) (A)
                 (A) (A) (A) (A) (A) (A) (A) (A) (A) (A) (A) (A)
                 (A) (A) (A) (A) (A) (A) (A) (A) (A) (A) (A) (A)
                 (A) (A) (A) (A) (A) (A) (A) (A) (A) (A) (A) (A)
                 (A) (A) (A) (A) (A) (A) (A) (A) (A) (A) (A) (A)
                 (A) (A) (A) (A) (A) (A) (A) (A) (A) (A) (A) (A)
                 (A) (A) (A) (A) (A) (A) (A) (A) (A) (A) (A) (A)
                 (A) (A) (A) (A) (A) (A) (A) (A) (A) (A) (A) (A)
                 (A) (A) (A) (A) (A) (A) (A) (A) (A) (A) (A) (A)
                 (A) (A) (A) (A) (A) (A) (A) (A) (A) (A) (A) (A)
                 (A) (A) (A) (A) (A) (A) (A) (A) (A) (A) (A) (A)
                 (A) (A) (A) (A) (A) (A) (A) (A) (A) (A) (A) (A)
                 (A) (A) (A) (A) (A) (A) (A) (A) (A) (A) (A) (A)
                 (A) (A) (A) (A) (A) (A) (A) (A) (A) (A) (A) (A)
                 (A) (A) (A) (A) (A) (A) (A) (A)
 The electronic state is 1-A.
 Alpha  occ. eigenvalues -- -101.57272-101.57195-101.56997-101.56044 -10.27214
 Alpha  occ. eigenvalues --  -10.26719 -10.26545 -10.25041 -10.23215 -10.21673
 Alpha  occ. eigenvalues --  -10.21384 -10.21122 -10.20061 -10.20059 -10.19983
 Alpha  occ. eigenvalues --  -10.19983  -9.48731  -9.48667  -9.48464  -9.47501
 Alpha  occ. eigenvalues --   -7.25216  -7.25153  -7.24935  -7.24211  -7.24156
 Alpha  occ. eigenvalues --   -7.24153  -7.24073  -7.23960  -7.23949  -7.23893
 Alpha  occ. eigenvalues --   -7.22986  -7.22951  -0.94479  -0.90788  -0.90062
 Alpha  occ. eigenvalues --   -0.87922  -0.85435  -0.84012  -0.79371  -0.77601
 Alpha  occ. eigenvalues --   -0.74730  -0.73651  -0.65697  -0.63968  -0.62444
 Alpha  occ. eigenvalues --   -0.60526  -0.54969  -0.52924  -0.52217  -0.49610
 Alpha  occ. eigenvalues --   -0.48825  -0.47647  -0.46128  -0.45312  -0.45081
 Alpha  occ. eigenvalues --   -0.44043  -0.41969  -0.41681  -0.40476  -0.39126
 Alpha  occ. eigenvalues --   -0.38251  -0.38038  -0.36339  -0.34923  -0.34500
 Alpha  occ. eigenvalues --   -0.33204  -0.33096  -0.32377  -0.32173  -0.28190
 Alpha  occ. eigenvalues --   -0.28010  -0.26245  -0.26047
 Alpha virt. eigenvalues --   -0.05327  -0.05176  -0.03902  -0.03449  -0.02850
 Alpha virt. eigenvalues --   -0.00784   0.00159   0.00683   0.01255   0.01752
 Alpha virt. eigenvalues --    0.02369   0.02700   0.02892   0.04341   0.04432
 Alpha virt. eigenvalues --    0.05216   0.05530   0.06046   0.06304   0.06553
 Alpha virt. eigenvalues --    0.06788   0.07994   0.08024   0.08400   0.09005
 Alpha virt. eigenvalues --    0.09352   0.09412   0.10107   0.11133   0.11360
 Alpha virt. eigenvalues --    0.11823   0.12111   0.12384   0.12730   0.12903
 Alpha virt. eigenvalues --    0.13080   0.13510   0.13701   0.15127   0.15134
 Alpha virt. eigenvalues --    0.15586   0.15874   0.16074   0.16304   0.16732
 Alpha virt. eigenvalues --    0.16931   0.17235   0.17710   0.18077   0.18559
 Alpha virt. eigenvalues --    0.19389   0.19823   0.19984   0.20320   0.20672
 Alpha virt. eigenvalues --    0.20814   0.21789   0.21803   0.22424   0.22565
 Alpha virt. eigenvalues --    0.22835   0.22975   0.23584   0.23643   0.23768
 Alpha virt. eigenvalues --    0.24184   0.25397   0.25572   0.25738   0.26273
 Alpha virt. eigenvalues --    0.26450   0.26977   0.27408   0.28128   0.28923
 Alpha virt. eigenvalues --    0.29150   0.29724   0.29983   0.31015   0.31366
 Alpha virt. eigenvalues --    0.32050   0.32881   0.33298   0.33740   0.34962
 Alpha virt. eigenvalues --    0.36828   0.41161   0.41865   0.44035   0.44117
 Alpha virt. eigenvalues --    0.44755   0.44804   0.45648   0.46542   0.46685
 Alpha virt. eigenvalues --    0.47521   0.48029   0.48076   0.49941   0.50407
 Alpha virt. eigenvalues --    0.50658   0.51391   0.52816   0.52909   0.53525
 Alpha virt. eigenvalues --    0.54997   0.56852   0.57033   0.57396   0.57660
 Alpha virt. eigenvalues --    0.58383   0.59560   0.59835   0.60162   0.61356
 Alpha virt. eigenvalues --    0.62034   0.62701   0.64384   0.64521   0.65109
 Alpha virt. eigenvalues --    0.65835   0.66398   0.67146   0.68950   0.69151
 Alpha virt. eigenvalues --    0.69767   0.69950   0.70829   0.70986   0.71607
 Alpha virt. eigenvalues --    0.73240   0.73734   0.76132   0.79019   0.80765
 Alpha virt. eigenvalues --    0.81202   0.82273   0.82625   0.83566   0.84167
 Alpha virt. eigenvalues --    0.84481   0.84719   0.84743   0.85209   0.85349
 Alpha virt. eigenvalues --    0.85488   0.85661   0.86178   0.86814   0.86879
 Alpha virt. eigenvalues --    0.87308   0.87791   0.88895   0.89750   0.92824
 Alpha virt. eigenvalues --    0.93469   0.94378   0.95228   0.95307   0.95765
 Alpha virt. eigenvalues --    0.96153   0.96154   0.96938   0.98633   0.99753
 Alpha virt. eigenvalues --    0.99884   1.00434   1.01122   1.01744   1.04950
 Alpha virt. eigenvalues --    1.05385   1.06079   1.06149   1.09426   1.12093
 Alpha virt. eigenvalues --    1.13337   1.18017   1.19006   1.20421   1.22519
 Alpha virt. eigenvalues --    1.22763   1.24862   1.26395   1.27729   1.28917
 Alpha virt. eigenvalues --    1.29562   1.30330   1.31722   1.34635   1.36374
 Alpha virt. eigenvalues --    1.39929   1.41848   1.42442   1.48032   1.48922
 Alpha virt. eigenvalues --    1.49125   1.49975   1.54292   1.54539   1.56384
 Alpha virt. eigenvalues --    1.56952   1.60333   1.60733   1.61624   1.63931
 Alpha virt. eigenvalues --    1.65817   1.67728   1.68631   1.70000   1.70567
 Alpha virt. eigenvalues --    1.71394   1.71838   1.75742   1.78995   1.81138
 Alpha virt. eigenvalues --    1.82257   1.83459   1.85146   1.85477   1.86826
 Alpha virt. eigenvalues --    1.89589   1.93457   1.93848   1.94251   1.94530
 Alpha virt. eigenvalues --    1.94799   1.97588   1.97924   1.98470   2.01517
 Alpha virt. eigenvalues --    2.05251   2.06351   2.08217   2.08635   2.13282
 Alpha virt. eigenvalues --    2.14433   2.16441   2.19753   2.24662   2.26155
 Alpha virt. eigenvalues --    2.26399   2.26406   2.27826   2.28352   2.29924
 Alpha virt. eigenvalues --    2.34435   2.36507   2.36591   2.38929   2.40373
 Alpha virt. eigenvalues --    2.41492   2.41677   2.43256   2.47296   2.49371
 Alpha virt. eigenvalues --    2.51703   2.52423   2.54631   2.55403   2.58229
 Alpha virt. eigenvalues --    2.62460   2.62821   2.65818   2.67589   2.68665
 Alpha virt. eigenvalues --    2.69958   2.70403   2.71458   2.72664   2.73966
 Alpha virt. eigenvalues --    2.74745   2.75049   2.75801   2.76274   2.78558
 Alpha virt. eigenvalues --    2.78689   2.83363   2.84334   2.85083   2.88365
 Alpha virt. eigenvalues --    2.90769   2.92372   2.97384   3.00194   3.08324
 Alpha virt. eigenvalues --    3.10197   3.10458   3.12557   3.14632   3.15059
 Alpha virt. eigenvalues --    3.19841   3.24401   3.27931   3.32203   3.37160
 Alpha virt. eigenvalues --    3.41262   3.44076   3.47631   3.58118   3.60118
 Alpha virt. eigenvalues --    3.64012   3.73386   3.81427   3.84883   3.96761
 Alpha virt. eigenvalues --    4.00044   4.04517   4.12732   4.14198   4.34239
 Alpha virt. eigenvalues --    4.80699   4.82842   9.77168   9.77782   9.80467
 Alpha virt. eigenvalues --    9.83825  23.39155  23.60042  23.82221  23.88361
 Alpha virt. eigenvalues --   23.90828  23.94110  23.96674  23.98161  24.08028
 Alpha virt. eigenvalues --   24.08093  24.12434  24.17204  25.80023  25.82996
 Alpha virt. eigenvalues --   25.86260  25.92246  26.11990  26.14084  26.21849
 Alpha virt. eigenvalues --   26.29765  26.54098  26.60216  26.66038  26.89786
 Alpha virt. eigenvalues --  215.76437 215.76897 215.80185 215.84360
          Condensed to atoms (all electrons):
               1          2          3          4          5          6
     1  C   23.028467  -0.479576  -0.641458  -6.301557  -0.642015  -0.479259
     2  C   -0.479576  26.232513  -5.709046   3.437617  -3.683133  -4.836332
     3  C   -0.641458  -5.709046  23.586544  -4.924817  -6.831961  -3.683305
     4  C   -6.301557   3.437617  -4.924817  20.150528  -4.924748   3.438155
     5  C   -0.642015  -3.683133  -6.831961  -4.924748  23.588190  -5.712036
     6  C   -0.479259  -4.836332  -3.683305   3.438155  -5.712036  26.235502
     7  C    3.959973  -2.296890   1.875440  -2.112868   1.875239  -2.295028
     8  C   -3.027738  -2.697283   1.230255  -1.172514   1.231136  -2.697684
     9  C   -3.600249  -0.914261   0.299497  -0.267895   0.299739  -0.915653
    10  C   -0.572244   0.091120  -0.043883  -0.002937  -0.043798   0.091225
    11  C   -3.036843  -1.022434   0.353246  -0.182176   0.353522  -1.021726
    12  C   -2.799821  -2.012135   0.882596  -1.006595   0.882713  -2.013149
    13  H    0.051528   0.171504   0.009869  -0.067687  -0.001391  -0.004803
    14  H    0.014659  -0.029185   0.257578   0.070303   0.061057  -0.021721
    15  H    0.014647  -0.021728   0.061064   0.070306   0.257566  -0.029164
    16  H    0.051500  -0.004816  -0.001392  -0.067692   0.009895   0.171504
    17  H    0.017588   0.000133  -0.000382  -0.000012  -0.000382   0.000135
    18  H    0.010246   0.000014  -0.000163   0.000048  -0.000164   0.000013
    19  Cl  -0.218204   0.160290   0.063565   0.018592   0.063947   0.159419
    20  Cl  -0.136359  -0.039484   0.012057  -0.006271   0.012067  -0.039448
    21  Cl  -0.306984   0.401108   0.014034  -1.153020   0.014180   0.401036
    22  Cl   0.479393   0.172854   0.023159   0.052303   0.022809   0.173486
               7          8          9         10         11         12
     1  C    3.959973  -3.027738  -3.600249  -0.572244  -3.036843  -2.799821
     2  C   -2.296890  -2.697283  -0.914261   0.091120  -1.022434  -2.012135
     3  C    1.875440   1.230255   0.299497  -0.043883   0.353246   0.882596
     4  C   -2.112868  -1.172514  -0.267895  -0.002937  -0.182176  -1.006595
     5  C    1.875239   1.231136   0.299739  -0.043798   0.353522   0.882713
     6  C   -2.295028  -2.697684  -0.915653   0.091225  -1.021726  -2.013149
     7  C   16.916162  -3.664155  -4.156138  -0.957436  -4.279311   1.855952
     8  C   -3.664155  19.791321  -2.149851  -0.268066   3.547111  -3.775672
     9  C   -4.156138  -2.149851  13.619815   2.749771  -1.351953   2.660381
    10  C   -0.957436  -0.268066   2.749771  12.805136  -2.406168  -5.263426
    11  C   -4.279311   3.547111  -1.351953  -2.406168  16.088733  -1.513215
    12  C    1.855952  -3.775672   2.660381  -5.263426  -1.513215  20.236803
    13  H    0.042635   0.061172   0.018992   0.000586   0.007846   0.066855
    14  H    0.000146   0.001706   0.000233   0.000118  -0.000385   0.002012
    15  H    0.000148   0.001704   0.000232   0.000118  -0.000384   0.002013
    16  H    0.042629   0.061160   0.019001   0.000585   0.007840   0.066891
    17  H    0.058844   0.059032   0.307354  -0.048165  -0.026342  -0.016049
    18  H    0.033658   0.012319  -0.076957   0.330019   0.008287   0.031909
    19  Cl  -0.326770  -0.564584   0.498053   0.578031  -0.190443  -1.333777
    20  Cl  -0.534608   0.097380   0.077089  -0.348338  -0.499658   0.860289
    21  Cl  -0.077739  -0.040715  -0.004795  -0.001788   0.002690  -0.034723
    22  Cl  -0.226596  -0.106853  -0.736760  -0.088939   0.157755  -0.685160
              13         14         15         16         17         18
     1  C    0.051528   0.014659   0.014647   0.051500   0.017588   0.010246
     2  C    0.171504  -0.029185  -0.021728  -0.004816   0.000133   0.000014
     3  C    0.009869   0.257578   0.061064  -0.001392  -0.000382  -0.000163
     4  C   -0.067687   0.070303   0.070306  -0.067692  -0.000012   0.000048
     5  C   -0.001391   0.061057   0.257566   0.009895  -0.000382  -0.000164
     6  C   -0.004803  -0.021721  -0.029164   0.171504   0.000135   0.000013
     7  C    0.042635   0.000146   0.000148   0.042629   0.058844   0.033658
     8  C    0.061172   0.001706   0.001704   0.061160   0.059032   0.012319
     9  C    0.018992   0.000233   0.000232   0.019001   0.307354  -0.076957
    10  C    0.000586   0.000118   0.000118   0.000585  -0.048165   0.330019
    11  C    0.007846  -0.000385  -0.000384   0.007840  -0.026342   0.008287
    12  C    0.066855   0.002012   0.002013   0.066891  -0.016049   0.031909
    13  H    0.537564  -0.007626   0.000062  -0.000030   0.000001  -0.000003
    14  H   -0.007626   0.513554  -0.000300   0.000062   0.000000  -0.000000
    15  H    0.000062  -0.000300   0.513554  -0.007626   0.000000  -0.000000
    16  H   -0.000030   0.000062  -0.007626   0.537565   0.000001  -0.000003
    17  H    0.000001   0.000000   0.000000   0.000001   0.504648  -0.007588
    18  H   -0.000003  -0.000000  -0.000000  -0.000003  -0.007588   0.503066
    19  Cl  -0.006743  -0.000868  -0.000869  -0.006736   0.000662  -0.001301
    20  Cl   0.000414  -0.000002  -0.000002   0.000414  -0.000380  -0.002297
    21  Cl  -0.001010  -0.012497  -0.012497  -0.001010  -0.000001   0.000000
    22  Cl  -0.006686  -0.000855  -0.000854  -0.006691  -0.005732   0.000927
              19         20         21         22
     1  C   -0.218204  -0.136359  -0.306984   0.479393
     2  C    0.160290  -0.039484   0.401108   0.172854
     3  C    0.063565   0.012057   0.014034   0.023159
     4  C    0.018592  -0.006271  -1.153020   0.052303
     5  C    0.063947   0.012067   0.014180   0.022809
     6  C    0.159419  -0.039448   0.401036   0.173486
     7  C   -0.326770  -0.534608  -0.077739  -0.226596
     8  C   -0.564584   0.097380  -0.040715  -0.106853
     9  C    0.498053   0.077089  -0.004795  -0.736760
    10  C    0.578031  -0.348338  -0.001788  -0.088939
    11  C   -0.190443  -0.499658   0.002690   0.157755
    12  C   -1.333777   0.860289  -0.034723  -0.685160
    13  H   -0.006743   0.000414  -0.001010  -0.006686
    14  H   -0.000868  -0.000002  -0.012497  -0.000855
    15  H   -0.000869  -0.000002  -0.012497  -0.000854
    16  H   -0.006736   0.000414  -0.001010  -0.006691
    17  H    0.000662  -0.000380  -0.000001  -0.005732
    18  H   -0.001301  -0.002297   0.000000   0.000927
    19  Cl  17.815056  -0.193647   0.005886  -0.078677
    20  Cl  -0.193647  17.294060   0.000026  -0.011613
    21  Cl   0.005886   0.000026  17.421990   0.006523
    22  Cl  -0.078677  -0.011613   0.006523  17.465444
 Mulliken charges:
               1
     1  C    0.614304
     2  C   -0.920852
     3  C   -0.832496
     4  C    0.952938
     5  C   -0.832432
     6  C   -0.921167
     7  C    0.266715
     8  C    0.070817
     9  C   -0.375643
    10  C   -0.601521
    11  C    1.004009
    12  C   -1.094694
    13  H    0.126948
    14  H    0.152010
    15  H    0.152011
    16  H    0.126947
    17  H    0.156635
    18  H    0.157970
    19  Cl   0.559120
    20  Cl   0.458311
    21  Cl   0.379307
    22  Cl   0.400761
 Sum of Mulliken charges =  -0.00000
 Mulliken charges with hydrogens summed into heavy atoms:
               1
     1  C    0.614304
     2  C   -0.793904
     3  C   -0.680485
     4  C    0.952938
     5  C   -0.680421
     6  C   -0.794220
     7  C    0.266715
     8  C    0.070817
     9  C   -0.219008
    10  C   -0.443551
    11  C    1.004009
    12  C   -1.094694
    19  Cl   0.559120
    20  Cl   0.458311
    21  Cl   0.379307
    22  Cl   0.400761
 Electronic spatial extent (au):  <R**2>=           6169.5837
 Charge=              0.0000 electrons
 Dipole moment (field-independent basis, Debye):
    X=             -1.6541    Y=              1.3817    Z=              0.0001  Tot=              2.1552
 Quadrupole moment (field-independent basis, Debye-Ang):
   XX=           -122.5764   YY=           -122.8192   ZZ=           -114.8329
   XY=             -6.2167   XZ=             -0.0012   YZ=             -0.0025
 Traceless Quadrupole moment (field-independent basis, Debye-Ang):
   XX=             -2.5002   YY=             -2.7431   ZZ=              5.2433
   XY=             -6.2167   XZ=             -0.0012   YZ=             -0.0025
 Octapole moment (field-independent basis, Debye-Ang**2):
  XXX=            -64.0106  YYY=             -6.6928  ZZZ=             -0.0009  XYY=            -14.8596
  XXY=             26.4266  XXZ=             -0.0014  XZZ=             18.4304  YZZ=             -5.4290
  YYZ=              0.0009  XYZ=             -0.0064
 Hexadecapole moment (field-independent basis, Debye-Ang**3):
 XXXX=          -6063.6573 YYYY=          -1786.6486 ZZZZ=           -360.6978 XXXY=            -43.6198
 XXXZ=             -0.0195 YYYX=             16.9829 YYYZ=              0.0106 ZZZX=             -0.0018
 ZZZY=             -0.0159 XXYY=          -1271.9030 XXZZ=          -1046.3574 YYZZ=           -387.5235
 XXYZ=             -0.0115 YYXZ=              0.0017 ZZXY=              7.6051
 N-N= 1.449281119958D+03 E-N=-8.343111641795D+03  KE= 2.295549944694D+03
 1\1\GINC-LOCALHOST\FOpt\RB3LYP\6-311+G(d,p)\C12H6Cl4\GOUR\15-Mar-2022\
 0\\# opt b3lyp/6-311+g(d,p) scf=xqc\\Title Card Required\\0,1\C,-0.904
 6016894,0.9457865102,0.6401232264\C,0.3454649134,1.0244989571,1.258533
 0574\C,1.0647412807,2.2163544735,1.2619110563\C,0.5229806692,3.3356910
 442,0.6389538205\C,-0.7196129717,3.2816028547,0.0164043501\C,-1.427931
 6986,2.0832215809,0.0206778838\C,-1.667653543,-0.3382904261,0.63498388
 37\C,-1.5110753442,-1.2777428091,-0.3923485529\C,-2.2156136752,-2.4771
 901415,-0.4089977961\C,-3.1032265511,-2.7629543792,0.6175560603\C,-3.2
 867515345,-1.8553735352,1.6562219293\C,-2.5740491858,-0.6511617257,1.6
 653187048\H,0.7636874321,0.1496192106,1.7427409438\H,2.0331956066,2.27
 52947031,1.7416530613\H,-1.1268356913,4.1618376919,-0.4641024881\H,-2.
 396673695,2.036343102,-0.4631822726\H,-2.0690891127,-3.1792367045,-1.2
 189500533\H,-3.6588224629,-3.6916213269,0.6191137491\Cl,-2.803503818,0
 .4880734183,2.9679070629\Cl,-4.4152713553,-2.2594704356,2.9264801172\C
 l,1.4245875875,4.8450520395,0.6381828836\Cl,-0.3985568808,-0.957507152
 2,-1.7114812475\\Version=EM64L-G16RevB.01\State=1-A\HF=-2301.898537\RM
 SD=4.806e-09\RMSF=8.114e-06\Dipole=-0.2018859,-0.7460785,-0.3487208\Qu
 adrupole=-0.5703804,2.3330739,-1.7626935,-1.8993748,4.776426,1.381373\
 PG=C01 [X(C12H6Cl4)]\\@


 The earth never tires,
 The earth is rude, silent, incomprehensible at first,
 Nature is rude and incomprehensible at first,
 Be not discouraged, keep on,
 There are divine things well envelop'd,
 I swear to you there are divine things more beautiful than words can tell.
                                 -- Walt Whitman
 Job cpu time:       0 days 10 hours 48 minutes 25.3 seconds.
 Elapsed time:       0 days  2 hours 42 minutes 36.1 seconds.
 File lengths (MBytes):  RWF=    110 Int=      0 D2E=      0 Chk=     19 Scr=      1
 Normal termination of Gaussian 16 at Tue Mar 15 23:07:31 2022.
