 Entering Gaussian System, Link 0=g16
 Input=2,3,4prime,5,6-Pentachlorobiphenyl.gjf
 Output=2,3,4prime,5,6-Pentachlorobiphenyl.log
 Initial command:
 /usr/local/g16/l1.exe "/scratch/pkc/Gau-80730.inp" -scrdir="/scratch/pkc/"
 Entering Link 1 = /usr/local/g16/l1.exe PID=     80731.
  
 Copyright (c) 1988-2017, Gaussian, Inc.  All Rights Reserved.
  
 This is part of the Gaussian(R) 16 program.  It is based on
 the Gaussian(R) 09 system (copyright 2009, Gaussian, Inc.),
 the Gaussian(R) 03 system (copyright 2003, Gaussian, Inc.),
 the Gaussian(R) 98 system (copyright 1998, Gaussian, Inc.),
 the Gaussian(R) 94 system (copyright 1995, Gaussian, Inc.),
 the Gaussian 92(TM) system (copyright 1992, Gaussian, Inc.),
 the Gaussian 90(TM) system (copyright 1990, Gaussian, Inc.),
 the Gaussian 88(TM) system (copyright 1988, Gaussian, Inc.),
 the Gaussian 86(TM) system (copyright 1986, Carnegie Mellon
 University), and the Gaussian 82(TM) system (copyright 1983,
 Carnegie Mellon University). Gaussian is a federally registered
 trademark of Gaussian, Inc.
  
 This software contains proprietary and confidential information,
 including trade secrets, belonging to Gaussian, Inc.
  
 This software is provided under written license and may be
 used, copied, transmitted, or stored only in accord with that
 written license.
  
 The following legend is applicable only to US Government
 contracts under FAR:
  
                    RESTRICTED RIGHTS LEGEND
  
 Use, reproduction and disclosure by the US Government is
 subject to restrictions as set forth in subparagraphs (a)
 and (c) of the Commercial Computer Software - Restricted
 Rights clause in FAR 52.227-19.
  
 Gaussian, Inc.
 340 Quinnipiac St., Bldg. 40, Wallingford CT 06492
  
  
 ---------------------------------------------------------------
 Warning -- This program may not be used in any manner that
 competes with the business of Gaussian, Inc. or will provide
 assistance to any competitor of Gaussian, Inc.  The licensee
 of this program is prohibited from giving any competitor of
 Gaussian, Inc. access to this program.  By using this program,
 the user acknowledges that Gaussian, Inc. is engaged in the
 business of creating and licensing software in the field of
 computational chemistry and represents and warrants to the
 licensee that it is not a competitor of Gaussian, Inc. and that
 it will not use this program in any manner prohibited above.
 ---------------------------------------------------------------
  

 Cite this work as:
 Gaussian 16, Revision B.01,
 M. J. Frisch, G. W. Trucks, H. B. Schlegel, G. E. Scuseria, 
 M. A. Robb, J. R. Cheeseman, G. Scalmani, V. Barone, 
 G. A. Petersson, H. Nakatsuji, X. Li, M. Caricato, A. V. Marenich, 
 J. Bloino, B. G. Janesko, R. Gomperts, B. Mennucci, H. P. Hratchian, 
 J. V. Ortiz, A. F. Izmaylov, J. L. Sonnenberg, D. Williams-Young, 
 F. Ding, F. Lipparini, F. Egidi, J. Goings, B. Peng, A. Petrone, 
 T. Henderson, D. Ranasinghe, V. G. Zakrzewski, J. Gao, N. Rega, 
 G. Zheng, W. Liang, M. Hada, M. Ehara, K. Toyota, R. Fukuda, 
 J. Hasegawa, M. Ishida, T. Nakajima, Y. Honda, O. Kitao, H. Nakai, 
 T. Vreven, K. Throssell, J. A. Montgomery, Jr., J. E. Peralta, 
 F. Ogliaro, M. J. Bearpark, J. J. Heyd, E. N. Brothers, K. N. Kudin, 
 V. N. Staroverov, T. A. Keith, R. Kobayashi, J. Normand, 
 K. Raghavachari, A. P. Rendell, J. C. Burant, S. S. Iyengar, 
 J. Tomasi, M. Cossi, J. M. Millam, M. Klene, C. Adamo, R. Cammi, 
 J. W. Ochterski, R. L. Martin, K. Morokuma, O. Farkas, 
 J. B. Foresman, and D. J. Fox, Gaussian, Inc., Wallingford CT, 2016.
 
 ******************************************
 Gaussian 16:  EM64L-G16RevB.01 20-Dec-2017
                16-Mar-2022 
 ******************************************
 %mem=10GB
 %nprocshared=4
 Will use up to    4 processors via shared memory.
 --------------------------------
 # opt b3lyp/6-311+g(d,p) scf=xqc
 --------------------------------
 1/18=20,19=15,26=3,38=1/1,3;
 2/9=110,12=2,17=6,18=5,40=1/2;
 3/5=4,6=6,7=111,11=2,25=1,30=1,71=1,74=-5/1,2,3;
 4//1;
 5/5=2,8=3,13=1,38=5/2,8;
 6/7=2,8=2,9=2,10=2,28=1/1;
 7//1,2,3,16;
 1/18=20,19=15,26=3/3(2);
 2/9=110/2;
 99//99;
 2/9=110/2;
 3/5=4,6=6,7=111,11=2,25=1,30=1,71=1,74=-5/1,2,3;
 4/5=5,16=3,69=1/1;
 5/5=2,8=3,13=1,38=5/2,8;
 7//1,2,3,16;
 1/18=20,19=15,26=3/3(-5);
 2/9=110/2;
 6/7=2,8=2,9=2,10=2,19=2,28=1/1;
 99/9=1/99;
 -------------------
 Title Card Required
 -------------------
 Symbolic Z-matrix:
 Charge =  0 Multiplicity = 1
 C                     0.06717  -0.14603  -0.00285 
 C                     1.39955  -0.11615  -0.4362 
 C                     2.10744   1.0933   -0.44227 
 C                     1.48296   2.27287  -0.015 
 C                     0.15058   2.24298   0.41835 
 C                    -0.55732   1.03353   0.42442 
 C                    -0.71073  -1.4751    0.00382 
 C                    -0.08625  -2.65467  -0.42345 
 C                    -0.79414  -3.86412  -0.41738 
 C                    -2.12652  -3.894     0.01597 
 C                    -2.75101  -2.71444   0.44325 
 C                    -2.04311  -1.50499   0.43717 
 H                     1.87636  -1.01677  -0.76243 
 H                     3.12475   1.11612  -0.77314 
 H                    -0.32623   3.14361   0.74458 
 H                    -1.57462   1.01071   0.75529 
 H                    -2.66701  -4.81745   0.02061 
 Cl                   -2.8274   -0.02359   0.97378 
 Cl                   -4.42432  -2.75197   0.98749 
 Cl                   -0.00985  -5.34552  -0.95399 
 Cl                    1.58707  -2.61713  -0.96769 
 Cl                    2.37199   3.7918   -0.02262 
 

 GradGradGradGradGradGradGradGradGradGradGradGradGradGradGradGradGradGrad
 Berny optimization.
 Initialization pass.
                           ----------------------------
                           !    Initial Parameters    !
                           ! (Angstroms and Degrees)  !
 --------------------------                            --------------------------
 ! Name  Definition              Value          Derivative Info.                !
 --------------------------------------------------------------------------------
 ! R1    R(1,2)                  1.4014         estimate D2E/DX2                !
 ! R2    R(1,6)                  1.4014         estimate D2E/DX2                !
 ! R3    R(1,7)                  1.54           estimate D2E/DX2                !
 ! R4    R(2,3)                  1.4014         estimate D2E/DX2                !
 ! R5    R(2,13)                 1.07           estimate D2E/DX2                !
 ! R6    R(3,4)                  1.4014         estimate D2E/DX2                !
 ! R7    R(3,14)                 1.07           estimate D2E/DX2                !
 ! R8    R(4,5)                  1.4014         estimate D2E/DX2                !
 ! R9    R(4,22)                 1.76           estimate D2E/DX2                !
 ! R10   R(5,6)                  1.4014         estimate D2E/DX2                !
 ! R11   R(5,15)                 1.07           estimate D2E/DX2                !
 ! R12   R(6,16)                 1.07           estimate D2E/DX2                !
 ! R13   R(7,8)                  1.4014         estimate D2E/DX2                !
 ! R14   R(7,12)                 1.4014         estimate D2E/DX2                !
 ! R15   R(8,9)                  1.4014         estimate D2E/DX2                !
 ! R16   R(8,21)                 1.76           estimate D2E/DX2                !
 ! R17   R(9,10)                 1.4014         estimate D2E/DX2                !
 ! R18   R(9,20)                 1.76           estimate D2E/DX2                !
 ! R19   R(10,11)                1.4014         estimate D2E/DX2                !
 ! R20   R(10,17)                1.07           estimate D2E/DX2                !
 ! R21   R(11,12)                1.4014         estimate D2E/DX2                !
 ! R22   R(11,19)                1.76           estimate D2E/DX2                !
 ! R23   R(12,18)                1.76           estimate D2E/DX2                !
 ! A1    A(2,1,6)              120.0            estimate D2E/DX2                !
 ! A2    A(2,1,7)              120.0            estimate D2E/DX2                !
 ! A3    A(6,1,7)              120.0            estimate D2E/DX2                !
 ! A4    A(1,2,3)              120.0            estimate D2E/DX2                !
 ! A5    A(1,2,13)             120.0            estimate D2E/DX2                !
 ! A6    A(3,2,13)             120.0            estimate D2E/DX2                !
 ! A7    A(2,3,4)              120.0            estimate D2E/DX2                !
 ! A8    A(2,3,14)             120.0            estimate D2E/DX2                !
 ! A9    A(4,3,14)             120.0            estimate D2E/DX2                !
 ! A10   A(3,4,5)              120.0            estimate D2E/DX2                !
 ! A11   A(3,4,22)             120.0            estimate D2E/DX2                !
 ! A12   A(5,4,22)             120.0            estimate D2E/DX2                !
 ! A13   A(4,5,6)              120.0            estimate D2E/DX2                !
 ! A14   A(4,5,15)             120.0            estimate D2E/DX2                !
 ! A15   A(6,5,15)             120.0            estimate D2E/DX2                !
 ! A16   A(1,6,5)              120.0            estimate D2E/DX2                !
 ! A17   A(1,6,16)             120.0            estimate D2E/DX2                !
 ! A18   A(5,6,16)             120.0            estimate D2E/DX2                !
 ! A19   A(1,7,8)              120.0            estimate D2E/DX2                !
 ! A20   A(1,7,12)             120.0            estimate D2E/DX2                !
 ! A21   A(8,7,12)             120.0            estimate D2E/DX2                !
 ! A22   A(7,8,9)              120.0            estimate D2E/DX2                !
 ! A23   A(7,8,21)             120.0            estimate D2E/DX2                !
 ! A24   A(9,8,21)             120.0            estimate D2E/DX2                !
 ! A25   A(8,9,10)             120.0            estimate D2E/DX2                !
 ! A26   A(8,9,20)             120.0            estimate D2E/DX2                !
 ! A27   A(10,9,20)            120.0            estimate D2E/DX2                !
 ! A28   A(9,10,11)            120.0            estimate D2E/DX2                !
 ! A29   A(9,10,17)            120.0            estimate D2E/DX2                !
 ! A30   A(11,10,17)           120.0            estimate D2E/DX2                !
 ! A31   A(10,11,12)           120.0            estimate D2E/DX2                !
 ! A32   A(10,11,19)           120.0            estimate D2E/DX2                !
 ! A33   A(12,11,19)           120.0            estimate D2E/DX2                !
 ! A34   A(7,12,11)            120.0            estimate D2E/DX2                !
 ! A35   A(7,12,18)            120.0            estimate D2E/DX2                !
 ! A36   A(11,12,18)           120.0            estimate D2E/DX2                !
 ! D1    D(6,1,2,3)              0.0001         estimate D2E/DX2                !
 ! D2    D(6,1,2,13)           180.0            estimate D2E/DX2                !
 ! D3    D(7,1,2,3)           -180.0            estimate D2E/DX2                !
 ! D4    D(7,1,2,13)            -0.0001         estimate D2E/DX2                !
 ! D5    D(2,1,6,5)             -0.0001         estimate D2E/DX2                !
 ! D6    D(2,1,6,16)           180.0            estimate D2E/DX2                !
 ! D7    D(7,1,6,5)            180.0            estimate D2E/DX2                !
 ! D8    D(7,1,6,16)             0.0            estimate D2E/DX2                !
 ! D9    D(2,1,7,8)             -0.0001         estimate D2E/DX2                !
 ! D10   D(2,1,7,12)           179.9998         estimate D2E/DX2                !
 ! D11   D(6,1,7,8)            179.9999         estimate D2E/DX2                !
 ! D12   D(6,1,7,12)            -0.0002         estimate D2E/DX2                !
 ! D13   D(1,2,3,4)              0.0            estimate D2E/DX2                !
 ! D14   D(1,2,3,14)           180.0            estimate D2E/DX2                !
 ! D15   D(13,2,3,4)          -179.9999         estimate D2E/DX2                !
 ! D16   D(13,2,3,14)            0.0001         estimate D2E/DX2                !
 ! D17   D(2,3,4,5)             -0.0001         estimate D2E/DX2                !
 ! D18   D(2,3,4,22)           180.0            estimate D2E/DX2                !
 ! D19   D(14,3,4,5)           179.9999         estimate D2E/DX2                !
 ! D20   D(14,3,4,22)            0.0            estimate D2E/DX2                !
 ! D21   D(3,4,5,6)              0.0001         estimate D2E/DX2                !
 ! D22   D(3,4,5,15)          -179.9999         estimate D2E/DX2                !
 ! D23   D(22,4,5,6)          -180.0            estimate D2E/DX2                !
 ! D24   D(22,4,5,15)            0.0            estimate D2E/DX2                !
 ! D25   D(4,5,6,1)              0.0            estimate D2E/DX2                !
 ! D26   D(4,5,6,16)           179.9999         estimate D2E/DX2                !
 ! D27   D(15,5,6,1)           180.0            estimate D2E/DX2                !
 ! D28   D(15,5,6,16)           -0.0001         estimate D2E/DX2                !
 ! D29   D(1,7,8,9)            179.9999         estimate D2E/DX2                !
 ! D30   D(1,7,8,21)             0.0001         estimate D2E/DX2                !
 ! D31   D(12,7,8,9)             0.0001         estimate D2E/DX2                !
 ! D32   D(12,7,8,21)         -179.9998         estimate D2E/DX2                !
 ! D33   D(1,7,12,11)         -179.9999         estimate D2E/DX2                !
 ! D34   D(1,7,12,18)            0.0            estimate D2E/DX2                !
 ! D35   D(8,7,12,11)           -0.0001         estimate D2E/DX2                !
 ! D36   D(8,7,12,18)          179.9999         estimate D2E/DX2                !
 ! D37   D(7,8,9,10)             0.0            estimate D2E/DX2                !
 ! D38   D(7,8,9,20)           180.0            estimate D2E/DX2                !
 ! D39   D(21,8,9,10)          179.9998         estimate D2E/DX2                !
 ! D40   D(21,8,9,20)           -0.0002         estimate D2E/DX2                !
 ! D41   D(8,9,10,11)            0.0            estimate D2E/DX2                !
 ! D42   D(8,9,10,17)         -179.9999         estimate D2E/DX2                !
 ! D43   D(20,9,10,11)         180.0            estimate D2E/DX2                !
 ! D44   D(20,9,10,17)           0.0001         estimate D2E/DX2                !
 ! D45   D(9,10,11,12)           0.0            estimate D2E/DX2                !
 ! D46   D(9,10,11,19)        -179.9998         estimate D2E/DX2                !
 ! D47   D(17,10,11,12)        179.9999         estimate D2E/DX2                !
 ! D48   D(17,10,11,19)          0.0001         estimate D2E/DX2                !
 ! D49   D(10,11,12,7)           0.0            estimate D2E/DX2                !
 ! D50   D(10,11,12,18)       -179.9999         estimate D2E/DX2                !
 ! D51   D(19,11,12,7)         179.9999         estimate D2E/DX2                !
 ! D52   D(19,11,12,18)         -0.0001         estimate D2E/DX2                !
 --------------------------------------------------------------------------------
 Trust Radius=3.00D-01 FncErr=1.00D-07 GrdErr=1.00D-06 EigMax=2.50D+02 EigMin=1.00D-04
 Number of steps in this run=    121 maximum allowed number of steps=    132.
 GradGradGradGradGradGradGradGradGradGradGradGradGradGradGradGradGradGrad

                          Input orientation:                          
 ---------------------------------------------------------------------
 Center     Atomic      Atomic             Coordinates (Angstroms)
 Number     Number       Type             X           Y           Z
 ---------------------------------------------------------------------
      1          6           0        0.067170   -0.146033   -0.002851
      2          6           0        1.399551   -0.116147   -0.436198
      3          6           0        2.107445    1.093304   -0.442270
      4          6           0        1.482958    2.272869   -0.014995
      5          6           0        0.150576    2.242983    0.418350
      6          6           0       -0.557318    1.033532    0.424422
      7          6           0       -0.710735   -1.475100    0.003823
      8          6           0       -0.086247   -2.654665   -0.423452
      9          6           0       -0.794140   -3.864117   -0.417378
     10          6           0       -2.126520   -3.894003    0.015972
     11          6           0       -2.751008   -2.714438    0.443247
     12          6           0       -2.043115   -1.504987    0.437173
     13          1           0        1.876362   -1.016772   -0.762430
     14          1           0        3.124748    1.116122   -0.773139
     15          1           0       -0.326235    3.143608    0.744581
     16          1           0       -1.574621    1.010714    0.755291
     17          1           0       -2.667012   -4.817446    0.020612
     18         17           0       -2.827399   -0.023587    0.973785
     19         17           0       -4.424325   -2.751973    0.987490
     20         17           0       -0.009855   -5.345517   -0.953987
     21         17           0        1.587073   -2.617132   -0.967686
     22         17           0        2.371992    3.791803   -0.022621
 ---------------------------------------------------------------------
                    Distance matrix (angstroms):
                    1          2          3          4          5
     1  C    0.000000
     2  C    1.401400   0.000000
     3  C    2.427296   1.401400   0.000000
     4  C    2.802800   2.427296   1.401400   0.000000
     5  C    2.427296   2.802800   2.427296   1.401400   0.000000
     6  C    1.401400   2.427296   2.802800   2.427296   1.401400
     7  C    1.540000   2.548270   3.838989   4.342800   3.838989
     8  C    2.548270   2.941400   4.342800   5.187469   4.975106
     9  C    3.838989   4.342800   5.744200   6.558176   6.235992
    10  C    4.342800   5.187469   6.558176   7.145600   6.558176
    11  C    3.838989   4.975106   6.235992   6.558176   5.744200
    12  C    2.548270   3.813607   4.975106   5.187469   4.342800
    13  H    2.146700   1.070000   2.146700   3.396345   3.872800
    14  H    3.396345   2.146700   1.070000   2.146700   3.396345
    15  H    3.396345   3.872800   3.396345   2.146700   1.070000
    16  H    2.146700   3.396345   3.872800   3.396345   2.146700
    17  H    5.412800   6.232802   7.612271   8.215600   7.612271
    18  Cl   3.057342   4.456874   5.254079   4.983028   3.783409
    19  Cl   5.286324   6.549198   7.713260   7.819846   6.797295
    20  Cl   5.286324   5.440665   6.797295   7.819846   7.713260
    21  Cl   3.057342   2.563702   3.783409   4.983028   5.254079
    22  Cl   4.562800   4.048303   2.743718   1.760000   2.743718
                    6          7          8          9         10
     6  C    0.000000
     7  C    2.548270   0.000000
     8  C    3.813607   1.401400   0.000000
     9  C    4.975106   2.427296   1.401400   0.000000
    10  C    5.187469   2.802800   2.427296   1.401400   0.000000
    11  C    4.342800   2.427296   2.802800   2.427296   1.401400
    12  C    2.941400   1.401400   2.427296   2.802800   2.427296
    13  H    3.396345   2.736837   2.578650   3.918930   4.990735
    14  H    3.872800   4.693509   4.965039   6.347206   7.300676
    15  H    2.146700   4.693509   5.919617   7.118798   7.300676
    16  H    1.070000   2.736837   4.127917   5.074276   4.990735
    17  H    6.232802   3.872800   3.396345   2.146700   1.070000
    18  Cl   2.563702   2.743718   4.048303   4.562800   4.048303
    19  Cl   5.440665   4.048303   4.562800   4.048303   2.743718
    20  Cl   6.549198   4.048303   2.743718   1.760000   2.743718
    21  Cl   4.456874   2.743718   1.760000   2.743718   4.048303
    22  Cl   4.048303   6.102800   6.910901   8.294174   8.905600
                   11         12         13         14         15
    11  C    0.000000
    12  C    1.401400   0.000000
    13  H    5.074276   4.127917   0.000000
    14  H    7.118798   5.919617   2.471400   0.000000
    15  H    6.347206   4.965039   4.942800   4.280590   0.000000
    16  H    3.918930   2.578650   4.280590   4.942800   2.471400
    17  H    2.146700   3.396345   5.974992   8.329571   8.329571
    18  Cl   2.743718   1.760000   5.111382   6.307038   4.042212
    19  Cl   1.760000   2.743718   6.765486   8.663168   7.184095
    20  Cl   4.048303   4.562800   4.725732   7.184095   8.663168
    21  Cl   4.562800   4.048303   1.639199   4.042212   6.307038
    22  Cl   8.294174   6.910901   4.890332   2.879094   2.879094
                   16         17         18         19         20
    16  H    0.000000
    17  H    5.974992   0.000000
    18  Cl   1.639199   4.890332   0.000000
    19  Cl   4.725732   2.879094   3.161400   0.000000
    20  Cl   6.765486   2.879094   6.322800   5.475705   0.000000
    21  Cl   5.111382   4.890332   5.475705   6.322800   3.161400
    22  Cl   4.890332   9.975600   6.525618   9.488480   9.488480
                   21         22
    21  Cl   0.000000
    22  Cl   6.525618   0.000000
 Stoichiometry    C12H5Cl5
 Framework group  C1[X(C12H5Cl5)]
 Deg. of freedom    60
 Full point group                 C1      NOp   1
 Largest Abelian subgroup         C1      NOp   1
 Largest concise Abelian subgroup C1      NOp   1
                         Standard orientation:                         
 ---------------------------------------------------------------------
 Center     Atomic      Atomic             Coordinates (Angstroms)
 Number     Number       Type             X           Y           Z
 ---------------------------------------------------------------------
      1          6           0        1.096881    0.000000    0.000003
      2          6           0        1.797581    1.213648   -0.000000
      3          6           0        3.198981    1.213648   -0.000002
      4          6           0        3.899681    0.000000   -0.000001
      5          6           0        3.198981   -1.213648    0.000004
      6          6           0        1.797581   -1.213648    0.000006
      7          6           0       -0.443119    0.000000    0.000003
      8          6           0       -1.143819    1.213648    0.000002
      9          6           0       -2.545219    1.213648    0.000001
     10          6           0       -3.245919    0.000000    0.000001
     11          6           0       -2.545219   -1.213648    0.000001
     12          6           0       -1.143819   -1.213648    0.000002
     13          1           0        1.262581    2.140295   -0.000003
     14          1           0        3.733981    2.140295   -0.000004
     15          1           0        3.733981   -2.140295    0.000007
     16          1           0        1.262581   -2.140295    0.000008
     17          1           0       -4.315919    0.000000   -0.000002
     18         17           0       -0.263819   -2.737853    0.000000
     19         17           0       -3.425219   -2.737853   -0.000004
     20         17           0       -3.425219    2.737853    0.000001
     21         17           0       -0.263819    2.737853   -0.000002
     22         17           0        5.659681    0.000000   -0.000003
 ---------------------------------------------------------------------
 Rotational constants (GHZ):           0.4182380           0.1785048           0.1251083
 Standard basis: 6-311+G(d,p) (5D, 7F)
 There are   461 symmetry adapted cartesian basis functions of A   symmetry.
 There are   444 symmetry adapted basis functions of A   symmetry.
   444 basis functions,   737 primitive gaussians,   461 cartesian basis functions
    81 alpha electrons       81 beta electrons
       nuclear repulsion energy      1723.1286849541 Hartrees.
 NAtoms=   22 NActive=   22 NUniq=   22 SFac= 1.00D+00 NAtFMM=   60 NAOKFM=F Big=F
 Integral buffers will be    131072 words long.
 Raffenetti 2 integral format.
 Two-electron integral symmetry is turned on.
 One-electron integrals computed using PRISM.
 NBasis=   444 RedAO= T EigKep=  1.57D-06  NBF=   444
 NBsUse=   438 1.00D-06 EigRej=  6.25D-07 NBFU=   438
 ExpMin= 4.38D-02 ExpMax= 1.06D+05 ExpMxC= 3.62D+03 IAcc=3 IRadAn=         5 AccDes= 0.00D+00
 Harris functional with IExCor=  402 and IRadAn=       5 diagonalized for initial guess.
 HarFok:  IExCor=  402 AccDes= 0.00D+00 IRadAn=         5 IDoV= 1 UseB2=F ITyADJ=14
 ICtDFT=  3500011 ScaDFX=  1.000000  1.000000  1.000000  1.000000
 FoFCou: FMM=F IPFlag=           0 FMFlag=      100000 FMFlg1=           0
         NFxFlg=           0 DoJE=T BraDBF=F KetDBF=T FulRan=T
         wScrn=  0.000000 ICntrl=       500 IOpCl=  0 I1Cent=   200000004 NGrid=           0
         NMat0=    1 NMatS0=      1 NMatT0=    0 NMatD0=    1 NMtDS0=    0 NMtDT0=    0
 Petite list used in FoFCou.
 Requested convergence on RMS density matrix=1.00D-08 within  32 cycles.
 Requested convergence on MAX density matrix=1.00D-06.
 Requested convergence on             energy=1.00D-06.
 No special actions if energy rises.
 SCF Done:  E(RB3LYP) =  -2761.39675949     A.U. after   15 cycles
            NFock= 15  Conv=0.45D-08     -V/T= 2.0025
 QCSCF skips out because SCF is already converged.

 **********************************************************************

            Population analysis using the SCF Density.

 **********************************************************************

 Orbital symmetries:
       Occupied  (A) (A) (A) (A) (A) (A) (A) (A) (A) (A) (A) (A)
                 (A) (A) (A) (A) (A) (A) (A) (A) (A) (A) (A) (A)
                 (A) (A) (A) (A) (A) (A) (A) (A) (A) (A) (A) (A)
                 (A) (A) (A) (A) (A) (A) (A) (A) (A) (A) (A) (A)
                 (A) (A) (A) (A) (A) (A) (A) (A) (A) (A) (A) (A)
                 (A) (A) (A) (A) (A) (A) (A) (A) (A) (A) (A) (A)
                 (A) (A) (A) (A) (A) (A) (A) (A) (A)
       Virtual   (A) (A) (A) (A) (A) (A) (A) (A) (A) (A) (A) (A)
                 (A) (A) (A) (A) (A) (A) (A) (A) (A) (A) (A) (A)
                 (A) (A) (A) (A) (A) (A) (A) (A) (A) (A) (A) (A)
                 (A) (A) (A) (A) (A) (A) (A) (A) (A) (A) (A) (A)
                 (A) (A) (A) (A) (A) (A) (A) (A) (A) (A) (A) (A)
                 (A) (A) (A) (A) (A) (A) (A) (A) (A) (A) (A) (A)
                 (A) (A) (A) (A) (A) (A) (A) (A) (A) (A) (A) (A)
                 (A) (A) (A) (A) (A) (A) (A) (A) (A) (A) (A) (A)
                 (A) (A) (A) (A) (A) (A) (A) (A) (A) (A) (A) (A)
                 (A) (A) (A) (A) (A) (A) (A) (A) (A) (A) (A) (A)
                 (A) (A) (A) (A) (A) (A) (A) (A) (A) (A) (A) (A)
                 (A) (A) (A) (A) (A) (A) (A) (A) (A) (A) (A) (A)
                 (A) (A) (A) (A) (A) (A) (A) (A) (A) (A) (A) (A)
                 (A) (A) (A) (A) (A) (A) (A) (A) (A) (A) (A) (A)
                 (A) (A) (A) (A) (A) (A) (A) (A) (A) (A) (A) (A)
                 (A) (A) (A) (A) (A) (A) (A) (A) (A) (A) (A) (A)
                 (A) (A) (A) (A) (A) (A) (A) (A) (A) (A) (A) (A)
                 (A) (A) (A) (A) (A) (A) (A) (A) (A) (A) (A) (A)
                 (A) (A) (A) (A) (A) (A) (A) (A) (A) (A) (A) (A)
                 (A) (A) (A) (A) (A) (A) (A) (A) (A) (A) (A) (A)
                 (A) (A) (A) (A) (A) (A) (A) (A) (A) (A) (A) (A)
                 (A) (A) (A) (A) (A) (A) (A) (A) (A) (A) (A) (A)
                 (A) (A) (A) (A) (A) (A) (A) (A) (A) (A) (A) (A)
                 (A) (A) (A) (A) (A) (A) (A) (A) (A) (A) (A) (A)
                 (A) (A) (A) (A) (A) (A) (A) (A) (A) (A) (A) (A)
                 (A) (A) (A) (A) (A) (A) (A) (A) (A) (A) (A) (A)
                 (A) (A) (A) (A) (A) (A) (A) (A) (A) (A) (A) (A)
                 (A) (A) (A) (A) (A) (A) (A) (A) (A) (A) (A) (A)
                 (A) (A) (A) (A) (A) (A) (A) (A) (A) (A) (A) (A)
                 (A) (A) (A) (A) (A) (A) (A) (A) (A)
 The electronic state is 1-A.
 Alpha  occ. eigenvalues -- -101.58456-101.58456-101.58334-101.58334-101.55808
 Alpha  occ. eigenvalues --  -10.28565 -10.28564 -10.28393 -10.28393 -10.24970
 Alpha  occ. eigenvalues --  -10.24762 -10.23195 -10.21437 -10.19266 -10.19265
 Alpha  occ. eigenvalues --  -10.17636 -10.17636  -9.50237  -9.50237  -9.49751
 Alpha  occ. eigenvalues --   -9.49750  -9.47255  -7.26664  -7.26664  -7.26252
 Alpha  occ. eigenvalues --   -7.26252  -7.25687  -7.25687  -7.25647  -7.25647
 Alpha  occ. eigenvalues --   -7.25228  -7.25228  -7.25166  -7.25166  -7.23707
 Alpha  occ. eigenvalues --   -7.22749  -7.22705  -0.96453  -0.93132  -0.90714
 Alpha  occ. eigenvalues --   -0.89264  -0.88755  -0.85344  -0.84426  -0.79117
 Alpha  occ. eigenvalues --   -0.76905  -0.75159  -0.74558  -0.66063  -0.64465
 Alpha  occ. eigenvalues --   -0.63013  -0.61224  -0.54910  -0.54672  -0.54116
 Alpha  occ. eigenvalues --   -0.49836  -0.49091  -0.48855  -0.47608  -0.46723
 Alpha  occ. eigenvalues --   -0.46163  -0.46015  -0.42919  -0.42617  -0.41550
 Alpha  occ. eigenvalues --   -0.40765  -0.39678  -0.39635  -0.38539  -0.37040
 Alpha  occ. eigenvalues --   -0.34916  -0.34867  -0.34274  -0.33680  -0.32477
 Alpha  occ. eigenvalues --   -0.29867  -0.29831  -0.28117  -0.27711  -0.26834
 Alpha  occ. eigenvalues --   -0.25037
 Alpha virt. eigenvalues --   -0.07715  -0.06464  -0.05526  -0.03131  -0.02401
 Alpha virt. eigenvalues --   -0.01415  -0.00662  -0.00295   0.01208   0.01412
 Alpha virt. eigenvalues --    0.01412   0.02420   0.02502   0.04311   0.04348
 Alpha virt. eigenvalues --    0.04967   0.05037   0.05543   0.06146   0.06338
 Alpha virt. eigenvalues --    0.06423   0.07560   0.07777   0.08353   0.08551
 Alpha virt. eigenvalues --    0.08642   0.08797   0.09541   0.10054   0.10842
 Alpha virt. eigenvalues --    0.11101   0.11118   0.12065   0.12137   0.12772
 Alpha virt. eigenvalues --    0.12872   0.13316   0.13432   0.13623   0.14294
 Alpha virt. eigenvalues --    0.15237   0.15266   0.15681   0.15705   0.15833
 Alpha virt. eigenvalues --    0.16309   0.16743   0.16998   0.18160   0.18781
 Alpha virt. eigenvalues --    0.19017   0.19069   0.19800   0.19855   0.20163
 Alpha virt. eigenvalues --    0.20522   0.20552   0.21111   0.21177   0.21319
 Alpha virt. eigenvalues --    0.22162   0.22456   0.22685   0.23884   0.24181
 Alpha virt. eigenvalues --    0.25026   0.25096   0.25137   0.25460   0.25806
 Alpha virt. eigenvalues --    0.25911   0.27140   0.27384   0.28766   0.28862
 Alpha virt. eigenvalues --    0.29425   0.30278   0.31742   0.31939   0.32011
 Alpha virt. eigenvalues --    0.33135   0.33522   0.33574   0.34449   0.35654
 Alpha virt. eigenvalues --    0.36539   0.37193   0.39204   0.41077   0.41692
 Alpha virt. eigenvalues --    0.42037   0.42331   0.43082   0.43800   0.44427
 Alpha virt. eigenvalues --    0.44748   0.45550   0.45721   0.46339   0.47247
 Alpha virt. eigenvalues --    0.48031   0.48136   0.48827   0.48913   0.50919
 Alpha virt. eigenvalues --    0.51113   0.51248   0.52042   0.53760   0.54667
 Alpha virt. eigenvalues --    0.56006   0.56102   0.57694   0.57885   0.58199
 Alpha virt. eigenvalues --    0.58535   0.58847   0.59438   0.60311   0.61583
 Alpha virt. eigenvalues --    0.62807   0.63178   0.63222   0.63742   0.64268
 Alpha virt. eigenvalues --    0.64983   0.66912   0.67101   0.68557   0.68562
 Alpha virt. eigenvalues --    0.69400   0.71343   0.72019   0.75127   0.78117
 Alpha virt. eigenvalues --    0.79010   0.79596   0.80373   0.82185   0.82607
 Alpha virt. eigenvalues --    0.82780   0.82803   0.83617   0.83903   0.84218
 Alpha virt. eigenvalues --    0.84628   0.84639   0.85705   0.85749   0.86291
 Alpha virt. eigenvalues --    0.86387   0.86623   0.86653   0.88188   0.88530
 Alpha virt. eigenvalues --    0.88761   0.89483   0.91838   0.92139   0.92880
 Alpha virt. eigenvalues --    0.93101   0.93418   0.94110   0.94112   0.94174
 Alpha virt. eigenvalues --    0.95303   0.95908   0.96170   0.96978   0.98220
 Alpha virt. eigenvalues --    0.98544   0.99851   1.00463   1.01222   1.03720
 Alpha virt. eigenvalues --    1.07330   1.07444   1.08208   1.08282   1.10083
 Alpha virt. eigenvalues --    1.11334   1.12364   1.12778   1.14429   1.17152
 Alpha virt. eigenvalues --    1.19776   1.20140   1.23220   1.23516   1.24325
 Alpha virt. eigenvalues --    1.26978   1.27334   1.27417   1.28312   1.28478
 Alpha virt. eigenvalues --    1.29942   1.33361   1.33486   1.37016   1.39710
 Alpha virt. eigenvalues --    1.42788   1.43769   1.45876   1.48772   1.49367
 Alpha virt. eigenvalues --    1.54485   1.54665   1.55319   1.56363   1.56465
 Alpha virt. eigenvalues --    1.58824   1.61681   1.63321   1.65040   1.66913
 Alpha virt. eigenvalues --    1.70046   1.70085   1.73462   1.74093   1.75979
 Alpha virt. eigenvalues --    1.76813   1.77674   1.81945   1.82250   1.83536
 Alpha virt. eigenvalues --    1.84508   1.85177   1.87329   1.90714   1.92970
 Alpha virt. eigenvalues --    1.94500   1.95068   1.96509   1.97287   1.98334
 Alpha virt. eigenvalues --    1.98390   2.02257   2.04512   2.06934   2.07571
 Alpha virt. eigenvalues --    2.08049   2.12547   2.12906   2.18970   2.21341
 Alpha virt. eigenvalues --    2.22761   2.23050   2.23559   2.24232   2.24631
 Alpha virt. eigenvalues --    2.25785   2.27792   2.28173   2.34484   2.34801
 Alpha virt. eigenvalues --    2.34969   2.35105   2.38769   2.40545   2.43225
 Alpha virt. eigenvalues --    2.43913   2.44008   2.46882   2.50279   2.51867
 Alpha virt. eigenvalues --    2.55625   2.55769   2.56496   2.57529   2.58841
 Alpha virt. eigenvalues --    2.61250   2.64314   2.64411   2.66090   2.69776
 Alpha virt. eigenvalues --    2.69789   2.72486   2.73025   2.73112   2.73205
 Alpha virt. eigenvalues --    2.75762   2.79158   2.79178   2.80922   2.80992
 Alpha virt. eigenvalues --    2.83410   2.85775   2.91104   2.92591   2.93774
 Alpha virt. eigenvalues --    2.99877   3.01341   3.04409   3.07346   3.10555
 Alpha virt. eigenvalues --    3.10763   3.11636   3.12702   3.19330   3.21279
 Alpha virt. eigenvalues --    3.22656   3.25846   3.33411   3.35962   3.42103
 Alpha virt. eigenvalues --    3.50598   3.53940   3.54707   3.61718   3.68687
 Alpha virt. eigenvalues --    3.76436   3.80064   3.89330   3.99178   4.02471
 Alpha virt. eigenvalues --    4.16524   4.21984   4.44421   4.78685   4.83638
 Alpha virt. eigenvalues --    9.74970   9.77704   9.77780   9.85494   9.86566
 Alpha virt. eigenvalues --   23.31442  23.59769  23.77485  23.83022  23.87700
 Alpha virt. eigenvalues --   23.92395  23.96641  23.97444  24.01946  24.04278
 Alpha virt. eigenvalues --   24.08265  24.15621  25.76593  25.78204  25.82725
 Alpha virt. eigenvalues --   25.86197  25.87958  26.08937  26.12317  26.20469
 Alpha virt. eigenvalues --   26.45682  26.50089  26.60740  26.73334  26.75833
 Alpha virt. eigenvalues --   26.82466  26.93390 215.74146 215.76779 215.77295
 Alpha virt. eigenvalues --  215.87777 215.88854
          Condensed to atoms (all electrons):
               1          2          3          4          5          6
     1  C   17.481841   1.654158  -1.672485  -0.358520  -1.672485   1.654158
     2  C    1.654158  13.344511   0.069761  -1.784620  -1.055562  -2.559196
     3  C   -1.672485   0.069761  18.380144   0.889570  -6.855788  -1.055562
     4  C   -0.358520  -1.784620   0.889570  10.798603   0.889570  -1.784620
     5  C   -1.672485  -1.055562  -6.855788   0.889570  18.380144   0.069761
     6  C    1.654158  -2.559196  -1.055562  -1.784620   0.069761  13.344511
     7  C    6.363214   0.583704  -1.656254  -0.904372  -1.656254   0.583704
     8  C   -2.539607  -0.723472   0.111317  -0.615171  -1.547470  -1.534299
     9  C   -5.559060  -0.448081   0.274900  -0.144545  -0.590322  -0.985312
    10  C   -0.285747   0.660721   0.042998   0.051782   0.042998   0.660721
    11  C   -5.559060  -0.985312  -0.590322  -0.144545   0.274900  -0.448081
    12  C   -2.539607  -1.534299  -1.547470  -0.615171   0.111317  -0.723472
    13  H   -0.300620   0.557329   0.327388   0.005500  -0.095023  -0.029609
    14  H    0.114791   0.021999   0.135189   0.006051   0.049131   0.000543
    15  H    0.114791   0.000543   0.049131   0.006051   0.135189   0.021998
    16  H   -0.300620  -0.029609  -0.095023   0.005500   0.327388   0.557329
    17  H    0.010736   0.000743   0.000149   0.000024   0.000149   0.000743
    18  Cl   0.149036   0.051822   0.144705  -0.028252  -0.946300  -0.997335
    19  Cl  -0.084647  -0.029510  -0.001774  -0.003779   0.008224  -0.048703
    20  Cl  -0.084647  -0.048703   0.008224  -0.003779  -0.001774  -0.029510
    21  Cl   0.149036  -0.997335  -0.946300  -0.028252   0.144705   0.051822
    22  Cl  -0.201871  -0.080221   0.311400  -0.928266   0.311400  -0.080221
               7          8          9         10         11         12
     1  C    6.363214  -2.539607  -5.559060  -0.285747  -5.559060  -2.539607
     2  C    0.583704  -0.723472  -0.448081   0.660721  -0.985312  -1.534299
     3  C   -1.656254   0.111317   0.274900   0.042998  -0.590322  -1.547470
     4  C   -0.904372  -0.615171  -0.144545   0.051782  -0.144545  -0.615171
     5  C   -1.656254  -1.547470  -0.590322   0.042998   0.274900   0.111317
     6  C    0.583704  -1.534299  -0.985312   0.660721  -0.448081  -0.723472
     7  C   22.577397  -1.704081  -8.604943   3.072536  -8.604943  -1.704081
     8  C   -1.704081  14.223468   1.413317  -6.329828   2.583001   3.354584
     9  C   -8.604943   1.413317  25.110424  -3.897823  -4.209681   2.583001
    10  C    3.072536  -6.329828  -3.897823  23.056223  -3.897825  -6.329828
    11  C   -8.604943   2.583001  -4.209681  -3.897825  25.110423   1.413317
    12  C   -1.704081   3.354584   2.583001  -6.329828   1.413317  14.223469
    13  H   -0.113679   0.137506   0.040306  -0.005023  -0.015738  -0.037096
    14  H    0.025641  -0.002901  -0.000664   0.000114   0.000575   0.008378
    15  H    0.025641   0.008378   0.000575   0.000114  -0.000664  -0.002901
    16  H   -0.113679  -0.037096  -0.015738  -0.005023   0.040306   0.137506
    17  H    0.052789   0.062785  -0.001174   0.162697  -0.001174   0.062785
    18  Cl  -0.144679   0.041155   0.733513   0.553323   0.238823  -1.377497
    19  Cl  -0.504601   0.227480  -0.161574  -0.574518  -0.373428   0.896815
    20  Cl  -0.504601   0.896815  -0.373428  -0.574518  -0.161574   0.227480
    21  Cl  -0.144679  -1.377497   0.238822   0.553323   0.733513   0.041155
    22  Cl  -0.074804  -0.026367  -0.003402  -0.001326  -0.003402  -0.026367
              13         14         15         16         17         18
     1  C   -0.300620   0.114791   0.114791  -0.300620   0.010736   0.149036
     2  C    0.557329   0.021999   0.000543  -0.029609   0.000743   0.051822
     3  C    0.327388   0.135189   0.049131  -0.095023   0.000149   0.144705
     4  C    0.005500   0.006051   0.006051   0.005500   0.000024  -0.028252
     5  C   -0.095023   0.049131   0.135189   0.327388   0.000149  -0.946300
     6  C   -0.029609   0.000543   0.021998   0.557329   0.000743  -0.997335
     7  C   -0.113679   0.025641   0.025641  -0.113679   0.052789  -0.144679
     8  C    0.137506  -0.002901   0.008378  -0.037096   0.062785   0.041155
     9  C    0.040306  -0.000664   0.000575  -0.015738  -0.001174   0.733513
    10  C   -0.005023   0.000114   0.000114  -0.005023   0.162697   0.553323
    11  C   -0.015738   0.000575  -0.000664   0.040306  -0.001174   0.238823
    12  C   -0.037096   0.008378  -0.002901   0.137506   0.062785  -1.377497
    13  H    0.724203  -0.016033   0.000144  -0.000570   0.000003   0.003939
    14  H   -0.016033   0.531117  -0.000386   0.000144  -0.000000  -0.000356
    15  H    0.000144  -0.000386   0.531117  -0.016033  -0.000000   0.004817
    16  H   -0.000570   0.000144  -0.016033   0.724203   0.000003  -0.313164
    17  H    0.000003  -0.000000  -0.000000   0.000003   0.485745  -0.000214
    18  Cl   0.003939  -0.000356   0.004817  -0.313164  -0.000214  18.484953
    19  Cl   0.000102  -0.000001  -0.000009   0.005774  -0.004212  -0.275615
    20  Cl   0.005774  -0.000009  -0.000001   0.000102  -0.004212   0.004400
    21  Cl  -0.313164   0.004817  -0.000356   0.003939  -0.000214  -0.054683
    22  Cl   0.001707  -0.015057  -0.015057   0.001707   0.000000  -0.002808
              19         20         21         22
     1  C   -0.084647  -0.084647   0.149036  -0.201871
     2  C   -0.029510  -0.048703  -0.997335  -0.080221
     3  C   -0.001774   0.008224  -0.946300   0.311400
     4  C   -0.003779  -0.003779  -0.028252  -0.928266
     5  C    0.008224  -0.001774   0.144705   0.311400
     6  C   -0.048703  -0.029510   0.051822  -0.080221
     7  C   -0.504601  -0.504601  -0.144679  -0.074804
     8  C    0.227480   0.896815  -1.377497  -0.026367
     9  C   -0.161574  -0.373428   0.238822  -0.003402
    10  C   -0.574518  -0.574518   0.553323  -0.001326
    11  C   -0.373428  -0.161574   0.733513  -0.003402
    12  C    0.896815   0.227480   0.041155  -0.026367
    13  H    0.000102   0.005774  -0.313164   0.001707
    14  H   -0.000001  -0.000009   0.004817  -0.015057
    15  H   -0.000009  -0.000001  -0.000356  -0.015057
    16  H    0.005774   0.000102   0.003939   0.001707
    17  H   -0.004212  -0.004212  -0.000214   0.000000
    18  Cl  -0.275615   0.004400  -0.054683  -0.002808
    19  Cl  17.397545  -0.027187   0.004400  -0.000012
    20  Cl  -0.027187  17.397545  -0.275615  -0.000012
    21  Cl   0.004400  -0.275615  18.484953  -0.002808
    22  Cl  -0.000012  -0.000012  -0.002808  17.410676
 Mulliken charges:
               1
     1  C   -0.532785
     2  C   -0.669370
     3  C   -0.323899
     4  C    0.691242
     5  C   -0.323899
     6  C   -0.669370
     7  C   -0.848979
     8  C   -0.622015
     9  C    0.600890
    10  C   -0.956092
    11  C    0.600890
    12  C   -0.622015
    13  H    0.122656
    14  H    0.136919
    15  H    0.136919
    16  H    0.122656
    17  H    0.171849
    18  Cl   0.730419
    19  Cl   0.549228
    20  Cl   0.549228
    21  Cl   0.730419
    22  Cl   0.425109
 Sum of Mulliken charges =  -0.00000
 Mulliken charges with hydrogens summed into heavy atoms:
               1
     1  C   -0.532785
     2  C   -0.546714
     3  C   -0.186980
     4  C    0.691242
     5  C   -0.186980
     6  C   -0.546714
     7  C   -0.848979
     8  C   -0.622015
     9  C    0.600890
    10  C   -0.784243
    11  C    0.600890
    12  C   -0.622015
    18  Cl   0.730419
    19  Cl   0.549228
    20  Cl   0.549228
    21  Cl   0.730419
    22  Cl   0.425109
 Electronic spatial extent (au):  <R**2>=           7484.9824
 Charge=             -0.0000 electrons
 Dipole moment (field-independent basis, Debye):
    X=             -1.8100    Y=             -0.0000    Z=              0.0000  Tot=              1.8100
 Quadrupole moment (field-independent basis, Debye-Ang):
   XX=           -138.9492   YY=           -128.2914   ZZ=           -135.7048
   XY=              0.0000   XZ=              0.0000   YZ=             -0.0000
 Traceless Quadrupole moment (field-independent basis, Debye-Ang):
   XX=             -4.6341   YY=              6.0237   ZZ=             -1.3896
   XY=              0.0000   XZ=              0.0000   YZ=             -0.0000
 Octapole moment (field-independent basis, Debye-Ang**2):
  XXX=            -92.3553  YYY=             -0.0000  ZZZ=             -0.0001  XYY=             22.8750
  XXY=             -0.0000  XXZ=             -0.0000  XZZ=             -7.5296  YZZ=             -0.0000
  YYZ=             -0.0000  XYZ=             -0.0001
 Hexadecapole moment (field-independent basis, Debye-Ang**3):
 XXXX=          -7053.4656 YYYY=          -2749.7953 ZZZZ=           -158.1640 XXXY=              0.0000
 XXXZ=              0.0003 YYYX=              0.0000 YYYZ=             -0.0001 ZZZX=             -0.0000
 ZZZY=              0.0000 XXYY=          -1569.9015 XXZZ=          -1211.5975 YYZZ=           -518.4225
 XXYZ=             -0.0001 YYXZ=              0.0001 ZZXY=              0.0000
 N-N= 1.723128684954D+03 E-N=-9.982828837742D+03  KE= 2.754529001878D+03
 Calling FoFJK, ICntrl=      2127 FMM=F ISym2X=0 I1Cent= 0 IOpClX= 0 NMat=1 NMatS=1 NMatT=0.
 ***** Axes restored to original set *****
 -------------------------------------------------------------------
 Center     Atomic                   Forces (Hartrees/Bohr)
 Number     Number              X              Y              Z
 -------------------------------------------------------------------
      1        6          -0.014956521   -0.025553477    0.000128231
      2        6           0.005264364    0.055332814    0.008657812
      3        6          -0.016418204    0.003741244    0.006111810
      4        6          -0.005405817   -0.009235802    0.000046170
      5        6           0.011274932   -0.012528741   -0.006067535
      6        6           0.045628395    0.031618559   -0.009094435
      7        6           0.023342713    0.039881459   -0.000200163
      8        6          -0.004822479   -0.004413145    0.000760069
      9        6           0.001010283   -0.000241265   -0.000378217
     10        6           0.006703877    0.011453709   -0.000057493
     11        6          -0.000703372    0.000765528    0.000375701
     12        6          -0.001489624   -0.006371231   -0.000705900
     13        1           0.004652820    0.051256946    0.008093610
     14        1           0.008885700    0.000515023   -0.002830701
     15        1          -0.003889711    0.008020699    0.002787877
     16        1           0.042376490    0.029093918   -0.008497422
     17        1          -0.003904314   -0.006670579    0.000033459
     18       17          -0.083597888   -0.061779302    0.015939551
     19       17           0.007732676   -0.004710098   -0.003432288
     20       17          -0.007878237    0.004461468    0.003433463
     21       17          -0.012998144   -0.103257341   -0.015110544
     22       17          -0.000807936   -0.001380386    0.000006944
 -------------------------------------------------------------------
 Cartesian Forces:  Max     0.103257341 RMS     0.024100274

 GradGradGradGradGradGradGradGradGradGradGradGradGradGradGradGradGradGrad
 Berny optimization.
 FormGI is forming the generalized inverse of G from B-inverse, IUseBI=4.
 Internal  Forces:  Max     0.191167893 RMS     0.049709156
 Search for a local minimum.
 Step number   1 out of a maximum of  121
 All quantities printed in internal units (Hartrees-Bohrs-Radians)
 Mixed Optimization -- RFO/linear search
 Second derivative matrix not updated -- first step.
 ITU=  0
     Eigenvalues ---    0.00237   0.01506   0.01506   0.02070   0.02070
     Eigenvalues ---    0.02070   0.02070   0.02070   0.02070   0.02070
     Eigenvalues ---    0.02070   0.02070   0.02070   0.02070   0.02070
     Eigenvalues ---    0.02070   0.02070   0.02070   0.02070   0.16000
     Eigenvalues ---    0.16000   0.16000   0.16000   0.16000   0.22000
     Eigenvalues ---    0.22981   0.23485   0.24000   0.25000   0.25000
     Eigenvalues ---    0.25000   0.25000   0.25000   0.25000   0.25000
     Eigenvalues ---    0.25000   0.25000   0.28519   0.29539   0.29539
     Eigenvalues ---    0.29539   0.29539   0.29539   0.37230   0.37230
     Eigenvalues ---    0.37230   0.37230   0.37230   0.41268   0.41635
     Eigenvalues ---    0.41640   0.41797   0.45389   0.45389   0.45389
     Eigenvalues ---    0.45389   0.45389   0.45389   0.45389   0.45389
 RFO step:  Lambda=-3.99992473D-01 EMin= 2.36824243D-03
 Linear search not attempted -- first point.
 Maximum step size (   0.300) exceeded in Quadratic search.
    -- Step size scaled by   0.391
 Iteration  1 RMS(Cart)=  0.09896796 RMS(Int)=  0.00385023
 Iteration  2 RMS(Cart)=  0.00439048 RMS(Int)=  0.00016026
 Iteration  3 RMS(Cart)=  0.00000750 RMS(Int)=  0.00016023
 Iteration  4 RMS(Cart)=  0.00000000 RMS(Int)=  0.00016023
 Variable       Old X    -DE/DX   Delta X   Delta X   Delta X     New X
                                 (Linear)    (Quad)   (Total)
    R1        2.64826   0.03457   0.00000   0.01645   0.01661   2.66487
    R2        2.64826   0.03457   0.00000   0.01645   0.01661   2.66487
    R3        2.91018   0.15165   0.00000   0.08652   0.08652   2.99670
    R4        2.64826  -0.00630   0.00000  -0.00288  -0.00288   2.64538
    R5        2.02201  -0.04354   0.00000  -0.02204  -0.02204   1.99997
    R6        2.64826  -0.04229   0.00000  -0.01999  -0.02014   2.62812
    R7        2.02201   0.00933   0.00000   0.00472   0.00472   2.02673
    R8        2.64826  -0.04229   0.00000  -0.01999  -0.02014   2.62812
    R9        3.32592  -0.00160   0.00000  -0.00090  -0.00090   3.32502
   R10        2.64826  -0.00630   0.00000  -0.00288  -0.00288   2.64538
   R11        2.02201   0.00933   0.00000   0.00472   0.00472   2.02673
   R12        2.02201  -0.04354   0.00000  -0.02204  -0.02204   1.99997
   R13        2.64826   0.14136   0.00000   0.06672   0.06703   2.71529
   R14        2.64826   0.14136   0.00000   0.06672   0.06703   2.71529
   R15        2.64826  -0.00293   0.00000  -0.00134  -0.00135   2.64691
   R16        3.32592  -0.00989   0.00000  -0.00556  -0.00556   3.32036
   R17        2.64826  -0.06462   0.00000  -0.03159  -0.03190   2.61636
   R18        3.32592  -0.00831   0.00000  -0.00467  -0.00467   3.32124
   R19        2.64826  -0.06462   0.00000  -0.03159  -0.03190   2.61636
   R20        2.02201   0.00773   0.00000   0.00391   0.00391   2.02592
   R21        2.64826  -0.00293   0.00000  -0.00134  -0.00135   2.64691
   R22        3.32592  -0.00831   0.00000  -0.00467  -0.00467   3.32124
   R23        3.32592  -0.00989   0.00000  -0.00556  -0.00556   3.32036
    A1        2.09440  -0.11357   0.00000  -0.06725  -0.06691   2.02748
    A2        2.09440   0.05678   0.00000   0.03362   0.03346   2.12785
    A3        2.09440   0.05678   0.00000   0.03362   0.03346   2.12785
    A4        2.09440   0.05524   0.00000   0.03506   0.03522   2.12961
    A5        2.09440   0.00131   0.00000   0.00267   0.00259   2.09698
    A6        2.09440  -0.05655   0.00000  -0.03772  -0.03781   2.05659
    A7        2.09440   0.01114   0.00000   0.00549   0.00533   2.09972
    A8        2.09440  -0.00525   0.00000  -0.00252  -0.00244   2.09196
    A9        2.09440  -0.00590   0.00000  -0.00297  -0.00289   2.09150
   A10        2.09440  -0.01920   0.00000  -0.01385  -0.01418   2.08022
   A11        2.09440   0.00960   0.00000   0.00693   0.00709   2.10148
   A12        2.09440   0.00960   0.00000   0.00693   0.00709   2.10148
   A13        2.09440   0.01114   0.00000   0.00549   0.00533   2.09972
   A14        2.09440  -0.00590   0.00000  -0.00297  -0.00289   2.09150
   A15        2.09440  -0.00525   0.00000  -0.00252  -0.00244   2.09196
   A16        2.09440   0.05524   0.00000   0.03506   0.03522   2.12961
   A17        2.09440   0.00131   0.00000   0.00267   0.00259   2.09698
   A18        2.09440  -0.05655   0.00000  -0.03772  -0.03781   2.05659
   A19        2.09440   0.06977   0.00000   0.03923   0.03890   2.13329
   A20        2.09440   0.06977   0.00000   0.03923   0.03890   2.13329
   A21        2.09440  -0.13954   0.00000  -0.07845  -0.07779   2.01660
   A22        2.09440   0.03412   0.00000   0.02331   0.02362   2.11802
   A23        2.09440   0.15705   0.00000   0.09306   0.09290   2.18730
   A24        2.09440  -0.19117   0.00000  -0.11637  -0.11652   1.97787
   A25        2.09440   0.04200   0.00000   0.02268   0.02236   2.11675
   A26        2.09440  -0.01274   0.00000  -0.00638  -0.00621   2.08818
   A27        2.09440  -0.02926   0.00000  -0.01631  -0.01615   2.07825
   A28        2.09440  -0.01271   0.00000  -0.01353  -0.01417   2.08022
   A29        2.09440   0.00635   0.00000   0.00676   0.00709   2.10148
   A30        2.09440   0.00635   0.00000   0.00676   0.00709   2.10148
   A31        2.09440   0.04200   0.00000   0.02268   0.02236   2.11675
   A32        2.09440  -0.02926   0.00000  -0.01631  -0.01615   2.07825
   A33        2.09440  -0.01274   0.00000  -0.00638  -0.00621   2.08818
   A34        2.09440   0.03412   0.00000   0.02331   0.02362   2.11802
   A35        2.09440   0.15705   0.00000   0.09306   0.09290   2.18730
   A36        2.09440  -0.19117   0.00000  -0.11637  -0.11652   1.97787
    D1        0.00000   0.00000   0.00000   0.00000   0.00000   0.00000
    D2        3.14159  -0.00000   0.00000   0.00000   0.00000   3.14159
    D3       -3.14159  -0.00000   0.00000  -0.00000  -0.00000  -3.14159
    D4       -0.00000  -0.00000   0.00000  -0.00000  -0.00000  -0.00000
    D5       -0.00000  -0.00000   0.00000  -0.00000  -0.00000  -0.00000
    D6        3.14159  -0.00000   0.00000  -0.00000  -0.00000   3.14159
    D7        3.14159   0.00000   0.00000   0.00000   0.00000   3.14159
    D8        0.00000  -0.00000   0.00000  -0.00000  -0.00000  -0.00000
    D9       -0.00000  -0.00000   0.00000  -0.00000  -0.00000  -0.00000
   D10        3.14159  -0.00000   0.00000  -0.00000  -0.00000   3.14159
   D11        3.14159  -0.00000   0.00000  -0.00000  -0.00000   3.14159
   D12       -0.00000  -0.00000   0.00000  -0.00000  -0.00000  -0.00000
   D13        0.00000  -0.00000   0.00000  -0.00000  -0.00000   0.00000
   D14        3.14159  -0.00000   0.00000  -0.00000  -0.00000   3.14159
   D15       -3.14159  -0.00000   0.00000  -0.00000  -0.00000  -3.14159
   D16        0.00000  -0.00000   0.00000  -0.00000  -0.00000   0.00000
   D17       -0.00000  -0.00000   0.00000   0.00000   0.00000  -0.00000
   D18        3.14159   0.00000   0.00000   0.00000   0.00000   3.14159
   D19        3.14159  -0.00000   0.00000  -0.00000  -0.00000   3.14159
   D20        0.00000  -0.00000   0.00000  -0.00000  -0.00000   0.00000
   D21        0.00000   0.00000   0.00000   0.00000   0.00000   0.00000
   D22       -3.14159   0.00000   0.00000   0.00000   0.00000  -3.14159
   D23       -3.14159  -0.00000   0.00000  -0.00000  -0.00000  -3.14159
   D24        0.00000   0.00000   0.00000   0.00000   0.00000   0.00000
   D25       -0.00000   0.00000   0.00000   0.00000   0.00000  -0.00000
   D26        3.14159   0.00000   0.00000   0.00000   0.00000   3.14159
   D27        3.14159   0.00000   0.00000  -0.00000  -0.00000   3.14159
   D28       -0.00000   0.00000   0.00000   0.00000   0.00000  -0.00000
   D29        3.14159   0.00000   0.00000   0.00000   0.00000   3.14159
   D30        0.00000   0.00000   0.00000   0.00000   0.00000   0.00000
   D31        0.00000   0.00000   0.00000   0.00000   0.00000   0.00000
   D32       -3.14159  -0.00000   0.00000  -0.00000  -0.00000  -3.14159
   D33       -3.14159  -0.00000   0.00000  -0.00000  -0.00000  -3.14159
   D34        0.00000  -0.00000   0.00000  -0.00000  -0.00000  -0.00000
   D35       -0.00000   0.00000   0.00000   0.00000   0.00000  -0.00000
   D36        3.14159  -0.00000   0.00000  -0.00000  -0.00000   3.14159
   D37       -0.00000  -0.00000   0.00000  -0.00000  -0.00000  -0.00000
   D38        3.14159  -0.00000   0.00000  -0.00000  -0.00000   3.14159
   D39        3.14159   0.00000   0.00000   0.00000   0.00000   3.14159
   D40       -0.00000   0.00000   0.00000   0.00000   0.00000  -0.00000
   D41       -0.00000   0.00000   0.00000   0.00000   0.00000  -0.00000
   D42       -3.14159  -0.00000   0.00000  -0.00000  -0.00000  -3.14159
   D43        3.14159   0.00000   0.00000   0.00000   0.00000   3.14159
   D44        0.00000   0.00000   0.00000   0.00000   0.00000   0.00000
   D45        0.00000   0.00000   0.00000   0.00000   0.00000   0.00000
   D46       -3.14159  -0.00000   0.00000  -0.00000  -0.00000  -3.14159
   D47        3.14159   0.00000   0.00000   0.00000   0.00000   3.14159
   D48        0.00000  -0.00000   0.00000  -0.00000  -0.00000   0.00000
   D49        0.00000  -0.00000   0.00000  -0.00000  -0.00000   0.00000
   D50       -3.14159   0.00000   0.00000   0.00000   0.00000  -3.14159
   D51        3.14159   0.00000   0.00000   0.00000   0.00000   3.14159
   D52       -0.00000   0.00000   0.00000   0.00000   0.00000  -0.00000
         Item               Value     Threshold  Converged?
 Maximum Force            0.191168     0.000450     NO 
 RMS     Force            0.049709     0.000300     NO 
 Maximum Displacement     0.533320     0.001800     NO 
 RMS     Displacement     0.100289     0.001200     NO 
 Predicted change in Energy=-1.437774D-01
 GradGradGradGradGradGradGradGradGradGradGradGradGradGradGradGradGradGrad

                          Input orientation:                          
 ---------------------------------------------------------------------
 Center     Atomic      Atomic             Coordinates (Angstroms)
 Number     Number       Type             X           Y           Z
 ---------------------------------------------------------------------
      1          6           0        0.091993   -0.103623   -0.003064
      2          6           0        1.433602   -0.027139   -0.430699
      3          6           0        2.142711    1.179827   -0.437638
      4          6           0        1.531277    2.355424   -0.015410
      5          6           0        0.208725    2.316063    0.412916
      6          6           0       -0.496410    1.106762    0.418108
      7          6           0       -0.709039   -1.472204    0.003808
      8          6           0       -0.116195   -2.709237   -0.423835
      9          6           0       -0.840893   -3.907799   -0.410179
     10          6           0       -2.157528   -3.946981    0.016238
     11          6           0       -2.766232   -2.776644    0.436581
     12          6           0       -2.076028   -1.557816    0.438095
     13          1           0        1.936967   -0.897896   -0.760069
     14          1           0        3.162227    1.198266   -0.770059
     15          1           0       -0.272981    3.216485    0.740722
     16          1           0       -1.500661    1.121744    0.751777
     17          1           0       -2.699066   -4.872211    0.020886
     18         17           0       -3.046298   -0.209613    1.010966
     19         17           0       -4.437677   -2.829797    0.977273
     20         17           0       -0.071126   -5.395188   -0.943130
     21         17           0        1.531907   -2.899353   -1.002516
     22         17           0        2.420071    3.873947   -0.023034
 ---------------------------------------------------------------------
                    Distance matrix (angstroms):
                    1          2          3          4          5
     1  C    0.000000
     2  C    1.410190   0.000000
     3  C    2.457955   1.399875   0.000000
     4  C    2.849316   2.420457   1.390740   0.000000
     5  C    2.457955   2.775356   2.398912   1.390740   0.000000
     6  C    1.410190   2.393982   2.775356   2.420457   1.399875
     7  C    1.585786   2.620672   3.919263   4.435101   3.919263
     8  C    2.647568   3.097672   4.497518   5.341513   5.104837
     9  C    3.937992   4.498141   5.898015   6.709024   6.365190
    10  C    4.453327   5.334897   6.706878   7.302643   6.706878
    11  C    3.937992   5.094169   6.365190   6.709024   5.898015
    12  C    2.647568   3.926230   5.104837   5.341513   4.497518
    13  H    2.146592   1.058338   2.112634   3.362022   3.833047
    14  H    3.421920   2.145910   1.072500   2.137407   3.372251
    15  H    3.421920   3.847823   3.372251   2.137407   1.072500
    16  H    2.146592   3.365721   3.833047   3.362022   2.112634
    17  H    5.525397   6.384167   7.764033   8.374713   7.764033
    18  Cl   3.299752   4.709692   5.563705   5.346687   4.163157
    19  Cl   5.376894   6.656515   7.834575   7.968710   6.956106
    20  Cl   5.376894   5.598459   6.956106   7.968710   7.834575
    21  Cl   3.299752   2.930231   4.163157   5.346687   5.563705
    22  Cl   4.608840   4.044475   2.739911   1.759524   2.739911
                    6          7          8          9         10
     6  C    0.000000
     7  C    2.620672   0.000000
     8  C    3.926230   1.436869   0.000000
     9  C    5.094169   2.474044   1.400687   0.000000
    10  C    5.334897   2.867541   2.427491   1.384520   0.000000
    11  C    4.498141   2.474044   2.787033   2.388189   1.384520
    12  C    3.097672   1.436869   2.430975   2.787033   2.427491
    13  H    3.365721   2.813306   2.758530   4.110772   5.163765
    14  H    3.847823   4.766234   5.112388   6.498183   7.442555
    15  H    2.145910   4.766234   6.041105   7.238958   7.442555
    16  H    1.058338   2.813306   4.239720   5.204012   5.163765
    17  H    6.384167   3.939612   3.398154   2.137455   1.072070
    18  Cl   2.930231   2.841000   4.110021   4.534319   3.968288
    19  Cl   5.598459   4.085759   4.544539   4.002995   2.714915
    20  Cl   6.656515   4.085759   2.736061   1.757527   2.714915
    21  Cl   4.709692   2.841000   1.757059   2.645374   3.968288
    22  Cl   4.044475   6.194626   7.066230   8.446262   9.062167
                   11         12         13         14         15
    11  C    0.000000
    12  C    1.400687   0.000000
    13  H    5.204012   4.239720   0.000000
    14  H    7.238958   6.041105   2.428015   0.000000
    15  H    6.498183   5.112388   4.905545   4.261024   0.000000
    16  H    4.110772   2.758530   4.264026   4.905545   2.428015
    17  H    2.137455   3.398154   6.156125   8.475319   8.475319
    18  Cl   2.645374   1.757059   5.333220   6.610595   4.416160
    19  Cl   1.757527   2.736061   6.883799   8.777072   7.345622
    20  Cl   4.002995   4.544539   4.928649   7.345622   8.777072
    21  Cl   4.534319   4.110021   2.056377   4.416160   6.610595
    22  Cl   8.446262   7.066230   4.852535   2.875432   2.875432
                   16         17         18         19         20
    16  H    0.000000
    17  H    6.156125   0.000000
    18  Cl   2.056377   4.779189   0.000000
    19  Cl   4.928649   2.847613   2.966889   0.000000
    20  Cl   6.883799   2.847613   6.289700   5.416266   0.000000
    21  Cl   5.333220   4.779189   5.678800   6.289700   2.966889
    22  Cl   4.852535  10.134237   6.901146   9.642069   9.642069
                   21         22
    21  Cl   0.000000
    22  Cl   6.901146   0.000000
 Stoichiometry    C12H5Cl5
 Framework group  C1[X(C12H5Cl5)]
 Deg. of freedom    60
 Full point group                 C1      NOp   1
 Largest Abelian subgroup         C1      NOp   1
 Largest concise Abelian subgroup C1      NOp   1
                         Standard orientation:                         
 ---------------------------------------------------------------------
 Center     Atomic      Atomic             Coordinates (Angstroms)
 Number     Number       Type             X           Y           Z
 ---------------------------------------------------------------------
      1          6           0        1.198239    0.000000    0.000002
      2          6           0        1.943791    1.196991   -0.000001
      3          6           0        3.343664    1.199456   -0.000002
      4          6           0        4.047555    0.000000   -0.000000
      5          6           0        3.343664   -1.199456    0.000005
      6          6           0        1.943791   -1.196991    0.000006
      7          6           0       -0.387547    0.000000    0.000003
      8          6           0       -1.153825    1.215487    0.000002
      9          6           0       -2.554349    1.194094    0.000001
     10          6           0       -3.255088    0.000000    0.000001
     11          6           0       -2.554349   -1.194094    0.000001
     12          6           0       -1.153825   -1.215487    0.000002
     13          1           0        1.447995    2.132013   -0.000004
     14          1           0        3.876009    2.130512   -0.000005
     15          1           0        3.876009   -2.130512    0.000009
     16          1           0        1.447995   -2.132013    0.000009
     17          1           0       -4.327158    0.000000   -0.000001
     18         17           0       -0.482883   -2.839400   -0.000000
     19         17           0       -3.446867   -2.708133   -0.000004
     20         17           0       -3.446867    2.708133    0.000001
     21         17           0       -0.482883    2.839400   -0.000002
     22         17           0        5.807079    0.000000   -0.000002
 ---------------------------------------------------------------------
 Rotational constants (GHZ):           0.4096521           0.1701646           0.1202247
 Standard basis: 6-311+G(d,p) (5D, 7F)
 There are   461 symmetry adapted cartesian basis functions of A   symmetry.
 There are   444 symmetry adapted basis functions of A   symmetry.
   444 basis functions,   737 primitive gaussians,   461 cartesian basis functions
    81 alpha electrons       81 beta electrons
       nuclear repulsion energy      1701.2137598976 Hartrees.
 NAtoms=   22 NActive=   22 NUniq=   22 SFac= 1.00D+00 NAtFMM=   60 NAOKFM=F Big=F
 Integral buffers will be    131072 words long.
 Raffenetti 2 integral format.
 Two-electron integral symmetry is turned on.
 One-electron integrals computed using PRISM.
 NBasis=   444 RedAO= T EigKep=  1.52D-06  NBF=   444
 NBsUse=   438 1.00D-06 EigRej=  8.09D-07 NBFU=   438
 Initial guess from the checkpoint file:  "/scratch/pkc/Gau-80731.chk"
 B after Tr=    -0.000000   -0.000000    0.000000
         Rot=    1.000000   -0.000000   -0.000000   -0.000000 Ang=   0.00 deg.
 ExpMin= 4.38D-02 ExpMax= 1.06D+05 ExpMxC= 3.62D+03 IAcc=3 IRadAn=         5 AccDes= 0.00D+00
 Harris functional with IExCor=  402 and IRadAn=       5 diagonalized for initial guess.
 HarFok:  IExCor=  402 AccDes= 0.00D+00 IRadAn=         5 IDoV= 1 UseB2=F ITyADJ=14
 ICtDFT=  3500011 ScaDFX=  1.000000  1.000000  1.000000  1.000000
 FoFCou: FMM=F IPFlag=           0 FMFlag=      100000 FMFlg1=           0
         NFxFlg=           0 DoJE=T BraDBF=F KetDBF=T FulRan=T
         wScrn=  0.000000 ICntrl=       500 IOpCl=  0 I1Cent=   200000004 NGrid=           0
         NMat0=    1 NMatS0=      1 NMatT0=    0 NMatD0=    1 NMtDS0=    0 NMtDT0=    0
 Petite list used in FoFCou.
 Requested convergence on RMS density matrix=1.00D-08 within  32 cycles.
 Requested convergence on MAX density matrix=1.00D-06.
 Requested convergence on             energy=1.00D-06.
 No special actions if energy rises.
 SCF Done:  E(RB3LYP) =  -2761.47033655     A.U. after   15 cycles
            NFock= 15  Conv=0.42D-08     -V/T= 2.0027
 QCSCF skips out because SCF is already converged.
 Calling FoFJK, ICntrl=      2127 FMM=F ISym2X=0 I1Cent= 0 IOpClX= 0 NMat=1 NMatS=1 NMatT=0.
 ***** Axes restored to original set *****
 -------------------------------------------------------------------
 Center     Atomic                   Forces (Hartrees/Bohr)
 Number     Number              X              Y              Z
 -------------------------------------------------------------------
      1        6          -0.013237247   -0.022616069    0.000113482
      2        6          -0.004897158    0.019166920    0.005213269
      3        6          -0.008965227   -0.002685939    0.002449302
      4        6          -0.002865669   -0.004895916    0.000024382
      5        6           0.002037576   -0.009150192   -0.002389732
      6        6           0.019086722    0.005076162   -0.005334886
      7        6           0.013857803    0.023676254   -0.000118753
      8        6          -0.006199872    0.006749968    0.003310387
      9        6           0.003229415   -0.000487477   -0.001155589
     10        6           0.001083345    0.001850911   -0.000009260
     11        6          -0.002001317    0.002585629    0.001145129
     12        6           0.008906704   -0.002125296   -0.003333590
     13        1           0.006648024    0.001635302   -0.001883144
     14        1           0.006851848   -0.000827350   -0.002412748
     15        1          -0.004066003    0.005586991    0.002388889
     16        1          -0.001821415    0.006611177    0.001841597
     17        1          -0.003113132   -0.005318824    0.000026668
     18       17          -0.004905182   -0.004961394    0.000684300
     19       17           0.003874287   -0.009276457   -0.003018712
     20       17          -0.009972028   -0.001141610    0.003070960
     21       17          -0.001926826   -0.006711207   -0.000625731
     22       17          -0.001604649   -0.002741585    0.000013777
 -------------------------------------------------------------------
 Cartesian Forces:  Max     0.023676254 RMS     0.007058994

 GradGradGradGradGradGradGradGradGradGradGradGradGradGradGradGradGradGrad
 Berny optimization.
 Using GEDIIS/GDIIS optimizer.
 FormGI is forming the generalized inverse of G from B-inverse, IUseBI=4.
 Internal  Forces:  Max     0.017994172 RMS     0.005903525
 Search for a local minimum.
 Step number   2 out of a maximum of  121
 All quantities printed in internal units (Hartrees-Bohrs-Radians)
 Mixed Optimization -- RFO/linear search
 Update second derivatives using D2CorX and points    1    2
 DE= -7.36D-02 DEPred=-1.44D-01 R= 5.12D-01
 TightC=F SS=  1.41D+00  RLast= 3.00D-01 DXNew= 5.0454D-01 8.9996D-01
 Trust test= 5.12D-01 RLast= 3.00D-01 DXMaxT set to 5.05D-01
 ITU=  1  0
 Use linear search instead of GDIIS.
     Eigenvalues ---    0.00237   0.01461   0.01466   0.02070   0.02070
     Eigenvalues ---    0.02070   0.02070   0.02070   0.02070   0.02070
     Eigenvalues ---    0.02070   0.02070   0.02070   0.02070   0.02070
     Eigenvalues ---    0.02070   0.02070   0.02070   0.02070   0.16000
     Eigenvalues ---    0.16000   0.16000   0.16000   0.16085   0.22000
     Eigenvalues ---    0.23012   0.23532   0.24116   0.24870   0.25000
     Eigenvalues ---    0.25000   0.25000   0.25000   0.25000   0.25000
     Eigenvalues ---    0.25000   0.27925   0.29530   0.29537   0.29539
     Eigenvalues ---    0.29539   0.29539   0.36244   0.37203   0.37230
     Eigenvalues ---    0.37230   0.37230   0.38231   0.41099   0.41674
     Eigenvalues ---    0.41783   0.45068   0.45341   0.45389   0.45389
     Eigenvalues ---    0.45389   0.45389   0.45389   0.45389   1.63736
 RFO step:  Lambda=-1.00682875D-02 EMin= 2.36824243D-03
 Quartic linear search produced a step of  0.16680.
 Iteration  1 RMS(Cart)=  0.04023081 RMS(Int)=  0.00105409
 Iteration  2 RMS(Cart)=  0.00108923 RMS(Int)=  0.00006177
 Iteration  3 RMS(Cart)=  0.00000028 RMS(Int)=  0.00006177
 Variable       Old X    -DE/DX   Delta X   Delta X   Delta X     New X
                                 (Linear)    (Quad)   (Total)
    R1        2.66487   0.00297   0.00277   0.00034   0.00320   2.66807
    R2        2.66487   0.00297   0.00277   0.00034   0.00320   2.66807
    R3        2.99670  -0.00561   0.01443  -0.06674  -0.05231   2.94439
    R4        2.64538  -0.00851  -0.00048  -0.02006  -0.02054   2.62484
    R5        1.99997   0.00240  -0.00368   0.01801   0.01434   2.01430
    R6        2.62812  -0.00807  -0.00336  -0.01152  -0.01497   2.61315
    R7        2.02673   0.00725   0.00079   0.01982   0.02060   2.04734
    R8        2.62812  -0.00807  -0.00336  -0.01152  -0.01497   2.61315
    R9        3.32502  -0.00318  -0.00015  -0.01167  -0.01182   3.31320
   R10        2.64538  -0.00851  -0.00048  -0.02006  -0.02054   2.62484
   R11        2.02673   0.00725   0.00079   0.01982   0.02060   2.04734
   R12        1.99997   0.00240  -0.00368   0.01801   0.01434   2.01430
   R13        2.71529   0.00854   0.01118  -0.00816   0.00312   2.71841
   R14        2.71529   0.00854   0.01118  -0.00816   0.00312   2.71841
   R15        2.64691   0.00666  -0.00022   0.01738   0.01715   2.66407
   R16        3.32036  -0.00088  -0.00093  -0.00050  -0.00143   3.31893
   R17        2.61636  -0.01285  -0.00532  -0.01907  -0.02449   2.59187
   R18        3.32124  -0.00433  -0.00078  -0.01416  -0.01494   3.30631
   R19        2.61636  -0.01285  -0.00532  -0.01907  -0.02449   2.59187
   R20        2.02592   0.00616   0.00065   0.01690   0.01756   2.04347
   R21        2.64691   0.00666  -0.00022   0.01738   0.01715   2.66407
   R22        3.32124  -0.00433  -0.00078  -0.01416  -0.01494   3.30631
   R23        3.32036  -0.00088  -0.00093  -0.00050  -0.00143   3.31893
    A1        2.02748  -0.01492  -0.01116  -0.03011  -0.04108   1.98640
    A2        2.12785   0.00746   0.00558   0.01506   0.02054   2.14839
    A3        2.12785   0.00746   0.00558   0.01506   0.02054   2.14839
    A4        2.12961   0.00781   0.00587   0.02006   0.02602   2.15564
    A5        2.09698   0.00278   0.00043   0.02339   0.02378   2.12076
    A6        2.05659  -0.01058  -0.00631  -0.04345  -0.04980   2.00679
    A7        2.09972  -0.00024   0.00089  -0.00668  -0.00588   2.09385
    A8        2.09196  -0.00086  -0.00041  -0.00352  -0.00388   2.08807
    A9        2.09150   0.00110  -0.00048   0.01020   0.00976   2.10127
   A10        2.08022  -0.00020  -0.00237   0.00334   0.00079   2.08101
   A11        2.10148   0.00010   0.00118  -0.00167  -0.00040   2.10109
   A12        2.10148   0.00010   0.00118  -0.00167  -0.00040   2.10109
   A13        2.09972  -0.00024   0.00089  -0.00668  -0.00588   2.09385
   A14        2.09150   0.00110  -0.00048   0.01020   0.00976   2.10127
   A15        2.09196  -0.00086  -0.00041  -0.00352  -0.00388   2.08807
   A16        2.12961   0.00781   0.00587   0.02006   0.02602   2.15564
   A17        2.09698   0.00278   0.00043   0.02339   0.02378   2.12076
   A18        2.05659  -0.01058  -0.00631  -0.04345  -0.04980   2.00679
   A19        2.13329   0.00811   0.00649   0.01260   0.01898   2.15227
   A20        2.13329   0.00811   0.00649   0.01260   0.01898   2.15227
   A21        2.01660  -0.01623  -0.01298  -0.02520  -0.03795   1.97865
   A22        2.11802   0.00508   0.00394   0.01336   0.01741   2.13542
   A23        2.18730   0.00901   0.01550  -0.01076   0.00469   2.19198
   A24        1.97787  -0.01409  -0.01944  -0.00261  -0.02209   1.95578
   A25        2.11675   0.00424   0.00373   0.00447   0.00810   2.12485
   A26        2.08818   0.01376  -0.00104   0.06632   0.06533   2.15352
   A27        2.07825  -0.01799  -0.00269  -0.07079  -0.07343   2.00482
   A28        2.08022  -0.00240  -0.00236  -0.01048  -0.01305   2.06717
   A29        2.10148   0.00120   0.00118   0.00524   0.00652   2.10801
   A30        2.10148   0.00120   0.00118   0.00524   0.00652   2.10801
   A31        2.11675   0.00424   0.00373   0.00447   0.00810   2.12485
   A32        2.07825  -0.01799  -0.00269  -0.07079  -0.07343   2.00482
   A33        2.08818   0.01376  -0.00104   0.06632   0.06533   2.15352
   A34        2.11802   0.00508   0.00394   0.01336   0.01741   2.13542
   A35        2.18730   0.00901   0.01550  -0.01076   0.00469   2.19198
   A36        1.97787  -0.01409  -0.01944  -0.00261  -0.02209   1.95578
    D1        0.00000  -0.00000   0.00000  -0.00000  -0.00000   0.00000
    D2        3.14159   0.00000   0.00000   0.00000   0.00000  -3.14159
    D3       -3.14159  -0.00000  -0.00000  -0.00000  -0.00000   3.14159
    D4       -0.00000  -0.00000  -0.00000   0.00000   0.00000  -0.00000
    D5       -0.00000   0.00000  -0.00000   0.00000   0.00000  -0.00000
    D6        3.14159  -0.00000  -0.00000  -0.00000  -0.00000   3.14159
    D7        3.14159   0.00000   0.00000   0.00000   0.00000  -3.14159
    D8       -0.00000  -0.00000  -0.00000  -0.00000  -0.00000  -0.00000
    D9       -0.00000  -0.00000  -0.00000  -0.00001  -0.00001  -0.00002
   D10        3.14159  -0.00000  -0.00000  -0.00001  -0.00001   3.14158
   D11        3.14159  -0.00000  -0.00000  -0.00002  -0.00002   3.14157
   D12       -0.00000  -0.00000  -0.00000  -0.00001  -0.00001  -0.00002
   D13        0.00000  -0.00000  -0.00000  -0.00000  -0.00000  -0.00000
   D14        3.14159   0.00000  -0.00000   0.00000   0.00000   3.14159
   D15       -3.14159  -0.00000  -0.00000  -0.00000  -0.00000  -3.14159
   D16        0.00000  -0.00000  -0.00000  -0.00000  -0.00000   0.00000
   D17       -0.00000   0.00000   0.00000   0.00000   0.00000  -0.00000
   D18        3.14159   0.00000   0.00000   0.00000   0.00000   3.14159
   D19        3.14159   0.00000  -0.00000   0.00000   0.00000   3.14159
   D20        0.00000  -0.00000  -0.00000  -0.00000  -0.00000  -0.00000
   D21        0.00000  -0.00000   0.00000  -0.00000  -0.00000   0.00000
   D22       -3.14159  -0.00000   0.00000  -0.00000  -0.00000  -3.14159
   D23       -3.14159   0.00000  -0.00000   0.00000   0.00000  -3.14159
   D24        0.00000   0.00000   0.00000   0.00000   0.00000   0.00000
   D25       -0.00000   0.00000   0.00000   0.00000   0.00000   0.00000
   D26        3.14159   0.00000   0.00000   0.00000   0.00000  -3.14159
   D27        3.14159   0.00000  -0.00000   0.00000   0.00000   3.14159
   D28       -0.00000   0.00000   0.00000   0.00000   0.00000   0.00000
   D29        3.14159   0.00000   0.00000   0.00000   0.00000  -3.14159
   D30        0.00000  -0.00000   0.00000  -0.00000  -0.00000   0.00000
   D31        0.00000   0.00000   0.00000   0.00000   0.00000   0.00000
   D32       -3.14159  -0.00000  -0.00000  -0.00000  -0.00000   3.14159
   D33       -3.14159  -0.00000  -0.00000  -0.00000  -0.00000   3.14159
   D34       -0.00000  -0.00000  -0.00000  -0.00000  -0.00000  -0.00000
   D35       -0.00000   0.00000   0.00000   0.00000   0.00000  -0.00000
   D36        3.14159  -0.00000  -0.00000   0.00000   0.00000   3.14159
   D37       -0.00000  -0.00000  -0.00000  -0.00000  -0.00000  -0.00000
   D38        3.14159  -0.00000  -0.00000  -0.00000  -0.00000   3.14159
   D39        3.14159   0.00000   0.00000   0.00000   0.00000  -3.14159
   D40       -0.00000   0.00000   0.00000   0.00000   0.00000   0.00000
   D41       -0.00000   0.00000   0.00000   0.00000   0.00000   0.00000
   D42       -3.14159  -0.00000  -0.00000  -0.00000  -0.00000  -3.14159
   D43        3.14159   0.00000   0.00000   0.00000   0.00000  -3.14159
   D44        0.00000  -0.00000   0.00000  -0.00000  -0.00000   0.00000
   D45        0.00000   0.00000   0.00000   0.00000   0.00000   0.00000
   D46       -3.14159  -0.00000  -0.00000  -0.00000  -0.00000  -3.14159
   D47        3.14159   0.00000   0.00000   0.00000   0.00000  -3.14159
   D48        0.00000  -0.00000  -0.00000  -0.00000  -0.00000   0.00000
   D49        0.00000  -0.00000  -0.00000  -0.00000  -0.00000  -0.00000
   D50       -3.14159  -0.00000   0.00000  -0.00000  -0.00000  -3.14159
   D51        3.14159   0.00000   0.00000   0.00000   0.00000   3.14159
   D52       -0.00000   0.00000   0.00000   0.00000   0.00000   0.00000
         Item               Value     Threshold  Converged?
 Maximum Force            0.017994     0.000450     NO 
 RMS     Force            0.005904     0.000300     NO 
 Maximum Displacement     0.237640     0.001800     NO 
 RMS     Displacement     0.040190     0.001200     NO 
 Predicted change in Energy=-4.530441D-03
 GradGradGradGradGradGradGradGradGradGradGradGradGradGradGradGradGradGrad

                          Input orientation:                          
 ---------------------------------------------------------------------
 Center     Atomic      Atomic             Coordinates (Angstroms)
 Number     Number       Type             X           Y           Z
 ---------------------------------------------------------------------
      1          6           0        0.092535   -0.102699   -0.003065
      2          6           0        1.435549    0.002366   -0.425786
      3          6           0        2.145273    1.196327   -0.435374
      4          6           0        1.536854    2.364954   -0.015460
      5          6           0        0.221846    2.326359    0.410516
      6          6           0       -0.471659    1.122869    0.412971
      7          6           0       -0.694514   -1.447390    0.003689
[...]
                 (A) (A) (A) (A) (A) (A) (A) (A) (A)
       Virtual   (A) (A) (A) (A) (A) (A) (A) (A) (A) (A) (A) (A)
                 (A) (A) (A) (A) (A) (A) (A) (A) (A) (A) (A) (A)
                 (A) (A) (A) (A) (A) (A) (A) (A) (A) (A) (A) (A)
                 (A) (A) (A) (A) (A) (A) (A) (A) (A) (A) (A) (A)
                 (A) (A) (A) (A) (A) (A) (A) (A) (A) (A) (A) (A)
                 (A) (A) (A) (A) (A) (A) (A) (A) (A) (A) (A) (A)
                 (A) (A) (A) (A) (A) (A) (A) (A) (A) (A) (A) (A)
                 (A) (A) (A) (A) (A) (A) (A) (A) (A) (A) (A) (A)
                 (A) (A) (A) (A) (A) (A) (A) (A) (A) (A) (A) (A)
                 (A) (A) (A) (A) (A) (A) (A) (A) (A) (A) (A) (A)
                 (A) (A) (A) (A) (A) (A) (A) (A) (A) (A) (A) (A)
                 (A) (A) (A) (A) (A) (A) (A) (A) (A) (A) (A) (A)
                 (A) (A) (A) (A) (A) (A) (A) (A) (A) (A) (A) (A)
                 (A) (A) (A) (A) (A) (A) (A) (A) (A) (A) (A) (A)
                 (A) (A) (A) (A) (A) (A) (A) (A) (A) (A) (A) (A)
                 (A) (A) (A) (A) (A) (A) (A) (A) (A) (A) (A) (A)
                 (A) (A) (A) (A) (A) (A) (A) (A) (A) (A) (A) (A)
                 (A) (A) (A) (A) (A) (A) (A) (A) (A) (A) (A) (A)
                 (A) (A) (A) (A) (A) (A) (A) (A) (A) (A) (A) (A)
                 (A) (A) (A) (A) (A) (A) (A) (A) (A) (A) (A) (A)
                 (A) (A) (A) (A) (A) (A) (A) (A) (A) (A) (A) (A)
                 (A) (A) (A) (A) (A) (A) (A) (A) (A) (A) (A) (A)
                 (A) (A) (A) (A) (A) (A) (A) (A) (A) (A) (A) (A)
                 (A) (A) (A) (A) (A) (A) (A) (A) (A) (A) (A) (A)
                 (A) (A) (A) (A) (A) (A) (A) (A) (A) (A) (A) (A)
                 (A) (A) (A) (A) (A) (A) (A) (A) (A) (A) (A) (A)
                 (A) (A) (A) (A) (A) (A) (A) (A) (A) (A) (A) (A)
                 (A) (A) (A) (A) (A) (A) (A) (A) (A) (A) (A) (A)
                 (A) (A) (A) (A) (A) (A) (A) (A) (A) (A) (A) (A)
                 (A) (A) (A) (A) (A) (A) (A) (A) (A) (A) (A) (A)
 The electronic state is 1-A.
 Alpha  occ. eigenvalues -- -101.57886-101.57886-101.57667-101.57667-101.56289
 Alpha  occ. eigenvalues --  -10.27670 -10.27668 -10.27561 -10.27561 -10.25341
 Alpha  occ. eigenvalues --  -10.24034 -10.22569 -10.21531 -10.20405 -10.20403
 Alpha  occ. eigenvalues --  -10.20293 -10.20293  -9.49343  -9.49343  -9.49138
 Alpha  occ. eigenvalues --   -9.49137  -9.47746  -7.25834  -7.25834  -7.25628
 Alpha  occ. eigenvalues --   -7.25628  -7.24820  -7.24820  -7.24761  -7.24761
 Alpha  occ. eigenvalues --   -7.24623  -7.24623  -7.24542  -7.24542  -7.24206
 Alpha  occ. eigenvalues --   -7.23231  -7.23195  -0.95831  -0.91987  -0.91094
 Alpha  occ. eigenvalues --   -0.89216  -0.87666  -0.85777  -0.83952  -0.79170
 Alpha  occ. eigenvalues --   -0.77931  -0.74459  -0.74161  -0.66473  -0.64306
 Alpha  occ. eigenvalues --   -0.62272  -0.60970  -0.54965  -0.54770  -0.52747
 Alpha  occ. eigenvalues --   -0.50005  -0.49200  -0.48025  -0.46900  -0.45874
 Alpha  occ. eigenvalues --   -0.45705  -0.45110  -0.43092  -0.42879  -0.41068
 Alpha  occ. eigenvalues --   -0.40786  -0.38853  -0.38649  -0.37325  -0.36161
 Alpha  occ. eigenvalues --   -0.35442  -0.35321  -0.34431  -0.33162  -0.32913
 Alpha  occ. eigenvalues --   -0.32613  -0.32404  -0.28378  -0.28199  -0.26478
 Alpha  occ. eigenvalues --   -0.26335
 Alpha virt. eigenvalues --   -0.06100  -0.05807  -0.04248  -0.04116  -0.03808
 Alpha virt. eigenvalues --   -0.00961  -0.00829   0.00398   0.00723   0.01540
 Alpha virt. eigenvalues --    0.01549   0.02737   0.02885   0.02996   0.04191
 Alpha virt. eigenvalues --    0.04395   0.04893   0.05596   0.05704   0.06170
 Alpha virt. eigenvalues --    0.06642   0.07163   0.07993   0.07998   0.08199
 Alpha virt. eigenvalues --    0.08387   0.09095   0.09383   0.09437   0.10721
 Alpha virt. eigenvalues --    0.10756   0.11521   0.11735   0.12012   0.12166
 Alpha virt. eigenvalues --    0.12253   0.12478   0.12892   0.12906   0.14332
 Alpha virt. eigenvalues --    0.14536   0.14843   0.14927   0.15051   0.15676
 Alpha virt. eigenvalues --    0.16138   0.16293   0.16450   0.17276   0.17486
 Alpha virt. eigenvalues --    0.18725   0.19090   0.19126   0.19634   0.20016
 Alpha virt. eigenvalues --    0.20035   0.20061   0.20275   0.20504   0.21170
 Alpha virt. eigenvalues --    0.21882   0.22267   0.22350   0.22502   0.23020
 Alpha virt. eigenvalues --    0.23238   0.24191   0.24304   0.24318   0.25276
 Alpha virt. eigenvalues --    0.25504   0.25518   0.26070   0.26100   0.26426
 Alpha virt. eigenvalues --    0.27764   0.28361   0.28571   0.28848   0.29576
 Alpha virt. eigenvalues --    0.29740   0.30052   0.30143   0.31610   0.31744
 Alpha virt. eigenvalues --    0.32897   0.32938   0.33396   0.36052   0.36968
 Alpha virt. eigenvalues --    0.39796   0.42677   0.43181   0.43417   0.43841
 Alpha virt. eigenvalues --    0.44236   0.44884   0.45110   0.46098   0.46353
 Alpha virt. eigenvalues --    0.47080   0.47695   0.47723   0.47784   0.48455
 Alpha virt. eigenvalues --    0.49964   0.50567   0.51046   0.51746   0.52879
 Alpha virt. eigenvalues --    0.53516   0.54954   0.56518   0.56918   0.57097
 Alpha virt. eigenvalues --    0.58212   0.58235   0.59289   0.59774   0.60163
 Alpha virt. eigenvalues --    0.60204   0.61225   0.61924   0.62672   0.64124
 Alpha virt. eigenvalues --    0.64552   0.65400   0.66174   0.66402   0.67982
 Alpha virt. eigenvalues --    0.68900   0.69449   0.69899   0.69927   0.70752
 Alpha virt. eigenvalues --    0.71020   0.72690   0.73472   0.75857   0.78624
 Alpha virt. eigenvalues --    0.79689   0.80685   0.82148   0.83084   0.83128
 Alpha virt. eigenvalues --    0.83263   0.83772   0.84174   0.84427   0.84740
 Alpha virt. eigenvalues --    0.84902   0.85204   0.85283   0.85688   0.85890
 Alpha virt. eigenvalues --    0.85984   0.86222   0.87092   0.87509   0.87841
 Alpha virt. eigenvalues --    0.88155   0.89841   0.92262   0.92354   0.93629
 Alpha virt. eigenvalues --    0.94130   0.94429   0.94970   0.95289   0.96187
 Alpha virt. eigenvalues --    0.96194   0.97460   0.97901   0.98872   0.99184
 Alpha virt. eigenvalues --    0.99354   1.00448   1.01413   1.02695   1.05788
 Alpha virt. eigenvalues --    1.05971   1.06575   1.08649   1.11731   1.11884
 Alpha virt. eigenvalues --    1.16292   1.17105   1.18089   1.18855   1.21228
 Alpha virt. eigenvalues --    1.23634   1.23699   1.25894   1.27445   1.27760
 Alpha virt. eigenvalues --    1.28426   1.29490   1.29554   1.29916   1.32840
 Alpha virt. eigenvalues --    1.36324   1.38374   1.39589   1.42642   1.43460
 Alpha virt. eigenvalues --    1.47750   1.48954   1.50264   1.53722   1.54448
 Alpha virt. eigenvalues --    1.55119   1.57545   1.59305   1.60482   1.61265
 Alpha virt. eigenvalues --    1.61970   1.67634   1.68199   1.69212   1.69778
 Alpha virt. eigenvalues --    1.71128   1.73112   1.74570   1.74848   1.75452
 Alpha virt. eigenvalues --    1.79943   1.81600   1.82332   1.84208   1.86023
 Alpha virt. eigenvalues --    1.89316   1.90011   1.93659   1.93920   1.93920
 Alpha virt. eigenvalues --    1.95980   1.96571   1.97138   1.99381   2.02613
 Alpha virt. eigenvalues --    2.02812   2.04991   2.06040   2.10898   2.11363
 Alpha virt. eigenvalues --    2.12130   2.16705   2.19629   2.23179   2.24302
 Alpha virt. eigenvalues --    2.24722   2.25316   2.26287   2.27973   2.28376
 Alpha virt. eigenvalues --    2.29747   2.34280   2.35228   2.35743   2.38668
 Alpha virt. eigenvalues --    2.38995   2.40496   2.41169   2.42272   2.46624
 Alpha virt. eigenvalues --    2.46929   2.48875   2.50825   2.52706   2.53398
 Alpha virt. eigenvalues --    2.54854   2.57832   2.61315   2.62247   2.64795
 Alpha virt. eigenvalues --    2.65078   2.66759   2.68646   2.70096   2.71374
 Alpha virt. eigenvalues --    2.72103   2.73869   2.73949   2.75241   2.75657
 Alpha virt. eigenvalues --    2.76034   2.78370   2.83035   2.83649   2.84799
 Alpha virt. eigenvalues --    2.87304   2.90500   2.92043   2.96982   2.99478
 Alpha virt. eigenvalues --    3.05719   3.08669   3.09713   3.11935   3.12606
 Alpha virt. eigenvalues --    3.14455   3.15237   3.22336   3.25117   3.27440
 Alpha virt. eigenvalues --    3.31949   3.37112   3.44030   3.47350   3.51761
 Alpha virt. eigenvalues --    3.57572   3.59925   3.72498   3.78231   3.81686
 Alpha virt. eigenvalues --    3.89383   3.96463   4.00346   4.12426   4.13856
 Alpha virt. eigenvalues --    4.32748   4.80255   4.82577   9.75715   9.77521
 Alpha virt. eigenvalues --    9.78156   9.81087   9.83993  23.34354  23.59415
 Alpha virt. eigenvalues --   23.78692  23.85930  23.90619  23.93573  23.93799
 Alpha virt. eigenvalues --   23.96104  24.06496  24.07721  24.08653  24.16837
 Alpha virt. eigenvalues --   25.78959  25.80298  25.82848  25.87535  25.92631
 Alpha virt. eigenvalues --   26.11468  26.11800  26.15825  26.21603  26.35213
 Alpha virt. eigenvalues --   26.52123  26.56420  26.60993  26.75273  26.96124
 Alpha virt. eigenvalues --  215.74908 215.76600 215.77552 215.81015 215.84649
          Condensed to atoms (all electrons):
               1          2          3          4          5          6
     1  C   25.553823  -0.092715  -1.068582  -5.825397  -1.068482  -0.093296
     2  C   -0.092715  27.737598  -7.088555   3.618075  -2.984603  -5.822665
     3  C   -1.068582  -7.088555  24.770502  -5.140662  -7.313602  -2.984671
     4  C   -5.825397   3.618075  -5.140662  20.473236  -5.140802   3.618308
     5  C   -1.068482  -2.984603  -7.313602  -5.140802  24.770862  -7.089147
     6  C   -0.093296  -5.822665  -2.984671   3.618308  -7.089147  27.738473
     7  C    3.077523  -2.757901   2.167089  -2.461018   2.166979  -2.757691
     8  C   -2.491750  -2.389263   1.143376  -1.191644   1.143383  -2.389367
     9  C   -4.242918  -0.994105   0.399859  -0.305634   0.399947  -0.993923
    10  C   -1.437370   0.251846  -0.074607  -0.048254  -0.074636   0.251734
    11  C   -4.242640  -0.993911   0.399904  -0.305634   0.399892  -0.994115
    12  C   -2.492234  -2.389452   1.143298  -1.191670   1.143524  -2.389242
    13  H    0.042700   0.149762   0.020774  -0.072955  -0.003401   0.001528
    14  H    0.016563  -0.026326   0.254610   0.068792   0.064661  -0.025714
    15  H    0.016563  -0.025714   0.064662   0.068793   0.254610  -0.026328
    16  H    0.042709   0.001533  -0.003403  -0.072953   0.020773   0.149761
    17  H    0.025038   0.000030  -0.000120   0.000064  -0.000120   0.000031
    18  Cl   0.009872   0.150535   0.063482   0.030413   0.063391   0.150748
    19  Cl  -0.100047  -0.032567   0.010117  -0.004844   0.010117  -0.032570
    20  Cl  -0.100052  -0.032567   0.010117  -0.004844   0.010117  -0.032570
    21  Cl   0.009981   0.150743   0.063394   0.030406   0.063498   0.150496
    22  Cl  -0.309160   0.401368   0.023242  -1.162682   0.023255   0.401374
               7          8          9         10         11         12
     1  C    3.077523  -2.491750  -4.242918  -1.437370  -4.242640  -2.492234
     2  C   -2.757901  -2.389263  -0.994105   0.251846  -0.993911  -2.389452
     3  C    2.167089   1.143376   0.399859  -0.074607   0.399904   1.143298
     4  C   -2.461018  -1.191644  -0.305634  -0.048254  -0.305634  -1.191670
     5  C    2.166979   1.143383   0.399947  -0.074636   0.399892   1.143524
     6  C   -2.757691  -2.389367  -0.993923   0.251734  -0.994115  -2.389242
     7  C   16.133391  -0.942995  -3.815513   1.580036  -3.815433  -0.943208
     8  C   -0.942995  36.578519 -10.533259  -7.261083   9.535802 -13.649592
     9  C   -3.815513 -10.533259  25.725489  -0.214595  -8.752044   9.535989
    10  C    1.580036  -7.261083  -0.214595  20.762372  -0.214863  -7.260914
    11  C   -3.815433   9.535802  -8.752044  -0.214863  25.725171 -10.532779
    12  C   -0.943208 -13.649592   9.535989  -7.260914 -10.532779  36.578267
    13  H    0.046180   0.071742   0.014942   0.001765   0.014939   0.071751
    14  H    0.000526   0.002574  -0.000075   0.000183  -0.000075   0.002574
    15  H    0.000527   0.002574  -0.000075   0.000183  -0.000075   0.002574
    16  H    0.046173   0.071747   0.014939   0.001766   0.014942   0.071741
    17  H    0.074224   0.109694   0.016273   0.000312   0.016278   0.109696
    18  Cl  -0.406942  -1.465116   1.023745   0.314303  -1.334427   0.117306
    19  Cl  -0.422632   0.513932  -0.273563  -0.193388  -0.193302   0.153348
    20  Cl  -0.422640   0.153324  -0.193288  -0.193368  -0.273562   0.513936
    21  Cl  -0.406916   0.117249  -1.334454   0.314278   1.023715  -1.465098
    22  Cl  -0.092040  -0.048128  -0.004669  -0.004684  -0.004669  -0.048128
              13         14         15         16         17         18
     1  C    0.042700   0.016563   0.016563   0.042709   0.025038   0.009872
     2  C    0.149762  -0.026326  -0.025714   0.001533   0.000030   0.150535
     3  C    0.020774   0.254610   0.064662  -0.003403  -0.000120   0.063482
     4  C   -0.072955   0.068792   0.068793  -0.072953   0.000064   0.030413
     5  C   -0.003401   0.064661   0.254610   0.020773  -0.000120   0.063391
     6  C    0.001528  -0.025714  -0.026328   0.149761   0.000031   0.150748
     7  C    0.046180   0.000526   0.000527   0.046173   0.074224  -0.406942
     8  C    0.071742   0.002574   0.002574   0.071747   0.109694  -1.465116
     9  C    0.014942  -0.000075  -0.000075   0.014939   0.016273   1.023745
    10  C    0.001765   0.000183   0.000183   0.001766   0.000312   0.314303
    11  C    0.014939  -0.000075  -0.000075   0.014942   0.016278  -1.334427
    12  C    0.071751   0.002574   0.002574   0.071741   0.109696   0.117306
    13  H    0.537156  -0.007516   0.000063  -0.000015  -0.000002  -0.007531
    14  H   -0.007516   0.512355  -0.000299   0.000063  -0.000000  -0.001006
    15  H    0.000063  -0.000299   0.512355  -0.007516  -0.000000  -0.001006
    16  H   -0.000015   0.000063  -0.007516   0.537155  -0.000002  -0.007532
    17  H   -0.000002  -0.000000  -0.000000  -0.000002   0.490507  -0.001107
    18  Cl  -0.007531  -0.001006  -0.001006  -0.007532  -0.001107  18.095908
    19  Cl   0.000302  -0.000002  -0.000002   0.000302  -0.005825  -0.247841
    20  Cl   0.000302  -0.000002  -0.000002   0.000302  -0.005825   0.006525
    21  Cl  -0.007533  -0.001006  -0.001006  -0.007531  -0.001107  -0.146647
    22  Cl  -0.001235  -0.013293  -0.013293  -0.001235   0.000000   0.007808
              19         20         21         22
     1  C   -0.100047  -0.100052   0.009981  -0.309160
     2  C   -0.032567  -0.032567   0.150743   0.401368
     3  C    0.010117   0.010117   0.063394   0.023242
     4  C   -0.004844  -0.004844   0.030406  -1.162682
     5  C    0.010117   0.010117   0.063498   0.023255
     6  C   -0.032570  -0.032570   0.150496   0.401374
     7  C   -0.422632  -0.422640  -0.406916  -0.092040
     8  C    0.513932   0.153324   0.117249  -0.048128
     9  C   -0.273563  -0.193288  -1.334454  -0.004669
    10  C   -0.193388  -0.193368   0.314278  -0.004684
    11  C   -0.193302  -0.273562   1.023715  -0.004669
    12  C    0.153348   0.513936  -1.465098  -0.048128
    13  H    0.000302   0.000302  -0.007533  -0.001235
    14  H   -0.000002  -0.000002  -0.001006  -0.013293
    15  H   -0.000002  -0.000002  -0.001006  -0.013293
    16  H    0.000302   0.000302  -0.007531  -0.001235
    17  H   -0.005825  -0.005825  -0.001107   0.000000
    18  Cl  -0.247841   0.006525  -0.146647   0.007808
    19  Cl  17.362972  -0.030610   0.006525   0.000034
    20  Cl  -0.030610  17.362972  -0.247840   0.000034
    21  Cl   0.006525  -0.247840  18.095927   0.007808
    22  Cl   0.000034   0.000034   0.007808  17.446668
 Mulliken charges:
               1
     1  C    0.769871
     2  C   -0.831148
     3  C   -0.860222
     4  C    1.020906
     5  C   -0.860214
     6  C   -0.831154
     7  C   -0.047716
     8  C   -1.081720
     9  C    0.526929
    10  C   -0.501018
    11  C    0.526887
    12  C   -1.081687
    13  H    0.126280
    14  H    0.152411
    15  H    0.152411
    16  H    0.126281
    17  H    0.171962
    18  Cl   0.585117
    19  Cl   0.479541
    20  Cl   0.479540
    21  Cl   0.585117
    22  Cl   0.391627
 Sum of Mulliken charges =  -0.00000
 Mulliken charges with hydrogens summed into heavy atoms:
               1
     1  C    0.769871
     2  C   -0.704867
     3  C   -0.707811
     4  C    1.020906
     5  C   -0.707803
     6  C   -0.704873
     7  C   -0.047716
     8  C   -1.081720
     9  C    0.526929
    10  C   -0.329056
    11  C    0.526887
    12  C   -1.081687
    18  Cl   0.585117
    19  Cl   0.479541
    20  Cl   0.479540
    21  Cl   0.585117
    22  Cl   0.391627
 Electronic spatial extent (au):  <R**2>=           7406.4482
 Charge=              0.0000 electrons
 Dipole moment (field-independent basis, Debye):
    X=             -0.9289    Y=              0.0000    Z=             -0.0000  Tot=              0.9289
 Quadrupole moment (field-independent basis, Debye-Ang):
   XX=           -136.1038   YY=           -138.8048   ZZ=           -126.2809
   XY=             -0.0000   XZ=             -0.0001   YZ=              0.0004
 Traceless Quadrupole moment (field-independent basis, Debye-Ang):
   XX=             -2.3740   YY=             -5.0749   ZZ=              7.4489
   XY=             -0.0000   XZ=             -0.0001   YZ=              0.0004
 Octapole moment (field-independent basis, Debye-Ang**2):
  XXX=            -75.4063  YYY=             -0.0001  ZZZ=              0.0003  XYY=             -0.6782
  XXY=              0.0004  XXZ=              0.0001  XZZ=             16.6967  YZZ=             -0.0000
  YYZ=              0.0004  XYZ=              0.0012
 Hexadecapole moment (field-independent basis, Debye-Ang**3):
 XXXX=          -6940.7533 YYYY=          -2491.0563 ZZZZ=           -372.7660 XXXY=              0.0007
 XXXZ=             -0.0022 YYYX=              0.0011 YYYZ=             -0.0021 ZZZX=             -0.0006
 ZZZY=              0.0022 XXYY=          -1581.7196 XXZZ=          -1167.8696 YYZZ=           -510.4918
 XXYZ=              0.0031 YYXZ=             -0.0006 ZZXY=              0.0001
 N-N= 1.715997826577D+03 E-N=-9.968682511398D+03  KE= 2.754117279875D+03
 1\1\GINC-DAMODAR\FOpt\RB3LYP\6-311+G(d,p)\C12H5Cl5\PKC\16-Mar-2022\0\\
 # opt b3lyp/6-311+g(d,p) scf=xqc\\Title Card Required\\0,1\C,0.0616856
 777,-0.1553648111,-0.0028837048\C,1.2918744737,-0.0524818296,0.6504435
 991\C,2.0001107862,1.1458373214,0.6481133609\C,1.4672273246,2.24619437
 74,-0.0152997162\C,0.243912078,2.1668454355,-0.6726192018\C,-0.4540183
 552,0.9625337986,-0.6625306221\C,-0.6932649449,-1.445314551,0.00378516
 48\C,-0.4898670981,-2.4007544055,-1.0054026681\C,-1.1985757885,-3.6070
 207092,-0.9955533228\C,-2.1123361468,-3.8699763047,0.0162940022\C,-2.3
 260162498,-2.936760889,1.0219699996\C,-1.6213478136,-1.7280918792,1.01
 93591679\H,1.7031990991,-0.9125639038,1.1660814185\H,2.9533443183,1.22
 44359879,1.154740598\H,-0.1566734911,3.0325190027,-1.1841303054\H,-1.4
 076529949,0.8960049969,-1.173379395\H,-2.658395181,-4.8029735138,0.021
 1028076\Cl,-1.8911635164,-0.5573951887,2.2832409395\Cl,-3.4852251767,-
 3.3188674329,2.2680304006\Cl,-0.9696606874,-4.8143691663,-2.2334326679
 \Cl,0.6572349212,-2.0724064191,-2.2770431836\Cl,2.3549540977,3.7629892
 824,-0.0231481583\\Version=EM64L-G16RevB.01\State=1-A\HF=-2761.513942\
 RMSD=4.229e-09\RMSF=1.270e-06\Dipole=-0.1845892,-0.3153988,0.001627\Qu
 adrupole=1.6307778,-0.624055,-1.0067229,-1.9684243,3.6740209,-2.146324
 8\PG=C01 [X(C12H5Cl5)]\\@


 NOTHING WILL BE ATTEMPTED IF ALL POSSIBLE OBJECTIONS
 MUST FIRST BE OVERCOME.

                               -- THE GOLDEN PRINCIPLE,
                    PAUL DICKSON'S "THE OFFICIAL RULES"
 Job cpu time:       0 days 13 hours 55 minutes 11.6 seconds.
 Elapsed time:       0 days  3 hours 29 minutes 24.9 seconds.
 File lengths (MBytes):  RWF=    134 Int=      0 D2E=      0 Chk=     20 Scr=      1
 Normal termination of Gaussian 16 at Wed Mar 16 20:25:41 2022.
