 Entering Gaussian System, Link 0=g16
 Input=2,3,3prime,4,4prime,5prime,6-Heptachlorobiphenyl.gjf
 Output=2,3,3prime,4,4prime,5prime,6-Heptachlorobiphenyl.log
 Initial command:
 /home/apps/g16/l1.exe "./Gau-440158.inp" -scrdir="./"
 Entering Link 1 = /home/apps/g16/l1.exe PID=    440159.
  
 Copyright (c) 1988-2017, Gaussian, Inc.  All Rights Reserved.
  
 This is part of the Gaussian(R) 16 program.  It is based on
 the Gaussian(R) 09 system (copyright 2009, Gaussian, Inc.),
 the Gaussian(R) 03 system (copyright 2003, Gaussian, Inc.),
 the Gaussian(R) 98 system (copyright 1998, Gaussian, Inc.),
 the Gaussian(R) 94 system (copyright 1995, Gaussian, Inc.),
 the Gaussian 92(TM) system (copyright 1992, Gaussian, Inc.),
 the Gaussian 90(TM) system (copyright 1990, Gaussian, Inc.),
 the Gaussian 88(TM) system (copyright 1988, Gaussian, Inc.),
 the Gaussian 86(TM) system (copyright 1986, Carnegie Mellon
 University), and the Gaussian 82(TM) system (copyright 1983,
 Carnegie Mellon University). Gaussian is a federally registered
 trademark of Gaussian, Inc.
  
 This software contains proprietary and confidential information,
 including trade secrets, belonging to Gaussian, Inc.
  
 This software is provided under written license and may be
 used, copied, transmitted, or stored only in accord with that
 written license.
  
 The following legend is applicable only to US Government
 contracts under FAR:
  
                    RESTRICTED RIGHTS LEGEND
  
 Use, reproduction and disclosure by the US Government is
 subject to restrictions as set forth in subparagraphs (a)
 and (c) of the Commercial Computer Software - Restricted
 Rights clause in FAR 52.227-19.
  
 Gaussian, Inc.
 340 Quinnipiac St., Bldg. 40, Wallingford CT 06492
  
  
 ---------------------------------------------------------------
 Warning -- This program may not be used in any manner that
 competes with the business of Gaussian, Inc. or will provide
 assistance to any competitor of Gaussian, Inc.  The licensee
 of this program is prohibited from giving any competitor of
 Gaussian, Inc. access to this program.  By using this program,
 the user acknowledges that Gaussian, Inc. is engaged in the
 business of creating and licensing software in the field of
 computational chemistry and represents and warrants to the
 licensee that it is not a competitor of Gaussian, Inc. and that
 it will not use this program in any manner prohibited above.
 ---------------------------------------------------------------
  

 Cite this work as:
 Gaussian 16, Revision B.01,
 M. J. Frisch, G. W. Trucks, H. B. Schlegel, G. E. Scuseria, 
 M. A. Robb, J. R. Cheeseman, G. Scalmani, V. Barone, 
 G. A. Petersson, H. Nakatsuji, X. Li, M. Caricato, A. V. Marenich, 
 J. Bloino, B. G. Janesko, R. Gomperts, B. Mennucci, H. P. Hratchian, 
 J. V. Ortiz, A. F. Izmaylov, J. L. Sonnenberg, D. Williams-Young, 
 F. Ding, F. Lipparini, F. Egidi, J. Goings, B. Peng, A. Petrone, 
 T. Henderson, D. Ranasinghe, V. G. Zakrzewski, J. Gao, N. Rega, 
 G. Zheng, W. Liang, M. Hada, M. Ehara, K. Toyota, R. Fukuda, 
 J. Hasegawa, M. Ishida, T. Nakajima, Y. Honda, O. Kitao, H. Nakai, 
 T. Vreven, K. Throssell, J. A. Montgomery, Jr., J. E. Peralta, 
 F. Ogliaro, M. J. Bearpark, J. J. Heyd, E. N. Brothers, K. N. Kudin, 
 V. N. Staroverov, T. A. Keith, R. Kobayashi, J. Normand, 
 K. Raghavachari, A. P. Rendell, J. C. Burant, S. S. Iyengar, 
 J. Tomasi, M. Cossi, J. M. Millam, M. Klene, C. Adamo, R. Cammi, 
 J. W. Ochterski, R. L. Martin, K. Morokuma, O. Farkas, 
 J. B. Foresman, and D. J. Fox, Gaussian, Inc., Wallingford CT, 2016.
 
 ******************************************
 Gaussian 16:  EM64L-G16RevB.01 20-Dec-2017
                25-Mar-2022 
 ******************************************
 %mem=10GB
 %nprocshared=4
 Will use up to    4 processors via shared memory.
 --------------------------------
 # opt b3lyp/6-311+g(d,p) scf=xqc
 --------------------------------
 1/18=20,19=15,26=3,38=1/1,3;
 2/9=110,12=2,17=6,18=5,40=1/2;
 3/5=4,6=6,7=111,11=2,25=1,30=1,71=1,74=-5/1,2,3;
 4//1;
 5/5=2,8=3,13=1,38=5/2,8;
 6/7=2,8=2,9=2,10=2,28=1/1;
 7//1,2,3,16;
 1/18=20,19=15,26=3/3(2);
 2/9=110/2;
 99//99;
 2/9=110/2;
 3/5=4,6=6,7=111,11=2,25=1,30=1,71=1,74=-5/1,2,3;
 4/5=5,16=3,69=1/1;
 5/5=2,8=3,13=1,38=5/2,8;
 7//1,2,3,16;
 1/18=20,19=15,26=3/3(-5);
 2/9=110/2;
 6/7=2,8=2,9=2,10=2,19=2,28=1/1;
 99/9=1/99;
 -------------------
 Title Card Required
 -------------------
 Symbolic Z-matrix:
 Charge =  0 Multiplicity = 1
 C                     0.59176   0.772    -0.00285 
 C                     1.92414   0.80189  -0.4362 
 C                     2.63204   2.01134  -0.44227 
 C                     2.00755   3.1909   -0.015 
 C                     0.67517   3.16102   0.41835 
 C                    -0.03273   1.95157   0.42442 
 C                    -0.18614  -0.55707   0.00382 
 C                     0.43834  -1.73663  -0.42345 
 C                    -0.26955  -2.94608  -0.41738 
 C                    -1.60193  -2.97597   0.01597 
 C                    -2.22642  -1.79641   0.44325 
 C                    -1.51852  -0.58695   0.43717 
 H                     2.40095  -0.09874  -0.76243 
 H                    -1.05003   1.92875   0.75529 
 H                     0.20726  -3.84671  -0.74361 
 Cl                   -2.30281   0.89445   0.97378 
 Cl                   -3.89973  -1.83394   0.98749 
 Cl                   -0.10912   4.64242   0.95495 
 Cl                   -2.49096  -4.49491   0.0236 
 Cl                    2.89658   4.70984  -0.02262 
 Cl                    4.30536   2.04887  -0.9865 
 Cl                    2.11166  -1.6991   -0.96769 
 

 GradGradGradGradGradGradGradGradGradGradGradGradGradGradGradGradGradGrad
 Berny optimization.
 Initialization pass.
                           ----------------------------
                           !    Initial Parameters    !
                           ! (Angstroms and Degrees)  !
 --------------------------                            --------------------------
 ! Name  Definition              Value          Derivative Info.                !
 --------------------------------------------------------------------------------
 ! R1    R(1,2)                  1.4014         estimate D2E/DX2                !
 ! R2    R(1,6)                  1.4014         estimate D2E/DX2                !
 ! R3    R(1,7)                  1.54           estimate D2E/DX2                !
 ! R4    R(2,3)                  1.4014         estimate D2E/DX2                !
 ! R5    R(2,13)                 1.07           estimate D2E/DX2                !
 ! R6    R(3,4)                  1.4014         estimate D2E/DX2                !
 ! R7    R(3,21)                 1.76           estimate D2E/DX2                !
 ! R8    R(4,5)                  1.4014         estimate D2E/DX2                !
 ! R9    R(4,20)                 1.76           estimate D2E/DX2                !
 ! R10   R(5,6)                  1.4014         estimate D2E/DX2                !
 ! R11   R(5,18)                 1.76           estimate D2E/DX2                !
 ! R12   R(6,14)                 1.07           estimate D2E/DX2                !
 ! R13   R(7,8)                  1.4014         estimate D2E/DX2                !
 ! R14   R(7,12)                 1.4014         estimate D2E/DX2                !
 ! R15   R(8,9)                  1.4014         estimate D2E/DX2                !
 ! R16   R(8,22)                 1.76           estimate D2E/DX2                !
 ! R17   R(9,10)                 1.4014         estimate D2E/DX2                !
 ! R18   R(9,15)                 1.07           estimate D2E/DX2                !
 ! R19   R(10,11)                1.4014         estimate D2E/DX2                !
 ! R20   R(10,19)                1.76           estimate D2E/DX2                !
 ! R21   R(11,12)                1.4014         estimate D2E/DX2                !
 ! R22   R(11,17)                1.76           estimate D2E/DX2                !
 ! R23   R(12,16)                1.76           estimate D2E/DX2                !
 ! A1    A(2,1,6)              120.0            estimate D2E/DX2                !
 ! A2    A(2,1,7)              120.0            estimate D2E/DX2                !
 ! A3    A(6,1,7)              120.0            estimate D2E/DX2                !
 ! A4    A(1,2,3)              120.0            estimate D2E/DX2                !
 ! A5    A(1,2,13)             120.0            estimate D2E/DX2                !
 ! A6    A(3,2,13)             120.0            estimate D2E/DX2                !
 ! A7    A(2,3,4)              120.0            estimate D2E/DX2                !
 ! A8    A(2,3,21)             120.0            estimate D2E/DX2                !
 ! A9    A(4,3,21)             120.0            estimate D2E/DX2                !
 ! A10   A(3,4,5)              120.0            estimate D2E/DX2                !
 ! A11   A(3,4,20)             120.0            estimate D2E/DX2                !
 ! A12   A(5,4,20)             120.0            estimate D2E/DX2                !
 ! A13   A(4,5,6)              120.0            estimate D2E/DX2                !
 ! A14   A(4,5,18)             120.0            estimate D2E/DX2                !
 ! A15   A(6,5,18)             120.0            estimate D2E/DX2                !
 ! A16   A(1,6,5)              120.0            estimate D2E/DX2                !
 ! A17   A(1,6,14)             120.0            estimate D2E/DX2                !
 ! A18   A(5,6,14)             120.0            estimate D2E/DX2                !
 ! A19   A(1,7,8)              120.0            estimate D2E/DX2                !
 ! A20   A(1,7,12)             120.0            estimate D2E/DX2                !
 ! A21   A(8,7,12)             120.0            estimate D2E/DX2                !
 ! A22   A(7,8,9)              120.0            estimate D2E/DX2                !
 ! A23   A(7,8,22)             120.0            estimate D2E/DX2                !
 ! A24   A(9,8,22)             120.0            estimate D2E/DX2                !
 ! A25   A(8,9,10)             120.0            estimate D2E/DX2                !
 ! A26   A(8,9,15)             120.0            estimate D2E/DX2                !
 ! A27   A(10,9,15)            120.0            estimate D2E/DX2                !
 ! A28   A(9,10,11)            120.0            estimate D2E/DX2                !
 ! A29   A(9,10,19)            120.0            estimate D2E/DX2                !
 ! A30   A(11,10,19)           120.0            estimate D2E/DX2                !
 ! A31   A(10,11,12)           120.0            estimate D2E/DX2                !
 ! A32   A(10,11,17)           120.0            estimate D2E/DX2                !
 ! A33   A(12,11,17)           120.0            estimate D2E/DX2                !
 ! A34   A(7,12,11)            120.0            estimate D2E/DX2                !
 ! A35   A(7,12,16)            120.0            estimate D2E/DX2                !
 ! A36   A(11,12,16)           120.0            estimate D2E/DX2                !
 ! D1    D(6,1,2,3)              0.0001         estimate D2E/DX2                !
 ! D2    D(6,1,2,13)           180.0            estimate D2E/DX2                !
 ! D3    D(7,1,2,3)           -180.0            estimate D2E/DX2                !
 ! D4    D(7,1,2,13)            -0.0001         estimate D2E/DX2                !
 ! D5    D(2,1,6,5)             -0.0001         estimate D2E/DX2                !
 ! D6    D(2,1,6,14)           180.0            estimate D2E/DX2                !
 ! D7    D(7,1,6,5)            180.0            estimate D2E/DX2                !
 ! D8    D(7,1,6,14)             0.0            estimate D2E/DX2                !
 ! D9    D(2,1,7,8)             -0.0001         estimate D2E/DX2                !
 ! D10   D(2,1,7,12)           179.9998         estimate D2E/DX2                !
 ! D11   D(6,1,7,8)            179.9999         estimate D2E/DX2                !
 ! D12   D(6,1,7,12)            -0.0002         estimate D2E/DX2                !
 ! D13   D(1,2,3,4)              0.0            estimate D2E/DX2                !
 ! D14   D(1,2,3,21)           180.0            estimate D2E/DX2                !
 ! D15   D(13,2,3,4)          -179.9999         estimate D2E/DX2                !
 ! D16   D(13,2,3,21)            0.0001         estimate D2E/DX2                !
 ! D17   D(2,3,4,5)             -0.0001         estimate D2E/DX2                !
 ! D18   D(2,3,4,20)           180.0            estimate D2E/DX2                !
 ! D19   D(21,3,4,5)           179.9999         estimate D2E/DX2                !
 ! D20   D(21,3,4,20)            0.0            estimate D2E/DX2                !
 ! D21   D(3,4,5,6)              0.0001         estimate D2E/DX2                !
 ! D22   D(3,4,5,18)          -179.9999         estimate D2E/DX2                !
 ! D23   D(20,4,5,6)          -180.0            estimate D2E/DX2                !
 ! D24   D(20,4,5,18)            0.0            estimate D2E/DX2                !
 ! D25   D(4,5,6,1)              0.0            estimate D2E/DX2                !
 ! D26   D(4,5,6,14)           179.9999         estimate D2E/DX2                !
 ! D27   D(18,5,6,1)           180.0            estimate D2E/DX2                !
 ! D28   D(18,5,6,14)           -0.0001         estimate D2E/DX2                !
 ! D29   D(1,7,8,9)            179.9999         estimate D2E/DX2                !
 ! D30   D(1,7,8,22)             0.0001         estimate D2E/DX2                !
 ! D31   D(12,7,8,9)             0.0001         estimate D2E/DX2                !
 ! D32   D(12,7,8,22)         -179.9998         estimate D2E/DX2                !
 ! D33   D(1,7,12,11)         -179.9999         estimate D2E/DX2                !
 ! D34   D(1,7,12,16)            0.0            estimate D2E/DX2                !
 ! D35   D(8,7,12,11)           -0.0001         estimate D2E/DX2                !
 ! D36   D(8,7,12,16)          179.9999         estimate D2E/DX2                !
 ! D37   D(7,8,9,10)             0.0            estimate D2E/DX2                !
 ! D38   D(7,8,9,15)           180.0            estimate D2E/DX2                !
 ! D39   D(22,8,9,10)          179.9998         estimate D2E/DX2                !
 ! D40   D(22,8,9,15)           -0.0002         estimate D2E/DX2                !
 ! D41   D(8,9,10,11)            0.0            estimate D2E/DX2                !
 ! D42   D(8,9,10,19)         -179.9999         estimate D2E/DX2                !
 ! D43   D(15,9,10,11)         180.0            estimate D2E/DX2                !
 ! D44   D(15,9,10,19)           0.0001         estimate D2E/DX2                !
 ! D45   D(9,10,11,12)           0.0            estimate D2E/DX2                !
 ! D46   D(9,10,11,17)        -179.9998         estimate D2E/DX2                !
 ! D47   D(19,10,11,12)        179.9999         estimate D2E/DX2                !
 ! D48   D(19,10,11,17)          0.0001         estimate D2E/DX2                !
 ! D49   D(10,11,12,7)           0.0            estimate D2E/DX2                !
 ! D50   D(10,11,12,16)       -179.9999         estimate D2E/DX2                !
 ! D51   D(17,11,12,7)         179.9999         estimate D2E/DX2                !
 ! D52   D(17,11,12,16)         -0.0001         estimate D2E/DX2                !
 --------------------------------------------------------------------------------
 Trust Radius=3.00D-01 FncErr=1.00D-07 GrdErr=1.00D-06 EigMax=2.50D+02 EigMin=1.00D-04
 Number of steps in this run=    121 maximum allowed number of steps=    132.
 GradGradGradGradGradGradGradGradGradGradGradGradGradGradGradGradGradGrad

                          Input orientation:                          
 ---------------------------------------------------------------------
 Center     Atomic      Atomic             Coordinates (Angstroms)
 Number     Number       Type             X           Y           Z
 ---------------------------------------------------------------------
      1          6           0        0.591760    0.772000   -0.002851
      2          6           0        1.924141    0.801886   -0.436198
      3          6           0        2.632035    2.011337   -0.442270
      4          6           0        2.007548    3.190902   -0.014995
      5          6           0        0.675166    3.161016    0.418349
      6          6           0       -0.032728    1.951565    0.424422
      7          6           0       -0.186144   -0.557067    0.003823
      8          6           0        0.438343   -1.736632   -0.423452
      9          6           0       -0.269550   -2.946084   -0.417378
     10          6           0       -1.601930   -2.975970    0.015972
     11          6           0       -2.226417   -1.796405    0.443247
     12          6           0       -1.518524   -0.586954    0.437173
     13          1           0        2.400952   -0.098739   -0.762429
     14          1           0       -1.050030    1.928747    0.755291
     15          1           0        0.207260   -3.846708   -0.743612
     16         17           0       -2.302809    0.894446    0.973785
     17         17           0       -3.899735   -1.833940    0.987490
     18         17           0       -0.109121    4.642417    0.954955
     19         17           0       -2.490963   -4.494905    0.023603
     20         17           0        2.896582    4.709835   -0.022621
     21         17           0        4.305355    2.048870   -0.986503
     22         17           0        2.111663   -1.699099   -0.967686
 ---------------------------------------------------------------------
                    Distance matrix (angstroms):
                    1          2          3          4          5
     1  C    0.000000
     2  C    1.401400   0.000000
     3  C    2.427296   1.401400   0.000000
     4  C    2.802800   2.427296   1.401400   0.000000
     5  C    2.427296   2.802800   2.427296   1.401400   0.000000
     6  C    1.401400   2.427296   2.802800   2.427296   1.401400
     7  C    1.540000   2.548270   3.838989   4.342800   3.838989
     8  C    2.548270   2.941400   4.342800   5.187469   4.975106
     9  C    3.838989   4.342800   5.744200   6.558176   6.235992
    10  C    4.342800   5.187469   6.558176   7.145600   6.558176
    11  C    3.838989   4.975106   6.235992   6.558176   5.744200
    12  C    2.548270   3.813607   4.975106   5.187469   4.342800
    13  H    2.146700   1.070000   2.146700   3.396345   3.872800
    14  H    2.146700   3.396345   3.872800   3.396345   2.146700
    15  H    4.693509   4.965039   6.347206   7.300676   7.118798
    16  Cl   3.057342   4.456874   5.254079   4.983028   3.783409
    17  Cl   5.286324   6.549198   7.713260   7.819846   6.797295
    18  Cl   4.048303   4.562800   4.048303   2.743718   1.760000
    19  Cl   6.102800   6.910901   8.294174   8.905600   8.294174
    20  Cl   4.562800   4.048303   2.743718   1.760000   2.743718
    21  Cl   4.048303   2.743718   1.760000   2.743718   4.048303
    22  Cl   3.057342   2.563702   3.783409   4.983028   5.254079
                    6          7          8          9         10
     6  C    0.000000
     7  C    2.548270   0.000000
     8  C    3.813607   1.401400   0.000000
     9  C    4.975106   2.427296   1.401400   0.000000
    10  C    5.187469   2.802800   2.427296   1.401400   0.000000
    11  C    4.342800   2.427296   2.802800   2.427296   1.401400
    12  C    2.941400   1.401400   2.427296   2.802800   2.427296
    13  H    3.396345   2.736837   2.578650   3.918930   4.990735
    14  H    1.070000   2.736837   4.127917   5.074276   4.990735
    15  H    5.919617   3.396345   2.146700   1.070000   2.146700
    16  Cl   2.563702   2.743718   4.048303   4.562800   4.048303
    17  Cl   5.440665   4.048303   4.562800   4.048303   2.743718
    18  Cl   2.743718   5.286324   6.549198   7.713260   7.819846
    19  Cl   6.910901   4.562800   4.048303   2.743718   1.760000
    20  Cl   4.048303   6.102800   6.910901   8.294174   8.905600
    21  Cl   4.562800   5.286324   5.440665   6.797295   7.819846
    22  Cl   4.456874   2.743718   1.760000   2.743718   4.048303
                   11         12         13         14         15
    11  C    0.000000
    12  C    1.401400   0.000000
    13  H    5.074276   4.127917   0.000000
    14  H    3.918930   2.578650   4.280590   0.000000
    15  H    3.396345   3.872800   4.342800   6.097816   0.000000
    16  Cl   2.743718   1.760000   5.111382   1.639199   5.632800
    17  Cl   1.760000   2.743718   6.765486   4.725732   4.890332
    18  Cl   6.797295   5.440665   5.632800   2.879094   8.663168
    19  Cl   2.743718   4.048303   6.623817   6.623817   2.879094
    20  Cl   8.294174   6.910901   4.890332   4.890332   8.998151
    21  Cl   7.713260   6.549198   2.879094   5.632800   7.184095
    22  Cl   4.562800   4.048303   1.639199   5.111382   2.879094
                   16         17         18         19         20
    16  Cl   0.000000
    17  Cl   3.161400   0.000000
    18  Cl   4.342800   7.504200   0.000000
    19  Cl   5.475705   3.161400   9.488480   0.000000
    20  Cl   6.525618   9.488480   3.161400  10.665600   0.000000
    21  Cl   6.988795   9.289584   5.475705   9.488480   3.161400
    22  Cl   5.475705   6.322800   6.988795   5.475705   6.525618
                   21         22
    21  Cl   0.000000
    22  Cl   4.342800   0.000000
 Stoichiometry    C12H3Cl7
 Framework group  C1[X(C12H3Cl7)]
 Deg. of freedom    60
 Full point group                 C1      NOp   1
 Largest Abelian subgroup         C1      NOp   1
 Largest concise Abelian subgroup C1      NOp   1
                         Standard orientation:                         
 ---------------------------------------------------------------------
 Center     Atomic      Atomic             Coordinates (Angstroms)
 Number     Number       Type             X           Y           Z
 ---------------------------------------------------------------------
      1          6           0        0.576691    0.158857    0.000003
      2          6           0        1.421953    1.276646    0.000001
      3          6           0        2.812619    1.103521   -0.000001
      4          6           0        3.358021   -0.187392   -0.000001
      5          6           0        2.512758   -1.305181    0.000002
      6          6           0        1.122093   -1.132057    0.000004
      7          6           0       -0.951513    0.349104    0.000004
      8          6           0       -1.496915    1.640017    0.000004
      9          6           0       -2.887581    1.813142    0.000004
     10          6           0       -3.732843    0.695353    0.000002
     11          6           0       -3.187441   -0.595561    0.000001
     12          6           0       -1.796776   -0.768686    0.000001
     13          1           0        1.005527    2.262287   -0.000001
     14          1           0        0.476716   -1.985514    0.000006
     15          1           0       -3.304007    2.798783    0.000005
     16         17           0       -1.111812   -2.389927   -0.000002
     17         17           0       -4.248996   -1.999378   -0.000005
     18         17           0        3.197722   -2.926423    0.000005
     19         17           0       -5.479362    0.912778   -0.000001
     20         17           0        5.104539   -0.404817   -0.000004
     21         17           0        3.874173    2.507338   -0.000004
     22         17           0       -0.435361    3.043834    0.000002
 ---------------------------------------------------------------------
 Rotational constants (GHZ):           0.3621037           0.1161263           0.0879279
 Standard basis: 6-311+G(d,p) (5D, 7F)
 There are   511 symmetry adapted cartesian basis functions of A   symmetry.
 There are   492 symmetry adapted basis functions of A   symmetry.
   492 basis functions,   827 primitive gaussians,   511 cartesian basis functions
    97 alpha electrons       97 beta electrons
       nuclear repulsion energy      2312.6042090519 Hartrees.
 NAtoms=   22 NActive=   22 NUniq=   22 SFac= 1.00D+00 NAtFMM=   60 NAOKFM=F Big=F
 Integral buffers will be    131072 words long.
 Raffenetti 2 integral format.
 Two-electron integral symmetry is turned on.
 One-electron integrals computed using PRISM.
 NBasis=   492 RedAO= T EigKep=  1.09D-06  NBF=   492
 NBsUse=   485 1.00D-06 EigRej=  6.96D-07 NBFU=   485
 ExpMin= 4.38D-02 ExpMax= 1.06D+05 ExpMxC= 3.62D+03 IAcc=3 IRadAn=         5 AccDes= 0.00D+00
 Harris functional with IExCor=  402 and IRadAn=       5 diagonalized for initial guess.
 HarFok:  IExCor=  402 AccDes= 0.00D+00 IRadAn=         5 IDoV= 1 UseB2=F ITyADJ=14
 ICtDFT=  3500011 ScaDFX=  1.000000  1.000000  1.000000  1.000000
 FoFCou: FMM=F IPFlag=           0 FMFlag=      100000 FMFlg1=           0
         NFxFlg=           0 DoJE=T BraDBF=F KetDBF=T FulRan=T
         wScrn=  0.000000 ICntrl=       500 IOpCl=  0 I1Cent=   200000004 NGrid=           0
         NMat0=    1 NMatS0=      1 NMatT0=    0 NMatD0=    1 NMtDS0=    0 NMtDT0=    0
 Petite list used in FoFCou.
 Requested convergence on RMS density matrix=1.00D-08 within  32 cycles.
 Requested convergence on MAX density matrix=1.00D-06.
 Requested convergence on             energy=1.00D-06.
 No special actions if energy rises.
 SCF Done:  E(RB3LYP) =  -3680.63143209     A.U. after   16 cycles
            NFock= 16  Conv=0.84D-08     -V/T= 2.0025
 QCSCF skips out because SCF is already converged.

 **********************************************************************

            Population analysis using the SCF Density.

 **********************************************************************

 Orbital symmetries:
       Occupied  (A) (A) (A) (A) (A) (A) (A) (A) (A) (A) (A) (A)
                 (A) (A) (A) (A) (A) (A) (A) (A) (A) (A) (A) (A)
                 (A) (A) (A) (A) (A) (A) (A) (A) (A) (A) (A) (A)
                 (A) (A) (A) (A) (A) (A) (A) (A) (A) (A) (A) (A)
                 (A) (A) (A) (A) (A) (A) (A) (A) (A) (A) (A) (A)
                 (A) (A) (A) (A) (A) (A) (A) (A) (A) (A) (A) (A)
                 (A) (A) (A) (A) (A) (A) (A) (A) (A) (A) (A) (A)
                 (A) (A) (A) (A) (A) (A) (A) (A) (A) (A) (A) (A)
                 (A)
       Virtual   (A) (A) (A) (A) (A) (A) (A) (A) (A) (A) (A) (A)
                 (A) (A) (A) (A) (A) (A) (A) (A) (A) (A) (A) (A)
                 (A) (A) (A) (A) (A) (A) (A) (A) (A) (A) (A) (A)
                 (A) (A) (A) (A) (A) (A) (A) (A) (A) (A) (A) (A)
                 (A) (A) (A) (A) (A) (A) (A) (A) (A) (A) (A) (A)
                 (A) (A) (A) (A) (A) (A) (A) (A) (A) (A) (A) (A)
                 (A) (A) (A) (A) (A) (A) (A) (A) (A) (A) (A) (A)
                 (A) (A) (A) (A) (A) (A) (A) (A) (A) (A) (A) (A)
                 (A) (A) (A) (A) (A) (A) (A) (A) (A) (A) (A) (A)
                 (A) (A) (A) (A) (A) (A) (A) (A) (A) (A) (A) (A)
                 (A) (A) (A) (A) (A) (A) (A) (A) (A) (A) (A) (A)
                 (A) (A) (A) (A) (A) (A) (A) (A) (A) (A) (A) (A)
                 (A) (A) (A) (A) (A) (A) (A) (A) (A) (A) (A) (A)
                 (A) (A) (A) (A) (A) (A) (A) (A) (A) (A) (A) (A)
                 (A) (A) (A) (A) (A) (A) (A) (A) (A) (A) (A) (A)
                 (A) (A) (A) (A) (A) (A) (A) (A) (A) (A) (A) (A)
                 (A) (A) (A) (A) (A) (A) (A) (A) (A) (A) (A) (A)
                 (A) (A) (A) (A) (A) (A) (A) (A) (A) (A) (A) (A)
                 (A) (A) (A) (A) (A) (A) (A) (A) (A) (A) (A) (A)
                 (A) (A) (A) (A) (A) (A) (A) (A) (A) (A) (A) (A)
                 (A) (A) (A) (A) (A) (A) (A) (A) (A) (A) (A) (A)
                 (A) (A) (A) (A) (A) (A) (A) (A) (A) (A) (A) (A)
                 (A) (A) (A) (A) (A) (A) (A) (A) (A) (A) (A) (A)
                 (A) (A) (A) (A) (A) (A) (A) (A) (A) (A) (A) (A)
                 (A) (A) (A) (A) (A) (A) (A) (A) (A) (A) (A) (A)
                 (A) (A) (A) (A) (A) (A) (A) (A) (A) (A) (A) (A)
                 (A) (A) (A) (A) (A) (A) (A) (A) (A) (A) (A) (A)
                 (A) (A) (A) (A) (A) (A) (A) (A) (A) (A) (A) (A)
                 (A) (A) (A) (A) (A) (A) (A) (A) (A) (A) (A) (A)
                 (A) (A) (A) (A) (A) (A) (A) (A) (A) (A) (A) (A)
                 (A) (A) (A) (A) (A) (A) (A) (A) (A) (A) (A) (A)
                 (A) (A) (A) (A) (A) (A) (A) (A) (A) (A) (A) (A)
                 (A) (A) (A) (A)
 The electronic state is 1-A.
 Alpha  occ. eigenvalues -- -101.59522-101.59458-101.58959-101.58761-101.57010
 Alpha  occ. eigenvalues -- -101.56973-101.56732 -10.29642 -10.29391 -10.29204
 Alpha  occ. eigenvalues --  -10.29202 -10.26931 -10.26574 -10.26547 -10.25685
 Alpha  occ. eigenvalues --  -10.24072 -10.23282 -10.19360 -10.19284  -9.51285
 Alpha  occ. eigenvalues --   -9.51226  -9.50365  -9.50180  -9.48442  -9.48406
 Alpha  occ. eigenvalues --   -9.48171  -7.27705  -7.27662  -7.26878  -7.26725
 Alpha  occ. eigenvalues --   -7.26716  -7.26696  -7.26670  -7.26632  -7.25836
 Alpha  occ. eigenvalues --   -7.25778  -7.25660  -7.25575  -7.24930  -7.24893
 Alpha  occ. eigenvalues --   -7.24664  -7.23923  -7.23886  -7.23868  -7.23831
 Alpha  occ. eigenvalues --   -7.23664  -7.23574  -0.97338  -0.94025  -0.93394
 Alpha  occ. eigenvalues --   -0.92223  -0.88891  -0.88268  -0.86359  -0.86127
 Alpha  occ. eigenvalues --   -0.84699  -0.79524  -0.77539  -0.75334  -0.74774
 Alpha  occ. eigenvalues --   -0.66443  -0.65241  -0.64178  -0.62395  -0.56054
 Alpha  occ. eigenvalues --   -0.55289  -0.54873  -0.51198  -0.50461  -0.49766
 Alpha  occ. eigenvalues --   -0.49491  -0.47610  -0.47178  -0.46970  -0.44191
 Alpha  occ. eigenvalues --   -0.44148  -0.43419  -0.42383  -0.41862  -0.41768
 Alpha  occ. eigenvalues --   -0.40757  -0.37777  -0.36912  -0.36307  -0.35922
 Alpha  occ. eigenvalues --   -0.34951  -0.34881  -0.34068  -0.33905  -0.33572
 Alpha  occ. eigenvalues --   -0.31443  -0.31190  -0.29967  -0.29483  -0.28785
 Alpha  occ. eigenvalues --   -0.26513  -0.25936
 Alpha virt. eigenvalues --   -0.08628  -0.07506  -0.06820  -0.04776  -0.03411
 Alpha virt. eigenvalues --   -0.02433  -0.02323  -0.01208  -0.00683   0.00992
 Alpha virt. eigenvalues --    0.01282   0.01450   0.01830   0.02667   0.02998
 Alpha virt. eigenvalues --    0.03481   0.04653   0.05166   0.05196   0.05657
 Alpha virt. eigenvalues --    0.05868   0.06251   0.06729   0.07136   0.07445
 Alpha virt. eigenvalues --    0.07551   0.08399   0.08454   0.08470   0.08775
 Alpha virt. eigenvalues --    0.08895   0.09597   0.10339   0.10744   0.10814
 Alpha virt. eigenvalues --    0.10963   0.11868   0.12038   0.12280   0.12863
 Alpha virt. eigenvalues --    0.13091   0.13309   0.13570   0.13636   0.14502
 Alpha virt. eigenvalues --    0.14701   0.15030   0.15035   0.15679   0.16233
 Alpha virt. eigenvalues --    0.16264   0.16777   0.17380   0.17592   0.17764
 Alpha virt. eigenvalues --    0.18299   0.18600   0.18924   0.19091   0.19411
 Alpha virt. eigenvalues --    0.19809   0.20653   0.21040   0.21214   0.21438
 Alpha virt. eigenvalues --    0.21851   0.22054   0.23116   0.23649   0.23736
 Alpha virt. eigenvalues --    0.24170   0.24616   0.24742   0.25275   0.25592
 Alpha virt. eigenvalues --    0.26320   0.26449   0.26903   0.27207   0.27781
 Alpha virt. eigenvalues --    0.28197   0.28772   0.29559   0.30209   0.30499
 Alpha virt. eigenvalues --    0.31417   0.31535   0.31935   0.32750   0.33477
 Alpha virt. eigenvalues --    0.34399   0.35123   0.35713   0.36995   0.38088
 Alpha virt. eigenvalues --    0.40073   0.40668   0.41131   0.42652   0.42740
 Alpha virt. eigenvalues --    0.43596   0.43663   0.44247   0.44370   0.44379
 Alpha virt. eigenvalues --    0.44636   0.45111   0.46269   0.46336   0.46691
 Alpha virt. eigenvalues --    0.47584   0.47665   0.48202   0.48653   0.49084
 Alpha virt. eigenvalues --    0.49889   0.50469   0.50470   0.50768   0.52524
 Alpha virt. eigenvalues --    0.53981   0.55461   0.55714   0.56282   0.57537
 Alpha virt. eigenvalues --    0.57604   0.57994   0.58450   0.58833   0.59583
 Alpha virt. eigenvalues --    0.60315   0.60910   0.61436   0.61897   0.62184
 Alpha virt. eigenvalues --    0.62833   0.63520   0.63946   0.66125   0.66518
 Alpha virt. eigenvalues --    0.67042   0.67752   0.68638   0.70833   0.73800
 Alpha virt. eigenvalues --    0.75780   0.77121   0.78130   0.79943   0.80835
 Alpha virt. eigenvalues --    0.81324   0.81592   0.82612   0.82881   0.83172
 Alpha virt. eigenvalues --    0.83351   0.83804   0.83879   0.84153   0.84492
 Alpha virt. eigenvalues --    0.84690   0.85004   0.85322   0.85545   0.86254
 Alpha virt. eigenvalues --    0.86456   0.86699   0.87208   0.87853   0.88049
 Alpha virt. eigenvalues --    0.88411   0.88999   0.90512   0.90589   0.91621
 Alpha virt. eigenvalues --    0.91871   0.92701   0.92955   0.93437   0.93456
 Alpha virt. eigenvalues --    0.94348   0.94688   0.95279   0.95753   0.96061
 Alpha virt. eigenvalues --    0.96251   0.97196   0.97665   0.97946   0.98231
 Alpha virt. eigenvalues --    0.98736   1.00725   1.01858   1.02339   1.05209
 Alpha virt. eigenvalues --    1.07614   1.07880   1.09652   1.10363   1.13050
 Alpha virt. eigenvalues --    1.14298   1.15221   1.16476   1.19331   1.21510
 Alpha virt. eigenvalues --    1.21902   1.22801   1.23030   1.24117   1.24412
 Alpha virt. eigenvalues --    1.26000   1.26513   1.26814   1.26858   1.27197
 Alpha virt. eigenvalues --    1.29016   1.29348   1.31431   1.33431   1.35832
 Alpha virt. eigenvalues --    1.38222   1.39322   1.41855   1.42971   1.44526
 Alpha virt. eigenvalues --    1.47291   1.49554   1.50963   1.54420   1.56740
 Alpha virt. eigenvalues --    1.57432   1.58447   1.59760   1.62478   1.64764
 Alpha virt. eigenvalues --    1.65581   1.68003   1.70443   1.74651   1.75469
 Alpha virt. eigenvalues --    1.76854   1.78509   1.79182   1.80467   1.83987
 Alpha virt. eigenvalues --    1.84199   1.84969   1.85864   1.87126   1.87409
 Alpha virt. eigenvalues --    1.88274   1.91060   1.94644   1.95639   1.97530
 Alpha virt. eigenvalues --    1.98304   2.02088   2.02617   2.06815   2.09847
 Alpha virt. eigenvalues --    2.14093   2.16412   2.18458   2.18756   2.21150
 Alpha virt. eigenvalues --    2.21707   2.22671   2.23347   2.25028   2.25857
 Alpha virt. eigenvalues --    2.25876   2.26591   2.27594   2.28689   2.29349
 Alpha virt. eigenvalues --    2.29989   2.32765   2.32985   2.34743   2.35689
 Alpha virt. eigenvalues --    2.40825   2.41768   2.42635   2.43390   2.44478
 Alpha virt. eigenvalues --    2.47218   2.49328   2.49980   2.52129   2.53871
 Alpha virt. eigenvalues --    2.55066   2.56116   2.58156   2.59620   2.61485
 Alpha virt. eigenvalues --    2.61879   2.63396   2.66793   2.68864   2.71134
 Alpha virt. eigenvalues --    2.72594   2.72903   2.73831   2.77337   2.79299
 Alpha virt. eigenvalues --    2.79512   2.80193   2.82221   2.84681   2.89566
 Alpha virt. eigenvalues --    2.91976   2.93243   2.99221   3.03709   3.06841
 Alpha virt. eigenvalues --    3.08622   3.09735   3.10827   3.14120   3.15899
 Alpha virt. eigenvalues --    3.16295   3.20441   3.21866   3.24236   3.24873
 Alpha virt. eigenvalues --    3.36167   3.39600   3.40474   3.47504   3.59539
 Alpha virt. eigenvalues --    3.66460   3.69749   3.72516   3.74330   3.87806
 Alpha virt. eigenvalues --    4.00011   4.03252   4.18234   4.41601   4.78086
 Alpha virt. eigenvalues --    4.83410   9.72820   9.74513   9.78485   9.79044
 Alpha virt. eigenvalues --    9.80761   9.86388   9.87054  23.28974  23.46573
 Alpha virt. eigenvalues --   23.77603  23.81205  23.84481  23.85059  23.92260
 Alpha virt. eigenvalues --   23.94480  23.97127  24.02929  24.04326  24.10599
 Alpha virt. eigenvalues --   25.75001  25.76923  25.80008  25.80948  25.83486
 Alpha virt. eigenvalues --   25.88314  25.89778  26.08925  26.11351  26.12413
 Alpha virt. eigenvalues --   26.15614  26.18979  26.45607  26.47378  26.56405
 Alpha virt. eigenvalues --   26.63555  26.68812  26.76046  26.79540  26.85601
 Alpha virt. eigenvalues --   26.98803 215.71845 215.73380 215.78118 215.78662
 Alpha virt. eigenvalues --  215.80508 215.88809 215.89664
          Condensed to atoms (all electrons):
               1          2          3          4          5          6
     1  C   27.068523  -1.218726  -4.051830   2.070082  -4.442737   0.816154
     2  C   -1.218726  17.154824  -2.894003  -5.982850   5.674589  -1.136764
     3  C   -4.051830  -2.894003  24.806268  -4.057207  -6.501599   6.856498
     4  C    2.070082  -5.982850  -4.057207  25.826351  -4.582832  -6.935285
     5  C   -4.442737   5.674589  -6.501599  -4.582832  21.182414  -0.495969
     6  C    0.816154  -1.136764   6.856498  -6.935285  -0.495969  17.058620
     7  C   10.503240  -0.918188  -2.819799  -1.221668  -2.305029   0.843380
     8  C   -6.701754   1.446845  -2.168671   0.835452  -1.906116  -5.687160
     9  C   -4.614051  -0.993322   0.973905   0.053309  -1.153927  -1.150483
    10  C   -0.860545  -0.106654  -0.381924   0.017244   0.083273  -1.034578
    11  C   -5.188959  -1.033049  -1.266594  -0.145622   0.733696  -1.026978
    12  C   -4.071242  -2.750934  -2.499825   0.402021  -0.071022  -0.376988
    13  H   -0.116332   0.202899   0.132249   0.065434  -0.108590   0.002674
    14  H   -0.159950  -0.064957  -0.060023   0.106175   0.058320   0.390239
    15  H    0.016662   0.002118  -0.000753   0.000283   0.000296   0.003069
    16  Cl   0.061157   0.275288   0.210951  -0.056279  -0.807899  -1.335640
    17  Cl  -0.016110  -0.048137   0.015623  -0.012789   0.018010   0.046499
    18  Cl  -0.949111   0.351579  -0.175642  -0.358349   0.365099   0.459379
    19  Cl  -0.087924  -0.036976  -0.005225  -0.000611   0.002848  -0.016465
    20  Cl   0.146346  -0.428415  -0.215213   0.200993   0.100843  -0.562146
    21  Cl  -0.927116   0.225908   0.736006  -0.467213  -0.308935   0.499582
    22  Cl   0.304319  -0.560778  -0.923186  -0.037330   0.353151  -0.060787
               7          8          9         10         11         12
     1  C   10.503240  -6.701754  -4.614051  -0.860545  -5.188959  -4.071242
     2  C   -0.918188   1.446845  -0.993322  -0.106654  -1.033049  -2.750934
     3  C   -2.819799  -2.168671   0.973905  -0.381924  -1.266594  -2.499825
     4  C   -1.221668   0.835452   0.053309   0.017244  -0.145622   0.402021
     5  C   -2.305029  -1.906116  -1.153927   0.083273   0.733696  -0.071022
     6  C    0.843380  -5.687160  -1.150483  -1.034578  -1.026978  -0.376988
     7  C   29.179397 -10.551026  -8.235336  -0.711186  -5.664581   1.285948
     8  C  -10.551026  36.406377   1.527725  -4.387716  -1.708374  -1.680784
     9  C   -8.235336   1.527725  21.180851  -0.587499  -3.800311   2.192475
    10  C   -0.711186  -4.387716  -0.587499  30.300545  -5.869665  -9.647280
    11  C   -5.664581  -1.708374  -3.800311  -5.869665  29.301376   1.029593
    12  C    1.285948  -1.680784   2.192475  -9.647280   1.029593  23.710949
    13  H   -0.032531   0.024704   0.198142   0.054549  -0.007460   0.028150
    14  H   -0.006706   0.010966  -0.006604   0.007577  -0.002402   0.185450
    15  H    0.115118  -0.032580   0.279154   0.039045  -0.042823  -0.008160
    16  Cl  -0.654482   0.851009   0.450230   0.892863   0.848434  -2.389963
    17  Cl  -0.856610   0.373479   0.645774  -0.960532  -1.324641   1.369422
    18  Cl  -0.301679  -0.142472  -0.028547   0.003021   0.020038  -0.032548
    19  Cl  -0.040103  -0.410791  -0.386098  -0.286355   0.816825  -0.294012
    20  Cl  -0.022732  -0.015460  -0.001733  -0.002175   0.005256  -0.020623
    21  Cl  -0.255537  -0.126190   0.000620  -0.011168  -0.031565  -0.144365
    22  Cl  -0.158858  -0.142148  -0.260766  -0.603450   0.383852   0.192110
              13         14         15         16         17         18
     1  C   -0.116332  -0.159950   0.016662   0.061157  -0.016110  -0.949111
     2  C    0.202899  -0.064957   0.002118   0.275288  -0.048137   0.351579
     3  C    0.132249  -0.060023  -0.000753   0.210951   0.015623  -0.175642
     4  C    0.065434   0.106175   0.000283  -0.056279  -0.012789  -0.358349
     5  C   -0.108590   0.058320   0.000296  -0.807899   0.018010   0.365099
     6  C    0.002674   0.390239   0.003069  -1.335640   0.046499   0.459379
     7  C   -0.032531  -0.006706   0.115118  -0.654482  -0.856610  -0.301679
     8  C    0.024704   0.010966  -0.032580   0.851009   0.373479  -0.142472
     9  C    0.198142  -0.006604   0.279154   0.450230   0.645774  -0.028547
    10  C    0.054549   0.007577   0.039045   0.892863  -0.960532   0.003021
    11  C   -0.007460  -0.002402  -0.042823   0.848434  -1.324641   0.020038
    12  C    0.028150   0.185450  -0.008160  -2.389963   1.369422  -0.032548
    13  H    0.686818  -0.000102   0.000085   0.000770  -0.000116   0.000665
    14  H   -0.000102   0.692220  -0.000002  -0.262431   0.003886  -0.035361
    15  H    0.000085  -0.000002   0.483128   0.000976  -0.000754   0.000001
    16  Cl   0.000770  -0.262431   0.000976  18.693328  -0.421467  -0.083452
    17  Cl  -0.000116   0.003886  -0.000754  -0.421467  17.758863   0.001210
    18  Cl   0.000665  -0.035361   0.000001  -0.083452   0.001210  17.612155
    19  Cl   0.000370   0.000531  -0.004946   0.005539  -0.277400  -0.000045
    20  Cl   0.002159   0.002029   0.000000   0.001319   0.000003  -0.251427
    21  Cl  -0.034762   0.000719  -0.000027   0.006876   0.000149   0.009510
    22  Cl  -0.240028   0.000791  -0.022400  -0.027676   0.003586   0.006340
              19         20         21         22
     1  C   -0.087924   0.146346  -0.927116   0.304319
     2  C   -0.036976  -0.428415   0.225908  -0.560778
     3  C   -0.005225  -0.215213   0.736006  -0.923186
     4  C   -0.000611   0.200993  -0.467213  -0.037330
     5  C    0.002848   0.100843  -0.308935   0.353151
     6  C   -0.016465  -0.562146   0.499582  -0.060787
     7  C   -0.040103  -0.022732  -0.255537  -0.158858
     8  C   -0.410791  -0.015460  -0.126190  -0.142148
     9  C   -0.386098  -0.001733   0.000620  -0.260766
    10  C   -0.286355  -0.002175  -0.011168  -0.603450
    11  C    0.816825   0.005256  -0.031565   0.383852
    12  C   -0.294012  -0.020623  -0.144365   0.192110
    13  H    0.000370   0.002159  -0.034762  -0.240028
    14  H    0.000531   0.002029   0.000719   0.000791
    15  H   -0.004946   0.000000  -0.000027  -0.022400
    16  Cl   0.005539   0.001319   0.006876  -0.027676
    17  Cl  -0.277400   0.000003   0.000149   0.003586
    18  Cl  -0.000045  -0.251427   0.009510   0.006340
    19  Cl  17.482831  -0.000005  -0.000025  -0.024717
    20  Cl  -0.000005  17.621152  -0.243818  -0.000163
    21  Cl  -0.000025  -0.243818  17.618277  -0.073989
    22  Cl  -0.024717  -0.000163  -0.073989  18.204286
 Mulliken charges:
               1
     1  C   -1.580097
     2  C   -1.160299
     3  C    0.289993
     4  C    0.280692
     5  C    0.112116
     6  C   -1.156850
     7  C   -1.171032
     8  C    0.184685
     9  C   -0.283506
    10  C    0.052609
    11  C   -0.026047
    12  C   -0.408372
    13  H    0.140257
    14  H    0.139637
    15  H    0.172510
    16  Cl   0.740551
    17  Cl   0.682052
    18  Cl   0.529635
    19  Cl   0.562753
    20  Cl   0.683811
    21  Cl   0.527062
    22  Cl   0.687841
 Sum of Mulliken charges =  -0.00000
 Mulliken charges with hydrogens summed into heavy atoms:
               1
     1  C   -1.580097
     2  C   -1.020042
     3  C    0.289993
     4  C    0.280692
     5  C    0.112116
     6  C   -1.017214
     7  C   -1.171032
     8  C    0.184685
     9  C   -0.110997
    10  C    0.052609
    11  C   -0.026047
    12  C   -0.408372
    16  Cl   0.740551
    17  Cl   0.682052
    18  Cl   0.529635
    19  Cl   0.562753
    20  Cl   0.683811
    21  Cl   0.527062
    22  Cl   0.687841
 Electronic spatial extent (au):  <R**2>=          10436.6249
 Charge=             -0.0000 electrons
 Dipole moment (field-independent basis, Debye):
    X=             -2.9256    Y=              1.2121    Z=              0.0000  Tot=              3.1668
 Quadrupole moment (field-independent basis, Debye-Ang):
   XX=           -168.0496   YY=           -153.3313   ZZ=           -158.8409
   XY=             -2.7326   XZ=             -0.0000   YZ=              0.0000
 Traceless Quadrupole moment (field-independent basis, Debye-Ang):
   XX=             -7.9756   YY=              6.7426   ZZ=              1.2330
   XY=             -2.7326   XZ=             -0.0000   YZ=              0.0000
 Octapole moment (field-independent basis, Debye-Ang**2):
  XXX=            -34.4509  YYY=             -3.2510  ZZZ=             -0.0001  XYY=            -12.1327
  XXY=              9.3450  XXZ=             -0.0000  XZZ=              0.6735  YZZ=             -3.3669
  YYZ=             -0.0000  XYZ=             -0.0000
 Hexadecapole moment (field-independent basis, Debye-Ang**3):
 XXXX=         -10143.5487 YYYY=          -3199.2575 ZZZZ=           -183.5462 XXXY=             -6.6987
 XXXZ=              0.0004 YYYX=             23.5620 YYYZ=              0.0000 ZZZX=              0.0001
 ZZZY=             -0.0000 XXYY=          -2197.0325 XXZZ=          -1749.1738 YYZZ=           -597.7149
 XXYZ=              0.0002 YYXZ=              0.0001 ZZXY=              8.8493
 N-N= 2.312604209052D+03 E-N=-1.334616232552D+04  KE= 3.671553425234D+03
 Calling FoFJK, ICntrl=      2127 FMM=F ISym2X=0 I1Cent= 0 IOpClX= 0 NMat=1 NMatS=1 NMatT=0.
 ***** Axes restored to original set *****
 -------------------------------------------------------------------
 Center     Atomic                   Forces (Hartrees/Bohr)
 Number     Number              X              Y              Z
 -------------------------------------------------------------------
      1        6          -0.012583450   -0.019234589    0.000533147
      2        6           0.007993336    0.053324350    0.007381525
      3        6          -0.011959973   -0.003003206    0.003376340
      4        6           0.007988599    0.013745362   -0.000050555
      5        6           0.003346467   -0.011934700   -0.003343931
      6        6           0.043286753    0.033922050   -0.007890343
      7        6           0.026833392    0.043864165   -0.000602213
      8        6          -0.018137580   -0.006593233    0.004737384
      9        6          -0.000230473    0.009679561    0.001893766
     10        6           0.004138190    0.000929536   -0.001188714
     11        6          -0.014664011    0.001988999    0.005204916
     12        6           0.001700978   -0.008309876   -0.002121155
     13        1           0.005542571    0.048697800    0.007319853
     14        1           0.039910808    0.028378475   -0.007819440
     15        1           0.003118056   -0.007317023   -0.002401433
     16       17          -0.081798220   -0.061956256    0.015313388
     17       17           0.009209307    0.000210534   -0.002994639
     18       17          -0.000663380   -0.007276371   -0.001147985
     19       17           0.008347422    0.006221199   -0.001581795
     20       17          -0.003225154   -0.005566169    0.000017182
     21       17          -0.005975796   -0.004163016    0.001186896
     22       17          -0.012177843   -0.105607594   -0.015822194
 -------------------------------------------------------------------
 Cartesian Forces:  Max     0.105607594 RMS     0.024086915

 GradGradGradGradGradGradGradGradGradGradGradGradGradGradGradGradGradGrad
 Berny optimization.
 FormGI is forming the generalized inverse of G from B-inverse, IUseBI=4.
 Internal  Forces:  Max     0.198348250 RMS     0.049010886
 Search for a local minimum.
 Step number   1 out of a maximum of  121
 All quantities printed in internal units (Hartrees-Bohrs-Radians)
 Mixed Optimization -- RFO/linear search
 Second derivative matrix not updated -- first step.
 ITU=  0
     Eigenvalues ---    0.00237   0.01506   0.01506   0.02070   0.02070
     Eigenvalues ---    0.02070   0.02070   0.02070   0.02070   0.02070
     Eigenvalues ---    0.02070   0.02070   0.02070   0.02070   0.02070
     Eigenvalues ---    0.02070   0.02070   0.02070   0.02070   0.16000
     Eigenvalues ---    0.16000   0.16000   0.23478   0.23485   0.23493
     Eigenvalues ---    0.25000   0.25000   0.25000   0.25000   0.25000
     Eigenvalues ---    0.25000   0.25000   0.25000   0.25000   0.25000
     Eigenvalues ---    0.25000   0.25000   0.28519   0.29539   0.29539
     Eigenvalues ---    0.29539   0.29539   0.29539   0.29539   0.29539
     Eigenvalues ---    0.37230   0.37230   0.37230   0.41554   0.41635
     Eigenvalues ---    0.41716   0.41797   0.45389   0.45389   0.45389
     Eigenvalues ---    0.45389   0.45389   0.45389   0.45389   0.45389
 RFO step:  Lambda=-3.93977218D-01 EMin= 2.36824243D-03
 Linear search not attempted -- first point.
 Maximum step size (   0.300) exceeded in Quadratic search.
    -- Step size scaled by   0.391
 Iteration  1 RMS(Cart)=  0.09697104 RMS(Int)=  0.00389841
 Iteration  2 RMS(Cart)=  0.00443674 RMS(Int)=  0.00015755
 Iteration  3 RMS(Cart)=  0.00000777 RMS(Int)=  0.00015751
 Iteration  4 RMS(Cart)=  0.00000000 RMS(Int)=  0.00015751
 Variable       Old X    -DE/DX   Delta X   Delta X   Delta X     New X
                                 (Linear)    (Quad)   (Total)
    R1        2.64826   0.02994   0.00000   0.01430   0.01444   2.66270
    R2        2.64826   0.02996   0.00000   0.01431   0.01445   2.66271
    R3        2.91018   0.14672   0.00000   0.08456   0.08456   2.99473
    R4        2.64826  -0.01057   0.00000  -0.00488  -0.00488   2.64338
    R5        2.02201  -0.04075   0.00000  -0.02082  -0.02082   2.00119
    R6        2.64826  -0.03337   0.00000  -0.01588  -0.01602   2.63224
    R7        3.32592  -0.00614   0.00000  -0.00348  -0.00348   3.32243
    R8        2.64826  -0.03335   0.00000  -0.01587  -0.01601   2.63225
    R9        3.32592  -0.00643   0.00000  -0.00365  -0.00365   3.32227
   R10        2.64826  -0.01044   0.00000  -0.00482  -0.00482   2.64345
   R11        3.32592  -0.00618   0.00000  -0.00351  -0.00351   3.32241
   R12        2.02201  -0.04097   0.00000  -0.02093  -0.02093   2.00108
   R13        2.64826   0.13698   0.00000   0.06517   0.06548   2.71374
   R14        2.64826   0.13808   0.00000   0.06591   0.06621   2.71447
   R15        2.64826  -0.01369   0.00000  -0.00655  -0.00654   2.64172
   R16        3.32592  -0.00894   0.00000  -0.00507  -0.00507   3.32084
   R17        2.64826  -0.06341   0.00000  -0.03143  -0.03174   2.61652
   R18        2.02201   0.00828   0.00000   0.00423   0.00423   2.02624
   R19        2.64826  -0.05283   0.00000  -0.02632  -0.02664   2.62162
   R20        3.32592  -0.00959   0.00000  -0.00545  -0.00545   3.32047
   R21        2.64826  -0.00143   0.00000  -0.00043  -0.00045   2.64782
   R22        3.32592  -0.00969   0.00000  -0.00550  -0.00550   3.32042
   R23        3.32592  -0.01103   0.00000  -0.00626  -0.00626   3.31966
    A1        2.09440  -0.10849   0.00000  -0.06518  -0.06488   2.02951
    A2        2.09440   0.05251   0.00000   0.03154   0.03139   2.12579
    A3        2.09440   0.05597   0.00000   0.03364   0.03349   2.12789
    A4        2.09440   0.05291   0.00000   0.03385   0.03399   2.12839
    A5        2.09440   0.00205   0.00000   0.00322   0.00315   2.09754
    A6        2.09440  -0.05496   0.00000  -0.03707  -0.03714   2.05726
    A7        2.09440   0.01696   0.00000   0.00914   0.00899   2.10339
    A8        2.09440  -0.01529   0.00000  -0.00871  -0.00864   2.08576
    A9        2.09440  -0.00167   0.00000  -0.00043  -0.00036   2.09404
   A10        2.09440  -0.03120   0.00000  -0.02077  -0.02106   2.07333
   A11        2.09440   0.01555   0.00000   0.01035   0.01050   2.10490
   A12        2.09440   0.01565   0.00000   0.01042   0.01056   2.10496
   A13        2.09440   0.01699   0.00000   0.00916   0.00902   2.10341
   A14        2.09440  -0.00174   0.00000  -0.00047  -0.00040   2.09399
   A15        2.09440  -0.01526   0.00000  -0.00869  -0.00862   2.08578
   A16        2.09440   0.05281   0.00000   0.03379   0.03394   2.12833
   A17        2.09440   0.00185   0.00000   0.00306   0.00299   2.09739
   A18        2.09440  -0.05466   0.00000  -0.03686  -0.03693   2.05746
   A19        2.09440   0.06902   0.00000   0.03928   0.03895   2.13334
   A20        2.09440   0.07085   0.00000   0.04039   0.04006   2.13445
   A21        2.09440  -0.13987   0.00000  -0.07967  -0.07901   2.01539
   A22        2.09440   0.04047   0.00000   0.02673   0.02706   2.12145
   A23        2.09440   0.15788   0.00000   0.09489   0.09473   2.18912
   A24        2.09440  -0.19835   0.00000  -0.12162  -0.12178   1.97261
   A25        2.09440   0.03835   0.00000   0.02091   0.02060   2.11499
   A26        2.09440  -0.01848   0.00000  -0.00997  -0.00981   2.08458
   A27        2.09440  -0.01986   0.00000  -0.01094  -0.01078   2.08361
   A28        2.09440  -0.00987   0.00000  -0.01166  -0.01231   2.08209
   A29        2.09440  -0.00229   0.00000   0.00144   0.00176   2.09616
   A30        2.09440   0.01216   0.00000   0.01022   0.01054   2.10494
   A31        2.09440   0.03448   0.00000   0.01850   0.01816   2.11256
   A32        2.09440  -0.01723   0.00000  -0.00925  -0.00908   2.08532
   A33        2.09440  -0.01725   0.00000  -0.00925  -0.00909   2.08531
   A34        2.09440   0.03645   0.00000   0.02520   0.02550   2.11990
   A35        2.09440   0.15333   0.00000   0.09167   0.09152   2.18591
   A36        2.09440  -0.18978   0.00000  -0.11687  -0.11702   1.97737
    D1        0.00000   0.00000   0.00000   0.00000   0.00000   0.00000
    D2        3.14159  -0.00000   0.00000   0.00000   0.00000   3.14159
    D3       -3.14159  -0.00000   0.00000  -0.00000  -0.00000  -3.14159
    D4       -0.00000  -0.00000   0.00000  -0.00000  -0.00000  -0.00000
    D5       -0.00000  -0.00000   0.00000  -0.00000  -0.00000  -0.00000
    D6        3.14159  -0.00000   0.00000  -0.00000  -0.00000   3.14159
    D7        3.14159   0.00000   0.00000   0.00000   0.00000   3.14159
    D8        0.00000  -0.00000   0.00000  -0.00000  -0.00000  -0.00000
    D9       -0.00000  -0.00000   0.00000  -0.00000  -0.00000  -0.00000
   D10        3.14159  -0.00000   0.00000  -0.00000  -0.00000   3.14159
   D11        3.14159  -0.00000   0.00000  -0.00000  -0.00000   3.14159
   D12       -0.00000  -0.00000   0.00000  -0.00000  -0.00000  -0.00000
   D13        0.00000  -0.00000   0.00000  -0.00000  -0.00000   0.00000
   D14        3.14159  -0.00000   0.00000  -0.00000  -0.00000   3.14159
   D15       -3.14159  -0.00000   0.00000  -0.00000  -0.00000  -3.14159
   D16        0.00000  -0.00000   0.00000  -0.00000  -0.00000   0.00000
   D17       -0.00000  -0.00000   0.00000   0.00000   0.00000  -0.00000
   D18        3.14159   0.00000   0.00000   0.00000   0.00000   3.14159
   D19        3.14159  -0.00000   0.00000  -0.00000  -0.00000   3.14159
   D20        0.00000  -0.00000   0.00000  -0.00000  -0.00000   0.00000
   D21        0.00000   0.00000   0.00000   0.00000   0.00000   0.00000
   D22       -3.14159   0.00000   0.00000   0.00000   0.00000  -3.14159
   D23       -3.14159  -0.00000   0.00000  -0.00000  -0.00000  -3.14159
   D24        0.00000   0.00000   0.00000   0.00000   0.00000   0.00000
   D25       -0.00000   0.00000   0.00000   0.00000   0.00000  -0.00000
   D26        3.14159   0.00000   0.00000   0.00000   0.00000   3.14159
   D27        3.14159   0.00000   0.00000  -0.00000  -0.00000   3.14159
   D28       -0.00000   0.00000   0.00000   0.00000   0.00000  -0.00000
   D29        3.14159   0.00000   0.00000   0.00000   0.00000   3.14159
   D30        0.00000   0.00000   0.00000   0.00000   0.00000   0.00000
   D31        0.00000   0.00000   0.00000   0.00000   0.00000   0.00000
   D32       -3.14159  -0.00000   0.00000  -0.00000  -0.00000  -3.14159
   D33       -3.14159  -0.00000   0.00000  -0.00000  -0.00000  -3.14159
   D34        0.00000  -0.00000   0.00000  -0.00000  -0.00000  -0.00000
   D35       -0.00000   0.00000   0.00000   0.00000   0.00000  -0.00000
   D36        3.14159  -0.00000   0.00000  -0.00000  -0.00000   3.14159
   D37       -0.00000  -0.00000   0.00000  -0.00000  -0.00000  -0.00000
   D38        3.14159  -0.00000   0.00000  -0.00000  -0.00000   3.14159
   D39        3.14159   0.00000   0.00000   0.00000   0.00000   3.14159
   D40       -0.00000   0.00000   0.00000   0.00000   0.00000  -0.00000
   D41       -0.00000   0.00000   0.00000   0.00000   0.00000  -0.00000
   D42       -3.14159  -0.00000   0.00000  -0.00000  -0.00000  -3.14159
   D43        3.14159   0.00000   0.00000   0.00000   0.00000   3.14159
   D44        0.00000   0.00000   0.00000   0.00000   0.00000   0.00000
   D45        0.00000   0.00000   0.00000   0.00000   0.00000   0.00000
   D46       -3.14159  -0.00000   0.00000  -0.00000  -0.00000  -3.14159
   D47        3.14159   0.00000   0.00000   0.00000   0.00000   3.14159
   D48        0.00000   0.00000   0.00000   0.00000   0.00000   0.00000
   D49        0.00000  -0.00000   0.00000  -0.00000  -0.00000   0.00000
   D50       -3.14159   0.00000   0.00000   0.00000   0.00000  -3.14159
   D51        3.14159   0.00000   0.00000   0.00000   0.00000   3.14159
   D52       -0.00000   0.00000   0.00000   0.00000   0.00000  -0.00000
         Item               Value     Threshold  Converged?
 Maximum Force            0.198348     0.000450     NO 
 RMS     Force            0.049011     0.000300     NO 
 Maximum Displacement     0.535079     0.001800     NO 
 RMS     Displacement     0.098297     0.001200     NO 
 Predicted change in Energy=-1.417335D-01
 GradGradGradGradGradGradGradGradGradGradGradGradGradGradGradGradGradGrad

                          Input orientation:                          
 ---------------------------------------------------------------------
 Center     Atomic      Atomic             Coordinates (Angstroms)
 Number     Number       Type             X           Y           Z
 ---------------------------------------------------------------------
      1          6           0        0.614868    0.816059   -0.002189
      2          6           0        1.955371    0.888882   -0.430147
      3          6           0        2.665492    2.094021   -0.437763
      4          6           0        2.059029    3.274989   -0.016164
      5          6           0        0.734329    3.233040    0.412384
      6          6           0        0.027626    2.025846    0.418488
      7          6           0       -0.186318   -0.551225    0.004977
      8          6           0        0.405467   -1.787956   -0.422260
      9          6           0       -0.314625   -2.986098   -0.410043
     10          6           0       -1.631380   -3.026759    0.016136
     11          6           0       -2.244754   -1.856139    0.438070
     12          6           0       -1.552892   -0.637703    0.438965
     13          1           0        2.457262    0.016426   -0.759351
     14          1           0       -0.977113    2.041850    0.752509
     15          1           0        0.160824   -3.890034   -0.736451
     16         17           0       -2.521935    0.711026    1.011531
     17         17           0       -3.915582   -1.902153    0.979901
     18         17           0       -0.061710    4.705166    0.951119
     19         17           0       -2.509863   -4.548507    0.019763
     20         17           0        2.949395    4.790896   -0.024797
     21         17           0        4.336232    2.111140   -0.984980
     22         17           0        2.053130   -1.982251   -1.001581
 ---------------------------------------------------------------------
                    Distance matrix (angstroms):
                    1          2          3          4          5
     1  C    0.000000
     2  C    1.409041   0.000000
     3  C    2.455192   1.398818   0.000000
     4  C    2.851690   2.423971   1.392921   0.000000
     5  C    2.455187   2.774145   2.397813   1.392926   0.000000
     6  C    1.409045   2.393548   2.774194   2.424022   1.398852
     7  C    1.584745   2.617264   3.914864   4.436434   3.915896
     8  C    2.645978   3.093173   4.491959   5.341591   5.100508
     9  C    3.935314   4.490964   5.889777   6.707503   6.360375
    10  C    4.451204   5.328807   6.700113   7.302889   6.703632
    11  C    3.938516   5.092149   6.362496   6.712477   5.897062
    12  C    2.647116   3.923483   5.101542   5.344369   4.496081
    13  H    2.146421   1.058985   2.112624   3.365880   3.832502
    14  H    2.146285   3.365631   3.832498   3.365954   2.112736
    15  H    4.784622   5.113927   6.493958   7.447117   7.237881
    16  Cl   3.298211   4.707051   5.560802   5.349327   4.162065
    17  Cl   5.373840   6.651781   7.828775   7.968119   6.950824
    18  Cl   4.060999   4.532167   4.023022   2.734699   1.758144
    19  Cl   6.208300   7.050243   8.433078   9.059976   8.439870
    20  Cl   4.609757   4.046988   2.743042   1.758067   2.743093
    21  Cl   4.060993   2.733177   1.758156   2.734740   4.023058
    22  Cl   3.301199   2.929077   4.160393   5.348799   5.562175
                    6          7          8          9         10
     6  C    0.000000
     7  C    2.618790   0.000000
     8  C    3.923609   1.436051   0.000000
     9  C    5.091481   2.473319   1.397937   0.000000
    10  C    5.333198   2.866460   2.423958   1.384602   0.000000
    11  C    4.498210   2.475385   2.787202   2.391966   1.387303
    12  C    3.097248   1.436436   2.428984   2.787306   2.427454
    13  H    3.365740   2.809794   2.753050   4.101284   5.155516
    14  H    1.058926   2.812152   4.237809   5.202949   5.163439
    15  H    6.029035   3.437712   2.139462   1.072238   2.126882
    16  Cl   2.929285   2.839285   4.107353   4.534513   3.969249
    17  Cl   5.594036   4.084470   4.544290   4.009211   2.722345
    18  Cl   2.733210   5.342318   6.653199   7.814875   7.944855
    19  Cl   7.058324   4.623564   4.039205   2.728539   1.757118
    20  Cl   4.047066   6.194501   7.064761   8.442979   9.060955
    21  Cl   4.532228   5.340568   5.565116   6.924079   7.938050
    22  Cl   4.710000   2.841851   1.757315   2.638919   3.962620
                   11         12         13         14         15
    11  C    0.000000
    12  C    1.401164   0.000000
    13  H    5.200892   4.236175   0.000000
    14  H    4.110973   2.758593   4.264152   0.000000
    15  H    3.361999   3.859544   4.531510   6.220864   0.000000
    16  Cl   2.644999   1.756686   5.330187   2.055398   5.605568
    17  Cl   1.757090   2.733816   6.878887   4.923562   4.849188
    18  Cl   6.933947   5.570654   5.590636   2.823236   8.762128
    19  Cl   2.737537   4.047951   6.791021   6.805810   2.852721
    20  Cl   8.448462   7.067910   4.855649   4.855814   9.145552
    21  Cl   7.814970   6.653235   2.822988   5.590644   7.315045
    22  Cl   4.534348   4.109303   2.053462   5.334097   2.700139
                   16         17         18         19         20
    16  Cl   0.000000
    17  Cl   2.961749   0.000000
    18  Cl   4.691430   7.649172   0.000000
    19  Cl   5.352237   3.146602   9.617242   0.000000
    20  Cl   6.903243   9.640241   3.166467  10.818038   0.000000
    21  Cl   7.278793   9.384014   5.460709   9.603615   3.166443
    22  Cl   5.677814   6.289532   7.280600   5.333828   6.901661
                   21         22
    21  Cl   0.000000
    22  Cl   4.687076   0.000000
 Stoichiometry    C12H3Cl7
 Framework group  C1[X(C12H3Cl7)]
 Deg. of freedom    60
 Full point group                 C1      NOp   1
 Largest Abelian subgroup         C1      NOp   1
 Largest concise Abelian subgroup C1      NOp   1
                         Standard orientation:                         
 ---------------------------------------------------------------------
 Center     Atomic      Atomic             Coordinates (Angstroms)
 Number     Number       Type             X           Y           Z
 ---------------------------------------------------------------------
      1          6           0        0.653216    0.148333    0.000002
      2          6           0        1.529839    1.251478    0.000000
      3          6           0        2.919595    1.092522   -0.000001
      4          6           0        3.485933   -0.180070   -0.000001
      5          6           0        2.643454   -1.289337    0.000003
      6          6           0        1.254155   -1.126140    0.000004
      7          6           0       -0.920789    0.332516    0.000003
      8          6           0       -1.540326    1.628053    0.000004
      9          6           0       -2.930624    1.773999    0.000004
     10          6           0       -3.767228    0.670723    0.000003
     11          6           0       -3.213320   -0.601203    0.000001
     12          6           0       -1.824170   -0.784289    0.000001
     13          1           0        1.144350    2.237809   -0.000002
     14          1           0        0.653098   -1.997952    0.000007
     15          1           0       -3.357237    2.757714    0.000005
     16         17           0       -1.346241   -2.474712   -0.000003
     17         17           0       -4.270459   -2.004706   -0.000006
     18         17           0        3.324949   -2.910026    0.000007
     19         17           0       -5.510979    0.887043   -0.000000
     20         17           0        5.232310   -0.382480   -0.000004
     21         17           0        3.953759    2.514358   -0.000005
     22         17           0       -0.687963    3.164813    0.000002
 ---------------------------------------------------------------------
 Rotational constants (GHZ):           0.3538141           0.1112365           0.0846296
 Standard basis: 6-311+G(d,p) (5D, 7F)
 There are   511 symmetry adapted cartesian basis functions of A   symmetry.
 There are   492 symmetry adapted basis functions of A   symmetry.
   492 basis functions,   827 primitive gaussians,   511 cartesian basis functions
    97 alpha electrons       97 beta electrons
       nuclear repulsion energy      2280.8710600479 Hartrees.
 NAtoms=   22 NActive=   22 NUniq=   22 SFac= 1.00D+00 NAtFMM=   60 NAOKFM=F Big=F
 Integral buffers will be    131072 words long.
 Raffenetti 2 integral format.
 Two-electron integral symmetry is turned on.
 One-electron integrals computed using PRISM.
 NBasis=   492 RedAO= T EigKep=  1.23D-06  NBF=   492
 NBsUse=   485 1.00D-06 EigRej=  7.93D-07 NBFU=   485
 Initial guess from the checkpoint file:  "./Gau-440159.chk"
 B after Tr=    -0.000000   -0.000000   -0.000000
         Rot=    0.999996    0.000000   -0.000000   -0.002974 Ang=  -0.34 deg.
 ExpMin= 4.38D-02 ExpMax= 1.06D+05 ExpMxC= 3.62D+03 IAcc=3 IRadAn=         5 AccDes= 0.00D+00
 Harris functional with IExCor=  402 and IRadAn=       5 diagonalized for initial guess.
 HarFok:  IExCor=  402 AccDes= 0.00D+00 IRadAn=         5 IDoV= 1 UseB2=F ITyADJ=14
 ICtDFT=  3500011 ScaDFX=  1.000000  1.000000  1.000000  1.000000
 FoFCou: FMM=F IPFlag=           0 FMFlag=      100000 FMFlg1=           0
         NFxFlg=           0 DoJE=T BraDBF=F KetDBF=T FulRan=T
         wScrn=  0.000000 ICntrl=       500 IOpCl=  0 I1Cent=   200000004 NGrid=           0
         NMat0=    1 NMatS0=      1 NMatT0=    0 NMatD0=    1 NMtDS0=    0 NMtDT0=    0
 Petite list used in FoFCou.
 Requested convergence on RMS density matrix=1.00D-08 within  32 cycles.
 Requested convergence on MAX density matrix=1.00D-06.
 Requested convergence on             energy=1.00D-06.
 No special actions if energy rises.
 SCF Done:  E(RB3LYP) =  -3680.70546015     A.U. after   16 cycles
            NFock= 16  Conv=0.33D-08     -V/T= 2.0026
 QCSCF skips out because SCF is already converged.
 Calling FoFJK, ICntrl=      2127 FMM=F ISym2X=0 I1Cent= 0 IOpClX= 0 NMat=1 NMatS=1 NMatT=0.
 ***** Axes restored to original set *****
 -------------------------------------------------------------------
 Center     Atomic                   Forces (Hartrees/Bohr)
 Number     Number              X              Y              Z
 -------------------------------------------------------------------
      1        6          -0.011698091   -0.018092466    0.000455965
      2        6          -0.002591098    0.015150496    0.003699202
      3        6          -0.004292930   -0.007221606    0.000058142
      4        6           0.008795139    0.015028399   -0.000075308
      5        6          -0.004148060   -0.007284809   -0.000001537
      6        6           0.014925403    0.005607293   -0.003864164
      7        6           0.017268266    0.026596469   -0.000693919
      8        6          -0.018317899    0.005629108    0.007092248
      9        6           0.000944837    0.006778194    0.000961628
     10        6          -0.001194816   -0.005510678   -0.000641252
     11        6          -0.014535723    0.003063820    0.005364494
     12        6           0.011097558   -0.004079840   -0.004422460
     13        1           0.007059240    0.001841013   -0.001979979
     14        1          -0.001886787    0.006812464    0.001900948
     15        1           0.003104927   -0.005045280   -0.001970457
     16       17          -0.003590447   -0.005702713    0.000111916
     17       17           0.005232635   -0.005049192   -0.002672314
     18       17          -0.000518749   -0.006951818   -0.001134674
     19       17           0.007376027    0.004773020   -0.001533739
     20       17          -0.004039076   -0.006913343    0.000032319
     21       17          -0.005771410   -0.003849650    0.001178414
     22       17          -0.003218948   -0.015578880   -0.001865471
 -------------------------------------------------------------------
 Cartesian Forces:  Max     0.026596469 RMS     0.007876544

 GradGradGradGradGradGradGradGradGradGradGradGradGradGradGradGradGradGrad
 Berny optimization.
 Using GEDIIS/GDIIS optimizer.
 FormGI is forming the generalized inverse of G from B-inverse, IUseBI=4.
 Internal  Forces:  Max     0.032809654 RMS     0.006618027
 Search for a local minimum.
 Step number   2 out of a maximum of  121
 All quantities printed in internal units (Hartrees-Bohrs-Radians)
 Mixed Optimization -- RFO/linear search
 Update second derivatives using D2CorX and points    1    2
 DE= -7.40D-02 DEPred=-1.42D-01 R= 5.22D-01
 TightC=F SS=  1.41D+00  RLast= 3.00D-01 DXNew= 5.0454D-01 8.9996D-01
 Trust test= 5.22D-01 RLast= 3.00D-01 DXMaxT set to 5.05D-01
 ITU=  1  0
 Use linear search instead of GDIIS.
     Eigenvalues ---    0.00237   0.01460   0.01468   0.02070   0.02070
     Eigenvalues ---    0.02070   0.02070   0.02070   0.02070   0.02070
     Eigenvalues ---    0.02070   0.02070   0.02070   0.02070   0.02070
     Eigenvalues ---    0.02070   0.02070   0.02070   0.02070   0.16000
     Eigenvalues ---    0.16000   0.16084   0.23471   0.23474   0.23644
     Eigenvalues ---    0.24876   0.25000   0.25000   0.25000   0.25000
     Eigenvalues ---    0.25000   0.25000   0.25000   0.25000   0.25000
     Eigenvalues ---    0.25000   0.27899   0.29507   0.29536   0.29539
     Eigenvalues ---    0.29539   0.29539   0.29539   0.29539   0.36396
     Eigenvalues ---    0.37223   0.37230   0.38394   0.41391   0.41496
     Eigenvalues ---    0.41869   0.45071   0.45343   0.45389   0.45389
     Eigenvalues ---    0.45389   0.45389   0.45389   0.45389   1.59209
 RFO step:  Lambda=-1.21849999D-02 EMin= 2.36824243D-03
 Quartic linear search produced a step of  0.22658.
 Iteration  1 RMS(Cart)=  0.04003444 RMS(Int)=  0.00121898
 Iteration  2 RMS(Cart)=  0.00130393 RMS(Int)=  0.00006610
 Iteration  3 RMS(Cart)=  0.00000016 RMS(Int)=  0.00006610
 Variable       Old X    -DE/DX   Delta X   Delta X   Delta X     New X
                                 (Linear)    (Quad)   (Total)
    R1        2.66270   0.00034   0.00327  -0.00844  -0.00515   2.65755
    R2        2.66271   0.00032   0.00327  -0.00851  -0.00522   2.65749
    R3        2.99473  -0.00718   0.01916  -0.08770  -0.06854   2.92619
    R4        2.64338  -0.00997  -0.00111  -0.02312  -0.02423   2.61916
    R5        2.00119   0.00244  -0.00472   0.02141   0.01669   2.01789
    R6        2.63224  -0.00146  -0.00363   0.00652   0.00288   2.63512
    R7        3.32243  -0.00589  -0.00079  -0.02109  -0.02188   3.30055
    R8        2.63225  -0.00144  -0.00363   0.00655   0.00291   2.63516
    R9        3.32227  -0.00801  -0.00083  -0.02942  -0.03025   3.29202
   R10        2.64345  -0.00991  -0.00109  -0.02300  -0.02409   2.61935
   R11        3.32241  -0.00593  -0.00079  -0.02125  -0.02205   3.30036
   R12        2.00108   0.00249  -0.00474   0.02164   0.01690   2.01798
   R13        2.71374   0.00543   0.01484  -0.02703  -0.01203   2.70171
   R14        2.71447   0.00854   0.01500  -0.01721  -0.00211   2.71236
   R15        2.64172  -0.00962  -0.00148  -0.02312  -0.02454   2.61718
   R16        3.32084  -0.00068  -0.00115   0.00075  -0.00040   3.32044
   R17        2.61652  -0.01314  -0.00719  -0.01669  -0.02398   2.59254
   R18        2.02624   0.00623   0.00096   0.01710   0.01806   2.04429
   R19        2.62162  -0.00319  -0.00604   0.00825   0.00205   2.62367
   R20        3.32047  -0.00782  -0.00123  -0.02747  -0.02870   3.29177
   R21        2.64782   0.00963  -0.00010   0.02763   0.02747   2.67528
   R22        3.32042  -0.00567  -0.00125  -0.01884  -0.02008   3.30034
   R23        3.31966  -0.00236  -0.00142  -0.00514  -0.00656   3.31310
    A1        2.02951  -0.01275  -0.01470  -0.01565  -0.03032   1.99919
    A2        2.12579   0.00572   0.00711   0.00553   0.01263   2.13841
    A3        2.12789   0.00702   0.00759   0.01012   0.01770   2.14558
    A4        2.12839   0.00658   0.00770   0.00835   0.01606   2.14445
    A5        2.09754   0.00387   0.00071   0.03079   0.03150   2.12904
    A6        2.05726  -0.01045  -0.00841  -0.03914  -0.04756   2.00969
    A7        2.10339   0.00499   0.00204   0.01635   0.01838   2.12177
    A8        2.08576  -0.00889  -0.00196  -0.03517  -0.03712   2.04864
    A9        2.09404   0.00391  -0.00008   0.01882   0.01874   2.11278
   A10        2.07333  -0.01036  -0.00477  -0.03370  -0.03850   2.03484
   A11        2.10490   0.00515   0.00238   0.01672   0.01911   2.12401
   A12        2.10496   0.00521   0.00239   0.01698   0.01938   2.12434
   A13        2.10341   0.00499   0.00204   0.01639   0.01843   2.12184
   A14        2.09399   0.00387  -0.00009   0.01866   0.01857   2.11257
   A15        2.08578  -0.00886  -0.00195  -0.03505  -0.03700   2.04878
   A16        2.12833   0.00655   0.00769   0.00826   0.01596   2.14429
   A17        2.09739   0.00361   0.00068   0.02905   0.02972   2.12711
   A18        2.05746  -0.01016  -0.00837  -0.03731  -0.04568   2.01178
   A19        2.13334   0.01051   0.00883   0.01962   0.02831   2.16165
   A20        2.13445   0.00980   0.00908   0.01552   0.02445   2.15891
   A21        2.01539  -0.02030  -0.01790  -0.03514  -0.05276   1.96263
   A22        2.12145   0.01248   0.00613   0.03574   0.04210   2.16355
   A23        2.18912   0.02033   0.02146   0.02982   0.05117   2.24030
   A24        1.97261  -0.03281  -0.02759  -0.06556  -0.09327   1.87934
   A25        2.11499   0.00445   0.00467  -0.00018   0.00445   2.11944
   A26        2.08458  -0.00264  -0.00222  -0.00323  -0.00544   2.07915
   A27        2.08361  -0.00181  -0.00244   0.00341   0.00099   2.08460
   A28        2.08209  -0.00213  -0.00279  -0.00571  -0.00877   2.07332
   A29        2.09616  -0.00604   0.00040  -0.02727  -0.02673   2.06943
   A30        2.10494   0.00817   0.00239   0.03298   0.03550   2.14044
   A31        2.11256  -0.00259   0.00412  -0.02192  -0.01804   2.09452
   A32        2.08532  -0.00747  -0.00206  -0.03005  -0.03198   2.05333
   A33        2.08531   0.01006  -0.00206   0.05196   0.05002   2.13533
   A34        2.11990   0.00809   0.00578   0.02721   0.03302   2.15292
   A35        2.18591   0.00643   0.02074  -0.03833  -0.01761   2.16830
   A36        1.97737  -0.01452  -0.02651   0.01113  -0.01541   1.96197
    D1        0.00000  -0.00000   0.00000  -0.00000  -0.00000   0.00000
    D2        3.14159   0.00000   0.00000   0.00000   0.00000   3.14159
    D3       -3.14159  -0.00000  -0.00000  -0.00000  -0.00000   3.14159
    D4       -0.00000  -0.00000  -0.00000   0.00000  -0.00000  -0.00000
    D5       -0.00000   0.00000  -0.00000   0.00000   0.00000  -0.00000
    D6        3.14159  -0.00000  -0.00000  -0.00000  -0.00000   3.14159
    D7        3.14159   0.00000   0.00000   0.00000   0.00000  -3.14159
    D8       -0.00000  -0.00000  -0.00000  -0.00000  -0.00000  -0.00000
    D9       -0.00000  -0.00000  -0.00000  -0.00001  -0.00001  -0.00001
   D10        3.14159  -0.00000  -0.00000  -0.00001  -0.00001   3.14158
   D11        3.14159  -0.00000  -0.00000  -0.00001  -0.00001   3.14158
   D12       -0.00000  -0.00000  -0.00000  -0.00001  -0.00001  -0.00001
   D13        0.00000  -0.00000  -0.00000  -0.00000  -0.00000  -0.00000
   D14        3.14159   0.00000  -0.00000   0.00000   0.00000   3.14159
   D15       -3.14159  -0.00000  -0.00000  -0.00000  -0.00000  -3.14159
   D16        0.00000  -0.00000  -0.00000  -0.00000  -0.00000   0.00000
   D17       -0.00000   0.00000   0.00000   0.00000   0.00000  -0.00000
   D18        3.14159  -0.00000   0.00000  -0.00000  -0.00000   3.14159
   D19        3.14159   0.00000  -0.00000   0.00000   0.00000   3.14159
   D20        0.00000  -0.00000  -0.00000  -0.00000  -0.00000  -0.00000
   D21        0.00000  -0.00000   0.00000  -0.00000  -0.00000   0.00000
   D22       -3.14159  -0.00000   0.00000  -0.00000  -0.00000  -3.14159
   D23       -3.14159   0.00000  -0.00000   0.00000   0.00000  -3.14159
   D24        0.00000   0.00000   0.00000   0.00000   0.00000   0.00000
   D25       -0.00000   0.00000   0.00000   0.00000   0.00000  -0.00000
   D26        3.14159   0.00000   0.00000   0.00000   0.00000  -3.14159
   D27        3.14159   0.00000  -0.00000   0.00000   0.00000   3.14159
   D28       -0.00000   0.00000   0.00000   0.00000   0.00000   0.00000
   D29        3.14159   0.00000   0.00000   0.00000   0.00000  -3.14159
   D30        0.00000  -0.00000   0.00000  -0.00000  -0.00000   0.00000
   D31        0.00000   0.00000   0.00000   0.00000   0.00000   0.00000
   D32       -3.14159  -0.00000  -0.00000  -0.00000  -0.00000   3.14159
   D33       -3.14159  -0.00000  -0.00000  -0.00000  -0.00000   3.14159
   D34       -0.00000  -0.00000  -0.00000  -0.00000  -0.00000  -0.00000
   D35       -0.00000   0.00000   0.00000   0.00000   0.00000  -0.00000
   D36        3.14159   0.00000  -0.00000   0.00000   0.00000   3.14159
   D37       -0.00000  -0.00000  -0.00000  -0.00000  -0.00000  -0.00000
   D38        3.14159  -0.00000  -0.00000  -0.00000  -0.00000   3.14159
   D39        3.14159   0.00000   0.00000   0.00000   0.00000  -3.14159
   D40       -0.00000   0.00000   0.00000   0.00000   0.00000   0.00000
   D41       -0.00000   0.00000   0.00000   0.00000   0.00000   0.00000
   D42       -3.14159  -0.00000  -0.00000  -0.00000  -0.00000   3.14159
   D43        3.14159   0.00000   0.00000   0.00000   0.00000  -3.14159
   D44        0.00000  -0.00000   0.00000  -0.00000  -0.00000   0.00000
   D45        0.00000   0.00000   0.00000   0.00000   0.00000   0.00000
   D46       -3.14159  -0.00000  -0.00000  -0.00000  -0.00000  -3.14159
   D47        3.14159   0.00000   0.00000   0.00000   0.00000  -3.14159
   D48        0.00000  -0.00000   0.00000  -0.00000  -0.00000   0.00000
   D49        0.00000  -0.00000  -0.00000  -0.00000  -0.00000  -0.00000
   D50       -3.14159  -0.00000   0.00000  -0.00000  -0.00000  -3.14159
   D51        3.14159   0.00000   0.00000   0.00000   0.00000  -3.14159
   D52       -0.00000   0.00000   0.00000   0.00000   0.00000   0.00000
         Item               Value     Threshold  Converged?
 Maximum Force            0.032810     0.000450     NO 
 RMS     Force            0.006618     0.000300     NO 
 Maximum Displacement     0.219274     0.001800     NO 
[...]
                 (A) (A) (A) (A) (A) (A) (A) (A) (A) (A) (A) (A)
                 (A) (A) (A) (A) (A) (A) (A) (A) (A) (A) (A) (A)
                 (A) (A) (A) (A) (A) (A) (A) (A) (A) (A) (A) (A)
                 (A) (A) (A) (A) (A) (A) (A) (A) (A) (A) (A) (A)
                 (A) (A) (A) (A) (A) (A) (A) (A) (A) (A) (A) (A)
                 (A) (A) (A) (A) (A) (A) (A) (A) (A) (A) (A) (A)
                 (A) (A) (A) (A) (A) (A) (A) (A) (A) (A) (A) (A)
                 (A) (A) (A) (A) (A) (A) (A) (A) (A) (A) (A) (A)
                 (A) (A) (A) (A) (A) (A) (A) (A) (A) (A) (A) (A)
                 (A) (A) (A) (A) (A) (A) (A) (A) (A) (A) (A) (A)
                 (A) (A) (A) (A) (A) (A) (A) (A) (A) (A) (A) (A)
                 (A) (A) (A) (A) (A) (A) (A) (A) (A) (A) (A) (A)
                 (A) (A) (A) (A) (A) (A) (A) (A) (A) (A) (A) (A)
                 (A) (A) (A) (A) (A) (A) (A) (A) (A) (A) (A) (A)
                 (A) (A) (A) (A) (A) (A) (A) (A) (A) (A) (A) (A)
                 (A) (A) (A) (A) (A) (A) (A) (A) (A) (A) (A) (A)
                 (A) (A) (A) (A) (A) (A) (A) (A) (A) (A) (A) (A)
                 (A) (A) (A) (A) (A) (A) (A) (A) (A) (A) (A) (A)
                 (A) (A) (A) (A) (A) (A) (A)
 The electronic state is 1-A.
 Alpha  occ. eigenvalues -- -101.58458-101.58401-101.58373-101.58230-101.57726
 Alpha  occ. eigenvalues -- -101.57600-101.57600 -10.28728 -10.28454 -10.28399
 Alpha  occ. eigenvalues --  -10.28050 -10.27658 -10.27395 -10.27389 -10.24474
 Alpha  occ. eigenvalues --  -10.23237 -10.22856 -10.21806 -10.21804  -9.49915
 Alpha  occ. eigenvalues --   -9.49864  -9.49847  -9.49696  -9.49187  -9.49059
 Alpha  occ. eigenvalues --   -9.49058  -7.26409  -7.26369  -7.26340  -7.26176
 Alpha  occ. eigenvalues --   -7.25687  -7.25547  -7.25547  -7.25393  -7.25343
 Alpha  occ. eigenvalues --   -7.25332  -7.25328  -7.25260  -7.25247  -7.25176
 Alpha  occ. eigenvalues --   -7.25120  -7.24669  -7.24586  -7.24538  -7.24538
 Alpha  occ. eigenvalues --   -7.24477  -7.24477  -0.96656  -0.95103  -0.91844
 Alpha  occ. eigenvalues --   -0.91188  -0.90038  -0.88098  -0.87661  -0.85804
 Alpha  occ. eigenvalues --   -0.84250  -0.79567  -0.76482  -0.76144  -0.74538
 Alpha  occ. eigenvalues --   -0.66454  -0.64404  -0.64184  -0.61693  -0.55639
 Alpha  occ. eigenvalues --   -0.55398  -0.53587  -0.53002  -0.50048  -0.48830
 Alpha  occ. eigenvalues --   -0.47570  -0.47155  -0.46774  -0.46271  -0.45290
 Alpha  occ. eigenvalues --   -0.44450  -0.43042  -0.41508  -0.41295  -0.40322
 Alpha  occ. eigenvalues --   -0.39452  -0.38693  -0.36713  -0.36342  -0.36158
 Alpha  occ. eigenvalues --   -0.35207  -0.35202  -0.34730  -0.34158  -0.33993
 Alpha  occ. eigenvalues --   -0.33409  -0.32453  -0.32015  -0.28476  -0.27531
 Alpha  occ. eigenvalues --   -0.27372  -0.27321
 Alpha virt. eigenvalues --   -0.06801  -0.06485  -0.05759  -0.05222  -0.05176
 Alpha virt. eigenvalues --   -0.03745  -0.01046  -0.00537   0.00511   0.01246
 Alpha virt. eigenvalues --    0.01364   0.01660   0.01750   0.02189   0.02392
 Alpha virt. eigenvalues --    0.03195   0.04419   0.04456   0.05109   0.05659
 Alpha virt. eigenvalues --    0.05960   0.06229   0.06615   0.06947   0.07224
 Alpha virt. eigenvalues --    0.07477   0.08265   0.08585   0.08607   0.08786
 Alpha virt. eigenvalues --    0.09343   0.09532   0.09560   0.10359   0.10641
 Alpha virt. eigenvalues --    0.11124   0.11163   0.11531   0.11972   0.12042
 Alpha virt. eigenvalues --    0.12441   0.12703   0.13374   0.13511   0.14074
 Alpha virt. eigenvalues --    0.14076   0.14416   0.14857   0.15303   0.15553
 Alpha virt. eigenvalues --    0.16193   0.16502   0.17126   0.17495   0.17550
 Alpha virt. eigenvalues --    0.17853   0.18258   0.18261   0.18427   0.18825
 Alpha virt. eigenvalues --    0.19519   0.19848   0.20079   0.20623   0.20887
 Alpha virt. eigenvalues --    0.21499   0.21950   0.22199   0.22719   0.23193
 Alpha virt. eigenvalues --    0.23207   0.23620   0.24042   0.24562   0.24715
 Alpha virt. eigenvalues --    0.24742   0.25055   0.25537   0.26022   0.26643
 Alpha virt. eigenvalues --    0.26966   0.27060   0.27398   0.27678   0.28022
 Alpha virt. eigenvalues --    0.28407   0.29075   0.29160   0.29517   0.30272
 Alpha virt. eigenvalues --    0.30858   0.31369   0.31402   0.31440   0.31943
 Alpha virt. eigenvalues --    0.35062   0.36664   0.38719   0.40891   0.41767
 Alpha virt. eigenvalues --    0.42820   0.43156   0.43914   0.44031   0.44819
 Alpha virt. eigenvalues --    0.45082   0.45218   0.45324   0.45802   0.46018
 Alpha virt. eigenvalues --    0.46181   0.46735   0.47534   0.47716   0.47977
 Alpha virt. eigenvalues --    0.48232   0.48625   0.49742   0.50222   0.51075
 Alpha virt. eigenvalues --    0.52024   0.53856   0.54641   0.55304   0.55907
 Alpha virt. eigenvalues --    0.56975   0.57460   0.58057   0.59113   0.59557
 Alpha virt. eigenvalues --    0.59584   0.61197   0.61309   0.62293   0.62684
 Alpha virt. eigenvalues --    0.62962   0.63005   0.63608   0.63796   0.64923
 Alpha virt. eigenvalues --    0.65091   0.66737   0.67155   0.68529   0.68561
 Alpha virt. eigenvalues --    0.69184   0.69685   0.70045   0.70855   0.75118
 Alpha virt. eigenvalues --    0.77865   0.78463   0.79858   0.80799   0.81088
 Alpha virt. eigenvalues --    0.81466   0.82451   0.83009   0.83017   0.83570
 Alpha virt. eigenvalues --    0.83716   0.83947   0.84589   0.84622   0.84740
 Alpha virt. eigenvalues --    0.84743   0.84825   0.84892   0.85793   0.86029
 Alpha virt. eigenvalues --    0.86090   0.86484   0.87135   0.87500   0.87931
 Alpha virt. eigenvalues --    0.89594   0.90563   0.90946   0.91073   0.91420
 Alpha virt. eigenvalues --    0.92763   0.93323   0.93645   0.93842   0.94164
 Alpha virt. eigenvalues --    0.94620   0.95177   0.95636   0.96217   0.96365
 Alpha virt. eigenvalues --    0.96892   0.97706   0.97716   0.99276   1.01904
 Alpha virt. eigenvalues --    1.02124   1.02830   1.03765   1.05004   1.06736
 Alpha virt. eigenvalues --    1.08139   1.10184   1.12508   1.13199   1.16820
 Alpha virt. eigenvalues --    1.17618   1.18563   1.19331   1.21382   1.22776
 Alpha virt. eigenvalues --    1.23182   1.25988   1.26097   1.26438   1.27240
 Alpha virt. eigenvalues --    1.28212   1.28729   1.28943   1.29034   1.29757
 Alpha virt. eigenvalues --    1.30972   1.33509   1.35306   1.35721   1.37414
 Alpha virt. eigenvalues --    1.39364   1.43344   1.45309   1.47160   1.48355
 Alpha virt. eigenvalues --    1.54352   1.56139   1.57148   1.57771   1.57835
 Alpha virt. eigenvalues --    1.59466   1.60869   1.64581   1.66822   1.67937
 Alpha virt. eigenvalues --    1.70465   1.73528   1.76510   1.77934   1.79008
 Alpha virt. eigenvalues --    1.80188   1.80822   1.81258   1.82594   1.84642
 Alpha virt. eigenvalues --    1.85123   1.86012   1.90802   1.92228   1.93539
 Alpha virt. eigenvalues --    1.94655   1.94971   1.96933   1.98383   2.01583
 Alpha virt. eigenvalues --    2.02583   2.08612   2.10061   2.11128   2.11697
 Alpha virt. eigenvalues --    2.16766   2.20897   2.22222   2.23056   2.23578
 Alpha virt. eigenvalues --    2.25351   2.25449   2.25789   2.26080   2.27442
 Alpha virt. eigenvalues --    2.27640   2.28665   2.29781   2.30262   2.31444
 Alpha virt. eigenvalues --    2.33998   2.36093   2.39877   2.41249   2.41761
 Alpha virt. eigenvalues --    2.42176   2.43565   2.43839   2.47935   2.49619
 Alpha virt. eigenvalues --    2.51328   2.51728   2.54635   2.54787   2.55097
 Alpha virt. eigenvalues --    2.58085   2.60606   2.62306   2.63394   2.65325
 Alpha virt. eigenvalues --    2.67295   2.68261   2.68815   2.70666   2.72630
 Alpha virt. eigenvalues --    2.73787   2.74461   2.74609   2.76759   2.81968
 Alpha virt. eigenvalues --    2.82297   2.83749   2.88601   2.89075   2.96074
 Alpha virt. eigenvalues --    2.98405   3.05123   3.08209   3.08599   3.11387
 Alpha virt. eigenvalues --    3.11672   3.12129   3.14357   3.15611   3.20095
 Alpha virt. eigenvalues --    3.20505   3.23157   3.26906   3.33199   3.38872
 Alpha virt. eigenvalues --    3.41908   3.51315   3.62761   3.67371   3.69892
 Alpha virt. eigenvalues --    3.71749   3.77880   3.90841   4.00209   4.01110
 Alpha virt. eigenvalues --    4.07669   4.30686   4.79410   4.80842   9.74504
 Alpha virt. eigenvalues --    9.75134   9.78580   9.78925   9.80388   9.80899
 Alpha virt. eigenvalues --    9.83545  23.31490  23.47892  23.80443  23.82700
 Alpha virt. eigenvalues --   23.83328  23.87245  23.92673  23.93452  24.01334
 Alpha virt. eigenvalues --   24.03079  24.07042  24.14393  25.76843  25.77243
 Alpha virt. eigenvalues --   25.81096  25.82652  25.86208  25.89083  25.93222
 Alpha virt. eigenvalues --   26.08822  26.09321  26.10567  26.15127  26.15930
 Alpha virt. eigenvalues --   26.25296  26.35737  26.47557  26.50851  26.62317
 Alpha virt. eigenvalues --   26.62902  26.72704  26.90729  26.96414 215.73601
 Alpha virt. eigenvalues --  215.74134 215.78079 215.78438 215.80306 215.80656
 Alpha virt. eigenvalues --  215.84218
          Condensed to atoms (all electrons):
               1          2          3          4          5          6
     1  C   43.027197   6.631901 -12.116337   3.206602 -12.142417   6.651352
     2  C    6.631901  44.119000 -19.371467   7.110761 -13.700943   4.599997
     3  C  -12.116337 -19.371467  40.926812 -20.117093  14.446036 -13.790277
     4  C    3.206602   7.110761 -20.117093  40.368636 -20.086958   7.173329
     5  C  -12.142417 -13.700943  14.446036 -20.086958  40.918586 -19.484587
     6  C    6.651352   4.599997 -13.790277   7.173329 -19.484587  44.303269
     7  C   -4.680704 -15.079230  14.477481 -10.629642  14.496300 -15.130119
     8  C   -9.027972  -2.760451   0.356921   0.807529   0.360456  -2.767449
     9  C   -2.884981  -0.017044  -0.697541   0.671540  -0.700034  -0.022223
    10  C   -2.042015  -0.316089   0.164818  -0.091034   0.165688  -0.316744
    11  C   -4.697675  -1.170113   0.642239  -0.253313   0.643727  -1.171203
    12  C   -3.404985  -3.154982   1.186354  -0.563773   1.187936  -3.154523
    13  H    0.042178   0.070633   0.058516  -0.056023   0.024874  -0.060137
    14  H    0.042087  -0.060152   0.025119  -0.055985   0.059534   0.069195
    15  H    0.037312   0.000724  -0.000990   0.000216  -0.000988   0.000756
    16  Cl  -1.238809   0.111379   0.278032  -0.114653   0.279952   0.108448
    17  Cl  -0.239663  -0.066181   0.034375  -0.018634   0.034489  -0.066363
    18  Cl  -0.420479  -0.019135   0.386824  -0.862586   0.187307  -0.036850
    19  Cl  -0.148152  -0.027358   0.011221  -0.003335   0.011254  -0.027373
    20  Cl  -0.106551   0.788182  -1.366694   0.807236  -1.360359   0.796143
    21  Cl  -0.420142  -0.034333   0.190874  -0.864298   0.383089  -0.020813
    22  Cl  -0.282631  -0.169224   0.529218  -0.346118   0.528872  -0.168831
               7          8          9         10         11         12
     1  C   -4.680704  -9.027972  -2.884981  -2.042015  -4.697675  -3.404985
     2  C  -15.079230  -2.760451  -0.017044  -0.316089  -1.170113  -3.154982
     3  C   14.477481   0.356921  -0.697541   0.164818   0.642239   1.186354
     4  C  -10.629642   0.807529   0.671540  -0.091034  -0.253313  -0.563773
     5  C   14.496300   0.360456  -0.700034   0.165688   0.643727   1.187936
     6  C  -15.130119  -2.767449  -0.022223  -0.316744  -1.171203  -3.154523
     7  C   46.758248 -15.489117 -10.636962   0.080215  -2.028718   3.598120
     8  C  -15.489117  43.571274  -3.991669  -3.738298   5.614776  -7.191846
     9  C  -10.636962  -3.991669  31.248250   4.516604 -14.386168   4.274441
    10  C    0.080215  -3.738298   4.516604  26.327684 -10.510391  -7.446358
    11  C   -2.028718   5.614776 -14.386168 -10.510391  34.392580  -2.469118
    12  C    3.598120  -7.191846   4.274441  -7.446358  -2.469118  26.937568
    13  H    0.159601   0.040888   0.012340   0.009703  -0.001048   0.068586
    14  H    0.159898   0.040840   0.012367   0.009686  -0.001111   0.068613
    15  H    0.163211   0.027336   0.105234   0.001198   0.045944  -0.025292
    16  Cl  -0.636767   0.674265   1.116446   1.161594  -0.495307  -3.109377
    17  Cl  -0.800068   0.597618  -0.060609  -0.784132  -0.133289   0.921759
    18  Cl   0.086842  -0.036810  -0.005160   0.007415  -0.007304  -0.026459
    19  Cl   0.020182  -0.406040  -0.020299  -0.443130   0.346291  -0.025750
    20  Cl  -0.349304  -0.005807   0.001465  -0.004763   0.005009  -0.039862
    21  Cl   0.087336  -0.036684  -0.005082   0.007454  -0.007348  -0.026215
    22  Cl   0.995947  -0.662871  -1.661779  -0.820440   0.977341  -0.344912
              13         14         15         16         17         18
     1  C    0.042178   0.042087   0.037312  -1.238809  -0.239663  -0.420479
     2  C    0.070633  -0.060152   0.000724   0.111379  -0.066181  -0.019135
     3  C    0.058516   0.025119  -0.000990   0.278032   0.034375   0.386824
     4  C   -0.056023  -0.055985   0.000216  -0.114653  -0.018634  -0.862586
     5  C    0.024874   0.059534  -0.000988   0.279952   0.034489   0.187307
     6  C   -0.060137   0.069195   0.000756   0.108448  -0.066363  -0.036850
     7  C    0.159601   0.159898   0.163211  -0.636767  -0.800068   0.086842
     8  C    0.040888   0.040840   0.027336   0.674265   0.597618  -0.036810
     9  C    0.012340   0.012367   0.105234   1.116446  -0.060609  -0.005160
    10  C    0.009703   0.009686   0.001198   1.161594  -0.784132   0.007415
    11  C   -0.001048  -0.001111   0.045944  -0.495307  -0.133289  -0.007304
    12  C    0.068586   0.068613  -0.025292  -3.109377   0.921759  -0.026459
    13  H    0.514359   0.000021  -0.000001  -0.010173   0.000332   0.000319
    14  H    0.000021   0.514364  -0.000001  -0.010156   0.000333  -0.011189
    15  H   -0.000001  -0.000001   0.487894   0.000649  -0.001013  -0.000014
    16  Cl  -0.010173  -0.010156   0.000649  18.718446  -0.372028  -0.000329
    17  Cl   0.000332   0.000333  -0.001013  -0.372028  17.543361   0.000054
    18  Cl   0.000319  -0.011189  -0.000014  -0.000329   0.000054  17.424566
    19  Cl   0.000139   0.000138  -0.008701  -0.010553  -0.180753   0.000105
    20  Cl  -0.001815  -0.001820  -0.000000   0.008867  -0.000020  -0.233586
    21  Cl  -0.011163   0.000322  -0.000014  -0.000385   0.000055   0.019794
    22  Cl  -0.008707  -0.008691  -0.008538  -0.082578   0.009711  -0.000675
              19         20         21         22
     1  C   -0.148152  -0.106551  -0.420142  -0.282631
     2  C   -0.027358   0.788182  -0.034333  -0.169224
     3  C    0.011221  -1.366694   0.190874   0.529218
     4  C   -0.003335   0.807236  -0.864298  -0.346118
     5  C    0.011254  -1.360359   0.383089   0.528872
     6  C   -0.027373   0.796143  -0.020813  -0.168831
     7  C    0.020182  -0.349304   0.087336   0.995947
     8  C   -0.406040  -0.005807  -0.036684  -0.662871
     9  C   -0.020299   0.001465  -0.005082  -1.661779
    10  C   -0.443130  -0.004763   0.007454  -0.820440
    11  C    0.346291   0.005009  -0.007348   0.977341
    12  C   -0.025750  -0.039862  -0.026215  -0.344912
    13  H    0.000139  -0.001815  -0.011163  -0.008707
    14  H    0.000138  -0.001820   0.000322  -0.008691
    15  H   -0.008701  -0.000000  -0.000014  -0.008538
    16  Cl  -0.010553   0.008867  -0.000385  -0.082578
    17  Cl  -0.180753  -0.000020   0.000055   0.009711
    18  Cl   0.000105  -0.233586   0.019794  -0.000675
    19  Cl  17.416074  -0.000005   0.000105  -0.038493
    20  Cl  -0.000005  17.662413  -0.233169   0.006857
    21  Cl   0.000105  -0.233169  17.423900  -0.000722
    22  Cl  -0.038493   0.006857  -0.000722  18.138199
 Mulliken charges:
               1
     1  C    0.214885
     2  C   -1.485875
     3  C   -0.254440
     4  C   -0.082403
     5  C   -0.251813
     6  C   -1.484998
     7  C    0.377249
     8  C    0.023110
     9  C   -0.869135
    10  C    0.061335
    11  C    0.664199
    12  C   -1.259928
    13  H    0.146580
    14  H    0.146587
    15  H    0.175078
    16  Cl   0.623036
    17  Cl   0.580665
    18  Cl   0.547351
    19  Cl   0.534434
    20  Cl   0.627582
    21  Cl   0.547439
    22  Cl   0.419064
 Sum of Mulliken charges =  -0.00000
 Mulliken charges with hydrogens summed into heavy atoms:
               1
     1  C    0.214885
     2  C   -1.339295
     3  C   -0.254440
     4  C   -0.082403
     5  C   -0.251813
     6  C   -1.338411
     7  C    0.377249
     8  C    0.023110
     9  C   -0.694057
    10  C    0.061335
    11  C    0.664199
    12  C   -1.259928
    16  Cl   0.623036
    17  Cl   0.580665
    18  Cl   0.547351
    19  Cl   0.534434
    20  Cl   0.627582
    21  Cl   0.547439
    22  Cl   0.419064
 Electronic spatial extent (au):  <R**2>=          10294.9133
 Charge=             -0.0000 electrons
 Dipole moment (field-independent basis, Debye):
    X=             -1.6096    Y=              0.9072    Z=              0.0030  Tot=              1.8477
 Quadrupole moment (field-independent basis, Debye-Ang):
   XX=           -164.3647   YY=           -156.7860   ZZ=           -156.1499
   XY=             -3.3390   XZ=             -0.0078   YZ=             -0.0042
 Traceless Quadrupole moment (field-independent basis, Debye-Ang):
   XX=             -5.2645   YY=              2.3142   ZZ=              2.9503
   XY=             -3.3390   XZ=             -0.0078   YZ=             -0.0042
 Octapole moment (field-independent basis, Debye-Ang**2):
  XXX=             -9.0817  YYY=             -6.9593  ZZZ=             -0.0176  XYY=             -8.3556
  XXY=              8.2760  XXZ=              0.0166  XZZ=              1.4864  YZZ=             -2.7826
  YYZ=             -0.0043  XYZ=             -0.0232
 Hexadecapole moment (field-independent basis, Debye-Ang**3):
 XXXX=          -9890.8661 YYYY=          -1885.4810 ZZZZ=          -1495.0134 XXXY=            -18.2989
 XXXZ=             -0.0814 YYYX=             16.6463 YYYZ=              0.3375 ZZZX=              0.0364
 ZZZY=             -0.3089 XXYY=          -1939.8942 XXZZ=          -1927.8218 YYZZ=           -599.3466
 XXYZ=              0.1345 YYXZ=              0.0208 ZZXY=              5.6801
 N-N= 2.300201256206D+03 E-N=-1.332147494186D+04  KE= 3.671256960430D+03
 1\1\GINC-CN138\FOpt\RB3LYP\6-311+G(d,p)\C12H3Cl7\20CY91R06\25-Mar-2022
 \0\\# opt b3lyp/6-311+g(d,p) scf=xqc\\Title Card Required\\0,1\C,0.576
 8578847,0.7750629702,-0.0031972503\C,1.8620141343,0.8263087951,0.53224
 73984\C,2.574383166,2.0204639587,0.5275532088\C,2.018836263,3.18887954
 84,-0.0122506263\C,0.7252587297,3.1210283036,-0.5480763542\C,0.0114950
 601,1.9276254713,-0.5441724022\C,-0.1852473883,-0.5092084366,-0.005339
 3743\C,-0.0960810103,-1.4077852347,-1.0751133497\C,-0.7981487816,-2.60
 51859753,-1.0917043856\C,-1.6176415052,-2.9326887576,-0.0194715937\C,-
 1.7422606474,-2.0688155369,1.0753576033\C,-1.0208751503,-0.8648408052,
 1.0656777963\H,2.3184866271,-0.0582775428,0.9562666913\H,-0.9849312899
 ,1.9080281498,-0.965264422\H,-0.7105680783,-3.2804426042,-1.9309510937
 \Cl,-1.158876316,0.2283336701,2.4176909247\Cl,-2.7677355679,-2.4824204
 028,2.4125309067\Cl,-0.0326818642,4.5336011188,-1.2387316132\Cl,-2.482
 2770704,-4.4448188831,-0.0783119003\Cl,2.9089105799,4.6786617345,-0.01
 79723423\Cl,4.1801568525,2.0262696936,1.2118343813\Cl,0.9237796523,-1.
 0392629949,-2.4504871631\\Version=EM64L-G16RevB.01\State=1-A\HF=-3680.
 7467396\RMSD=7.435e-09\RMSF=2.530e-05\Dipole=-0.2276648,-0.638814,-0.2
 617812\Quadrupole=-0.5863526,-0.7938129,1.3801655,-2.9951824,1.7138076
 ,2.0882197\PG=C01 [X(C12H3Cl7)]\\@


 WHEN YOU REACH FOR THE STARS, YOU MAY NOT QUITE GET ONE,
 BUT YOU WON'T COME UP WITH A HANDFUL OF MUD, EITHER.

                                         -- LEO BURNETT (AD AGENCY HEAD)
 Job cpu time:       0 days 10 hours 37 minutes 35.4 seconds.
 Elapsed time:       0 days 10 hours 37 minutes 35.6 seconds.
 File lengths (MBytes):  RWF=    163 Int=      0 D2E=      0 Chk=     25 Scr=      1
 Normal termination of Gaussian 16 at Fri Mar 25 11:40:23 2022.
