 Entering Gaussian System, Link 0=g16
 Input=2,3,3prime,4-Tetrachlorobiphenyl.gjf
 Output=2,3,3prime,4-Tetrachlorobiphenyl.log
 Initial command:
 /usr/local/g16/l1.exe "/scratch/pkc/Gau-53135.inp" -scrdir="/scratch/pkc/"
 Entering Link 1 = /usr/local/g16/l1.exe PID=     53136.
  
 Copyright (c) 1988-2017, Gaussian, Inc.  All Rights Reserved.
  
 This is part of the Gaussian(R) 16 program.  It is based on
 the Gaussian(R) 09 system (copyright 2009, Gaussian, Inc.),
 the Gaussian(R) 03 system (copyright 2003, Gaussian, Inc.),
 the Gaussian(R) 98 system (copyright 1998, Gaussian, Inc.),
 the Gaussian(R) 94 system (copyright 1995, Gaussian, Inc.),
 the Gaussian 92(TM) system (copyright 1992, Gaussian, Inc.),
 the Gaussian 90(TM) system (copyright 1990, Gaussian, Inc.),
 the Gaussian 88(TM) system (copyright 1988, Gaussian, Inc.),
 the Gaussian 86(TM) system (copyright 1986, Carnegie Mellon
 University), and the Gaussian 82(TM) system (copyright 1983,
 Carnegie Mellon University). Gaussian is a federally registered
 trademark of Gaussian, Inc.
  
 This software contains proprietary and confidential information,
 including trade secrets, belonging to Gaussian, Inc.
  
 This software is provided under written license and may be
 used, copied, transmitted, or stored only in accord with that
 written license.
  
 The following legend is applicable only to US Government
 contracts under FAR:
  
                    RESTRICTED RIGHTS LEGEND
  
 Use, reproduction and disclosure by the US Government is
 subject to restrictions as set forth in subparagraphs (a)
 and (c) of the Commercial Computer Software - Restricted
 Rights clause in FAR 52.227-19.
  
 Gaussian, Inc.
 340 Quinnipiac St., Bldg. 40, Wallingford CT 06492
  
  
 ---------------------------------------------------------------
 Warning -- This program may not be used in any manner that
 competes with the business of Gaussian, Inc. or will provide
 assistance to any competitor of Gaussian, Inc.  The licensee
 of this program is prohibited from giving any competitor of
 Gaussian, Inc. access to this program.  By using this program,
 the user acknowledges that Gaussian, Inc. is engaged in the
 business of creating and licensing software in the field of
 computational chemistry and represents and warrants to the
 licensee that it is not a competitor of Gaussian, Inc. and that
 it will not use this program in any manner prohibited above.
 ---------------------------------------------------------------
  

 Cite this work as:
 Gaussian 16, Revision B.01,
 M. J. Frisch, G. W. Trucks, H. B. Schlegel, G. E. Scuseria, 
 M. A. Robb, J. R. Cheeseman, G. Scalmani, V. Barone, 
 G. A. Petersson, H. Nakatsuji, X. Li, M. Caricato, A. V. Marenich, 
 J. Bloino, B. G. Janesko, R. Gomperts, B. Mennucci, H. P. Hratchian, 
 J. V. Ortiz, A. F. Izmaylov, J. L. Sonnenberg, D. Williams-Young, 
 F. Ding, F. Lipparini, F. Egidi, J. Goings, B. Peng, A. Petrone, 
 T. Henderson, D. Ranasinghe, V. G. Zakrzewski, J. Gao, N. Rega, 
 G. Zheng, W. Liang, M. Hada, M. Ehara, K. Toyota, R. Fukuda, 
 J. Hasegawa, M. Ishida, T. Nakajima, Y. Honda, O. Kitao, H. Nakai, 
 T. Vreven, K. Throssell, J. A. Montgomery, Jr., J. E. Peralta, 
 F. Ogliaro, M. J. Bearpark, J. J. Heyd, E. N. Brothers, K. N. Kudin, 
 V. N. Staroverov, T. A. Keith, R. Kobayashi, J. Normand, 
 K. Raghavachari, A. P. Rendell, J. C. Burant, S. S. Iyengar, 
 J. Tomasi, M. Cossi, J. M. Millam, M. Klene, C. Adamo, R. Cammi, 
 J. W. Ochterski, R. L. Martin, K. Morokuma, O. Farkas, 
 J. B. Foresman, and D. J. Fox, Gaussian, Inc., Wallingford CT, 2016.
 
 ******************************************
 Gaussian 16:  EM64L-G16RevB.01 20-Dec-2017
                15-Mar-2022 
 ******************************************
 %mem=10GB
 %nprocshared=4
 Will use up to    4 processors via shared memory.
 --------------------------------
 # opt b3lyp/6-311+g(d,p) scf=xqc
 --------------------------------
 1/18=20,19=15,26=3,38=1/1,3;
 2/9=110,12=2,17=6,18=5,40=1/2;
 3/5=4,6=6,7=111,11=2,25=1,30=1,71=1,74=-5/1,2,3;
 4//1;
 5/5=2,8=3,13=1,38=5/2,8;
 6/7=2,8=2,9=2,10=2,28=1/1;
 7//1,2,3,16;
 1/18=20,19=15,26=3/3(2);
 2/9=110/2;
 99//99;
 2/9=110/2;
 3/5=4,6=6,7=111,11=2,25=1,30=1,71=1,74=-5/1,2,3;
 4/5=5,16=3,69=1/1;
 5/5=2,8=3,13=1,38=5/2,8;
 7//1,2,3,16;
 1/18=20,19=15,26=3/3(-5);
 2/9=110/2;
 6/7=2,8=2,9=2,10=2,19=2,28=1/1;
 99/9=1/99;
 -------------------
 Title Card Required
 -------------------
 Symbolic Z-matrix:
 Charge =  0 Multiplicity = 1
 C                    -0.39185   0.00151  -0.00285 
 C                     0.94053   0.03139  -0.4362 
 C                     1.64843   1.24084  -0.44227 
 C                     1.02394   2.42041  -0.015 
 C                    -0.30844   2.39052   0.41835 
 C                    -1.01633   1.18107   0.42442 
 C                    -1.16975  -1.32756   0.00382 
 C                    -0.54526  -2.50712  -0.42345 
 C                    -1.25316  -3.71658  -0.41738 
 C                    -2.58554  -3.74646   0.01597 
 C                    -3.21002  -2.5669    0.44325 
 C                    -2.50213  -1.35745   0.43717 
 H                     1.41735  -0.86923  -0.76243 
 H                     2.66573   1.26366  -0.77314 
 H                     1.56443   3.34385  -0.01963 
 H                    -2.03364   1.15826   0.75529 
 H                     0.47204  -2.48431  -0.75432 
 H                    -0.77635  -4.6172   -0.74361 
 Cl                   -3.28642   0.12395   0.97378 
 Cl                   -4.88334  -2.60443   0.98749 
 Cl                   -1.09273   3.87193   0.95495 
 Cl                   -3.47457  -5.2654    0.0236 
 

 GradGradGradGradGradGradGradGradGradGradGradGradGradGradGradGradGradGrad
 Berny optimization.
 Initialization pass.
                           ----------------------------
                           !    Initial Parameters    !
                           ! (Angstroms and Degrees)  !
 --------------------------                            --------------------------
 ! Name  Definition              Value          Derivative Info.                !
 --------------------------------------------------------------------------------
 ! R1    R(1,2)                  1.4014         estimate D2E/DX2                !
 ! R2    R(1,6)                  1.4014         estimate D2E/DX2                !
 ! R3    R(1,7)                  1.54           estimate D2E/DX2                !
 ! R4    R(2,3)                  1.4014         estimate D2E/DX2                !
 ! R5    R(2,13)                 1.07           estimate D2E/DX2                !
 ! R6    R(3,4)                  1.4014         estimate D2E/DX2                !
 ! R7    R(3,14)                 1.07           estimate D2E/DX2                !
 ! R8    R(4,5)                  1.4014         estimate D2E/DX2                !
 ! R9    R(4,15)                 1.07           estimate D2E/DX2                !
 ! R10   R(5,6)                  1.4014         estimate D2E/DX2                !
 ! R11   R(5,21)                 1.76           estimate D2E/DX2                !
 ! R12   R(6,16)                 1.07           estimate D2E/DX2                !
 ! R13   R(7,8)                  1.4014         estimate D2E/DX2                !
 ! R14   R(7,12)                 1.4014         estimate D2E/DX2                !
 ! R15   R(8,9)                  1.4014         estimate D2E/DX2                !
 ! R16   R(8,17)                 1.07           estimate D2E/DX2                !
 ! R17   R(9,10)                 1.4014         estimate D2E/DX2                !
 ! R18   R(9,18)                 1.07           estimate D2E/DX2                !
 ! R19   R(10,11)                1.4014         estimate D2E/DX2                !
 ! R20   R(10,22)                1.76           estimate D2E/DX2                !
 ! R21   R(11,12)                1.4014         estimate D2E/DX2                !
 ! R22   R(11,20)                1.76           estimate D2E/DX2                !
 ! R23   R(12,19)                1.76           estimate D2E/DX2                !
 ! A1    A(2,1,6)              120.0            estimate D2E/DX2                !
 ! A2    A(2,1,7)              120.0            estimate D2E/DX2                !
 ! A3    A(6,1,7)              120.0            estimate D2E/DX2                !
 ! A4    A(1,2,3)              120.0            estimate D2E/DX2                !
 ! A5    A(1,2,13)             120.0            estimate D2E/DX2                !
 ! A6    A(3,2,13)             120.0            estimate D2E/DX2                !
 ! A7    A(2,3,4)              120.0            estimate D2E/DX2                !
 ! A8    A(2,3,14)             120.0            estimate D2E/DX2                !
 ! A9    A(4,3,14)             120.0            estimate D2E/DX2                !
 ! A10   A(3,4,5)              120.0            estimate D2E/DX2                !
 ! A11   A(3,4,15)             120.0            estimate D2E/DX2                !
 ! A12   A(5,4,15)             120.0            estimate D2E/DX2                !
 ! A13   A(4,5,6)              120.0            estimate D2E/DX2                !
 ! A14   A(4,5,21)             120.0            estimate D2E/DX2                !
 ! A15   A(6,5,21)             120.0            estimate D2E/DX2                !
 ! A16   A(1,6,5)              120.0            estimate D2E/DX2                !
 ! A17   A(1,6,16)             120.0            estimate D2E/DX2                !
 ! A18   A(5,6,16)             120.0            estimate D2E/DX2                !
 ! A19   A(1,7,8)              120.0            estimate D2E/DX2                !
 ! A20   A(1,7,12)             120.0            estimate D2E/DX2                !
 ! A21   A(8,7,12)             120.0            estimate D2E/DX2                !
 ! A22   A(7,8,9)              120.0            estimate D2E/DX2                !
 ! A23   A(7,8,17)             120.0            estimate D2E/DX2                !
 ! A24   A(9,8,17)             120.0            estimate D2E/DX2                !
 ! A25   A(8,9,10)             120.0            estimate D2E/DX2                !
 ! A26   A(8,9,18)             120.0            estimate D2E/DX2                !
 ! A27   A(10,9,18)            120.0            estimate D2E/DX2                !
 ! A28   A(9,10,11)            120.0            estimate D2E/DX2                !
 ! A29   A(9,10,22)            120.0            estimate D2E/DX2                !
 ! A30   A(11,10,22)           120.0            estimate D2E/DX2                !
 ! A31   A(10,11,12)           120.0            estimate D2E/DX2                !
 ! A32   A(10,11,20)           120.0            estimate D2E/DX2                !
 ! A33   A(12,11,20)           120.0            estimate D2E/DX2                !
 ! A34   A(7,12,11)            120.0            estimate D2E/DX2                !
 ! A35   A(7,12,19)            120.0            estimate D2E/DX2                !
 ! A36   A(11,12,19)           120.0            estimate D2E/DX2                !
 ! D1    D(6,1,2,3)              0.0001         estimate D2E/DX2                !
 ! D2    D(6,1,2,13)           180.0            estimate D2E/DX2                !
 ! D3    D(7,1,2,3)           -180.0            estimate D2E/DX2                !
 ! D4    D(7,1,2,13)            -0.0001         estimate D2E/DX2                !
 ! D5    D(2,1,6,5)             -0.0001         estimate D2E/DX2                !
 ! D6    D(2,1,6,16)           180.0            estimate D2E/DX2                !
 ! D7    D(7,1,6,5)            180.0            estimate D2E/DX2                !
 ! D8    D(7,1,6,16)             0.0            estimate D2E/DX2                !
 ! D9    D(2,1,7,8)             -0.0001         estimate D2E/DX2                !
 ! D10   D(2,1,7,12)           179.9998         estimate D2E/DX2                !
 ! D11   D(6,1,7,8)            179.9999         estimate D2E/DX2                !
 ! D12   D(6,1,7,12)            -0.0002         estimate D2E/DX2                !
 ! D13   D(1,2,3,4)              0.0            estimate D2E/DX2                !
 ! D14   D(1,2,3,14)           180.0            estimate D2E/DX2                !
 ! D15   D(13,2,3,4)          -179.9999         estimate D2E/DX2                !
 ! D16   D(13,2,3,14)            0.0001         estimate D2E/DX2                !
 ! D17   D(2,3,4,5)             -0.0001         estimate D2E/DX2                !
 ! D18   D(2,3,4,15)           180.0            estimate D2E/DX2                !
 ! D19   D(14,3,4,5)           179.9999         estimate D2E/DX2                !
 ! D20   D(14,3,4,15)            0.0            estimate D2E/DX2                !
 ! D21   D(3,4,5,6)              0.0001         estimate D2E/DX2                !
 ! D22   D(3,4,5,21)          -179.9999         estimate D2E/DX2                !
 ! D23   D(15,4,5,6)          -180.0            estimate D2E/DX2                !
 ! D24   D(15,4,5,21)            0.0            estimate D2E/DX2                !
 ! D25   D(4,5,6,1)              0.0            estimate D2E/DX2                !
 ! D26   D(4,5,6,16)           179.9999         estimate D2E/DX2                !
 ! D27   D(21,5,6,1)           180.0            estimate D2E/DX2                !
 ! D28   D(21,5,6,16)           -0.0001         estimate D2E/DX2                !
 ! D29   D(1,7,8,9)            179.9999         estimate D2E/DX2                !
 ! D30   D(1,7,8,17)             0.0001         estimate D2E/DX2                !
 ! D31   D(12,7,8,9)             0.0001         estimate D2E/DX2                !
 ! D32   D(12,7,8,17)         -179.9998         estimate D2E/DX2                !
 ! D33   D(1,7,12,11)         -179.9999         estimate D2E/DX2                !
 ! D34   D(1,7,12,19)            0.0            estimate D2E/DX2                !
 ! D35   D(8,7,12,11)           -0.0001         estimate D2E/DX2                !
 ! D36   D(8,7,12,19)          179.9999         estimate D2E/DX2                !
 ! D37   D(7,8,9,10)             0.0            estimate D2E/DX2                !
 ! D38   D(7,8,9,18)           180.0            estimate D2E/DX2                !
 ! D39   D(17,8,9,10)          179.9998         estimate D2E/DX2                !
 ! D40   D(17,8,9,18)           -0.0002         estimate D2E/DX2                !
 ! D41   D(8,9,10,11)            0.0            estimate D2E/DX2                !
 ! D42   D(8,9,10,22)         -179.9999         estimate D2E/DX2                !
 ! D43   D(18,9,10,11)         180.0            estimate D2E/DX2                !
 ! D44   D(18,9,10,22)           0.0001         estimate D2E/DX2                !
 ! D45   D(9,10,11,12)           0.0            estimate D2E/DX2                !
 ! D46   D(9,10,11,20)        -179.9998         estimate D2E/DX2                !
 ! D47   D(22,10,11,12)        179.9999         estimate D2E/DX2                !
 ! D48   D(22,10,11,20)          0.0001         estimate D2E/DX2                !
 ! D49   D(10,11,12,7)           0.0            estimate D2E/DX2                !
 ! D50   D(10,11,12,19)       -179.9999         estimate D2E/DX2                !
 ! D51   D(20,11,12,7)         179.9999         estimate D2E/DX2                !
 ! D52   D(20,11,12,19)         -0.0001         estimate D2E/DX2                !
 --------------------------------------------------------------------------------
 Trust Radius=3.00D-01 FncErr=1.00D-07 GrdErr=1.00D-06 EigMax=2.50D+02 EigMin=1.00D-04
 Number of steps in this run=    121 maximum allowed number of steps=    132.
 GradGradGradGradGradGradGradGradGradGradGradGradGradGradGradGradGradGrad

                          Input orientation:                          
 ---------------------------------------------------------------------
 Center     Atomic      Atomic             Coordinates (Angstroms)
 Number     Number       Type             X           Y           Z
 ---------------------------------------------------------------------
      1          6           0       -0.391846    0.001508   -0.002851
      2          6           0        0.940535    0.031394   -0.436198
      3          6           0        1.648428    1.240845   -0.442270
      4          6           0        1.023941    2.420410   -0.014995
      5          6           0       -0.308441    2.390524    0.418349
      6          6           0       -1.016334    1.181073    0.424422
      7          6           0       -1.169751   -1.327559    0.003823
      8          6           0       -0.545264   -2.507124   -0.423452
      9          6           0       -1.253157   -3.716576   -0.417378
     10          6           0       -2.585537   -3.746462    0.015972
     11          6           0       -3.210024   -2.566897    0.443247
     12          6           0       -2.502131   -1.357446    0.437173
     13          1           0        1.417345   -0.869231   -0.762430
     14          1           0        2.665731    1.263663   -0.773139
     15          1           0        1.564434    3.343853   -0.019631
     16          1           0       -2.033637    1.158255    0.755291
     17          1           0        0.472039   -2.484306   -0.754322
     18          1           0       -0.776347   -4.617200   -0.743612
     19         17           0       -3.286416    0.123954    0.973785
     20         17           0       -4.883341   -2.604432    0.987490
     21         17           0       -1.092727    3.871926    0.954955
     22         17           0       -3.474569   -5.265397    0.023603
 ---------------------------------------------------------------------
                    Distance matrix (angstroms):
                    1          2          3          4          5
     1  C    0.000000
     2  C    1.401400   0.000000
     3  C    2.427296   1.401400   0.000000
     4  C    2.802800   2.427296   1.401400   0.000000
     5  C    2.427296   2.802800   2.427296   1.401400   0.000000
     6  C    1.401400   2.427296   2.802800   2.427296   1.401400
     7  C    1.540000   2.548270   3.838989   4.342800   3.838989
     8  C    2.548270   2.941400   4.342800   5.187469   4.975106
     9  C    3.838989   4.342800   5.744200   6.558176   6.235992
    10  C    4.342800   5.187469   6.558176   7.145600   6.558176
    11  C    3.838989   4.975106   6.235992   6.558176   5.744200
    12  C    2.548270   3.813607   4.975106   5.187469   4.342800
    13  H    2.146700   1.070000   2.146700   3.396345   3.872800
    14  H    3.396345   2.146700   1.070000   2.146700   3.396345
    15  H    3.872800   3.396345   2.146700   1.070000   2.146700
    16  H    2.146700   3.396345   3.872800   3.396345   2.146700
    17  H    2.736837   2.578650   3.918930   4.990735   5.074276
    18  H    4.693509   4.965039   6.347206   7.300676   7.118798
    19  Cl   3.057342   4.456874   5.254079   4.983028   3.783409
    20  Cl   5.286324   6.549198   7.713260   7.819846   6.797295
    21  Cl   4.048303   4.562800   4.048303   2.743718   1.760000
    22  Cl   6.102800   6.910901   8.294174   8.905600   8.294174
                    6          7          8          9         10
     6  C    0.000000
     7  C    2.548270   0.000000
     8  C    3.813607   1.401400   0.000000
     9  C    4.975106   2.427296   1.401400   0.000000
    10  C    5.187469   2.802800   2.427296   1.401400   0.000000
    11  C    4.342800   2.427296   2.802800   2.427296   1.401400
    12  C    2.941400   1.401400   2.427296   2.802800   2.427296
    13  H    3.396345   2.736837   2.578650   3.918930   4.990735
    14  H    3.872800   4.693509   4.965039   6.347206   7.300676
    15  H    3.396345   5.412800   6.232802   7.612271   8.215600
    16  H    1.070000   2.736837   4.127917   5.074276   4.990735
    17  H    4.127917   2.146700   1.070000   2.146700   3.396345
    18  H    5.919617   3.396345   2.146700   1.070000   2.146700
    19  Cl   2.563702   2.743718   4.048303   4.562800   4.048303
    20  Cl   5.440665   4.048303   4.562800   4.048303   2.743718
    21  Cl   2.743718   5.286324   6.549198   7.713260   7.819846
    22  Cl   6.910901   4.562800   4.048303   2.743718   1.760000
                   11         12         13         14         15
    11  C    0.000000
    12  C    1.401400   0.000000
    13  H    5.074276   4.127917   0.000000
    14  H    7.118798   5.919617   2.471400   0.000000
    15  H    7.612271   6.232802   4.280590   2.471400   0.000000
    16  H    3.918930   2.578650   4.280590   4.942800   4.280590
    17  H    3.872800   3.396345   1.871400   4.342800   5.974992
    18  H    3.396345   3.872800   4.342800   6.814200   8.329571
    19  Cl   2.743718   1.760000   5.111382   6.307038   5.906383
    20  Cl   1.760000   2.743718   6.765486   8.663168   8.830073
    21  Cl   6.797295   5.440665   5.632800   4.890332   2.879094
    22  Cl   2.743718   4.048303   6.623817   8.998151   9.975600
                   16         17         18         19         20
    16  H    0.000000
    17  H    4.671787   0.000000
    18  H    6.097816   2.471400   0.000000
    19  Cl   1.639199   4.890332   5.632800   0.000000
    20  Cl   4.725732   5.632800   4.890332   3.161400   0.000000
    21  Cl   2.879094   6.765486   8.663168   4.342800   7.504200
    22  Cl   6.623817   4.890332   2.879094   5.475705   3.161400
                   21         22
    21  Cl   0.000000
    22  Cl   9.488480   0.000000
 Stoichiometry    C12H6Cl4
 Framework group  C1[X(C12H6Cl4)]
 Deg. of freedom    60
 Full point group                 C1      NOp   1
 Largest Abelian subgroup         C1      NOp   1
 Largest concise Abelian subgroup C1      NOp   1
                         Standard orientation:                         
 ---------------------------------------------------------------------
 Center     Atomic      Atomic             Coordinates (Angstroms)
 Number     Number       Type             X           Y           Z
 ---------------------------------------------------------------------
      1          6           0       -1.363810    0.996587   -0.000001
      2          6           0       -1.989927    2.250342    0.000002
      3          6           0       -3.388769    2.334985    0.000005
      4          6           0       -4.161493    1.165875    0.000005
      5          6           0       -3.535376   -0.087879   -0.000000
      6          6           0       -2.136535   -0.172523   -0.000002
      7          6           0        0.173378    0.903572   -0.000002
      8          6           0        0.946102    2.072683   -0.000003
      9          6           0        2.344944    1.988039   -0.000003
     10          6           0        2.971061    0.734285   -0.000003
     11          6           0        2.198337   -0.434826   -0.000002
     12          6           0        0.799495   -0.350182   -0.000001
     13          1           0       -1.399935    3.142983    0.000004
     14          1           0       -3.866823    3.292254    0.000007
     15          1           0       -5.229540    1.230502    0.000007
     16          1           0       -1.658480   -1.129792   -0.000005
     17          1           0        0.468048    3.029952   -0.000000
     18          1           0        2.934936    2.880681   -0.000004
     19         17           0       -0.170959   -1.818452    0.000002
     20         17           0        2.984669   -2.009399    0.000003
     21         17           0       -4.505831   -1.556150   -0.000003
     22         17           0        4.727848    0.627982   -0.000000
 ---------------------------------------------------------------------
 Rotational constants (GHZ):           0.7550389           0.1851898           0.1487144
 Standard basis: 6-311+G(d,p) (5D, 7F)
 There are   436 symmetry adapted cartesian basis functions of A   symmetry.
 There are   420 symmetry adapted basis functions of A   symmetry.
   420 basis functions,   692 primitive gaussians,   436 cartesian basis functions
    73 alpha electrons       73 beta electrons
       nuclear repulsion energy      1449.8517510467 Hartrees.
 NAtoms=   22 NActive=   22 NUniq=   22 SFac= 1.00D+00 NAtFMM=   60 NAOKFM=F Big=F
 Integral buffers will be    131072 words long.
 Raffenetti 2 integral format.
 Two-electron integral symmetry is turned on.
 One-electron integrals computed using PRISM.
 NBasis=   420 RedAO= T EigKep=  1.68D-06  NBF=   420
 NBsUse=   414 1.00D-06 EigRej=  9.12D-07 NBFU=   414
 ExpMin= 4.38D-02 ExpMax= 1.06D+05 ExpMxC= 3.62D+03 IAcc=3 IRadAn=         5 AccDes= 0.00D+00
 Harris functional with IExCor=  402 and IRadAn=       5 diagonalized for initial guess.
 HarFok:  IExCor=  402 AccDes= 0.00D+00 IRadAn=         5 IDoV= 1 UseB2=F ITyADJ=14
 ICtDFT=  3500011 ScaDFX=  1.000000  1.000000  1.000000  1.000000
 FoFCou: FMM=F IPFlag=           0 FMFlag=      100000 FMFlg1=           0
         NFxFlg=           0 DoJE=T BraDBF=F KetDBF=T FulRan=T
         wScrn=  0.000000 ICntrl=       500 IOpCl=  0 I1Cent=   200000004 NGrid=           0
         NMat0=    1 NMatS0=      1 NMatT0=    0 NMatD0=    1 NMtDS0=    0 NMtDT0=    0
 Petite list used in FoFCou.
 Requested convergence on RMS density matrix=1.00D-08 within  32 cycles.
 Requested convergence on MAX density matrix=1.00D-06.
 Requested convergence on             energy=1.00D-06.
 No special actions if energy rises.
 SCF Done:  E(RB3LYP) =  -2301.83562585     A.U. after   15 cycles
            NFock= 15  Conv=0.80D-08     -V/T= 2.0027
 QCSCF skips out because SCF is already converged.

 **********************************************************************

            Population analysis using the SCF Density.

 **********************************************************************

 Orbital symmetries:
       Occupied  (A) (A) (A) (A) (A) (A) (A) (A) (A) (A) (A) (A)
                 (A) (A) (A) (A) (A) (A) (A) (A) (A) (A) (A) (A)
                 (A) (A) (A) (A) (A) (A) (A) (A) (A) (A) (A) (A)
                 (A) (A) (A) (A) (A) (A) (A) (A) (A) (A) (A) (A)
                 (A) (A) (A) (A) (A) (A) (A) (A) (A) (A) (A) (A)
                 (A) (A) (A) (A) (A) (A) (A) (A) (A) (A) (A) (A)
                 (A)
       Virtual   (A) (A) (A) (A) (A) (A) (A) (A) (A) (A) (A) (A)
                 (A) (A) (A) (A) (A) (A) (A) (A) (A) (A) (A) (A)
                 (A) (A) (A) (A) (A) (A) (A) (A) (A) (A) (A) (A)
                 (A) (A) (A) (A) (A) (A) (A) (A) (A) (A) (A) (A)
                 (A) (A) (A) (A) (A) (A) (A) (A) (A) (A) (A) (A)
                 (A) (A) (A) (A) (A) (A) (A) (A) (A) (A) (A) (A)
                 (A) (A) (A) (A) (A) (A) (A) (A) (A) (A) (A) (A)
                 (A) (A) (A) (A) (A) (A) (A) (A) (A) (A) (A) (A)
                 (A) (A) (A) (A) (A) (A) (A) (A) (A) (A) (A) (A)
                 (A) (A) (A) (A) (A) (A) (A) (A) (A) (A) (A) (A)
                 (A) (A) (A) (A) (A) (A) (A) (A) (A) (A) (A) (A)
                 (A) (A) (A) (A) (A) (A) (A) (A) (A) (A) (A) (A)
                 (A) (A) (A) (A) (A) (A) (A) (A) (A) (A) (A) (A)
                 (A) (A) (A) (A) (A) (A) (A) (A) (A) (A) (A) (A)
                 (A) (A) (A) (A) (A) (A) (A) (A) (A) (A) (A) (A)
                 (A) (A) (A) (A) (A) (A) (A) (A) (A) (A) (A) (A)
                 (A) (A) (A) (A) (A) (A) (A) (A) (A) (A) (A) (A)
                 (A) (A) (A) (A) (A) (A) (A) (A) (A) (A) (A) (A)
                 (A) (A) (A) (A) (A) (A) (A) (A) (A) (A) (A) (A)
                 (A) (A) (A) (A) (A) (A) (A) (A) (A) (A) (A) (A)
                 (A) (A) (A) (A) (A) (A) (A) (A) (A) (A) (A) (A)
                 (A) (A) (A) (A) (A) (A) (A) (A) (A) (A) (A) (A)
                 (A) (A) (A) (A) (A) (A) (A) (A) (A) (A) (A) (A)
                 (A) (A) (A) (A) (A) (A) (A) (A) (A) (A) (A) (A)
                 (A) (A) (A) (A) (A) (A) (A) (A) (A) (A) (A) (A)
                 (A) (A) (A) (A) (A) (A) (A) (A) (A) (A) (A) (A)
                 (A) (A) (A) (A) (A) (A) (A) (A) (A) (A) (A) (A)
                 (A) (A) (A) (A) (A) (A) (A) (A) (A) (A) (A) (A)
                 (A) (A) (A) (A) (A)
 The electronic state is 1-A.
 Alpha  occ. eigenvalues -- -101.57876-101.57516-101.57481-101.55976 -10.27872
 Alpha  occ. eigenvalues --  -10.27730 -10.27349 -10.24747 -10.23403 -10.21943
 Alpha  occ. eigenvalues --  -10.21706 -10.21614 -10.19882 -10.19754 -10.19697
 Alpha  occ. eigenvalues --  -10.17725  -9.49661  -9.48938  -9.48907  -9.47423
 Alpha  occ. eigenvalues --   -7.26085  -7.25435  -7.25416  -7.25112  -7.25070
 Alpha  occ. eigenvalues --   -7.24415  -7.24391  -7.24358  -7.24306  -7.23879
 Alpha  occ. eigenvalues --   -7.22909  -7.22876  -0.95167  -0.91128  -0.89632
 Alpha  occ. eigenvalues --   -0.87400  -0.86124  -0.84604  -0.78908  -0.76830
 Alpha  occ. eigenvalues --   -0.75635  -0.73943  -0.65174  -0.64688  -0.63321
 Alpha  occ. eigenvalues --   -0.59964  -0.55077  -0.53437  -0.52987  -0.49643
 Alpha  occ. eigenvalues --   -0.48981  -0.47683  -0.46585  -0.45592  -0.45381
 Alpha  occ. eigenvalues --   -0.45161  -0.41597  -0.41151  -0.41028  -0.39708
 Alpha  occ. eigenvalues --   -0.38867  -0.37855  -0.36764  -0.35289  -0.34903
 Alpha  occ. eigenvalues --   -0.34053  -0.32663  -0.32195  -0.29610  -0.28614
 Alpha  occ. eigenvalues --   -0.27842  -0.26327  -0.25016
 Alpha virt. eigenvalues --   -0.07262  -0.05838  -0.04702  -0.03273  -0.00995
 Alpha virt. eigenvalues --   -0.00855   0.00351   0.00411   0.01292   0.01548
 Alpha virt. eigenvalues --    0.02011   0.02908   0.03860   0.04095   0.04649
 Alpha virt. eigenvalues --    0.05607   0.05785   0.05906   0.06901   0.07165
 Alpha virt. eigenvalues --    0.07824   0.07954   0.08406   0.08572   0.08843
 Alpha virt. eigenvalues --    0.08926   0.09706   0.11025   0.11042   0.11206
 Alpha virt. eigenvalues --    0.11487   0.12082   0.12828   0.13378   0.13496
 Alpha virt. eigenvalues --    0.13533   0.14217   0.14537   0.15356   0.15453
 Alpha virt. eigenvalues --    0.15767   0.16164   0.16594   0.16977   0.17142
 Alpha virt. eigenvalues --    0.17527   0.17681   0.18056   0.18914   0.19356
 Alpha virt. eigenvalues --    0.19414   0.19455   0.19939   0.20875   0.21035
 Alpha virt. eigenvalues --    0.21074   0.21992   0.22028   0.22892   0.22967
 Alpha virt. eigenvalues --    0.23678   0.23766   0.23969   0.24302   0.25175
 Alpha virt. eigenvalues --    0.25893   0.26254   0.26615   0.27200   0.28146
 Alpha virt. eigenvalues --    0.28617   0.29419   0.30087   0.30470   0.31067
 Alpha virt. eigenvalues --    0.31695   0.31989   0.33021   0.33991   0.34951
 Alpha virt. eigenvalues --    0.35988   0.36861   0.38218   0.40601   0.41111
 Alpha virt. eigenvalues --    0.42451   0.42666   0.44028   0.44611   0.44904
 Alpha virt. eigenvalues --    0.45446   0.46441   0.46684   0.47910   0.48390
 Alpha virt. eigenvalues --    0.48534   0.49805   0.50653   0.50992   0.51392
 Alpha virt. eigenvalues --    0.52574   0.53512   0.54052   0.54860   0.55550
 Alpha virt. eigenvalues --    0.56513   0.57190   0.57624   0.58213   0.58946
 Alpha virt. eigenvalues --    0.59244   0.60601   0.60871   0.61222   0.62251
 Alpha virt. eigenvalues --    0.62930   0.63474   0.64993   0.65171   0.65882
 Alpha virt. eigenvalues --    0.66953   0.67058   0.68170   0.68357   0.69840
 Alpha virt. eigenvalues --    0.72203   0.74302   0.75907   0.76469   0.79101
 Alpha virt. eigenvalues --    0.79896   0.81621   0.81668   0.82087   0.82737
 Alpha virt. eigenvalues --    0.82877   0.84161   0.84739   0.85235   0.85369
 Alpha virt. eigenvalues --    0.85584   0.86127   0.86512   0.86969   0.87789
 Alpha virt. eigenvalues --    0.87985   0.88462   0.88999   0.89760   0.89854
 Alpha virt. eigenvalues --    0.91580   0.92529   0.92731   0.93825   0.94114
 Alpha virt. eigenvalues --    0.95040   0.95445   0.95991   0.96359   0.97726
 Alpha virt. eigenvalues --    0.98117   0.98522   1.00179   1.00926   1.02152
 Alpha virt. eigenvalues --    1.02890   1.04706   1.05789   1.07690   1.09282
 Alpha virt. eigenvalues --    1.09784   1.10508   1.11848   1.13080   1.17690
 Alpha virt. eigenvalues --    1.20613   1.21613   1.21645   1.25248   1.26097
 Alpha virt. eigenvalues --    1.26130   1.27663   1.28342   1.28683   1.31432
 Alpha virt. eigenvalues --    1.33794   1.34688   1.36639   1.40284   1.44116
 Alpha virt. eigenvalues --    1.46320   1.46933   1.50168   1.50586   1.53323
 Alpha virt. eigenvalues --    1.53922   1.54937   1.55910   1.59010   1.59267
 Alpha virt. eigenvalues --    1.61417   1.61911   1.65241   1.66604   1.67864
 Alpha virt. eigenvalues --    1.69195   1.69536   1.74870   1.75741   1.78138
 Alpha virt. eigenvalues --    1.78655   1.82155   1.83647   1.84199   1.85003
 Alpha virt. eigenvalues --    1.85901   1.86713   1.86979   1.89894   1.91721
 Alpha virt. eigenvalues --    1.93479   1.94123   1.95805   1.97437   1.98445
 Alpha virt. eigenvalues --    1.98728   2.00514   2.03713   2.03765   2.06481
 Alpha virt. eigenvalues --    2.09979   2.14573   2.14946   2.20375   2.21939
 Alpha virt. eigenvalues --    2.24083   2.25147   2.25158   2.26330   2.28009
 Alpha virt. eigenvalues --    2.29211   2.30759   2.31028   2.34073   2.35263
 Alpha virt. eigenvalues --    2.35906   2.38875   2.39672   2.42822   2.42959
 Alpha virt. eigenvalues --    2.44389   2.48041   2.50278   2.52092   2.55197
 Alpha virt. eigenvalues --    2.56063   2.58685   2.60011   2.61702   2.62656
 Alpha virt. eigenvalues --    2.63838   2.67055   2.69179   2.70539   2.72513
 Alpha virt. eigenvalues --    2.73003   2.74137   2.74425   2.75419   2.76833
 Alpha virt. eigenvalues --    2.78708   2.80357   2.80984   2.81166   2.83993
 Alpha virt. eigenvalues --    2.84854   2.85282   2.91252   2.93132   2.95320
 Alpha virt. eigenvalues --    3.05265   3.06427   3.06726   3.10249   3.13087
 Alpha virt. eigenvalues --    3.15267   3.18046   3.20695   3.22386   3.23346
 Alpha virt. eigenvalues --    3.34039   3.35951   3.38471   3.40649   3.51369
 Alpha virt. eigenvalues --    3.55219   3.60477   3.64895   3.69118   3.76820
 Alpha virt. eigenvalues --    3.82706   4.01604   4.03087   4.07848   4.15153
 Alpha virt. eigenvalues --    4.19970   4.45957   4.79414   4.83576   9.74588
 Alpha virt. eigenvalues --    9.78048   9.79677   9.88152  23.36827  23.59202
 Alpha virt. eigenvalues --   23.81865  23.86526  23.88224  23.93653  23.95722
 Alpha virt. eigenvalues --   23.98591  24.03518  24.06520  24.09553  24.14678
 Alpha virt. eigenvalues --   25.76479  25.81240  25.83309  25.89915  26.11817
 Alpha virt. eigenvalues --   26.13597  26.15517  26.47091  26.60364  26.63312
 Alpha virt. eigenvalues --   26.75879  26.90015 215.73598 215.77240 215.79343
 Alpha virt. eigenvalues --  215.90710
          Condensed to atoms (all electrons):
               1          2          3          4          5          6
     1  C   13.992788  -1.934840  -0.325134  -2.011874  -1.607154   2.041265
     2  C   -1.934840  16.245599  -1.594469   1.108925  -0.638816  -4.256351
     3  C   -0.325134  -1.594469  10.100342   0.980397  -1.348451   1.014004
     4  C   -2.011874   1.108925   0.980397  14.517110  -3.968069  -4.964521
     5  C   -1.607154  -0.638816  -1.348451  -3.968069  13.854607   1.518547
     6  C    2.041265  -4.256351   1.014004  -4.964521   1.518547  13.653093
     7  C    3.578261  -1.284008  -0.419396  -0.473463  -1.184583  -0.225944
     8  C   -1.875187   3.282813  -1.571310   0.488180  -0.415077  -3.198171
     9  C   -0.606340  -1.211065   0.071986  -0.163846  -0.368074  -0.229697
    10  C   -0.732991   0.367571  -0.321691   0.099640  -0.060423  -1.111045
    11  C   -2.050275  -1.159081  -0.335293   0.209480   0.513657   0.029930
    12  C   -1.913752  -3.497771  -0.236117   0.215465   0.086672   2.909454
    13  H    0.048483   0.298665  -0.119308  -0.009910  -0.011617   0.009525
    14  H    0.034926  -0.014889   0.354649   0.016552  -0.030052  -0.019299
    15  H    0.050357  -0.021608  -0.061647   0.307427   0.015747   0.049613
    16  H   -0.242132  -0.037895  -0.043123   0.141682   0.050772   0.359838
    17  H    0.051390   0.048057   0.028993  -0.001430   0.000763   0.015148
    18  H   -0.000544   0.008006   0.000035   0.000176   0.000117   0.001329
    19  Cl   0.287855   0.391430   0.032671   0.066400  -0.339612  -1.315644
    20  Cl  -0.070791  -0.082724  -0.001352  -0.003332   0.031185   0.092357
    21  Cl  -0.310634   0.104860   0.201014  -0.283742  -0.895601   0.779109
    22  Cl  -0.111076  -0.028108  -0.008513   0.000733   0.001414  -0.025712
               7          8          9         10         11         12
     1  C    3.578261  -1.875187  -0.606340  -0.732991  -2.050275  -1.913752
     2  C   -1.284008   3.282813  -1.211065   0.367571  -1.159081  -3.497771
     3  C   -0.419396  -1.571310   0.071986  -0.321691  -0.335293  -0.236117
     4  C   -0.473463   0.488180  -0.163846   0.099640   0.209480   0.215465
     5  C   -1.184583  -0.415077  -0.368074  -0.060423   0.513657   0.086672
     6  C   -0.225944  -3.198171  -0.229697  -1.111045   0.029930   2.909454
     7  C   12.572165  -2.699301   0.131916  -0.801730  -2.396080   0.255885
     8  C   -2.699301  17.804611  -1.452226  -0.427515  -0.824101  -3.771376
     9  C    0.131916  -1.452226  10.962656  -0.638564  -2.123906   1.853663
    10  C   -0.801730  -0.427515  -0.638564  16.247878  -2.969886  -2.954532
    11  C   -2.396080  -0.824101  -2.123906  -2.969886  16.414440   0.661813
    12  C    0.255885  -3.771376   1.853663  -2.954532   0.661813  14.184274
    13  H    0.046049   0.007389   0.018275   0.003081   0.004391   0.026247
    14  H   -0.002459   0.008058  -0.000423   0.000327   0.000104   0.001761
    15  H    0.009574   0.002966   0.000458  -0.000003  -0.000155  -0.000246
    16  H   -0.017117   0.026130  -0.015222   0.008852   0.041192   0.193181
    17  H    0.052226   0.351479  -0.125812  -0.041729  -0.018716  -0.034702
    18  H    0.031438  -0.036923   0.365016   0.015758  -0.031138  -0.000212
    19  Cl  -0.021992   0.532010   0.153143   0.359877   0.293363  -2.005874
    20  Cl  -0.516031   0.206624   0.238715  -0.785353  -0.658360   0.863291
    21  Cl  -0.180030  -0.090848  -0.008130  -0.009463  -0.028551  -0.022819
    22  Cl  -0.272835  -0.100440  -0.187630  -0.264481   0.613522  -0.339533
              13         14         15         16         17         18
     1  C    0.048483   0.034926   0.050357  -0.242132   0.051390  -0.000544
     2  C    0.298665  -0.014889  -0.021608  -0.037895   0.048057   0.008006
     3  C   -0.119308   0.354649  -0.061647  -0.043123   0.028993   0.000035
     4  C   -0.009910   0.016552   0.307427   0.141682  -0.001430   0.000176
     5  C   -0.011617  -0.030052   0.015747   0.050772   0.000763   0.000117
     6  C    0.009525  -0.019299   0.049613   0.359838   0.015148   0.001329
     7  C    0.046049  -0.002459   0.009574  -0.017117   0.052226   0.031438
     8  C    0.007389   0.008058   0.002966   0.026130   0.351479  -0.036923
     9  C    0.018275  -0.000423   0.000458  -0.015222  -0.125812   0.365016
    10  C    0.003081   0.000327  -0.000003   0.008852  -0.041729   0.015758
    11  C    0.004391   0.000104  -0.000155   0.041192  -0.018716  -0.031138
    12  C    0.026247   0.001761  -0.000246   0.193181  -0.034702  -0.000212
    13  H    0.568992  -0.006977  -0.000228  -0.000088   0.001694   0.000046
    14  H   -0.006977   0.531942  -0.007551   0.000124  -0.000022   0.000000
    15  H   -0.000228  -0.007551   0.517862  -0.000562  -0.000001  -0.000000
    16  H   -0.000088   0.000124  -0.000562   0.693333  -0.000116  -0.000002
    17  H    0.001694  -0.000022  -0.000001  -0.000116   0.545088  -0.006897
    18  H    0.000046   0.000000  -0.000000  -0.000002  -0.006897   0.505131
    19  Cl  -0.000539  -0.000158   0.000386  -0.271739  -0.000711   0.001199
    20  Cl   0.000039  -0.000001   0.000000   0.005024   0.001109  -0.000408
    21  Cl   0.000047  -0.000153  -0.005956  -0.037285   0.000086   0.000000
    22  Cl   0.000022   0.000000   0.000000   0.000491  -0.001359  -0.006443
              19         20         21         22
     1  C    0.287855  -0.070791  -0.310634  -0.111076
     2  C    0.391430  -0.082724   0.104860  -0.028108
     3  C    0.032671  -0.001352   0.201014  -0.008513
     4  C    0.066400  -0.003332  -0.283742   0.000733
     5  C   -0.339612   0.031185  -0.895601   0.001414
     6  C   -1.315644   0.092357   0.779109  -0.025712
     7  C   -0.021992  -0.516031  -0.180030  -0.272835
     8  C    0.532010   0.206624  -0.090848  -0.100440
     9  C    0.153143   0.238715  -0.008130  -0.187630
    10  C    0.359877  -0.785353  -0.009463  -0.264481
    11  C    0.293363  -0.658360  -0.028551   0.613522
    12  C   -2.005874   0.863291  -0.022819  -0.339533
    13  H   -0.000539   0.000039   0.000047   0.000022
    14  H   -0.000158  -0.000001  -0.000153   0.000000
    15  H    0.000386   0.000000  -0.005956   0.000000
    16  H   -0.271739   0.005024  -0.037285   0.000491
    17  H   -0.000711   0.001109   0.000086  -0.001359
    18  H    0.001199  -0.000408   0.000000  -0.006443
    19  Cl  18.525976  -0.340880  -0.052086   0.003429
    20  Cl  -0.340880  17.561974   0.001371  -0.220415
    21  Cl  -0.052086   0.001371  17.451003  -0.000112
    22  Cl   0.003429  -0.220415  -0.000112  17.411805
 Mulliken charges:
               1
     1  C   -0.292604
     2  C   -0.094299
     3  C   -0.398287
     4  C   -0.271980
     5  C    0.794047
     6  C   -1.126829
     7  C   -0.182547
     8  C   -0.247786
     9  C   -0.664894
    10  C    0.016421
    11  C   -0.186351
    12  C   -0.474773
    13  H    0.115723
    14  H    0.133542
    15  H    0.143566
    16  H    0.144664
    17  H    0.135463
    18  H    0.154317
    19  Cl   0.701494
    20  Cl   0.677960
    21  Cl   0.387918
    22  Cl   0.535237
 Sum of Mulliken charges =  -0.00000
 Mulliken charges with hydrogens summed into heavy atoms:
               1
     1  C   -0.292604
     2  C    0.021423
     3  C   -0.264745
     4  C   -0.128414
     5  C    0.794047
     6  C   -0.982165
     7  C   -0.182547
     8  C   -0.112323
     9  C   -0.510577
    10  C    0.016421
    11  C   -0.186351
    12  C   -0.474773
    19  Cl   0.701494
    20  Cl   0.677960
    21  Cl   0.387918
    22  Cl   0.535237
 Electronic spatial extent (au):  <R**2>=           6401.8447
 Charge=             -0.0000 electrons
 Dipole moment (field-independent basis, Debye):
    X=             -0.2113    Y=              3.3859    Z=              0.0000  Tot=              3.3925
 Quadrupole moment (field-independent basis, Debye-Ang):
   XX=           -124.8585   YY=           -109.6318   ZZ=           -124.2539
   XY=             -2.9921   XZ=             -0.0000   YZ=              0.0000
 Traceless Quadrupole moment (field-independent basis, Debye-Ang):
   XX=             -5.2771   YY=              9.9496   ZZ=             -4.6725
   XY=             -2.9921   XZ=             -0.0000   YZ=              0.0000
 Octapole moment (field-independent basis, Debye-Ang**2):
  XXX=             -1.1915  YYY=              5.7569  ZZZ=              0.0000  XYY=              0.9064
  XXY=             24.9640  XXZ=              0.0002  XZZ=             10.5980  YZZ=            -14.5291
  YYZ=              0.0001  XYZ=             -0.0001
 Hexadecapole moment (field-independent basis, Debye-Ang**3):
 XXXX=          -6573.8114 YYYY=          -1631.9318 ZZZZ=           -145.5628 XXXY=           -121.0914
 XXXZ=             -0.0004 YYYX=              3.2354 YYYZ=              0.0001 ZZZX=              0.0002
 ZZZY=             -0.0000 XXYY=          -1317.5364 XXZZ=          -1176.6284 YYZZ=           -344.3656
 XXYZ=              0.0002 YYXZ=             -0.0001 ZZXY=             13.1981
 N-N= 1.449851751047D+03 E-N=-8.343988230196D+03  KE= 2.295672295783D+03
 Calling FoFJK, ICntrl=      2127 FMM=F ISym2X=0 I1Cent= 0 IOpClX= 0 NMat=1 NMatS=1 NMatT=0.
 ***** Axes restored to original set *****
 -------------------------------------------------------------------
 Center     Atomic                   Forces (Hartrees/Bohr)
 Number     Number              X              Y              Z
 -------------------------------------------------------------------
      1        6          -0.011713760   -0.022132296   -0.000297588
      2        6          -0.000362247    0.017358367    0.003379525
      3        6          -0.020538876   -0.005262251    0.005778445
      4        6          -0.006321218   -0.004068731    0.001318195
      5        6           0.014103930   -0.017833954   -0.007995930
      6        6           0.040960653    0.034149109   -0.007081379
      7        6           0.018636638    0.035536985    0.000534358
      8        6          -0.025620168   -0.010721224    0.006427271
      9        6          -0.002704110    0.015454351    0.003793292
     10        6           0.002624549   -0.000186164   -0.000899579
     11        6          -0.012703577   -0.000284660    0.004132024
     12        6           0.004011833   -0.005315520   -0.002320122
     13        1           0.006348347   -0.003914995   -0.002826827
     14        1           0.008867337    0.000940113   -0.002744813
     15        1           0.004824635    0.008342679   -0.000022650
     16        1           0.040472254    0.027134302   -0.008238081
     17        1           0.005347832   -0.002577039   -0.002245991
     18        1           0.002450631   -0.008068803   -0.002322737
     19       17          -0.084123178   -0.061064754    0.016246804
     20       17           0.008084575    0.000153195   -0.002634855
     21       17           0.000752887   -0.002200774   -0.000661334
     22       17           0.006601033    0.004562062   -0.001318030
 -------------------------------------------------------------------
 Cartesian Forces:  Max     0.084123178 RMS     0.018212628

 GradGradGradGradGradGradGradGradGradGradGradGradGradGradGradGradGradGrad
 Berny optimization.
 FormGI is forming the generalized inverse of G from B-inverse, IUseBI=4.
 Internal  Forces:  Max     0.277845765 RMS     0.050399091
 Search for a local minimum.
 Step number   1 out of a maximum of  121
 All quantities printed in internal units (Hartrees-Bohrs-Radians)
 Mixed Optimization -- RFO/linear search
 Second derivative matrix not updated -- first step.
 ITU=  0
     Eigenvalues ---    0.00237   0.01506   0.01506   0.02070   0.02070
     Eigenvalues ---    0.02070   0.02070   0.02070   0.02070   0.02070
     Eigenvalues ---    0.02070   0.02070   0.02070   0.02070   0.02070
     Eigenvalues ---    0.02070   0.02070   0.02070   0.02070   0.16000
     Eigenvalues ---    0.16000   0.16000   0.16000   0.16000   0.16000
     Eigenvalues ---    0.22000   0.22489   0.23478   0.23493   0.24492
     Eigenvalues ---    0.25000   0.25000   0.25000   0.25000   0.25000
     Eigenvalues ---    0.25000   0.25000   0.28519   0.29539   0.29539
     Eigenvalues ---    0.29539   0.29539   0.37230   0.37230   0.37230
     Eigenvalues ---    0.37230   0.37230   0.37230   0.41364   0.41540
     Eigenvalues ---    0.41554   0.41720   0.45389   0.45389   0.45389
     Eigenvalues ---    0.45389   0.45389   0.45389   0.45389   0.45389
 RFO step:  Lambda=-4.16101351D-01 EMin= 2.36824243D-03
 Linear search not attempted -- first point.
 Maximum step size (   0.300) exceeded in Quadratic search.
    -- Step size scaled by   0.382
 Iteration  1 RMS(Cart)=  0.20332793 RMS(Int)=  0.00999882
 Iteration  2 RMS(Cart)=  0.03631670 RMS(Int)=  0.00029492
 Iteration  3 RMS(Cart)=  0.00056113 RMS(Int)=  0.00004709
 Iteration  4 RMS(Cart)=  0.00000016 RMS(Int)=  0.00004709
 Variable       Old X    -DE/DX   Delta X   Delta X   Delta X     New X
                                 (Linear)    (Quad)   (Total)
    R1        2.64826   0.01754   0.00000   0.00792   0.00796   2.65622
    R2        2.64826   0.01559   0.00000   0.00717   0.00721   2.65547
    R3        2.91018   0.06724   0.00000   0.03663   0.03663   2.94681
    R4        2.64826  -0.01221   0.00000  -0.00547  -0.00547   2.64279
    R5        2.02201   0.00699   0.00000   0.00339   0.00339   2.02539
    R6        2.64826  -0.02643   0.00000  -0.01193  -0.01197   2.63629
    R7        2.02201   0.00930   0.00000   0.00451   0.00451   2.02651
    R8        2.64826  -0.02559   0.00000  -0.01146  -0.01150   2.63677
    R9        2.02201   0.00964   0.00000   0.00467   0.00467   2.02668
   R10        2.64826  -0.00426   0.00000  -0.00176  -0.00176   2.64650
   R11        3.32592  -0.00239   0.00000  -0.00128  -0.00128   3.32463
   R12        2.02201  -0.04161   0.00000  -0.02016  -0.02016   2.00184
   R13        2.64826   0.01812   0.00000   0.00844   0.00854   2.65681
   R14        2.64826   0.12026   0.00000   0.05409   0.05417   2.70243
   R15        2.64826  -0.02530   0.00000  -0.01190  -0.01187   2.63639
   R16        2.02201   0.00572   0.00000   0.00277   0.00277   2.02478
   R17        2.64826  -0.04307   0.00000  -0.02019  -0.02026   2.62800
   R18        2.02201   0.00859   0.00000   0.00416   0.00416   2.02617
   R19        2.64826  -0.02291   0.00000  -0.01054  -0.01065   2.63761
   R20        3.32592  -0.00728   0.00000  -0.00391  -0.00391   3.32201
   R21        2.64826   0.01306   0.00000   0.00653   0.00650   2.65476
   R22        3.32592  -0.00850   0.00000  -0.00457  -0.00457   3.32135
   R23        3.32592  -0.00896   0.00000  -0.00481  -0.00481   3.32111
    A1        2.09440  -0.06042   0.00000  -0.03411  -0.03402   2.06037
    A2        2.09440  -0.13132   0.00000  -0.07561  -0.07565   2.01875
    A3        2.09440   0.19174   0.00000   0.10971   0.10967   2.20407
    A4        2.09440   0.03691   0.00000   0.02214   0.02219   2.11658
    A5        2.09440  -0.01457   0.00000  -0.00849  -0.00851   2.08588
    A6        2.09440  -0.02235   0.00000  -0.01365  -0.01367   2.08072
    A7        2.09440   0.00366   0.00000   0.00141   0.00137   2.09577
    A8        2.09440  -0.00107   0.00000  -0.00020  -0.00018   2.09422
    A9        2.09440  -0.00259   0.00000  -0.00121  -0.00119   2.09320
   A10        2.09440  -0.01750   0.00000  -0.01145  -0.01153   2.08286
   A11        2.09440   0.00881   0.00000   0.00576   0.00580   2.10020
   A12        2.09440   0.00870   0.00000   0.00569   0.00573   2.10012
   A13        2.09440   0.02023   0.00000   0.01129   0.01125   2.10564
   A14        2.09440  -0.00950   0.00000  -0.00529  -0.00527   2.08913
   A15        2.09440  -0.01073   0.00000  -0.00600  -0.00598   2.08842
   A16        2.09440   0.01712   0.00000   0.01071   0.01075   2.10515
   A17        2.09440   0.01840   0.00000   0.01253   0.01251   2.10690
   A18        2.09440  -0.03552   0.00000  -0.02324  -0.02326   2.07114
   A19        2.09440  -0.20199   0.00000  -0.11691  -0.11701   1.97739
   A20        2.09440   0.27785   0.00000   0.15834   0.15824   2.25264
   A21        2.09440  -0.07585   0.00000  -0.04143  -0.04124   2.05316
   A22        2.09440   0.06022   0.00000   0.03548   0.03561   2.13001
   A23        2.09440  -0.02734   0.00000  -0.01590  -0.01597   2.07843
   A24        2.09440  -0.03288   0.00000  -0.01958  -0.01964   2.07475
   A25        2.09440   0.00226   0.00000  -0.00178  -0.00183   2.09256
   A26        2.09440   0.00053   0.00000   0.00199   0.00202   2.09641
   A27        2.09440  -0.00279   0.00000  -0.00021  -0.00018   2.09421
   A28        2.09440  -0.00571   0.00000  -0.00586  -0.00605   2.08834
   A29        2.09440  -0.00318   0.00000  -0.00053  -0.00044   2.09396
   A30        2.09440   0.00889   0.00000   0.00639   0.00649   2.10088
   A31        2.09440   0.03521   0.00000   0.02036   0.02022   2.11461
   A32        2.09440  -0.01765   0.00000  -0.01021  -0.01014   2.08426
   A33        2.09440  -0.01756   0.00000  -0.01015  -0.01008   2.08431
   A34        2.09440  -0.01612   0.00000  -0.00676  -0.00671   2.08769
   A35        2.09440   0.18239   0.00000   0.10338   0.10335   2.19775
   A36        2.09440  -0.16627   0.00000  -0.09662  -0.09665   1.99775
    D1        0.00000   0.00000   0.00000   0.00000   0.00000   0.00000
    D2        3.14159   0.00000   0.00000   0.00000   0.00000   3.14159
    D3       -3.14159   0.00000   0.00000  -0.00000  -0.00000  -3.14159
    D4       -0.00000  -0.00000   0.00000  -0.00000  -0.00000  -0.00000
    D5       -0.00000  -0.00000   0.00000  -0.00000  -0.00000  -0.00000
    D6        3.14159  -0.00000   0.00000  -0.00000  -0.00000   3.14159
    D7        3.14159   0.00000   0.00000   0.00000   0.00000   3.14159
    D8        0.00000  -0.00000   0.00000  -0.00000  -0.00000   0.00000
    D9       -0.00000  -0.00000   0.00000  -0.00000  -0.00000  -0.00000
   D10        3.14159  -0.00000   0.00000  -0.00000  -0.00000   3.14159
   D11        3.14159  -0.00000   0.00000  -0.00000  -0.00000   3.14159
   D12       -0.00000  -0.00000   0.00000  -0.00000  -0.00000  -0.00000
   D13        0.00000  -0.00000   0.00000  -0.00000  -0.00000   0.00000
   D14        3.14159  -0.00000   0.00000  -0.00000  -0.00000   3.14159
   D15       -3.14159  -0.00000   0.00000  -0.00000  -0.00000  -3.14159
   D16        0.00000  -0.00000   0.00000  -0.00000  -0.00000   0.00000
   D17       -0.00000   0.00000   0.00000   0.00000   0.00000  -0.00000
   D18        3.14159   0.00000   0.00000   0.00000   0.00000   3.14159
   D19        3.14159  -0.00000   0.00000  -0.00000  -0.00000   3.14159
   D20        0.00000  -0.00000   0.00000  -0.00000  -0.00000   0.00000
   D21        0.00000   0.00000   0.00000   0.00000   0.00000   0.00000
   D22       -3.14159   0.00000   0.00000   0.00000   0.00000  -3.14159
   D23       -3.14159  -0.00000   0.00000  -0.00000  -0.00000  -3.14159
   D24        0.00000   0.00000   0.00000   0.00000   0.00000   0.00000
   D25       -0.00000   0.00000   0.00000   0.00000   0.00000  -0.00000
   D26        3.14159   0.00000   0.00000   0.00000   0.00000   3.14159
   D27        3.14159   0.00000   0.00000   0.00000   0.00000   3.14159
   D28       -0.00000   0.00000   0.00000   0.00000   0.00000  -0.00000
   D29        3.14159   0.00000   0.00000   0.00000   0.00000   3.14159
   D30        0.00000   0.00000   0.00000   0.00000   0.00000   0.00000
   D31        0.00000   0.00000   0.00000   0.00000   0.00000   0.00000
   D32       -3.14159  -0.00000   0.00000  -0.00000  -0.00000  -3.14159
   D33       -3.14159   0.00000   0.00000   0.00000   0.00000  -3.14159
   D34        0.00000  -0.00000   0.00000  -0.00000  -0.00000   0.00000
   D35       -0.00000  -0.00000   0.00000  -0.00000  -0.00000  -0.00000
   D36        3.14159  -0.00000   0.00000  -0.00000  -0.00000   3.14159
   D37       -0.00000  -0.00000   0.00000  -0.00000  -0.00000  -0.00000
   D38        3.14159  -0.00000   0.00000  -0.00000  -0.00000   3.14159
   D39        3.14159   0.00000   0.00000   0.00000   0.00000   3.14159
   D40       -0.00000   0.00000   0.00000   0.00000   0.00000  -0.00000
   D41       -0.00000  -0.00000   0.00000  -0.00000  -0.00000  -0.00000
   D42       -3.14159  -0.00000   0.00000  -0.00000  -0.00000  -3.14159
   D43        3.14159   0.00000   0.00000   0.00000   0.00000   3.14159
   D44        0.00000  -0.00000   0.00000  -0.00000  -0.00000   0.00000
   D45        0.00000   0.00000   0.00000   0.00000   0.00000   0.00000
   D46       -3.14159  -0.00000   0.00000  -0.00000  -0.00000  -3.14159
   D47        3.14159   0.00000   0.00000   0.00000   0.00000   3.14159
   D48        0.00000   0.00000   0.00000   0.00000   0.00000   0.00000
   D49        0.00000   0.00000   0.00000   0.00000   0.00000   0.00000
   D50       -3.14159   0.00000   0.00000   0.00000   0.00000  -3.14159
   D51        3.14159   0.00000   0.00000   0.00000   0.00000   3.14159
   D52       -0.00000   0.00000   0.00000   0.00000   0.00000  -0.00000
         Item               Value     Threshold  Converged?
 Maximum Force            0.277846     0.000450     NO 
 RMS     Force            0.050399     0.000300     NO 
 Maximum Displacement     0.980074     0.001800     NO 
 RMS     Displacement     0.234830     0.001200     NO 
 Predicted change in Energy=-1.473375D-01
 GradGradGradGradGradGradGradGradGradGradGradGradGradGradGradGradGradGrad

                          Input orientation:                          
 ---------------------------------------------------------------------
 Center     Atomic      Atomic             Coordinates (Angstroms)
 Number     Number       Type             X           Y           Z
 ---------------------------------------------------------------------
      1          6           0       -0.524163    0.108754    0.060883
      2          6           0        0.800097   -0.004246   -0.396623
      3          6           0        1.642203    1.110220   -0.464752
      4          6           0        1.174036    2.365199   -0.074814
      5          6           0       -0.138210    2.493826    0.381666
      6          6           0       -0.982619    1.378677    0.450426
      7          6           0       -1.346461   -1.216018    0.082990
      8          6           0       -0.617136   -2.330707   -0.366640
      9          6           0       -1.176313   -3.607651   -0.422237
     10          6           0       -2.494371   -3.805036   -0.025064
     11          6           0       -3.249009   -2.721405    0.427073
     12          6           0       -2.700930   -1.429382    0.489159
     13          1           0        1.174092   -0.961857   -0.699684
     14          1           0        2.649096    1.000499   -0.817083
     15          1           0        1.816315    3.222587   -0.125390
     16          1           0       -1.973038    1.512092    0.801780
     17          1           0        0.399796   -2.197243   -0.676608
     18          1           0       -0.591698   -4.436255   -0.770462
     19         17           0       -3.805048   -0.198295    1.084131
     20         17           0       -4.914205   -2.977863    0.927524
     21         17           0       -0.738414    4.072050    0.875808
     22         17           0       -3.201088   -5.413168   -0.094250
 ---------------------------------------------------------------------
                    Distance matrix (angstroms):
                    1          2          3          4          5
     1  C    0.000000
     2  C    1.405612   0.000000
     3  C    2.443843   1.398506   0.000000
     4  C    2.827338   2.420261   1.395065   0.000000
     5  C    2.437301   2.779662   2.408456   1.395316   0.000000
     6  C    1.405216   2.409988   2.792725   2.429045   1.400468
     7  C    1.559386   2.511201   3.826685   4.382114   3.913059
     8  C    2.478384   2.724311   4.117550   5.034381   4.905656
     9  C    3.803994   4.109912   5.495830   6.428046   6.241149
    10  C    4.382562   5.043568   6.439279   7.178543   6.737402
    11  C    3.945717   4.945370   6.276995   6.759346   6.072707
    12  C    2.699554   3.882371   5.120774   5.452730   4.687286
    13  H    2.146798   1.071792   2.137247   3.385228   3.851390
    14  H    3.411101   2.145949   1.072385   2.142236   3.381731
    15  H    3.899807   3.393924   2.146527   1.072472   2.146710
    16  H    2.148843   3.380197   3.851698   3.376430   2.122944
    17  H    2.591373   2.246746   3.539459   4.666635   4.838959
    18  H    4.620908   4.660423   5.987249   7.061268   7.039820
    19  Cl   3.450438   4.841245   5.812383   5.718910   4.602899
    20  Cl   5.436058   6.576398   7.850945   8.162087   7.283369
    21  Cl   4.051879   4.538974   4.029501   2.733950   1.759321
    22  Cl   6.138535   6.734786   8.133224   8.924409   8.492837
                    6          7          8          9         10
     6  C    0.000000
     7  C    2.645720   0.000000
     8  C    3.815850   1.405921   0.000000
     9  C    5.065820   2.450329   1.395118   0.000000
    10  C    5.420550   2.834146   2.411292   1.390677   0.000000
    11  C    4.684842   2.450361   2.776577   2.408906   1.395765
    12  C    3.292308   1.430063   2.426309   2.810685   2.439430
    13  H    3.384118   2.651484   2.278852   3.549874   4.690032
    14  H    3.865094   4.656990   4.687014   6.002058   7.083481
    15  H    3.400823   5.454154   6.067863   7.462982   8.244972
    16  H    1.059330   2.889956   4.239196   5.323979   5.406228
    17  H    3.996059   2.142243   1.071468   2.130276   3.374272
    18  H    5.954563   3.415841   2.144073   1.072203   2.138743
    19  Cl   3.294622   2.843008   4.100573   4.561041   3.994592
    20  Cl   5.887651   4.067693   4.534145   4.023720   2.728962
    21  Cl   2.737671   5.381630   6.523318   7.800928   8.120556
    22  Cl   7.165713   4.592071   4.031447   2.732614   1.757932
                   11         12         13         14         15
    11  C    0.000000
    12  C    1.404838   0.000000
    13  H    4.891770   4.080162   0.000000
    14  H    7.084359   6.019416   2.457694   0.000000
    15  H    7.829034   6.513370   4.272217   2.471769   0.000000
    16  H    4.437455   3.046281   4.275424   4.924081   4.259652
    17  H    3.847939   3.400459   1.458165   3.912114   5.628937
    18  H    3.381731   3.882884   3.898007   6.329550   8.054347
    19  Cl   2.665893   1.757454   5.343862   6.834304   6.690673
    20  Cl   1.757583   2.736520   6.616604   8.722072   9.211629
    21  Cl   7.256410   5.853778   5.610711   4.876016   2.872390
    22  Cl   2.742200   4.057225   6.270799   8.711042   9.987571
                   16         17         18         19         20
    16  H    0.000000
    17  H    4.644905   0.000000
    18  H    6.305781   2.450518   0.000000
    19  Cl   2.522183   4.977621   5.632534   0.000000
    20  Cl   5.368982   5.605463   4.867662   2.996789   0.000000
    21  Cl   2.843090   6.558167   8.667351   5.261510   8.193971
    22  Cl   7.090148   4.862888   2.867148   5.380357   3.147937
                   21         22
    21  Cl   0.000000
    22  Cl   9.847595   0.000000
 Stoichiometry    C12H6Cl4
 Framework group  C1[X(C12H6Cl4)]
 Deg. of freedom    60
 Full point group                 C1      NOp   1
 Largest Abelian subgroup         C1      NOp   1
 Largest concise Abelian subgroup C1      NOp   1
                         Standard orientation:                         
 ---------------------------------------------------------------------
 Center     Atomic      Atomic             Coordinates (Angstroms)
 Number     Number       Type             X           Y           Z
 ---------------------------------------------------------------------
      1          6           0       -1.461279    0.774869   -0.000001
      2          6           0       -1.968644    2.085718    0.000002
      3          6           0       -3.345425    2.331263    0.000005
      4          6           0       -4.245708    1.265573    0.000005
      5          6           0       -3.757744   -0.041637    0.000000
      6          6           0       -2.379299   -0.289025   -0.000003
      7          6           0        0.093285    0.652337   -0.000002
      8          6           0        0.749050    1.895956   -0.000003
      9          6           0        2.140355    1.999044   -0.000003
     10          6           0        2.920675    0.847921   -0.000003
     11          6           0        2.304126   -0.404288   -0.000002
     12          6           0        0.904515   -0.525367   -0.000001
     13          1           0       -1.289375    2.914773    0.000004
     14          1           0       -3.710047    3.339757    0.000008
     15          1           0       -5.302344    1.449193    0.000007
     16          1           0       -2.043292   -1.293654   -0.000005
     17          1           0        0.163731    2.793422   -0.000000
     18          1           0        2.608324    2.963733   -0.000004
     19         17           0        0.317334   -2.181828    0.000002
     20         17           0        3.296257   -1.855072    0.000003
     21         17           0       -4.884657   -1.392666   -0.000004
     22         17           0        4.673981    0.975366   -0.000001
 ---------------------------------------------------------------------
 Rotational constants (GHZ):           0.7409035           0.1722413           0.1397524
 Standard basis: 6-311+G(d,p) (5D, 7F)
 There are   436 symmetry adapted cartesian basis functions of A   symmetry.
 There are   420 symmetry adapted basis functions of A   symmetry.
   420 basis functions,   692 primitive gaussians,   436 cartesian basis functions
    73 alpha electrons       73 beta electrons
       nuclear repulsion energy      1425.5856041033 Hartrees.
 NAtoms=   22 NActive=   22 NUniq=   22 SFac= 1.00D+00 NAtFMM=   60 NAOKFM=F Big=F
 Integral buffers will be    131072 words long.
 Raffenetti 2 integral format.
 Two-electron integral symmetry is turned on.
 One-electron integrals computed using PRISM.
 NBasis=   420 RedAO= T EigKep=  1.31D-06  NBF=   420
 NBsUse=   415 1.00D-06 EigRej=  5.37D-07 NBFU=   415
 Initial guess from the checkpoint file:  "/scratch/pkc/Gau-53136.chk"
 B after Tr=    -0.000000   -0.000000   -0.000000
         Rot=    0.999904   -0.000000   -0.000000   -0.013882 Ang=  -1.59 deg.
 ExpMin= 4.38D-02 ExpMax= 1.06D+05 ExpMxC= 3.62D+03 IAcc=3 IRadAn=         5 AccDes= 0.00D+00
 Harris functional with IExCor=  402 and IRadAn=       5 diagonalized for initial guess.
 HarFok:  IExCor=  402 AccDes= 0.00D+00 IRadAn=         5 IDoV= 1 UseB2=F ITyADJ=14
 ICtDFT=  3500011 ScaDFX=  1.000000  1.000000  1.000000  1.000000
 FoFCou: FMM=F IPFlag=           0 FMFlag=      100000 FMFlg1=           0
         NFxFlg=           0 DoJE=T BraDBF=F KetDBF=T FulRan=T
         wScrn=  0.000000 ICntrl=       500 IOpCl=  0 I1Cent=   200000004 NGrid=           0
         NMat0=    1 NMatS0=      1 NMatT0=    0 NMatD0=    1 NMtDS0=    0 NMtDT0=    0
 Petite list used in FoFCou.
 Requested convergence on RMS density matrix=1.00D-08 within  32 cycles.
 Requested convergence on MAX density matrix=1.00D-06.
 Requested convergence on             energy=1.00D-06.
 No special actions if energy rises.
 SCF Done:  E(RB3LYP) =  -2301.87277676     A.U. after   16 cycles
            NFock= 16  Conv=0.84D-08     -V/T= 2.0028
 QCSCF skips out because SCF is already converged.
 Calling FoFJK, ICntrl=      2127 FMM=F ISym2X=0 I1Cent= 0 IOpClX= 0 NMat=1 NMatS=1 NMatT=0.
 ***** Axes restored to original set *****
 -------------------------------------------------------------------
 Center     Atomic                   Forces (Hartrees/Bohr)
 Number     Number              X              Y              Z
 -------------------------------------------------------------------
      1        6          -0.011177800   -0.019227224    0.000071468
      2        6           0.005142719    0.020231942    0.002105578
      3        6          -0.017302177   -0.003773007    0.004991789
      4        6          -0.004342247   -0.001872142    0.001078752
      5        6           0.003440496   -0.011600436   -0.003312107
      6        6           0.010521294   -0.000161878   -0.003496648
      7        6           0.007991680    0.025090362    0.002079436
      8        6          -0.025305870   -0.016255072    0.005284395
      9        6          -0.001031094    0.010713377    0.002351699
     10        6          -0.001037875   -0.003358769   -0.000288807
     11        6          -0.009377847   -0.001928562    0.002727579
     12        6           0.011658415   -0.001565819   -0.004135084
     13        1           0.009722490    0.008240989   -0.001655428
     14        1           0.007213834   -0.000539072   -0.002477862
     15        1           0.003751055    0.006313923   -0.000049980
     16        1          -0.012939871    0.001745684    0.004590920
     17        1          -0.003896912   -0.010913460   -0.000765943
     18        1           0.003070326   -0.006042896   -0.002146416
     19       17           0.012370972    0.006561653   -0.002843412
     20       17           0.005663213   -0.003033655   -0.002435634
     21       17           0.000419249   -0.002759727   -0.000656385
     22       17           0.005445951    0.004133791   -0.001017912
 -------------------------------------------------------------------
 Cartesian Forces:  Max     0.025305870 RMS     0.008310118

 GradGradGradGradGradGradGradGradGradGradGradGradGradGradGradGradGradGrad
 Berny optimization.
 Using GEDIIS/GDIIS optimizer.
 FormGI is forming the generalized inverse of G from B-inverse, IUseBI=4.
 Internal  Forces:  Max     0.063067880 RMS     0.011993442
 Search for a local minimum.
 Step number   2 out of a maximum of  121
 All quantities printed in internal units (Hartrees-Bohrs-Radians)
 Mixed Optimization -- RFO/linear search
 Update second derivatives using D2CorX and points    1    2
 DE= -3.72D-02 DEPred=-1.47D-01 R= 2.52D-01
 Trust test= 2.52D-01 RLast= 3.00D-01 DXMaxT set to 3.00D-01
 ITU=  0  0
 Use linear search instead of GDIIS.
     Eigenvalues ---    0.00237   0.01479   0.01484   0.02070   0.02070
     Eigenvalues ---    0.02070   0.02070   0.02070   0.02070   0.02070
     Eigenvalues ---    0.02070   0.02070   0.02070   0.02070   0.02070
     Eigenvalues ---    0.02070   0.02070   0.02070   0.02070   0.15969
     Eigenvalues ---    0.16000   0.16000   0.16000   0.16000   0.16034
     Eigenvalues ---    0.21995   0.22493   0.23399   0.23493   0.24395
     Eigenvalues ---    0.24920   0.25000   0.25000   0.25000   0.25000
     Eigenvalues ---    0.25000   0.28450   0.29525   0.29539   0.29539
     Eigenvalues ---    0.29539   0.37080   0.37199   0.37230   0.37230
     Eigenvalues ---    0.37230   0.37230   0.40448   0.41308   0.41499
     Eigenvalues ---    0.41610   0.45049   0.45352   0.45389   0.45389
     Eigenvalues ---    0.45389   0.45389   0.45389   0.45389   2.12555
 RFO step:  Lambda=-1.19416253D-02 EMin= 2.36824243D-03
 Quartic linear search produced a step of -0.34481.
 Iteration  1 RMS(Cart)=  0.13913110 RMS(Int)=  0.00403401
 Iteration  2 RMS(Cart)=  0.00688641 RMS(Int)=  0.00004472
 Iteration  3 RMS(Cart)=  0.00001758 RMS(Int)=  0.00004443
 Iteration  4 RMS(Cart)=  0.00000000 RMS(Int)=  0.00004443
 Variable       Old X    -DE/DX   Delta X   Delta X   Delta X     New X
                                 (Linear)    (Quad)   (Total)
    R1        2.65622   0.01061  -0.00274   0.02294   0.02022   2.67644
    R2        2.65547  -0.00233  -0.00249   0.00364   0.00123   2.65670
    R3        2.94681  -0.00583  -0.01263   0.01921   0.00658   2.95339
    R4        2.64279  -0.00665   0.00189  -0.01398  -0.01214   2.63066
    R5        2.02539  -0.00350  -0.00117  -0.00290  -0.00407   2.02132
    R6        2.63629  -0.00607   0.00413  -0.01985  -0.01579   2.62050
    R7        2.02651   0.00764  -0.00155   0.01710   0.01555   2.04206
    R8        2.63677  -0.01034   0.00396  -0.02584  -0.02190   2.61486
    R9        2.02668   0.00730  -0.00161   0.01666   0.01505   2.04173
   R10        2.64650  -0.00878   0.00061  -0.01438  -0.01373   2.63277
   R11        3.32463  -0.00280   0.00044  -0.00710  -0.00666   3.31798
   R12        2.00184   0.01384   0.00695   0.00532   0.01227   2.01411
   R13        2.65681   0.00659  -0.00295   0.01673   0.01386   2.67066
   R14        2.70243  -0.01790  -0.01868   0.02482   0.00621   2.70864
   R15        2.63639  -0.00843   0.00409  -0.02308  -0.01898   2.61742
   R16        2.02478  -0.00484  -0.00096  -0.00573  -0.00668   2.01810
   R17        2.62800  -0.00791   0.00699  -0.02976  -0.02284   2.60516
   R18        2.02617   0.00704  -0.00144   0.01577   0.01433   2.04050
   R19        2.63761  -0.00233   0.00367  -0.01274  -0.00915   2.62846
   R20        3.32201  -0.00593   0.00135  -0.01607  -0.01472   3.30729
   R21        2.65476   0.00686  -0.00224   0.01589   0.01365   2.66840
   R22        3.32135  -0.00562   0.00157  -0.01598  -0.01441   3.30694
   R23        3.32111  -0.00414   0.00166  -0.01305  -0.01139   3.30972
    A1        2.06037  -0.01245   0.01173  -0.05872  -0.04689   2.01348
    A2        2.01875   0.05786   0.02608   0.07902   0.10505   2.12380
    A3        2.20407  -0.04541  -0.03782  -0.02029  -0.05816   2.14590
    A4        2.11658   0.00180  -0.00765   0.02560   0.01794   2.13452
    A5        2.08588   0.01162   0.00294   0.03689   0.03983   2.12571
    A6        2.08072  -0.01342   0.00471  -0.06248  -0.05777   2.02296
    A7        2.09577   0.00517  -0.00047   0.01572   0.01514   2.11091
    A8        2.09422  -0.00234   0.00006  -0.00651  -0.00639   2.08782
    A9        2.09320  -0.00284   0.00041  -0.00921  -0.00875   2.08446
   A10        2.08286  -0.00633   0.00398  -0.02981  -0.02594   2.05693
   A11        2.10020   0.00401  -0.00200   0.01816   0.01621   2.11641
   A12        2.10012   0.00232  -0.00198   0.01165   0.00972   2.10985
   A13        2.10564   0.00596  -0.00388   0.02228   0.01841   2.12405
   A14        2.08913  -0.00197   0.00182  -0.00832  -0.00651   2.08262
   A15        2.08842  -0.00398   0.00206  -0.01396  -0.01190   2.07652
   A16        2.10515   0.00585  -0.00371   0.02494   0.02134   2.12648
   A17        2.10690  -0.00292  -0.00431   0.00142  -0.00294   2.10396
   A18        2.07114  -0.00293   0.00802  -0.02636  -0.01840   2.05274
   A19        1.97739   0.06307   0.04034   0.05786   0.09812   2.07551
   A20        2.25264  -0.04942  -0.05456   0.01258  -0.04207   2.21057
   A21        2.05316  -0.01365   0.01422  -0.07043  -0.05605   1.99711
   A22        2.13001   0.00711  -0.01228   0.04831   0.03612   2.16613
   A23        2.07843   0.00713   0.00551   0.01797   0.02343   2.10186
   A24        2.07475  -0.01425   0.00677  -0.06629  -0.05956   2.01520
   A25        2.09256   0.00223   0.00063   0.00396   0.00452   2.09708
   A26        2.09641  -0.00012  -0.00070   0.00268   0.00202   2.09843
   A27        2.09421  -0.00211   0.00006  -0.00664  -0.00654   2.08767
   A28        2.08834  -0.00229   0.00209  -0.01059  -0.00866   2.07969
   A29        2.09396  -0.00475   0.00015  -0.01242  -0.01219   2.08177
   A30        2.10088   0.00704  -0.00224   0.02300   0.02084   2.12172
   A31        2.11461  -0.00635  -0.00697   0.00209  -0.00497   2.10965
   A32        2.08426  -0.00340   0.00350  -0.01750  -0.01396   2.07030
   A33        2.08431   0.00975   0.00348   0.01540   0.01893   2.10324
   A34        2.08769   0.01295   0.00231   0.02666   0.02904   2.11672
   A35        2.19775  -0.02918  -0.03564   0.01560  -0.02007   2.17768
   A36        1.99775   0.01624   0.03332  -0.04226  -0.00897   1.98878
    D1        0.00000  -0.00000  -0.00000  -0.00000  -0.00000   0.00000
    D2        3.14159  -0.00000  -0.00000  -0.00000  -0.00000   3.14159
    D3       -3.14159  -0.00000   0.00000  -0.00000  -0.00000  -3.14159
    D4       -0.00000  -0.00000   0.00000   0.00000   0.00000  -0.00000
    D5       -0.00000   0.00000   0.00000   0.00000   0.00000  -0.00000
    D6        3.14159   0.00000   0.00000   0.00000   0.00000   3.14159
    D7        3.14159  -0.00000  -0.00000   0.00000   0.00000   3.14159
    D8        0.00000  -0.00000   0.00000  -0.00000  -0.00000  -0.00000
    D9       -0.00000  -0.00000   0.00000  -0.00000  -0.00000  -0.00000
   D10        3.14159  -0.00000   0.00000  -0.00000  -0.00000   3.14159
   D11        3.14159  -0.00000   0.00000  -0.00000  -0.00000   3.14159
   D12       -0.00000   0.00000   0.00000  -0.00000   0.00000  -0.00000
   D13        0.00000  -0.00000   0.00000  -0.00000  -0.00000   0.00000
   D14        3.14159   0.00000   0.00000   0.00000   0.00000   3.14159
   D15       -3.14159  -0.00000   0.00000  -0.00000  -0.00000  -3.14159
   D16        0.00000  -0.00000   0.00000  -0.00000  -0.00000   0.00000
   D17       -0.00000   0.00000  -0.00000   0.00000   0.00000  -0.00000
   D18        3.14159   0.00000  -0.00000   0.00000   0.00000   3.14159
   D19        3.14159   0.00000   0.00000   0.00000   0.00000   3.14159
   D20        0.00000  -0.00000   0.00000  -0.00000  -0.00000   0.00000
   D21        0.00000  -0.00000  -0.00000  -0.00000  -0.00000   0.00000
   D22       -3.14159  -0.00000  -0.00000  -0.00000  -0.00000  -3.14159
   D23       -3.14159  -0.00000   0.00000  -0.00000  -0.00000  -3.14159
   D24        0.00000  -0.00000  -0.00000  -0.00000  -0.00000   0.00000
   D25       -0.00000   0.00000  -0.00000   0.00000   0.00000  -0.00000
   D26        3.14159   0.00000  -0.00000   0.00000   0.00000   3.14159
   D27        3.14159   0.00000  -0.00000   0.00000   0.00000   3.14159
   D28       -0.00000   0.00000  -0.00000   0.00000   0.00000  -0.00000
   D29        3.14159  -0.00000  -0.00000   0.00000   0.00000  -3.14159
   D30        0.00000  -0.00000  -0.00000  -0.00000  -0.00000   0.00000
   D31        0.00000  -0.00000  -0.00000  -0.00000  -0.00000   0.00000
   D32       -3.14159  -0.00000   0.00000  -0.00000  -0.00000  -3.14159
   D33       -3.14159  -0.00000  -0.00000  -0.00000  -0.00000   3.14159
   D34        0.00000  -0.00000   0.00000  -0.00000  -0.00000  -0.00000
   D35       -0.00000   0.00000   0.00000   0.00000   0.00000  -0.00000
   D36        3.14159   0.00000   0.00000   0.00000   0.00000   3.14159
   D37       -0.00000  -0.00000   0.00000  -0.00000   0.00000  -0.00000
   D38        3.14159  -0.00000   0.00000  -0.00000  -0.00000   3.14159
   D39        3.14159   0.00000  -0.00000   0.00000   0.00000   3.14159
   D40       -0.00000   0.00000  -0.00000   0.00000   0.00000  -0.00000
   D41       -0.00000   0.00000   0.00000   0.00000   0.00000   0.00000
   D42       -3.14159  -0.00000   0.00000  -0.00000  -0.00000  -3.14159
   D43        3.14159   0.00000  -0.00000   0.00000   0.00000  -3.14159
   D44        0.00000  -0.00000   0.00000  -0.00000  -0.00000   0.00000
   D45        0.00000   0.00000  -0.00000   0.00000   0.00000   0.00000
   D46       -3.14159  -0.00000   0.00000  -0.00000  -0.00000  -3.14159
   D47        3.14159   0.00000  -0.00000   0.00000   0.00000   3.14159
   D48        0.00000  -0.00000  -0.00000  -0.00000  -0.00000   0.00000
   D49        0.00000  -0.00000  -0.00000  -0.00000  -0.00000  -0.00000
   D50       -3.14159  -0.00000  -0.00000  -0.00000  -0.00000  -3.14159
   D51        3.14159   0.00000  -0.00000   0.00000   0.00000   3.14159
   D52       -0.00000   0.00000  -0.00000   0.00000   0.00000  -0.00000
         Item               Value     Threshold  Converged?
 Maximum Force            0.063068     0.000450     NO 
 RMS     Force            0.011993     0.000300     NO 
 Maximum Displacement     0.518195     0.001800     NO 
 RMS     Displacement     0.140725     0.001200     NO 
 Predicted change in Energy=-7.992108D-03
 GradGradGradGradGradGradGradGradGradGradGradGradGradGradGradGradGradGrad

                          Input orientation:                          
 ---------------------------------------------------------------------
 Center     Atomic      Atomic             Coordinates (Angstroms)
 Number     Number       Type             X           Y           Z
 ---------------------------------------------------------------------
      1          6           0       -0.423288    0.051987    0.016989
      2          6           0        0.923073    0.076766   -0.421921
      3          6           0        1.674963    1.248000   -0.449667
      4          6           0        1.128663    2.455893   -0.042834
      5          6           0       -0.185470    2.457793    0.390468
      6          6           0       -0.947423    1.291858    0.422525
      7          6           0       -1.254244   -1.271426    0.042204
      8          6           0       -0.641653   -2.471241   -0.384957
      9          6           0       -1.276173   -3.702229   -0.407101
     10          6           0       -2.587347   -3.812955    0.004080
     11          6           0       -3.259478   -2.675575    0.439131
     12          6           0       -2.616402   -1.418683    0.463322
     13          1           0        1.424196   -0.808242   -0.753229
     14          1           0        2.699165    1.217230   -0.792873
     15          1           0        1.707560    3.367948   -0.062262
[...]

            Population analysis using the SCF Density.

 **********************************************************************

 Orbital symmetries:
       Occupied  (A) (A) (A) (A) (A) (A) (A) (A) (A) (A) (A) (A)
                 (A) (A) (A) (A) (A) (A) (A) (A) (A) (A) (A) (A)
                 (A) (A) (A) (A) (A) (A) (A) (A) (A) (A) (A) (A)
                 (A) (A) (A) (A) (A) (A) (A) (A) (A) (A) (A) (A)
                 (A) (A) (A) (A) (A) (A) (A) (A) (A) (A) (A) (A)
                 (A) (A) (A) (A) (A) (A) (A) (A) (A) (A) (A) (A)
                 (A)
       Virtual   (A) (A) (A) (A) (A) (A) (A) (A) (A) (A) (A) (A)
                 (A) (A) (A) (A) (A) (A) (A) (A) (A) (A) (A) (A)
                 (A) (A) (A) (A) (A) (A) (A) (A) (A) (A) (A) (A)
                 (A) (A) (A) (A) (A) (A) (A) (A) (A) (A) (A) (A)
                 (A) (A) (A) (A) (A) (A) (A) (A) (A) (A) (A) (A)
                 (A) (A) (A) (A) (A) (A) (A) (A) (A) (A) (A) (A)
                 (A) (A) (A) (A) (A) (A) (A) (A) (A) (A) (A) (A)
                 (A) (A) (A) (A) (A) (A) (A) (A) (A) (A) (A) (A)
                 (A) (A) (A) (A) (A) (A) (A) (A) (A) (A) (A) (A)
                 (A) (A) (A) (A) (A) (A) (A) (A) (A) (A) (A) (A)
                 (A) (A) (A) (A) (A) (A) (A) (A) (A) (A) (A) (A)
                 (A) (A) (A) (A) (A) (A) (A) (A) (A) (A) (A) (A)
                 (A) (A) (A) (A) (A) (A) (A) (A) (A) (A) (A) (A)
                 (A) (A) (A) (A) (A) (A) (A) (A) (A) (A) (A) (A)
                 (A) (A) (A) (A) (A) (A) (A) (A) (A) (A) (A) (A)
                 (A) (A) (A) (A) (A) (A) (A) (A) (A) (A) (A) (A)
                 (A) (A) (A) (A) (A) (A) (A) (A) (A) (A) (A) (A)
                 (A) (A) (A) (A) (A) (A) (A) (A) (A) (A) (A) (A)
                 (A) (A) (A) (A) (A) (A) (A) (A) (A) (A) (A) (A)
                 (A) (A) (A) (A) (A) (A) (A) (A) (A) (A) (A) (A)
                 (A) (A) (A) (A) (A) (A) (A) (A) (A) (A) (A) (A)
                 (A) (A) (A) (A) (A) (A) (A) (A) (A) (A) (A) (A)
                 (A) (A) (A) (A) (A) (A) (A) (A) (A) (A) (A) (A)
                 (A) (A) (A) (A) (A) (A) (A) (A) (A) (A) (A) (A)
                 (A) (A) (A) (A) (A) (A) (A) (A) (A) (A) (A) (A)
                 (A) (A) (A) (A) (A) (A) (A) (A) (A) (A) (A) (A)
                 (A) (A) (A) (A) (A) (A) (A) (A) (A) (A) (A) (A)
                 (A) (A) (A) (A) (A) (A) (A) (A) (A) (A) (A) (A)
                 (A) (A) (A) (A) (A) (A) (A) (A)
 The electronic state is 1-A.
 Alpha  occ. eigenvalues -- -101.57343-101.57301-101.57136-101.56184 -10.27310
 Alpha  occ. eigenvalues --  -10.27157 -10.26882 -10.25252 -10.22610 -10.21630
 Alpha  occ. eigenvalues --  -10.21264 -10.21123 -10.20284 -10.20189 -10.20128
 Alpha  occ. eigenvalues --  -10.19894  -9.48810  -9.48759  -9.48617  -9.47641
 Alpha  occ. eigenvalues --   -7.25309  -7.25245  -7.25102  -7.24293  -7.24241
 Alpha  occ. eigenvalues --   -7.24208  -7.24179  -7.24104  -7.24101  -7.24023
 Alpha  occ. eigenvalues --   -7.23125  -7.23090  -0.94815  -0.91070  -0.89689
 Alpha  occ. eigenvalues --   -0.87702  -0.85740  -0.84631  -0.79573  -0.75999
 Alpha  occ. eigenvalues --   -0.75818  -0.74081  -0.65480  -0.64027  -0.62687
 Alpha  occ. eigenvalues --   -0.60421  -0.54963  -0.52938  -0.52426  -0.49393
 Alpha  occ. eigenvalues --   -0.49163  -0.47472  -0.46296  -0.45590  -0.44981
 Alpha  occ. eigenvalues --   -0.44501  -0.42096  -0.41615  -0.40455  -0.38530
 Alpha  occ. eigenvalues --   -0.38329  -0.38045  -0.36135  -0.34923  -0.34838
 Alpha  occ. eigenvalues --   -0.34076  -0.33756  -0.32531  -0.31617  -0.28679
 Alpha  occ. eigenvalues --   -0.27126  -0.26697  -0.26013
 Alpha virt. eigenvalues --   -0.06082  -0.05279  -0.03774  -0.03392  -0.02971
 Alpha virt. eigenvalues --   -0.00894   0.00248   0.01000   0.01419   0.01891
 Alpha virt. eigenvalues --    0.02270   0.02608   0.02975   0.04212   0.04308
 Alpha virt. eigenvalues --    0.05009   0.05295   0.05673   0.06354   0.07140
 Alpha virt. eigenvalues --    0.07499   0.07701   0.08262   0.08567   0.09075
 Alpha virt. eigenvalues --    0.09466   0.09683   0.10157   0.10702   0.10954
 Alpha virt. eigenvalues --    0.11772   0.11860   0.12275   0.12436   0.12828
 Alpha virt. eigenvalues --    0.13139   0.13379   0.14347   0.14608   0.14897
 Alpha virt. eigenvalues --    0.15291   0.15801   0.16179   0.16491   0.16743
 Alpha virt. eigenvalues --    0.16851   0.17541   0.17960   0.18449   0.18546
 Alpha virt. eigenvalues --    0.19207   0.19408   0.19948   0.20126   0.20505
 Alpha virt. eigenvalues --    0.20844   0.21183   0.21389   0.22092   0.22589
 Alpha virt. eigenvalues --    0.22957   0.23290   0.23424   0.23656   0.24293
 Alpha virt. eigenvalues --    0.24524   0.24915   0.25155   0.26274   0.26547
 Alpha virt. eigenvalues --    0.27373   0.27671   0.27747   0.28410   0.28627
 Alpha virt. eigenvalues --    0.28861   0.29182   0.29446   0.30377   0.30593
 Alpha virt. eigenvalues --    0.30972   0.31474   0.33209   0.33621   0.34437
 Alpha virt. eigenvalues --    0.35316   0.41319   0.41687   0.43535   0.43903
 Alpha virt. eigenvalues --    0.44620   0.45190   0.45612   0.46341   0.46823
 Alpha virt. eigenvalues --    0.47058   0.47452   0.48807   0.49527   0.49807
 Alpha virt. eigenvalues --    0.50756   0.51206   0.52171   0.53148   0.54717
 Alpha virt. eigenvalues --    0.55332   0.55884   0.56402   0.56564   0.57725
 Alpha virt. eigenvalues --    0.58426   0.59713   0.60400   0.60869   0.61499
 Alpha virt. eigenvalues --    0.61911   0.63059   0.63181   0.63809   0.65318
 Alpha virt. eigenvalues --    0.65660   0.66658   0.67121   0.67948   0.68388
 Alpha virt. eigenvalues --    0.68415   0.69530   0.70136   0.70539   0.71723
 Alpha virt. eigenvalues --    0.72293   0.72871   0.75405   0.77184   0.78921
 Alpha virt. eigenvalues --    0.79569   0.81697   0.82104   0.82710   0.83325
 Alpha virt. eigenvalues --    0.83689   0.84675   0.84711   0.85126   0.85144
 Alpha virt. eigenvalues --    0.85522   0.85676   0.86342   0.86886   0.87735
 Alpha virt. eigenvalues --    0.87935   0.88931   0.89871   0.90474   0.91387
 Alpha virt. eigenvalues --    0.91666   0.92284   0.93232   0.94189   0.95096
 Alpha virt. eigenvalues --    0.95657   0.95914   0.96350   0.97245   0.98495
 Alpha virt. eigenvalues --    0.99317   0.99482   1.02102   1.02626   1.03876
 Alpha virt. eigenvalues --    1.04792   1.05714   1.08411   1.10481   1.10793
 Alpha virt. eigenvalues --    1.12654   1.14455   1.16384   1.20119   1.22856
 Alpha virt. eigenvalues --    1.22970   1.23890   1.25650   1.27426   1.27704
 Alpha virt. eigenvalues --    1.28846   1.29796   1.30662   1.34249   1.35713
 Alpha virt. eigenvalues --    1.37661   1.39663   1.43459   1.47884   1.48700
 Alpha virt. eigenvalues --    1.50269   1.50986   1.52952   1.55347   1.56187
 Alpha virt. eigenvalues --    1.56965   1.57708   1.60797   1.61445   1.63898
 Alpha virt. eigenvalues --    1.64781   1.66964   1.67852   1.70421   1.71085
 Alpha virt. eigenvalues --    1.72854   1.74393   1.76888   1.77196   1.80096
 Alpha virt. eigenvalues --    1.84166   1.84982   1.85659   1.87307   1.88022
 Alpha virt. eigenvalues --    1.89513   1.90679   1.91818   1.93317   1.94562
 Alpha virt. eigenvalues --    1.95097   1.96949   1.97363   1.98746   2.00764
 Alpha virt. eigenvalues --    2.02026   2.04045   2.06367   2.08074   2.13763
 Alpha virt. eigenvalues --    2.14536   2.18293   2.20326   2.23618   2.25321
 Alpha virt. eigenvalues --    2.26638   2.27237   2.28292   2.29590   2.31213
 Alpha virt. eigenvalues --    2.32804   2.35183   2.36443   2.37888   2.39927
 Alpha virt. eigenvalues --    2.41579   2.42052   2.44590   2.45230   2.47306
 Alpha virt. eigenvalues --    2.51062   2.52094   2.53527   2.54826   2.58886
 Alpha virt. eigenvalues --    2.60672   2.63272   2.64666   2.65861   2.67165
 Alpha virt. eigenvalues --    2.69218   2.69580   2.71837   2.74164   2.75123
 Alpha virt. eigenvalues --    2.75484   2.76625   2.77207   2.78770   2.79283
 Alpha virt. eigenvalues --    2.80536   2.81368   2.83236   2.84414   2.85448
 Alpha virt. eigenvalues --    2.88611   2.91952   2.97789   2.99491   3.07185
 Alpha virt. eigenvalues --    3.08617   3.10791   3.12334   3.15876   3.16793
 Alpha virt. eigenvalues --    3.20247   3.21545   3.22908   3.34399   3.35973
 Alpha virt. eigenvalues --    3.37139   3.42736   3.49720   3.57176   3.58828
 Alpha virt. eigenvalues --    3.67807   3.70287   3.76391   3.84151   3.99447
 Alpha virt. eigenvalues --    4.00813   4.06901   4.10497   4.12913   4.36593
 Alpha virt. eigenvalues --    4.80566   4.83464   9.74710   9.78082   9.79634
 Alpha virt. eigenvalues --    9.82141  23.38043  23.59448  23.83740  23.87463
 Alpha virt. eigenvalues --   23.90089  23.92844  23.95881  24.00206  24.04877
 Alpha virt. eigenvalues --   24.07598  24.12919  24.16491  25.77979  25.83133
 Alpha virt. eigenvalues --   25.84259  25.92436  26.10091  26.12919  26.15069
 Alpha virt. eigenvalues --   26.28253  26.49056  26.60325  26.66003  26.87862
 Alpha virt. eigenvalues --  215.73669 215.77282 215.79202 215.82232
          Condensed to atoms (all electrons):
               1          2          3          4          5          6
     1  C   20.262884  -4.306615  -1.697459  -1.536577  -4.613260   4.109220
     2  C   -4.306615  19.780775  -0.169101   1.753493  -2.138636 -11.638814
     3  C   -1.697459  -0.169101   8.711047   0.541376  -0.200414  -1.923373
     4  C   -1.536577   1.753493   0.541376  15.902577  -1.950052  -8.188648
     5  C   -4.613260  -2.138636  -0.200414  -1.950052  20.438292  -9.673345
     6  C    4.109220 -11.638814  -1.923373  -8.188648  -9.673345  44.312079
     7  C   -1.444658   1.450826   0.436834  -0.203842   3.597117  -8.731974
     8  C   -2.321785   0.877951  -0.021423   0.005273   0.725140  -1.594784
     9  C   -0.212486  -0.050075   0.125225  -0.082700   0.074878   0.049205
    10  C   -0.788508   0.443300  -0.020067   0.043832   0.110523  -0.762728
    11  C   -1.166844  -0.264759   0.027444   0.000414   0.207841   0.111924
    12  C   -0.068815   0.261647  -0.035047   0.296687  -0.877477   1.325065
    13  H    0.033521   0.322059  -0.042235  -0.004735  -0.005429   0.021215
    14  H    0.009482   0.021492   0.366574   0.000827  -0.012057  -0.044021
    15  H    0.039008  -0.055353   0.000490   0.280316   0.073409   0.009151
    16  H    0.056311   0.069657  -0.019473   0.054948   0.020818   0.126305
    17  H    0.018851   0.079640  -0.003506   0.007645  -0.024972  -0.009265
    18  H    0.003619  -0.000960  -0.000264   0.000096  -0.000662   0.001074
    19  Cl  -0.517149  -0.116787   0.056247  -0.145614   0.676748  -0.859730
    20  Cl  -0.040169  -0.021437   0.003200  -0.002890   0.021860   0.027567
    21  Cl  -0.326702   0.085195   0.169562  -0.160819  -1.102053   0.651813
    22  Cl  -0.060359   0.020182   0.004103  -0.001335   0.005170  -0.032618
               7          8          9         10         11         12
     1  C   -1.444658  -2.321785  -0.212486  -0.788508  -1.166844  -0.068815
     2  C    1.450826   0.877951  -0.050075   0.443300  -0.264759   0.261647
     3  C    0.436834  -0.021423   0.125225  -0.020067   0.027444  -0.035047
     4  C   -0.203842   0.005273  -0.082700   0.043832   0.000414   0.296687
     5  C    3.597117   0.725140   0.074878   0.110523   0.207841  -0.877477
     6  C   -8.731974  -1.594784   0.049205  -0.762728   0.111924   1.325065
     7  C   16.883337  -4.021582  -0.442577   0.180876  -1.295505  -0.731781
     8  C   -4.021582  19.703196  -0.503343   1.476768  -1.016845  -7.492447
     9  C   -0.442577  -0.503343  11.531068  -2.687869  -3.314475   1.626647
    10  C    0.180876   1.476768  -2.687869  16.208801  -1.490070  -5.856352
    11  C   -1.295505  -1.016845  -3.314475  -1.490070  14.674464  -0.202046
    12  C   -0.731781  -7.492447   1.626647  -5.856352  -0.202046  19.292223
    13  H   -0.018105   0.032831  -0.009757   0.005826   0.005282   0.012460
    14  H    0.008263  -0.004499  -0.000476  -0.000037  -0.000153   0.002207
    15  H    0.008159  -0.000988  -0.000058   0.000011  -0.000010  -0.000420
    16  H    0.033863  -0.022010  -0.001416  -0.004333  -0.008336   0.053453
    17  H   -0.011710   0.370060  -0.063405   0.000488  -0.005574  -0.008541
    18  H    0.010187  -0.037850   0.344869   0.023112   0.004104   0.002243
    19  Cl   0.256514   0.200940   0.289865  -0.209920   0.304582  -1.124145
    20  Cl  -0.453224   0.136074   0.273355  -0.458362  -0.931937   0.856629
    21  Cl  -0.019672   0.018164   0.004533  -0.000855   0.003104  -0.052711
    22  Cl  -0.141663   0.046732  -0.200105  -0.372005   0.484318  -0.370314
              13         14         15         16         17         18
     1  C    0.033521   0.009482   0.039008   0.056311   0.018851   0.003619
     2  C    0.322059   0.021492  -0.055353   0.069657   0.079640  -0.000960
     3  C   -0.042235   0.366574   0.000490  -0.019473  -0.003506  -0.000264
     4  C   -0.004735   0.000827   0.280316   0.054948   0.007645   0.000096
     5  C   -0.005429  -0.012057   0.073409   0.020818  -0.024972  -0.000662
     6  C    0.021215  -0.044021   0.009151   0.126305  -0.009265   0.001074
     7  C   -0.018105   0.008263   0.008159   0.033863  -0.011710   0.010187
     8  C    0.032831  -0.004499  -0.000988  -0.022010   0.370060  -0.037850
     9  C   -0.009757  -0.000476  -0.000058  -0.001416  -0.063405   0.344869
    10  C    0.005826  -0.000037   0.000011  -0.004333   0.000488   0.023112
    11  C    0.005282  -0.000153  -0.000010  -0.008336  -0.005574   0.004104
    12  C    0.012460   0.002207  -0.000420   0.053453  -0.008541   0.002243
    13  H    0.529373  -0.007213  -0.000194  -0.000149  -0.000330   0.000017
    14  H   -0.007213   0.530604  -0.008016   0.000064   0.000019   0.000000
    15  H   -0.000194  -0.008016   0.511121  -0.000255  -0.000001  -0.000000
    16  H   -0.000149   0.000064  -0.000255   0.500540   0.000016   0.000003
    17  H   -0.000330   0.000019  -0.000001   0.000016   0.520019  -0.007081
    18  H    0.000017   0.000000  -0.000000   0.000003  -0.007081   0.506479
    19  Cl  -0.001945  -0.000352   0.000187  -0.001408  -0.002394   0.001633
    20  Cl  -0.000163   0.000001  -0.000000   0.000551   0.000566  -0.000795
    21  Cl   0.000238   0.000687  -0.007748  -0.009793  -0.000045  -0.000004
    22  Cl   0.000046  -0.000001   0.000000  -0.000135  -0.000120  -0.006488
              19         20         21         22
     1  C   -0.517149  -0.040169  -0.326702  -0.060359
     2  C   -0.116787  -0.021437   0.085195   0.020182
     3  C    0.056247   0.003200   0.169562   0.004103
     4  C   -0.145614  -0.002890  -0.160819  -0.001335
     5  C    0.676748   0.021860  -1.102053   0.005170
     6  C   -0.859730   0.027567   0.651813  -0.032618
     7  C    0.256514  -0.453224  -0.019672  -0.141663
     8  C    0.200940   0.136074   0.018164   0.046732
     9  C    0.289865   0.273355   0.004533  -0.200105
    10  C   -0.209920  -0.458362  -0.000855  -0.372005
    11  C    0.304582  -0.931937   0.003104   0.484318
    12  C   -1.124145   0.856629  -0.052711  -0.370314
    13  H   -0.001945  -0.000163   0.000238   0.000046
    14  H   -0.000352   0.000001   0.000687  -0.000001
    15  H    0.000187  -0.000000  -0.007748   0.000000
    16  H   -0.001408   0.000551  -0.009793  -0.000135
    17  H   -0.002394   0.000566  -0.000045  -0.000120
    18  H    0.001633  -0.000795  -0.000004  -0.006488
    19  Cl  17.763263  -0.164105   0.004795  -0.012114
    20  Cl  -0.164105  17.355743   0.000308  -0.164988
    21  Cl   0.004795   0.000308  17.335221   0.000083
    22  Cl  -0.012114  -0.164988   0.000083  17.305039
 Mulliken charges:
               1
     1  C    0.568489
     2  C   -0.403680
     3  C   -0.309742
     4  C   -0.610276
     5  C    0.646559
     6  C   -1.285317
     7  C    0.650318
     8  C   -0.555576
     9  C   -0.750901
    10  C    0.157569
    11  C   -0.126923
    12  C   -0.909166
    13  H    0.127386
    14  H    0.136606
    15  H    0.151193
    16  H    0.150778
    17  H    0.139639
    18  H    0.156667
    19  Cl   0.600888
    20  Cl   0.562217
    21  Cl   0.406699
    22  Cl   0.496573
 Sum of Mulliken charges =  -0.00000
 Mulliken charges with hydrogens summed into heavy atoms:
               1
     1  C    0.568489
     2  C   -0.276294
     3  C   -0.173136
     4  C   -0.459083
     5  C    0.646559
     6  C   -1.134540
     7  C    0.650318
     8  C   -0.415937
     9  C   -0.594234
    10  C    0.157569
    11  C   -0.126923
    12  C   -0.909166
    19  Cl   0.600888
    20  Cl   0.562217
    21  Cl   0.406699
    22  Cl   0.496573
 Electronic spatial extent (au):  <R**2>=           6499.1905
 Charge=              0.0000 electrons
 Dipole moment (field-independent basis, Debye):
    X=             -0.8256    Y=              2.9631    Z=             -0.6900  Tot=              3.1524
 Quadrupole moment (field-independent basis, Debye-Ang):
   XX=           -124.7554   YY=           -114.6284   ZZ=           -119.9352
   XY=             -2.3174   XZ=              5.7296   YZ=             -2.2154
 Traceless Quadrupole moment (field-independent basis, Debye-Ang):
   XX=             -4.9824   YY=              5.1446   ZZ=             -0.1622
   XY=             -2.3174   XZ=              5.7296   YZ=             -2.2154
 Octapole moment (field-independent basis, Debye-Ang**2):
  XXX=             -3.8505  YYY=             -7.2081  ZZZ=             -0.1713  XYY=             10.3212
  XXY=             13.1404  XXZ=            -23.9530  XZZ=              1.2422  YZZ=             -1.9840
  YYZ=             -1.5513  XYZ=             12.5573
 Hexadecapole moment (field-independent basis, Debye-Ang**3):
 XXXX=          -6652.5268 YYYY=          -1315.9677 ZZZZ=           -584.4773 XXXY=            -86.6119
 XXXZ=            103.9308 YYYX=             22.6666 YYYZ=             17.4447 ZZZX=            -14.0273
 ZZZY=            -13.9394 XXYY=          -1319.7351 XXZZ=          -1216.0523 YYZZ=           -308.4018
 XXYZ=            -29.1880 YYXZ=             18.3374 ZZXY=            -10.0753
 N-N= 1.438774596072D+03 E-N=-8.321979861456D+03  KE= 2.295552428423D+03
 1\1\GINC-DAMODAR\FOpt\RB3LYP\6-311+G(d,p)\C12H6Cl4\PKC\15-Mar-2022\0\\
 # opt b3lyp/6-311+g(d,p) scf=xqc\\Title Card Required\\0,1\C,-0.468028
 5728,0.0253998855,-0.0295550363\C,0.4964437205,0.2277220317,-1.0225154
 352\C,1.2322570637,1.4100851964,-1.0591763662\C,1.025175068,2.40313437
 39,-0.1059096509\C,0.0681124061,2.1905569292,0.8820137561\C,-0.6791984
 985,1.0204634603,0.9317624783\C,-1.2162001461,-1.2633918854,0.02992902
 5\C,-0.5035185903,-2.4489256463,0.2398438721\C,-1.1399568644,-3.678953
 5496,0.3089171284\C,-2.5208393628,-3.7517882605,0.1653714494\C,-3.2704
 714292,-2.5898686975,-0.0552548322\C,-2.6083818866,-1.3519808723,-0.12
 41974371\H,0.6594160989,-0.5356490435,-1.7742569124\H,1.9714421438,1.5
 626164131,-1.8370722829\H,1.5925238127,3.3246119773,-0.1255156919\H,-1
 .4136458895,0.8828327549,1.7143729705\H,0.5708208636,-2.395806557,0.36
 74881343\H,-0.5754892376,-4.585945176,0.4805283544\Cl,-3.5350640798,0.
 0927906637,-0.4532759124\Cl,-4.99455993,-2.6850995,-0.2531027136\Cl,-0
 .1996850965,3.4289156249,2.1018110788\Cl,-3.2882195932,-5.3169437329,0
 .2656274938\\Version=EM64L-G16RevB.01\State=1-A\HF=-2301.8967963\RMSD=
 7.797e-09\RMSF=9.326e-06\Dipole=1.1574471,-0.2637991,-0.3590454\Quadru
 pole=3.0995373,-2.4307473,-0.6687901,-2.0166001,-4.0386869,-3.1067023\
 PG=C01 [X(C12H6Cl4)]\\@


 ERWIN WITH HIS PSI CAN DO
 CALCULATIONS QUITE A FEW.
 BUT ONE THING HAS NOT BEEN SEEN
 JUST WHAT DOES PSI REALLY MEAN.
 -- WALTER HUCKEL, TRANS. BY FELIX BLOCH
 Job cpu time:       0 days  9 hours 52 minutes 35.0 seconds.
 Elapsed time:       0 days  2 hours 28 minutes 35.7 seconds.
 File lengths (MBytes):  RWF=    120 Int=      0 D2E=      0 Chk=     18 Scr=      1
 Normal termination of Gaussian 16 at Tue Mar 15 22:44:32 2022.
