 Entering Gaussian System, Link 0=g16
 Input=2,3,3prime,4prime,5,5prime,6-Heptachlorobiphenyl.gjf
 Output=2,3,3prime,4prime,5,5prime,6-Heptachlorobiphenyl.log
 Initial command:
 /home/apps/g16/l1.exe "./Gau-114668.inp" -scrdir="./"
 Entering Link 1 = /home/apps/g16/l1.exe PID=    114669.
  
 Copyright (c) 1988-2017, Gaussian, Inc.  All Rights Reserved.
  
 This is part of the Gaussian(R) 16 program.  It is based on
 the Gaussian(R) 09 system (copyright 2009, Gaussian, Inc.),
 the Gaussian(R) 03 system (copyright 2003, Gaussian, Inc.),
 the Gaussian(R) 98 system (copyright 1998, Gaussian, Inc.),
 the Gaussian(R) 94 system (copyright 1995, Gaussian, Inc.),
 the Gaussian 92(TM) system (copyright 1992, Gaussian, Inc.),
 the Gaussian 90(TM) system (copyright 1990, Gaussian, Inc.),
 the Gaussian 88(TM) system (copyright 1988, Gaussian, Inc.),
 the Gaussian 86(TM) system (copyright 1986, Carnegie Mellon
 University), and the Gaussian 82(TM) system (copyright 1983,
 Carnegie Mellon University). Gaussian is a federally registered
 trademark of Gaussian, Inc.
  
 This software contains proprietary and confidential information,
 including trade secrets, belonging to Gaussian, Inc.
  
 This software is provided under written license and may be
 used, copied, transmitted, or stored only in accord with that
 written license.
  
 The following legend is applicable only to US Government
 contracts under FAR:
  
                    RESTRICTED RIGHTS LEGEND
  
 Use, reproduction and disclosure by the US Government is
 subject to restrictions as set forth in subparagraphs (a)
 and (c) of the Commercial Computer Software - Restricted
 Rights clause in FAR 52.227-19.
  
 Gaussian, Inc.
 340 Quinnipiac St., Bldg. 40, Wallingford CT 06492
  
  
 ---------------------------------------------------------------
 Warning -- This program may not be used in any manner that
 competes with the business of Gaussian, Inc. or will provide
 assistance to any competitor of Gaussian, Inc.  The licensee
 of this program is prohibited from giving any competitor of
 Gaussian, Inc. access to this program.  By using this program,
 the user acknowledges that Gaussian, Inc. is engaged in the
 business of creating and licensing software in the field of
 computational chemistry and represents and warrants to the
 licensee that it is not a competitor of Gaussian, Inc. and that
 it will not use this program in any manner prohibited above.
 ---------------------------------------------------------------
  

 Cite this work as:
 Gaussian 16, Revision B.01,
 M. J. Frisch, G. W. Trucks, H. B. Schlegel, G. E. Scuseria, 
 M. A. Robb, J. R. Cheeseman, G. Scalmani, V. Barone, 
 G. A. Petersson, H. Nakatsuji, X. Li, M. Caricato, A. V. Marenich, 
 J. Bloino, B. G. Janesko, R. Gomperts, B. Mennucci, H. P. Hratchian, 
 J. V. Ortiz, A. F. Izmaylov, J. L. Sonnenberg, D. Williams-Young, 
 F. Ding, F. Lipparini, F. Egidi, J. Goings, B. Peng, A. Petrone, 
 T. Henderson, D. Ranasinghe, V. G. Zakrzewski, J. Gao, N. Rega, 
 G. Zheng, W. Liang, M. Hada, M. Ehara, K. Toyota, R. Fukuda, 
 J. Hasegawa, M. Ishida, T. Nakajima, Y. Honda, O. Kitao, H. Nakai, 
 T. Vreven, K. Throssell, J. A. Montgomery, Jr., J. E. Peralta, 
 F. Ogliaro, M. J. Bearpark, J. J. Heyd, E. N. Brothers, K. N. Kudin, 
 V. N. Staroverov, T. A. Keith, R. Kobayashi, J. Normand, 
 K. Raghavachari, A. P. Rendell, J. C. Burant, S. S. Iyengar, 
 J. Tomasi, M. Cossi, J. M. Millam, M. Klene, C. Adamo, R. Cammi, 
 J. W. Ochterski, R. L. Martin, K. Morokuma, O. Farkas, 
 J. B. Foresman, and D. J. Fox, Gaussian, Inc., Wallingford CT, 2016.
 
 ******************************************
 Gaussian 16:  EM64L-G16RevB.01 20-Dec-2017
                27-Mar-2022 
 ******************************************
 %mem=10GB
 %nprocshared=4
 Will use up to    4 processors via shared memory.
 --------------------------------
 # opt b3lyp/6-311+g(d,p) scf=xqc
 --------------------------------
 1/18=20,19=15,26=3,38=1/1,3;
 2/9=110,12=2,17=6,18=5,40=1/2;
 3/5=4,6=6,7=111,11=2,25=1,30=1,71=1,74=-5/1,2,3;
 4//1;
 5/5=2,8=3,13=1,38=5/2,8;
 6/7=2,8=2,9=2,10=2,28=1/1;
 7//1,2,3,16;
 1/18=20,19=15,26=3/3(2);
 2/9=110/2;
 99//99;
 2/9=110/2;
 3/5=4,6=6,7=111,11=2,25=1,30=1,71=1,74=-5/1,2,3;
 4/5=5,16=3,69=1/1;
 5/5=2,8=3,13=1,38=5/2,8;
 7//1,2,3,16;
 1/18=20,19=15,26=3/3(-5);
 2/9=110/2;
 6/7=2,8=2,9=2,10=2,19=2,28=1/1;
 99/9=1/99;
 -------------------
 Title Card Required
 -------------------
 Symbolic Z-matrix:
 Charge =  0 Multiplicity = 1
 C                     0.28028  -0.45751  -0.00285 
 C                     1.61267  -0.42762  -0.4362 
 C                     2.32056   0.78183  -0.44227 
 C                     1.69607   1.96139  -0.015 
 C                     0.36369   1.93151   0.41835 
 C                    -0.3442    0.72206   0.42442 
 C                    -0.49762  -1.78658   0.00382 
 C                     0.12687  -2.96614  -0.42345 
 C                    -0.58103  -4.17559  -0.41738 
 C                    -1.91341  -4.20548   0.01597 
 C                    -2.53789  -3.02591   0.44325 
 C                    -1.83     -1.81646   0.43717 
 H                     2.08948  -1.32825  -0.76243 
 H                    -1.36151   0.69924   0.75529 
 H                    -2.4539   -5.12892   0.02061 
 Cl                   -2.61428  -0.33506   0.97378 
 Cl                   -4.21121  -3.06345   0.98749 
 Cl                   -0.4206    3.41291   0.95496 
 Cl                    2.58511   3.48033  -0.02262 
 Cl                    3.99388   0.81936  -0.9865 
 Cl                    0.20326  -5.65699  -0.95399 
 Cl                    1.80019  -2.92861  -0.96769 
 

 GradGradGradGradGradGradGradGradGradGradGradGradGradGradGradGradGradGrad
 Berny optimization.
 Initialization pass.
                           ----------------------------
                           !    Initial Parameters    !
                           ! (Angstroms and Degrees)  !
 --------------------------                            --------------------------
 ! Name  Definition              Value          Derivative Info.                !
 --------------------------------------------------------------------------------
 ! R1    R(1,2)                  1.4014         estimate D2E/DX2                !
 ! R2    R(1,6)                  1.4014         estimate D2E/DX2                !
 ! R3    R(1,7)                  1.54           estimate D2E/DX2                !
 ! R4    R(2,3)                  1.4014         estimate D2E/DX2                !
 ! R5    R(2,13)                 1.07           estimate D2E/DX2                !
 ! R6    R(3,4)                  1.4014         estimate D2E/DX2                !
 ! R7    R(3,20)                 1.76           estimate D2E/DX2                !
 ! R8    R(4,5)                  1.4014         estimate D2E/DX2                !
 ! R9    R(4,19)                 1.76           estimate D2E/DX2                !
 ! R10   R(5,6)                  1.4014         estimate D2E/DX2                !
 ! R11   R(5,18)                 1.76           estimate D2E/DX2                !
 ! R12   R(6,14)                 1.07           estimate D2E/DX2                !
 ! R13   R(7,8)                  1.4014         estimate D2E/DX2                !
 ! R14   R(7,12)                 1.4014         estimate D2E/DX2                !
 ! R15   R(8,9)                  1.4014         estimate D2E/DX2                !
 ! R16   R(8,22)                 1.76           estimate D2E/DX2                !
 ! R17   R(9,10)                 1.4014         estimate D2E/DX2                !
 ! R18   R(9,21)                 1.76           estimate D2E/DX2                !
 ! R19   R(10,11)                1.4014         estimate D2E/DX2                !
 ! R20   R(10,15)                1.07           estimate D2E/DX2                !
 ! R21   R(11,12)                1.4014         estimate D2E/DX2                !
 ! R22   R(11,17)                1.76           estimate D2E/DX2                !
 ! R23   R(12,16)                1.76           estimate D2E/DX2                !
 ! A1    A(2,1,6)              120.0            estimate D2E/DX2                !
 ! A2    A(2,1,7)              120.0            estimate D2E/DX2                !
 ! A3    A(6,1,7)              120.0            estimate D2E/DX2                !
 ! A4    A(1,2,3)              120.0            estimate D2E/DX2                !
 ! A5    A(1,2,13)             120.0            estimate D2E/DX2                !
 ! A6    A(3,2,13)             120.0            estimate D2E/DX2                !
 ! A7    A(2,3,4)              120.0            estimate D2E/DX2                !
 ! A8    A(2,3,20)             120.0            estimate D2E/DX2                !
 ! A9    A(4,3,20)             120.0            estimate D2E/DX2                !
 ! A10   A(3,4,5)              120.0            estimate D2E/DX2                !
 ! A11   A(3,4,19)             120.0            estimate D2E/DX2                !
 ! A12   A(5,4,19)             120.0            estimate D2E/DX2                !
 ! A13   A(4,5,6)              120.0            estimate D2E/DX2                !
 ! A14   A(4,5,18)             120.0            estimate D2E/DX2                !
 ! A15   A(6,5,18)             120.0            estimate D2E/DX2                !
 ! A16   A(1,6,5)              120.0            estimate D2E/DX2                !
 ! A17   A(1,6,14)             120.0            estimate D2E/DX2                !
 ! A18   A(5,6,14)             120.0            estimate D2E/DX2                !
 ! A19   A(1,7,8)              120.0            estimate D2E/DX2                !
 ! A20   A(1,7,12)             120.0            estimate D2E/DX2                !
 ! A21   A(8,7,12)             120.0            estimate D2E/DX2                !
 ! A22   A(7,8,9)              120.0            estimate D2E/DX2                !
 ! A23   A(7,8,22)             120.0            estimate D2E/DX2                !
 ! A24   A(9,8,22)             120.0            estimate D2E/DX2                !
 ! A25   A(8,9,10)             120.0            estimate D2E/DX2                !
 ! A26   A(8,9,21)             120.0            estimate D2E/DX2                !
 ! A27   A(10,9,21)            120.0            estimate D2E/DX2                !
 ! A28   A(9,10,11)            120.0            estimate D2E/DX2                !
 ! A29   A(9,10,15)            120.0            estimate D2E/DX2                !
 ! A30   A(11,10,15)           120.0            estimate D2E/DX2                !
 ! A31   A(10,11,12)           120.0            estimate D2E/DX2                !
 ! A32   A(10,11,17)           120.0            estimate D2E/DX2                !
 ! A33   A(12,11,17)           120.0            estimate D2E/DX2                !
 ! A34   A(7,12,11)            120.0            estimate D2E/DX2                !
 ! A35   A(7,12,16)            120.0            estimate D2E/DX2                !
 ! A36   A(11,12,16)           120.0            estimate D2E/DX2                !
 ! D1    D(6,1,2,3)              0.0001         estimate D2E/DX2                !
 ! D2    D(6,1,2,13)           180.0            estimate D2E/DX2                !
 ! D3    D(7,1,2,3)           -180.0            estimate D2E/DX2                !
 ! D4    D(7,1,2,13)            -0.0001         estimate D2E/DX2                !
 ! D5    D(2,1,6,5)             -0.0001         estimate D2E/DX2                !
 ! D6    D(2,1,6,14)           180.0            estimate D2E/DX2                !
 ! D7    D(7,1,6,5)            180.0            estimate D2E/DX2                !
 ! D8    D(7,1,6,14)             0.0            estimate D2E/DX2                !
 ! D9    D(2,1,7,8)             -0.0001         estimate D2E/DX2                !
 ! D10   D(2,1,7,12)           179.9998         estimate D2E/DX2                !
 ! D11   D(6,1,7,8)            179.9999         estimate D2E/DX2                !
 ! D12   D(6,1,7,12)            -0.0002         estimate D2E/DX2                !
 ! D13   D(1,2,3,4)              0.0            estimate D2E/DX2                !
 ! D14   D(1,2,3,20)           180.0            estimate D2E/DX2                !
 ! D15   D(13,2,3,4)          -179.9999         estimate D2E/DX2                !
 ! D16   D(13,2,3,20)            0.0001         estimate D2E/DX2                !
 ! D17   D(2,3,4,5)             -0.0001         estimate D2E/DX2                !
 ! D18   D(2,3,4,19)           180.0            estimate D2E/DX2                !
 ! D19   D(20,3,4,5)           179.9999         estimate D2E/DX2                !
 ! D20   D(20,3,4,19)            0.0            estimate D2E/DX2                !
 ! D21   D(3,4,5,6)              0.0001         estimate D2E/DX2                !
 ! D22   D(3,4,5,18)          -179.9999         estimate D2E/DX2                !
 ! D23   D(19,4,5,6)          -180.0            estimate D2E/DX2                !
 ! D24   D(19,4,5,18)            0.0            estimate D2E/DX2                !
 ! D25   D(4,5,6,1)              0.0            estimate D2E/DX2                !
 ! D26   D(4,5,6,14)           179.9999         estimate D2E/DX2                !
 ! D27   D(18,5,6,1)           180.0            estimate D2E/DX2                !
 ! D28   D(18,5,6,14)           -0.0001         estimate D2E/DX2                !
 ! D29   D(1,7,8,9)            179.9999         estimate D2E/DX2                !
 ! D30   D(1,7,8,22)             0.0001         estimate D2E/DX2                !
 ! D31   D(12,7,8,9)             0.0001         estimate D2E/DX2                !
 ! D32   D(12,7,8,22)         -179.9998         estimate D2E/DX2                !
 ! D33   D(1,7,12,11)         -179.9999         estimate D2E/DX2                !
 ! D34   D(1,7,12,16)            0.0            estimate D2E/DX2                !
 ! D35   D(8,7,12,11)           -0.0001         estimate D2E/DX2                !
 ! D36   D(8,7,12,16)          179.9999         estimate D2E/DX2                !
 ! D37   D(7,8,9,10)             0.0            estimate D2E/DX2                !
 ! D38   D(7,8,9,21)           180.0            estimate D2E/DX2                !
 ! D39   D(22,8,9,10)          179.9998         estimate D2E/DX2                !
 ! D40   D(22,8,9,21)           -0.0002         estimate D2E/DX2                !
 ! D41   D(8,9,10,11)            0.0            estimate D2E/DX2                !
 ! D42   D(8,9,10,15)         -179.9999         estimate D2E/DX2                !
 ! D43   D(21,9,10,11)         180.0            estimate D2E/DX2                !
 ! D44   D(21,9,10,15)           0.0001         estimate D2E/DX2                !
 ! D45   D(9,10,11,12)           0.0            estimate D2E/DX2                !
 ! D46   D(9,10,11,17)        -179.9998         estimate D2E/DX2                !
 ! D47   D(15,10,11,12)        179.9999         estimate D2E/DX2                !
 ! D48   D(15,10,11,17)          0.0001         estimate D2E/DX2                !
 ! D49   D(10,11,12,7)           0.0            estimate D2E/DX2                !
 ! D50   D(10,11,12,16)       -179.9999         estimate D2E/DX2                !
 ! D51   D(17,11,12,7)         179.9999         estimate D2E/DX2                !
 ! D52   D(17,11,12,16)         -0.0001         estimate D2E/DX2                !
 --------------------------------------------------------------------------------
 Trust Radius=3.00D-01 FncErr=1.00D-07 GrdErr=1.00D-06 EigMax=2.50D+02 EigMin=1.00D-04
 Number of steps in this run=    121 maximum allowed number of steps=    132.
 GradGradGradGradGradGradGradGradGradGradGradGradGradGradGradGradGradGrad

                          Input orientation:                          
 ---------------------------------------------------------------------
 Center     Atomic      Atomic             Coordinates (Angstroms)
 Number     Number       Type             X           Y           Z
 ---------------------------------------------------------------------
      1          6           0        0.280285   -0.457508   -0.002851
      2          6           0        1.612666   -0.427623   -0.436198
      3          6           0        2.320560    0.781828   -0.442270
      4          6           0        1.696072    1.961394   -0.014995
      5          6           0        0.363691    1.931508    0.418350
      6          6           0       -0.344203    0.722057    0.424422
      7          6           0       -0.497620   -1.786576    0.003823
      8          6           0        0.126867   -2.966141   -0.423452
      9          6           0       -0.581025   -4.175592   -0.417378
     10          6           0       -1.913406   -4.205478    0.015972
     11          6           0       -2.537893   -3.025914    0.443247
     12          6           0       -1.830000   -1.816462    0.437173
     13          1           0        2.089477   -1.328247   -0.762430
     14          1           0       -1.361506    0.699239    0.755291
     15          1           0       -2.453897   -5.128922    0.020611
     16         17           0       -2.614284   -0.335062    0.973785
     17         17           0       -4.211210   -3.063448    0.987490
     18         17           0       -0.420596    3.412909    0.954955
     19         17           0        2.585107    3.480327   -0.022621
     20         17           0        3.993880    0.819362   -0.986504
     21         17           0        0.203260   -5.656992   -0.953987
     22         17           0        1.800188   -2.928607   -0.967686
 ---------------------------------------------------------------------
                    Distance matrix (angstroms):
                    1          2          3          4          5
     1  C    0.000000
     2  C    1.401400   0.000000
     3  C    2.427296   1.401400   0.000000
     4  C    2.802800   2.427296   1.401400   0.000000
     5  C    2.427296   2.802800   2.427296   1.401400   0.000000
     6  C    1.401400   2.427296   2.802800   2.427296   1.401400
     7  C    1.540000   2.548270   3.838989   4.342800   3.838989
     8  C    2.548270   2.941400   4.342800   5.187469   4.975106
     9  C    3.838989   4.342800   5.744200   6.558176   6.235992
    10  C    4.342800   5.187469   6.558176   7.145600   6.558176
    11  C    3.838989   4.975106   6.235992   6.558176   5.744200
    12  C    2.548270   3.813607   4.975106   5.187469   4.342800
    13  H    2.146700   1.070000   2.146700   3.396345   3.872800
    14  H    2.146700   3.396345   3.872800   3.396345   2.146700
    15  H    5.412800   6.232802   7.612271   8.215600   7.612271
    16  Cl   3.057342   4.456874   5.254079   4.983028   3.783409
    17  Cl   5.286324   6.549198   7.713260   7.819846   6.797295
    18  Cl   4.048303   4.562800   4.048303   2.743718   1.760000
    19  Cl   4.562800   4.048303   2.743718   1.760000   2.743718
    20  Cl   4.048303   2.743718   1.760000   2.743718   4.048303
    21  Cl   5.286324   5.440665   6.797295   7.819846   7.713260
    22  Cl   3.057342   2.563702   3.783409   4.983028   5.254079
                    6          7          8          9         10
     6  C    0.000000
     7  C    2.548270   0.000000
     8  C    3.813607   1.401400   0.000000
     9  C    4.975106   2.427296   1.401400   0.000000
    10  C    5.187469   2.802800   2.427296   1.401400   0.000000
    11  C    4.342800   2.427296   2.802800   2.427296   1.401400
    12  C    2.941400   1.401400   2.427296   2.802800   2.427296
    13  H    3.396345   2.736837   2.578650   3.918930   4.990735
    14  H    1.070000   2.736837   4.127917   5.074276   4.990735
    15  H    6.232802   3.872800   3.396345   2.146700   1.070000
    16  Cl   2.563702   2.743718   4.048303   4.562800   4.048303
    17  Cl   5.440665   4.048303   4.562800   4.048303   2.743718
    18  Cl   2.743718   5.286324   6.549198   7.713260   7.819846
    19  Cl   4.048303   6.102800   6.910901   8.294174   8.905600
    20  Cl   4.562800   5.286324   5.440665   6.797295   7.819846
    21  Cl   6.549198   4.048303   2.743718   1.760000   2.743718
    22  Cl   4.456874   2.743718   1.760000   2.743718   4.048303
                   11         12         13         14         15
    11  C    0.000000
    12  C    1.401400   0.000000
    13  H    5.074276   4.127917   0.000000
    14  H    3.918930   2.578650   4.280590   0.000000
    15  H    2.146700   3.396345   5.974992   5.974992   0.000000
    16  Cl   2.743718   1.760000   5.111382   1.639199   4.890332
    17  Cl   1.760000   2.743718   6.765486   4.725732   2.879094
    18  Cl   6.797295   5.440665   5.632800   2.879094   8.830073
    19  Cl   8.294174   6.910901   4.890332   4.890332   9.975600
    20  Cl   7.713260   6.549198   2.879094   5.632800   8.830073
    21  Cl   4.048303   4.562800   4.725732   6.765486   2.879094
    22  Cl   4.562800   4.048303   1.639199   5.111382   4.890332
                   16         17         18         19         20
    16  Cl   0.000000
    17  Cl   3.161400   0.000000
    18  Cl   4.342800   7.504200   0.000000
    19  Cl   6.525618   9.488480   3.161400   0.000000
    20  Cl   6.988795   9.289584   5.475705   3.161400   0.000000
    21  Cl   6.322800   5.475705   9.289584   9.488480   7.504200
    22  Cl   5.475705   6.322800   6.988795   6.525618   4.342800
                   21         22
    21  Cl   0.000000
    22  Cl   3.161400   0.000000
 Stoichiometry    C12H3Cl7
 Framework group  C1[X(C12H3Cl7)]
 Deg. of freedom    60
 Full point group                 C1      NOp   1
 Largest Abelian subgroup         C1      NOp   1
 Largest concise Abelian subgroup C1      NOp   1
                         Standard orientation:                         
 ---------------------------------------------------------------------
 Center     Atomic      Atomic             Coordinates (Angstroms)
 Number     Number       Type             X           Y           Z
 ---------------------------------------------------------------------
      1          6           0       -0.420503    0.000000    0.000002
      2          6           0       -1.121203   -1.213648    0.000000
      3          6           0       -2.522603   -1.213648   -0.000001
      4          6           0       -3.223303    0.000000   -0.000001
      5          6           0       -2.522603    1.213648    0.000003
      6          6           0       -1.121203    1.213648    0.000004
      7          6           0        1.119497    0.000000    0.000003
      8          6           0        1.820197   -1.213648    0.000003
      9          6           0        3.221597   -1.213648    0.000002
     10          6           0        3.922297    0.000000    0.000001
     11          6           0        3.221597    1.213648    0.000000
     12          6           0        1.820197    1.213648    0.000001
     13          1           0       -0.586203   -2.140295   -0.000002
     14          1           0       -0.586203    2.140295    0.000006
     15          1           0        4.992297    0.000000   -0.000001
     16         17           0        0.940197    2.737853   -0.000002
     17         17           0        4.101597    2.737853   -0.000006
     18         17           0       -3.402603    2.737853    0.000006
     19         17           0       -4.983303    0.000000   -0.000004
     20         17           0       -3.402603   -2.737853   -0.000004
     21         17           0        4.101597   -2.737853    0.000003
     22         17           0        0.940197   -2.737853    0.000000
 ---------------------------------------------------------------------
 Rotational constants (GHZ):           0.2932520           0.1336916           0.0918279
 Standard basis: 6-311+G(d,p) (5D, 7F)
 There are   511 symmetry adapted cartesian basis functions of A   symmetry.
 There are   492 symmetry adapted basis functions of A   symmetry.
   492 basis functions,   827 primitive gaussians,   511 cartesian basis functions
    97 alpha electrons       97 beta electrons
       nuclear repulsion energy      2321.8905559054 Hartrees.
 NAtoms=   22 NActive=   22 NUniq=   22 SFac= 1.00D+00 NAtFMM=   60 NAOKFM=F Big=F
 Integral buffers will be    131072 words long.
 Raffenetti 2 integral format.
 Two-electron integral symmetry is turned on.
 One-electron integrals computed using PRISM.
 NBasis=   492 RedAO= T EigKep=  1.25D-06  NBF=   492
 NBsUse=   485 1.00D-06 EigRej=  5.34D-07 NBFU=   485
 ExpMin= 4.38D-02 ExpMax= 1.06D+05 ExpMxC= 3.62D+03 IAcc=3 IRadAn=         5 AccDes= 0.00D+00
 Harris functional with IExCor=  402 and IRadAn=       5 diagonalized for initial guess.
 HarFok:  IExCor=  402 AccDes= 0.00D+00 IRadAn=         5 IDoV= 1 UseB2=F ITyADJ=14
 ICtDFT=  3500011 ScaDFX=  1.000000  1.000000  1.000000  1.000000
 FoFCou: FMM=F IPFlag=           0 FMFlag=      100000 FMFlg1=           0
         NFxFlg=           0 DoJE=T BraDBF=F KetDBF=T FulRan=T
         wScrn=  0.000000 ICntrl=       500 IOpCl=  0 I1Cent=   200000004 NGrid=           0
         NMat0=    1 NMatS0=      1 NMatT0=    0 NMatD0=    1 NMtDS0=    0 NMtDT0=    0
 Petite list used in FoFCou.
 Requested convergence on RMS density matrix=1.00D-08 within  32 cycles.
 Requested convergence on MAX density matrix=1.00D-06.
 Requested convergence on             energy=1.00D-06.
 No special actions if energy rises.
 SCF Done:  E(RB3LYP) =  -3680.63227415     A.U. after   15 cycles
            NFock= 15  Conv=0.91D-08     -V/T= 2.0025
 QCSCF skips out because SCF is already converged.

 **********************************************************************

            Population analysis using the SCF Density.

 **********************************************************************

 Orbital symmetries:
       Occupied  (A) (A) (A) (A) (A) (A) (A) (A) (A) (A) (A) (A)
                 (A) (A) (A) (A) (A) (A) (A) (A) (A) (A) (A) (A)
                 (A) (A) (A) (A) (A) (A) (A) (A) (A) (A) (A) (A)
                 (A) (A) (A) (A) (A) (A) (A) (A) (A) (A) (A) (A)
                 (A) (A) (A) (A) (A) (A) (A) (A) (A) (A) (A) (A)
                 (A) (A) (A) (A) (A) (A) (A) (A) (A) (A) (A) (A)
                 (A) (A) (A) (A) (A) (A) (A) (A) (A) (A) (A) (A)
                 (A) (A) (A) (A) (A) (A) (A) (A) (A) (A) (A) (A)
                 (A)
       Virtual   (A) (A) (A) (A) (A) (A) (A) (A) (A) (A) (A) (A)
                 (A) (A) (A) (A) (A) (A) (A) (A) (A) (A) (A) (A)
                 (A) (A) (A) (A) (A) (A) (A) (A) (A) (A) (A) (A)
                 (A) (A) (A) (A) (A) (A) (A) (A) (A) (A) (A) (A)
                 (A) (A) (A) (A) (A) (A) (A) (A) (A) (A) (A) (A)
                 (A) (A) (A) (A) (A) (A) (A) (A) (A) (A) (A) (A)
                 (A) (A) (A) (A) (A) (A) (A) (A) (A) (A) (A) (A)
                 (A) (A) (A) (A) (A) (A) (A) (A) (A) (A) (A) (A)
                 (A) (A) (A) (A) (A) (A) (A) (A) (A) (A) (A) (A)
                 (A) (A) (A) (A) (A) (A) (A) (A) (A) (A) (A) (A)
                 (A) (A) (A) (A) (A) (A) (A) (A) (A) (A) (A) (A)
                 (A) (A) (A) (A) (A) (A) (A) (A) (A) (A) (A) (A)
                 (A) (A) (A) (A) (A) (A) (A) (A) (A) (A) (A) (A)
                 (A) (A) (A) (A) (A) (A) (A) (A) (A) (A) (A) (A)
                 (A) (A) (A) (A) (A) (A) (A) (A) (A) (A) (A) (A)
                 (A) (A) (A) (A) (A) (A) (A) (A) (A) (A) (A) (A)
                 (A) (A) (A) (A) (A) (A) (A) (A) (A) (A) (A) (A)
                 (A) (A) (A) (A) (A) (A) (A) (A) (A) (A) (A) (A)
                 (A) (A) (A) (A) (A) (A) (A) (A) (A) (A) (A) (A)
                 (A) (A) (A) (A) (A) (A) (A) (A) (A) (A) (A) (A)
                 (A) (A) (A) (A) (A) (A) (A) (A) (A) (A) (A) (A)
                 (A) (A) (A) (A) (A) (A) (A) (A) (A) (A) (A) (A)
                 (A) (A) (A) (A) (A) (A) (A) (A) (A) (A) (A) (A)
                 (A) (A) (A) (A) (A) (A) (A) (A) (A) (A) (A) (A)
                 (A) (A) (A) (A) (A) (A) (A) (A) (A) (A) (A) (A)
                 (A) (A) (A) (A) (A) (A) (A) (A) (A) (A) (A) (A)
                 (A) (A) (A) (A) (A) (A) (A) (A) (A) (A) (A) (A)
                 (A) (A) (A) (A) (A) (A) (A) (A) (A) (A) (A) (A)
                 (A) (A) (A) (A) (A) (A) (A) (A) (A) (A) (A) (A)
                 (A) (A) (A) (A) (A) (A) (A) (A) (A) (A) (A) (A)
                 (A) (A) (A) (A) (A) (A) (A) (A) (A) (A) (A) (A)
                 (A) (A) (A) (A) (A) (A) (A) (A) (A) (A) (A) (A)
                 (A) (A) (A) (A)
 The electronic state is 1-A.
 Alpha  occ. eigenvalues -- -101.59275-101.59275-101.58950-101.58950-101.56988
 Alpha  occ. eigenvalues -- -101.56988-101.56754 -10.29318 -10.29316 -10.29257
 Alpha  occ. eigenvalues --  -10.29257 -10.26976 -10.26575 -10.26571 -10.26038
 Alpha  occ. eigenvalues --  -10.23984 -10.23378 -10.19349 -10.19348  -9.51048
 Alpha  occ. eigenvalues --   -9.51048  -9.50362  -9.50362  -9.48420  -9.48420
 Alpha  occ. eigenvalues --   -9.48193  -7.27477  -7.27477  -7.26868  -7.26868
 Alpha  occ. eigenvalues --   -7.26493  -7.26493  -7.26460  -7.26460  -7.25837
 Alpha  occ. eigenvalues --   -7.25837  -7.25776  -7.25776  -7.24908  -7.24908
 Alpha  occ. eigenvalues --   -7.24686  -7.23901  -7.23901  -7.23846  -7.23846
 Alpha  occ. eigenvalues --   -7.23687  -7.23595  -0.97322  -0.93923  -0.93839
 Alpha  occ. eigenvalues --   -0.90971  -0.89547  -0.88733  -0.86423  -0.85981
 Alpha  occ. eigenvalues --   -0.84518  -0.79723  -0.76672  -0.75592  -0.75137
 Alpha  occ. eigenvalues --   -0.67371  -0.64565  -0.63718  -0.62349  -0.56110
 Alpha  occ. eigenvalues --   -0.55998  -0.54561  -0.51157  -0.50022  -0.49762
 Alpha  occ. eigenvalues --   -0.49497  -0.47594  -0.47118  -0.47079  -0.44125
 Alpha  occ. eigenvalues --   -0.44123  -0.43451  -0.42378  -0.42280  -0.42119
 Alpha  occ. eigenvalues --   -0.39731  -0.37995  -0.37438  -0.35953  -0.35670
 Alpha  occ. eigenvalues --   -0.35043  -0.34810  -0.34745  -0.33762  -0.33630
 Alpha  occ. eigenvalues --   -0.31359  -0.30997  -0.30258  -0.29394  -0.28263
 Alpha  occ. eigenvalues --   -0.26507  -0.26199
 Alpha virt. eigenvalues --   -0.08830  -0.07218  -0.06208  -0.04783  -0.03406
 Alpha virt. eigenvalues --   -0.02902  -0.02524  -0.01062  -0.00790   0.01088
 Alpha virt. eigenvalues --    0.01191   0.01552   0.02150   0.02430   0.02806
 Alpha virt. eigenvalues --    0.03619   0.04931   0.04946   0.05236   0.05494
 Alpha virt. eigenvalues --    0.06158   0.06179   0.06758   0.06850   0.07340
 Alpha virt. eigenvalues --    0.07836   0.07931   0.08157   0.08678   0.09011
 Alpha virt. eigenvalues --    0.09239   0.10344   0.10378   0.10601   0.10810
 Alpha virt. eigenvalues --    0.11264   0.11276   0.12181   0.12590   0.12953
 Alpha virt. eigenvalues --    0.13279   0.13389   0.13683   0.13984   0.14014
 Alpha virt. eigenvalues --    0.14817   0.15004   0.15125   0.15130   0.15202
 Alpha virt. eigenvalues --    0.16294   0.17155   0.17721   0.17935   0.18303
 Alpha virt. eigenvalues --    0.18549   0.18654   0.18995   0.19159   0.19294
 Alpha virt. eigenvalues --    0.19520   0.20177   0.20271   0.21159   0.21467
 Alpha virt. eigenvalues --    0.21558   0.22687   0.23400   0.23816   0.24107
 Alpha virt. eigenvalues --    0.24118   0.24744   0.24863   0.25129   0.25905
 Alpha virt. eigenvalues --    0.26468   0.26474   0.26618   0.27306   0.27657
 Alpha virt. eigenvalues --    0.28345   0.28417   0.28995   0.29704   0.31419
 Alpha virt. eigenvalues --    0.31782   0.31790   0.32352   0.32734   0.33410
 Alpha virt. eigenvalues --    0.34902   0.35476   0.35890   0.35900   0.37997
 Alpha virt. eigenvalues --    0.40730   0.41054   0.41258   0.41706   0.42363
 Alpha virt. eigenvalues --    0.42819   0.43542   0.43556   0.44238   0.44891
 Alpha virt. eigenvalues --    0.45021   0.45163   0.45726   0.45957   0.46577
 Alpha virt. eigenvalues --    0.47706   0.47805   0.48166   0.48301   0.49152
 Alpha virt. eigenvalues --    0.50376   0.50427   0.50442   0.51796   0.52401
 Alpha virt. eigenvalues --    0.52437   0.55448   0.55499   0.57046   0.57358
 Alpha virt. eigenvalues --    0.57496   0.57841   0.58280   0.58546   0.59899
 Alpha virt. eigenvalues --    0.60673   0.60746   0.61400   0.62092   0.62335
 Alpha virt. eigenvalues --    0.63388   0.63549   0.64365   0.66303   0.66674
 Alpha virt. eigenvalues --    0.67339   0.67821   0.68058   0.71438   0.73293
 Alpha virt. eigenvalues --    0.76101   0.77752   0.78302   0.79044   0.80018
 Alpha virt. eigenvalues --    0.80352   0.82175   0.82555   0.82864   0.83324
 Alpha virt. eigenvalues --    0.83746   0.83921   0.84272   0.84314   0.84876
 Alpha virt. eigenvalues --    0.84879   0.85274   0.85627   0.85872   0.86370
 Alpha virt. eigenvalues --    0.86378   0.86532   0.87299   0.87580   0.87959
 Alpha virt. eigenvalues --    0.88265   0.88453   0.89507   0.90466   0.91349
 Alpha virt. eigenvalues --    0.92028   0.93123   0.93285   0.93354   0.94201
 Alpha virt. eigenvalues --    0.94354   0.95121   0.95768   0.95809   0.96040
 Alpha virt. eigenvalues --    0.96107   0.96963   0.97141   0.97658   0.98668
 Alpha virt. eigenvalues --    0.98688   1.00748   1.00894   1.02765   1.05011
 Alpha virt. eigenvalues --    1.07791   1.07993   1.09630   1.11245   1.13183
 Alpha virt. eigenvalues --    1.13648   1.16372   1.17272   1.17433   1.21184
 Alpha virt. eigenvalues --    1.22642   1.22907   1.23153   1.23317   1.23989
 Alpha virt. eigenvalues --    1.26490   1.26766   1.27045   1.27487   1.27560
 Alpha virt. eigenvalues --    1.29344   1.29541   1.32167   1.33487   1.36326
 Alpha virt. eigenvalues --    1.38904   1.38940   1.41569   1.42653   1.42720
 Alpha virt. eigenvalues --    1.46125   1.49640   1.51854   1.53701   1.55629
 Alpha virt. eigenvalues --    1.56645   1.59768   1.61959   1.63041   1.64857
 Alpha virt. eigenvalues --    1.65958   1.68371   1.71459   1.73268   1.74094
 Alpha virt. eigenvalues --    1.74610   1.78563   1.80676   1.80736   1.81281
 Alpha virt. eigenvalues --    1.83786   1.84042   1.86929   1.87782   1.88001
 Alpha virt. eigenvalues --    1.89452   1.91134   1.95330   1.95683   1.97455
 Alpha virt. eigenvalues --    1.97585   2.01684   2.02052   2.09354   2.10275
 Alpha virt. eigenvalues --    2.13098   2.14136   2.18983   2.20118   2.20593
 Alpha virt. eigenvalues --    2.21636   2.22254   2.22748   2.23251   2.23900
 Alpha virt. eigenvalues --    2.25882   2.26992   2.27014   2.28767   2.29976
 Alpha virt. eigenvalues --    2.32829   2.32951   2.33533   2.35130   2.35736
 Alpha virt. eigenvalues --    2.40722   2.42025   2.42604   2.42619   2.45227
 Alpha virt. eigenvalues --    2.46932   2.49615   2.49870   2.52690   2.54172
 Alpha virt. eigenvalues --    2.54409   2.56186   2.58080   2.60006   2.61083
 Alpha virt. eigenvalues --    2.61514   2.64673   2.67475   2.68025   2.71580
 Alpha virt. eigenvalues --    2.72222   2.72481   2.73169   2.77273   2.79368
 Alpha virt. eigenvalues --    2.79525   2.80800   2.82570   2.84439   2.89575
 Alpha virt. eigenvalues --    2.91997   2.93407   3.00533   3.03553   3.06868
 Alpha virt. eigenvalues --    3.08604   3.09598   3.10338   3.12296   3.15944
 Alpha virt. eigenvalues --    3.16164   3.20878   3.21821   3.24301   3.25511
 Alpha virt. eigenvalues --    3.32470   3.40540   3.41948   3.50788   3.55136
 Alpha virt. eigenvalues --    3.65806   3.71078   3.72949   3.75984   3.88777
 Alpha virt. eigenvalues --    3.97593   4.02990   4.18305   4.42376   4.77897
 Alpha virt. eigenvalues --    4.83433   9.73108   9.75244   9.77143   9.79001
 Alpha virt. eigenvalues --    9.80736   9.86926   9.87068  23.29029  23.46655
 Alpha virt. eigenvalues --   23.76763  23.81998  23.84487  23.85797  23.91619
 Alpha virt. eigenvalues --   23.94473  23.97162  24.03055  24.04300  24.10552
 Alpha virt. eigenvalues --   25.75420  25.77422  25.77448  25.81101  25.86254
 Alpha virt. eigenvalues --   25.86953  25.89844  26.08736  26.11045  26.11702
 Alpha virt. eigenvalues --   26.16548  26.21942  26.44827  26.48190  26.49895
 Alpha virt. eigenvalues --   26.63509  26.73193  26.75447  26.82780  26.84997
 Alpha virt. eigenvalues --   26.97285 215.72098 215.74260 215.76633 215.78605
 Alpha virt. eigenvalues --  215.80481 215.89551 215.89574
          Condensed to atoms (all electrons):
               1          2          3          4          5          6
     1  C   28.601490  -0.023015  -4.854691   3.656480  -4.854692  -0.023015
     2  C   -0.023015  14.858961   2.128547  -6.895970   3.521782   1.422880
     3  C   -4.854691   2.128547  25.390024  -4.871962  -7.865515   3.521783
     4  C    3.656480  -6.895970  -4.871962  27.104604  -4.871959  -6.895969
     5  C   -4.854692   3.521782  -7.865515  -4.871959  25.390024   2.128547
     6  C   -0.023015   1.422880   3.521783  -6.895969   2.128547  14.858962
     7  C    9.865901  -0.186829  -3.239825  -1.204430  -3.239826  -0.186829
     8  C   -3.183165  -1.814972   0.178647   0.312188  -3.330424  -3.357189
     9  C   -7.033745  -0.725671   0.100027  -0.038106  -0.975619  -1.660105
    10  C   -2.466332   0.378859  -0.174768   0.111213  -0.174768   0.378859
    11  C   -7.033745  -1.660105  -0.975619  -0.038106   0.100027  -0.725671
    12  C   -3.183165  -3.357188  -3.330424   0.312189   0.178647  -1.814972
    13  H   -0.181639   0.376213   0.068185   0.121848  -0.047126  -0.038466
    14  H   -0.181639  -0.038466  -0.047126   0.121848   0.068185   0.376213
    15  H    0.008977   0.000912   0.000032   0.000055   0.000032   0.000912
    16  Cl   0.100502  -0.028571   0.302891  -0.092300  -1.026830  -1.103366
    17  Cl   0.033127  -0.011517   0.008428  -0.006643   0.017807  -0.048672
    18  Cl  -1.071183   0.369509  -0.394117  -0.484558   0.920698   0.419778
    19  Cl   0.210340  -0.427056  -0.087757   0.098628  -0.087756  -0.427056
    20  Cl  -1.071183   0.419779   0.920698  -0.484558  -0.394118   0.369509
    21  Cl   0.033127  -0.048672   0.017807  -0.006643   0.008428  -0.011517
    22  Cl   0.100502  -1.103366  -1.026830  -0.092300   0.302891  -0.028571
               7          8          9         10         11         12
     1  C    9.865901  -3.183165  -7.033745  -2.466332  -7.033745  -3.183165
     2  C   -0.186829  -1.814972  -0.725671   0.378859  -1.660105  -3.357188
     3  C   -3.239825   0.178647   0.100027  -0.174768  -0.975619  -3.330424
     4  C   -1.204430   0.312188  -0.038106   0.111213  -0.038106   0.312189
     5  C   -3.239826  -3.330424  -0.975619  -0.174768   0.100027   0.178647
     6  C   -0.186829  -3.357189  -1.660105   0.378859  -0.725671  -1.814972
     7  C   26.790303  -1.125947  -9.500505   1.702288  -9.500505  -1.125947
     8  C   -1.125947  17.122531   0.687798  -7.092338   3.843754   4.264507
     9  C   -9.500505   0.687798  27.559731  -3.033401  -4.283168   3.843754
    10  C    1.702288  -7.092338  -3.033401  27.560540  -3.033402  -7.092338
    11  C   -9.500505   3.843754  -4.283168  -3.033402  27.559731   0.687798
    12  C   -1.125947   4.264507   3.843754  -7.092338   0.687798  17.122531
    13  H   -0.045771   0.143766   0.025308  -0.009594   0.001560   0.030884
    14  H   -0.045771   0.030884   0.001560  -0.009594   0.025308   0.143766
    15  H    0.050585   0.060171  -0.006018   0.181065  -0.006018   0.060171
    16  Cl  -0.268235   0.134518   0.779040   0.688519   0.365035  -1.428880
    17  Cl  -0.417259   0.218083  -0.178267  -0.802050  -0.565532   1.101072
    18  Cl  -0.339379  -0.174355  -0.029692  -0.000726   0.001128  -0.030244
    19  Cl  -0.016009  -0.025035  -0.002865  -0.002022  -0.002865  -0.025035
    20  Cl  -0.339379  -0.030244   0.001128  -0.000726  -0.029692  -0.174355
    21  Cl  -0.417259   1.101072  -0.565532  -0.802050  -0.178267   0.218083
    22  Cl  -0.268235  -1.428880   0.365034   0.688519   0.779040   0.134518
              13         14         15         16         17         18
     1  C   -0.181639  -0.181639   0.008977   0.100502   0.033127  -1.071183
     2  C    0.376213  -0.038466   0.000912  -0.028571  -0.011517   0.369509
     3  C    0.068185  -0.047126   0.000032   0.302891   0.008428  -0.394117
     4  C    0.121848   0.121848   0.000055  -0.092300  -0.006643  -0.484558
     5  C   -0.047126   0.068185   0.000032  -1.026830   0.017807   0.920698
     6  C   -0.038466   0.376213   0.000912  -1.103366  -0.048672   0.419778
     7  C   -0.045771  -0.045771   0.050585  -0.268235  -0.417259  -0.339379
     8  C    0.143766   0.030884   0.060171   0.134518   0.218083  -0.174355
     9  C    0.025308   0.001560  -0.006018   0.779040  -0.178267  -0.029692
    10  C   -0.009594  -0.009594   0.181065   0.688519  -0.802050  -0.000726
    11  C    0.001560   0.025308  -0.006018   0.365035  -0.565532   0.001128
    12  C    0.030884   0.143766   0.060171  -1.428880   1.101072  -0.030244
    13  H    0.683086  -0.000241   0.000002   0.001909   0.000100   0.000841
    14  H   -0.000241   0.683086   0.000002  -0.243215   0.005577  -0.034200
    15  H    0.000002   0.000002   0.482708  -0.000155  -0.003881  -0.000001
    16  Cl   0.001909  -0.243215  -0.000155  18.497406  -0.314659  -0.084553
    17  Cl   0.000100   0.005577  -0.003881  -0.314659  17.435798   0.000857
    18  Cl   0.000841  -0.034200  -0.000001  -0.084553   0.000857  17.637674
    19  Cl   0.002649   0.002649   0.000000  -0.000038  -0.000004  -0.251304
    20  Cl  -0.034200   0.000841  -0.000001   0.007113   0.000091   0.009172
    21  Cl   0.005577   0.000100  -0.003881   0.002849  -0.027532   0.000091
    22  Cl  -0.243215   0.001909  -0.000155  -0.048890   0.002849   0.007113
              19         20         21         22
     1  C    0.210340  -1.071183   0.033127   0.100502
     2  C   -0.427056   0.419779  -0.048672  -1.103366
     3  C   -0.087757   0.920698   0.017807  -1.026830
     4  C    0.098628  -0.484558  -0.006643  -0.092300
     5  C   -0.087756  -0.394118   0.008428   0.302891
     6  C   -0.427056   0.369509  -0.011517  -0.028571
     7  C   -0.016009  -0.339379  -0.417259  -0.268235
     8  C   -0.025035  -0.030244   1.101072  -1.428880
     9  C   -0.002865   0.001128  -0.565532   0.365034
    10  C   -0.002022  -0.000726  -0.802050   0.688519
    11  C   -0.002865  -0.029692  -0.178267   0.779040
    12  C   -0.025035  -0.174355   0.218083   0.134518
    13  H    0.002649  -0.034200   0.005577  -0.243215
    14  H    0.002649   0.000841   0.000100   0.001909
    15  H    0.000000  -0.000001  -0.003881  -0.000155
    16  Cl  -0.000038   0.007113   0.002849  -0.048890
    17  Cl  -0.000004   0.000091  -0.027532   0.002849
    18  Cl  -0.251304   0.009172   0.000091   0.007113
    19  Cl  17.599438  -0.251304  -0.000004  -0.000038
    20  Cl  -0.251304  17.637674   0.000857  -0.084553
    21  Cl  -0.000004   0.000857  17.435798  -0.314659
    22  Cl  -0.000038  -0.084553  -0.314659  18.497406
 Mulliken charges:
               1
     1  C   -1.449237
     2  C   -1.156045
     3  C    0.231563
     4  C    0.144452
     5  C    0.231563
     6  C   -1.156045
     7  C   -0.941138
     8  C   -0.535370
     9  C    0.669312
    10  C   -0.995754
    11  C    0.669312
    12  C   -0.535370
    13  H    0.138324
    14  H    0.138324
    15  H    0.174484
    16  Cl   0.759912
    17  Cl   0.552228
    18  Cl   0.527451
    19  Cl   0.692445
    20  Cl   0.527451
    21  Cl   0.552228
    22  Cl   0.759912
 Sum of Mulliken charges =  -0.00000
 Mulliken charges with hydrogens summed into heavy atoms:
               1
     1  C   -1.449237
     2  C   -1.017721
     3  C    0.231563
     4  C    0.144452
     5  C    0.231563
     6  C   -1.017721
     7  C   -0.941138
     8  C   -0.535370
     9  C    0.669312
    10  C   -0.821270
    11  C    0.669312
    12  C   -0.535370
    16  Cl   0.759912
    17  Cl   0.552228
    18  Cl   0.527451
    19  Cl   0.692445
    20  Cl   0.527451
    21  Cl   0.552228
    22  Cl   0.759912
 Electronic spatial extent (au):  <R**2>=          10021.1574
 Charge=             -0.0000 electrons
 Dipole moment (field-independent basis, Debye):
    X=              3.5040    Y=             -0.0000    Z=              0.0000  Tot=              3.5040
 Quadrupole moment (field-independent basis, Debye-Ang):
   XX=           -160.7643   YY=           -157.5298   ZZ=           -158.8483
   XY=              0.0000   XZ=             -0.0000   YZ=              0.0000
 Traceless Quadrupole moment (field-independent basis, Debye-Ang):
   XX=             -1.7169   YY=              1.5177   ZZ=              0.1992
   XY=              0.0000   XZ=             -0.0000   YZ=              0.0000
 Octapole moment (field-independent basis, Debye-Ang**2):
  XXX=             62.6437  YYY=             -0.0000  ZZZ=             -0.0001  XYY=             -4.7411
  XXY=             -0.0000  XXZ=             -0.0001  XZZ=             -3.0249  YZZ=             -0.0000
  YYZ=             -0.0000  XYZ=             -0.0000
 Hexadecapole moment (field-independent basis, Debye-Ang**3):
 XXXX=          -8745.1895 YYYY=          -3866.8366 ZZZZ=           -183.5704 XXXY=              0.0000
 XXXZ=             -0.0003 YYYX=              0.0000 YYYZ=             -0.0000 ZZZX=             -0.0001
 ZZZY=             -0.0000 XXYY=          -2155.1730 XXZZ=          -1547.1624 YYZZ=           -712.9736
 XXYZ=             -0.0001 YYXZ=             -0.0001 ZZXY=             -0.0000
 N-N= 2.321890555905D+03 E-N=-1.336476542247D+04  KE= 3.671558463432D+03
 Calling FoFJK, ICntrl=      2127 FMM=F ISym2X=0 I1Cent= 0 IOpClX= 0 NMat=1 NMatS=1 NMatT=0.
 ***** Axes restored to original set *****
 -------------------------------------------------------------------
 Center     Atomic                   Forces (Hartrees/Bohr)
 Number     Number              X              Y              Z
 -------------------------------------------------------------------
      1        6          -0.011361992   -0.019412137    0.000097383
      2        6           0.008205274    0.054016222    0.007441644
      3        6          -0.012011202   -0.002957816    0.003401744
      4        6           0.008063242    0.013776327   -0.000069329
      5        6           0.003287906   -0.011946184   -0.003326796
      6        6           0.043045687    0.033547137   -0.007881334
      7        6           0.022845268    0.039031561   -0.000195898
      8        6          -0.003777870   -0.003837463    0.000524041
      9        6           0.001007513   -0.001019377   -0.000523447
     10        6           0.007018115    0.011990584   -0.000060188
     11        6          -0.001379820    0.000383204    0.000526757
     12        6          -0.001498185   -0.005176802   -0.000478751
     13        1           0.005340924    0.048242435    0.007300767
     14        1           0.039414694    0.028223760   -0.007685049
     15        1          -0.003923729   -0.006703749    0.000033626
     16       17          -0.081803600   -0.060490786    0.015590391
     17       17           0.008310122   -0.004534167   -0.003589492
     18       17          -0.000671306   -0.007322786   -0.001154092
     19       17          -0.003301441   -0.005640593    0.000028337
     20       17          -0.006050879   -0.004162232    0.001211780
     21       17          -0.008006917    0.005052250    0.003586813
     22       17          -0.012751804   -0.101059388   -0.014778907
 -------------------------------------------------------------------
 Cartesian Forces:  Max     0.101059388 RMS     0.023321765

 GradGradGradGradGradGradGradGradGradGradGradGradGradGradGradGradGradGrad
 Berny optimization.
 FormGI is forming the generalized inverse of G from B-inverse, IUseBI=4.
 Internal  Forces:  Max     0.186773746 RMS     0.048347193
 Search for a local minimum.
 Step number   1 out of a maximum of  121
 All quantities printed in internal units (Hartrees-Bohrs-Radians)
 Mixed Optimization -- RFO/linear search
 Second derivative matrix not updated -- first step.
 ITU=  0
     Eigenvalues ---    0.00237   0.01506   0.01506   0.02070   0.02070
     Eigenvalues ---    0.02070   0.02070   0.02070   0.02070   0.02070
     Eigenvalues ---    0.02070   0.02070   0.02070   0.02070   0.02070
     Eigenvalues ---    0.02070   0.02070   0.02070   0.02070   0.16000
     Eigenvalues ---    0.16000   0.16000   0.23478   0.23485   0.23493
     Eigenvalues ---    0.25000   0.25000   0.25000   0.25000   0.25000
     Eigenvalues ---    0.25000   0.25000   0.25000   0.25000   0.25000
     Eigenvalues ---    0.25000   0.25000   0.28519   0.29539   0.29539
     Eigenvalues ---    0.29539   0.29539   0.29539   0.29539   0.29539
     Eigenvalues ---    0.37230   0.37230   0.37230   0.41554   0.41635
     Eigenvalues ---    0.41716   0.41797   0.45389   0.45389   0.45389
     Eigenvalues ---    0.45389   0.45389   0.45389   0.45389   0.45389
 RFO step:  Lambda=-3.86534681D-01 EMin= 2.36824177D-03
 Linear search not attempted -- first point.
 Maximum step size (   0.300) exceeded in Quadratic search.
    -- Step size scaled by   0.393
 Iteration  1 RMS(Cart)=  0.09783757 RMS(Int)=  0.00388004
 Iteration  2 RMS(Cart)=  0.00441426 RMS(Int)=  0.00015651
 Iteration  3 RMS(Cart)=  0.00000773 RMS(Int)=  0.00015648
 Iteration  4 RMS(Cart)=  0.00000000 RMS(Int)=  0.00015648
 Variable       Old X    -DE/DX   Delta X   Delta X   Delta X     New X
                                 (Linear)    (Quad)   (Total)
    R1        2.64826   0.02970   0.00000   0.01439   0.01453   2.66279
    R2        2.64826   0.02970   0.00000   0.01439   0.01453   2.66279
    R3        2.91018   0.14642   0.00000   0.08575   0.08575   2.99593
    R4        2.64826  -0.01058   0.00000  -0.00495  -0.00495   2.64331
    R5        2.02201  -0.04045   0.00000  -0.02097  -0.02097   2.00104
    R6        2.64826  -0.03324   0.00000  -0.01604  -0.01619   2.63207
    R7        3.32592  -0.00622   0.00000  -0.00359  -0.00359   3.32233
    R8        2.64826  -0.03324   0.00000  -0.01604  -0.01619   2.63207
    R9        3.32592  -0.00654   0.00000  -0.00377  -0.00377   3.32215
   R10        2.64826  -0.01058   0.00000  -0.00495  -0.00495   2.64331
   R11        3.32592  -0.00622   0.00000  -0.00359  -0.00359   3.32233
   R12        2.02201  -0.04045   0.00000  -0.02097  -0.02097   2.00104
   R13        2.64826   0.13807   0.00000   0.06667   0.06697   2.71523
   R14        2.64826   0.13807   0.00000   0.06667   0.06697   2.71523
   R15        2.64826  -0.00299   0.00000  -0.00140  -0.00141   2.64685
   R16        3.32592  -0.00971   0.00000  -0.00560  -0.00560   3.32032
   R17        2.64826  -0.06331   0.00000  -0.03167  -0.03198   2.61628
   R18        3.32592  -0.00891   0.00000  -0.00514  -0.00514   3.32078
   R19        2.64826  -0.06331   0.00000  -0.03167  -0.03198   2.61628
   R20        2.02201   0.00777   0.00000   0.00403   0.00403   2.02603
   R21        2.64826  -0.00299   0.00000  -0.00140  -0.00141   2.64685
   R22        3.32592  -0.00891   0.00000  -0.00514  -0.00514   3.32078
   R23        3.32592  -0.00971   0.00000  -0.00560  -0.00560   3.32032
    A1        2.09440  -0.10800   0.00000  -0.06598  -0.06568   2.02872
    A2        2.09440   0.05400   0.00000   0.03299   0.03284   2.12723
    A3        2.09440   0.05400   0.00000   0.03299   0.03284   2.12723
    A4        2.09440   0.05264   0.00000   0.03426   0.03441   2.12881
    A5        2.09440   0.00179   0.00000   0.00310   0.00303   2.09742
    A6        2.09440  -0.05442   0.00000  -0.03736  -0.03744   2.05696
    A7        2.09440   0.01692   0.00000   0.00926   0.00911   2.10351
    A8        2.09440  -0.01527   0.00000  -0.00884  -0.00876   2.08563
    A9        2.09440  -0.00165   0.00000  -0.00042  -0.00035   2.09405
   A10        2.09440  -0.03111   0.00000  -0.02107  -0.02137   2.07302
   A11        2.09440   0.01556   0.00000   0.01054   0.01069   2.10508
   A12        2.09440   0.01556   0.00000   0.01054   0.01069   2.10508
   A13        2.09440   0.01692   0.00000   0.00926   0.00911   2.10351
   A14        2.09440  -0.00165   0.00000  -0.00042  -0.00035   2.09405
   A15        2.09440  -0.01527   0.00000  -0.00884  -0.00876   2.08563
   A16        2.09440   0.05264   0.00000   0.03426   0.03441   2.12881
   A17        2.09440   0.00179   0.00000   0.00310   0.00303   2.09742
   A18        2.09440  -0.05442   0.00000  -0.03736  -0.03744   2.05696
   A19        2.09440   0.06773   0.00000   0.03907   0.03874   2.13313
   A20        2.09440   0.06773   0.00000   0.03907   0.03874   2.13313
   A21        2.09440  -0.13546   0.00000  -0.07813  -0.07748   2.01692
   A22        2.09440   0.03275   0.00000   0.02309   0.02340   2.11779
   A23        2.09440   0.15403   0.00000   0.09377   0.09362   2.18801
   A24        2.09440  -0.18677   0.00000  -0.11686  -0.11701   1.97738
   A25        2.09440   0.04098   0.00000   0.02269   0.02237   2.11676
   A26        2.09440  -0.01251   0.00000  -0.00641  -0.00625   2.08814
   A27        2.09440  -0.02847   0.00000  -0.01628  -0.01612   2.07828
   A28        2.09440  -0.01199   0.00000  -0.01342  -0.01406   2.08034
   A29        2.09440   0.00599   0.00000   0.00671   0.00703   2.10142
   A30        2.09440   0.00599   0.00000   0.00671   0.00703   2.10142
   A31        2.09440   0.04098   0.00000   0.02269   0.02237   2.11676
   A32        2.09440  -0.02847   0.00000  -0.01628  -0.01612   2.07828
   A33        2.09440  -0.01251   0.00000  -0.00641  -0.00625   2.08814
   A34        2.09440   0.03275   0.00000   0.02309   0.02340   2.11779
   A35        2.09440   0.15403   0.00000   0.09377   0.09362   2.18801
   A36        2.09440  -0.18677   0.00000  -0.11686  -0.11701   1.97738
    D1        0.00000   0.00000   0.00000   0.00000   0.00000   0.00000
    D2        3.14159  -0.00000   0.00000   0.00000   0.00000   3.14159
    D3       -3.14159  -0.00000   0.00000  -0.00000  -0.00000  -3.14159
    D4       -0.00000  -0.00000   0.00000  -0.00000  -0.00000  -0.00000
    D5       -0.00000  -0.00000   0.00000  -0.00000  -0.00000  -0.00000
    D6        3.14159  -0.00000   0.00000  -0.00000  -0.00000   3.14159
    D7        3.14159   0.00000   0.00000   0.00000   0.00000   3.14159
    D8        0.00000  -0.00000   0.00000  -0.00000  -0.00000  -0.00000
    D9       -0.00000  -0.00000   0.00000  -0.00000  -0.00000  -0.00000
   D10        3.14159  -0.00000   0.00000  -0.00000  -0.00000   3.14159
   D11        3.14159  -0.00000   0.00000  -0.00000  -0.00000   3.14159
   D12       -0.00000  -0.00000   0.00000  -0.00000  -0.00000  -0.00000
   D13        0.00000  -0.00000   0.00000  -0.00000  -0.00000   0.00000
   D14        3.14159  -0.00000   0.00000  -0.00000  -0.00000   3.14159
   D15       -3.14159  -0.00000   0.00000  -0.00000  -0.00000  -3.14159
   D16        0.00000  -0.00000   0.00000  -0.00000  -0.00000   0.00000
   D17       -0.00000  -0.00000   0.00000   0.00000   0.00000  -0.00000
   D18        3.14159   0.00000   0.00000   0.00000   0.00000   3.14159
   D19        3.14159  -0.00000   0.00000  -0.00000  -0.00000   3.14159
   D20        0.00000  -0.00000   0.00000  -0.00000  -0.00000   0.00000
   D21        0.00000   0.00000   0.00000   0.00000   0.00000   0.00000
   D22       -3.14159   0.00000   0.00000   0.00000   0.00000  -3.14159
   D23       -3.14159  -0.00000   0.00000  -0.00000  -0.00000  -3.14159
   D24        0.00000   0.00000   0.00000   0.00000   0.00000   0.00000
   D25       -0.00000   0.00000   0.00000   0.00000   0.00000  -0.00000
   D26        3.14159   0.00000   0.00000   0.00000   0.00000   3.14159
   D27        3.14159  -0.00000   0.00000  -0.00000  -0.00000   3.14159
   D28       -0.00000   0.00000   0.00000   0.00000   0.00000  -0.00000
   D29        3.14159   0.00000   0.00000   0.00000   0.00000   3.14159
   D30        0.00000   0.00000   0.00000   0.00000   0.00000   0.00000
   D31        0.00000   0.00000   0.00000   0.00000   0.00000   0.00000
   D32       -3.14159  -0.00000   0.00000  -0.00000  -0.00000  -3.14159
   D33       -3.14159  -0.00000   0.00000  -0.00000  -0.00000  -3.14159
   D34        0.00000  -0.00000   0.00000  -0.00000  -0.00000  -0.00000
   D35       -0.00000   0.00000   0.00000   0.00000   0.00000  -0.00000
   D36        3.14159  -0.00000   0.00000  -0.00000  -0.00000   3.14159
   D37       -0.00000  -0.00000   0.00000  -0.00000  -0.00000  -0.00000
   D38        3.14159  -0.00000   0.00000  -0.00000  -0.00000   3.14159
   D39        3.14159   0.00000   0.00000   0.00000   0.00000   3.14159
   D40       -0.00000   0.00000   0.00000   0.00000   0.00000  -0.00000
   D41       -0.00000   0.00000   0.00000   0.00000   0.00000  -0.00000
   D42       -3.14159  -0.00000   0.00000  -0.00000  -0.00000  -3.14159
   D43        3.14159   0.00000   0.00000   0.00000   0.00000   3.14159
   D44        0.00000   0.00000   0.00000   0.00000   0.00000   0.00000
   D45        0.00000   0.00000   0.00000   0.00000   0.00000   0.00000
   D46       -3.14159  -0.00000   0.00000  -0.00000  -0.00000  -3.14159
   D47        3.14159   0.00000   0.00000   0.00000   0.00000   3.14159
   D48        0.00000  -0.00000   0.00000  -0.00000  -0.00000   0.00000
   D49        0.00000  -0.00000   0.00000  -0.00000  -0.00000   0.00000
   D50       -3.14159   0.00000   0.00000   0.00000   0.00000  -3.14159
   D51        3.14159   0.00000   0.00000   0.00000   0.00000   3.14159
   D52       -0.00000   0.00000   0.00000   0.00000   0.00000  -0.00000
         Item               Value     Threshold  Converged?
 Maximum Force            0.186774     0.000450     NO 
 RMS     Force            0.048347     0.000300     NO 
 Maximum Displacement     0.531670     0.001800     NO 
 RMS     Displacement     0.099153     0.001200     NO 
 Predicted change in Energy=-1.395263D-01
 GradGradGradGradGradGradGradGradGradGradGradGradGradGradGradGradGradGrad

                          Input orientation:                          
 ---------------------------------------------------------------------
 Center     Atomic      Atomic             Coordinates (Angstroms)
 Number     Number       Type             X           Y           Z
 ---------------------------------------------------------------------
      1          6           0        0.305898   -0.413749   -0.003071
      2          6           0        1.646457   -0.338182   -0.430532
      3          6           0        2.354800    0.867965   -0.437373
      4          6           0        1.746677    2.047852   -0.015429
      5          6           0        0.422004    2.003502    0.412659
      6          6           0       -0.282792    0.795271    0.417940
      7          6           0       -0.494929   -1.781979    0.003800
      8          6           0        0.098096   -3.018879   -0.423878
      9          6           0       -0.626660   -4.217369   -0.410190
     10          6           0       -1.943251   -4.256470    0.016228
     11          6           0       -2.552002   -3.086211    0.436572
     12          6           0       -1.861891   -1.867368    0.438120
     13          1           0        2.149933   -1.209507   -0.760046
     14          1           0       -1.287592    0.810073    0.751755
     15          1           0       -2.484819   -5.181753    0.020876
     16         17           0       -2.832910   -0.519789    1.011121
     17         17           0       -4.223212   -3.139407    0.977179
     18         17           0       -0.376672    3.473947    0.951946
     19         17           0        2.634703    3.565064   -0.023047
     20         17           0        4.025603    0.887568   -0.984144
     21         17           0        0.142954   -5.704573   -0.943056
     22         17           0        1.746020   -3.209955   -1.002681
 ---------------------------------------------------------------------
                    Distance matrix (angstroms):
                    1          2          3          4          5
     1  C    0.000000
     2  C    1.409090   0.000000
     3  C    2.455486   1.398781   0.000000
     4  C    2.852276   2.423946   1.392833   0.000000
     5  C    2.455486   2.773759   2.397436   1.392833   0.000000
     6  C    1.409090   2.393036   2.773759   2.423946   1.398781
     7  C    1.585379   2.618918   3.916350   4.437654   3.916350
     8  C    2.647067   3.095740   4.494491   5.343820   5.101864
     9  C    3.937377   4.496172   5.894952   6.711300   6.362075
    10  C    4.452590   5.332784   6.703644   7.304865   6.703644
    11  C    3.937377   5.092209   6.362075   6.711300   5.894952
    12  C    2.647067   3.924471   5.101864   5.343820   4.494491
    13  H    2.146324   1.058902   2.112339   3.365629   3.832023
    14  H    2.146324   3.365254   3.832023   3.365629   2.112339
    15  H    5.524721   6.382115   7.760863   8.376996   7.760863
    16  Cl   3.300294   4.709148   5.562044   5.349692   4.161684
    17  Cl   5.376146   6.654437   7.831363   7.970728   6.953145
    18  Cl   4.061051   4.531735   4.022722   2.734625   1.758102
    19  Cl   4.610280   4.046975   2.743056   1.758005   2.743056
    20  Cl   4.061051   2.732999   1.758102   2.734625   4.022722
    21  Cl   5.376146   5.596548   6.953145   7.970728   7.831363
    22  Cl   3.300294   2.929906   4.161684   5.349692   5.562044
                    6          7          8          9         10
     6  C    0.000000
     7  C    2.618918   0.000000
     8  C    3.924471   1.436840   0.000000
     9  C    5.092209   2.473836   1.400655   0.000000
    10  C    5.332784   2.867211   2.427432   1.384476   0.000000
    11  C    4.496172   2.473836   2.787101   2.388193   1.384476
    12  C    3.095740   1.436840   2.431166   2.787101   2.427432
    13  H    3.365254   2.811847   2.756242   4.108418   5.161468
    14  H    1.058902   2.811847   4.238292   5.202126   5.161468
    15  H    6.382115   3.939342   3.398129   2.137431   1.072131
    16  Cl   2.929906   2.841474   4.110410   4.534287   3.967883
    17  Cl   5.596548   4.085361   4.544358   4.002747   2.714678
    18  Cl   2.732999   5.342071   6.653953   7.815001   7.942864
    19  Cl   4.046975   6.195659   7.067061   8.447048   9.062870
    20  Cl   4.531735   5.342071   5.567723   6.930609   7.942864
    21  Cl   6.654437   4.085361   2.735783   1.757279   2.714678
    22  Cl   4.709148   2.841474   1.757036   2.644908   3.967883
                   11         12         13         14         15
    11  C    0.000000
    12  C    1.400655   0.000000
    13  H    5.202126   4.238292   0.000000
    14  H    4.108418   2.756242   4.263897   0.000000
    15  H    2.137431   3.398129   6.153821   6.153821   0.000000
    16  Cl   2.644908   1.757036   5.333054   2.055191   4.778667
    17  Cl   1.757279   2.735783   6.881820   4.926162   2.847402
    18  Cl   6.930609   5.567723   5.590115   2.822424   8.957249
    19  Cl   8.447048   7.067061   4.855378   4.855378  10.135001
    20  Cl   7.815001   6.653953   2.822424   5.590115   8.957249
    21  Cl   4.002747   4.544358   4.926162   6.881820   2.847402
    22  Cl   4.534287   4.110410   2.055191   5.333054   4.778667
                   16         17         18         19         20
    16  Cl   0.000000
    17  Cl   2.965888   0.000000
    18  Cl   4.688980   7.650684   0.000000
    19  Cl   6.902921   9.642686   3.166590   0.000000
    20  Cl   7.280174   9.386494   5.460570   3.166590   0.000000
    21  Cl   6.289400   5.415790   9.386494   9.642686   7.650684
    22  Cl   5.679700   6.289400   7.280174   6.902921   4.688980
                   21         22
    21  Cl   0.000000
    22  Cl   2.965888   0.000000
 Stoichiometry    C12H3Cl7
 Framework group  C1[X(C12H3Cl7)]
 Deg. of freedom    60
 Full point group                 C1      NOp   1
 Largest Abelian subgroup         C1      NOp   1
 Largest concise Abelian subgroup C1      NOp   1
                         Standard orientation:                         
 ---------------------------------------------------------------------
 Center     Atomic      Atomic             Coordinates (Angstroms)
 Number     Number       Type             X           Y           Z
 ---------------------------------------------------------------------
      1          6           0       -0.501165    0.000000    0.000002
      2          6           0       -1.245395   -1.196518   -0.000000
      3          6           0       -2.644174   -1.198718   -0.000002
      4          6           0       -3.353441    0.000000   -0.000001
      5          6           0       -2.644174    1.198718    0.000003
      6          6           0       -1.245395    1.196518    0.000005
      7          6           0        1.084214    0.000000    0.000003
      8          6           0        1.850286   -1.215583    0.000003
      9          6           0        3.250777   -1.194096    0.000003
     10          6           0        3.951425    0.000000    0.000001
     11          6           0        3.250777    1.194096    0.000000
     12          6           0        1.850286    1.215583    0.000000
     13          1           0       -0.749165   -2.131949   -0.000003
     14          1           0       -0.749165    2.131949    0.000007
     15          1           0        5.023556    0.000000   -0.000001
     16         17           0        1.180261    2.839850   -0.000003
     17         17           0        4.143213    2.707895   -0.000006
     18         17           0       -3.507438    2.730285    0.000008
     19         17           0       -5.111445    0.000000   -0.000003
     20         17           0       -3.507438   -2.730285   -0.000005
     21         17           0        4.143213   -2.707895    0.000004
     22         17           0        1.180261   -2.839850    0.000001
 ---------------------------------------------------------------------
 Rotational constants (GHZ):           0.2894660           0.1270197           0.0882813
 Standard basis: 6-311+G(d,p) (5D, 7F)
 There are   511 symmetry adapted cartesian basis functions of A   symmetry.
 There are   492 symmetry adapted basis functions of A   symmetry.
   492 basis functions,   827 primitive gaussians,   511 cartesian basis functions
    97 alpha electrons       97 beta electrons
       nuclear repulsion energy      2291.7166328619 Hartrees.
 NAtoms=   22 NActive=   22 NUniq=   22 SFac= 1.00D+00 NAtFMM=   60 NAOKFM=F Big=F
 Integral buffers will be    131072 words long.
 Raffenetti 2 integral format.
 Two-electron integral symmetry is turned on.
 One-electron integrals computed using PRISM.
 NBasis=   492 RedAO= T EigKep=  1.12D-06  NBF=   492
 NBsUse=   485 1.00D-06 EigRej=  7.14D-07 NBFU=   485
 Initial guess from the checkpoint file:  "./Gau-114669.chk"
 B after Tr=     0.000000   -0.000000   -0.000000
         Rot=    1.000000   -0.000000    0.000000    0.000000 Ang=   0.00 deg.
 ExpMin= 4.38D-02 ExpMax= 1.06D+05 ExpMxC= 3.62D+03 IAcc=3 IRadAn=         5 AccDes= 0.00D+00
 Harris functional with IExCor=  402 and IRadAn=       5 diagonalized for initial guess.
 HarFok:  IExCor=  402 AccDes= 0.00D+00 IRadAn=         5 IDoV= 1 UseB2=F ITyADJ=14
 ICtDFT=  3500011 ScaDFX=  1.000000  1.000000  1.000000  1.000000
 FoFCou: FMM=F IPFlag=           0 FMFlag=      100000 FMFlg1=           0
         NFxFlg=           0 DoJE=T BraDBF=F KetDBF=T FulRan=T
         wScrn=  0.000000 ICntrl=       500 IOpCl=  0 I1Cent=   200000004 NGrid=           0
         NMat0=    1 NMatS0=      1 NMatT0=    0 NMatD0=    1 NMtDS0=    0 NMtDT0=    0
 Petite list used in FoFCou.
 Requested convergence on RMS density matrix=1.00D-08 within  32 cycles.
 Requested convergence on MAX density matrix=1.00D-06.
 Requested convergence on             energy=1.00D-06.
 No special actions if energy rises.
 SCF Done:  E(RB3LYP) =  -3680.70300727     A.U. after   16 cycles
            NFock= 16  Conv=0.24D-08     -V/T= 2.0026
 QCSCF skips out because SCF is already converged.
 Calling FoFJK, ICntrl=      2127 FMM=F ISym2X=0 I1Cent= 0 IOpClX= 0 NMat=1 NMatS=1 NMatT=0.
 ***** Axes restored to original set *****
 -------------------------------------------------------------------
 Center     Atomic                   Forces (Hartrees/Bohr)
 Number     Number              X              Y              Z
 -------------------------------------------------------------------
      1        6          -0.010604154   -0.018117358    0.000090884
      2        6          -0.002471949    0.015198928    0.003669047
      3        6          -0.004259332   -0.007209013    0.000049438
      4        6           0.008829602    0.015085672   -0.000075904
      5        6          -0.004199943   -0.007243899    0.000023238
      6        6           0.014446251    0.005259319   -0.003771656
      7        6           0.013250777    0.022639136   -0.000113546
      8        6          -0.005034399    0.007049087    0.002982598
      9        6           0.003184065   -0.001109140   -0.001257409
     10        6           0.001291969    0.002207329   -0.000011052
     11        6          -0.002520700    0.002242466    0.001251794
     12        6           0.008598231   -0.000960216   -0.003013145
     13        1           0.006885293    0.001463199   -0.001993630
     14        1          -0.002087168    0.006734604    0.001952343
     15        1          -0.003109033   -0.005311821    0.000026633
     16       17          -0.003886061   -0.004584969    0.000419231
     17       17           0.004292176   -0.009161816   -0.003134860
     18       17          -0.000522150   -0.006967599   -0.001136518
     19       17          -0.004096460   -0.006998900    0.000035155
     20       17          -0.005814308   -0.003858403    0.001190903
     21       17          -0.010076194   -0.000720261    0.003184413
     22       17          -0.002096511   -0.005636347   -0.000367958
 -------------------------------------------------------------------
 Cartesian Forces:  Max     0.022639136 RMS     0.006610312

 GradGradGradGradGradGradGradGradGradGradGradGradGradGradGradGradGradGrad
 Berny optimization.
 Using GEDIIS/GDIIS optimizer.
 FormGI is forming the generalized inverse of G from B-inverse, IUseBI=4.
 Internal  Forces:  Max     0.017575961 RMS     0.005747230
 Search for a local minimum.
 Step number   2 out of a maximum of  121
 All quantities printed in internal units (Hartrees-Bohrs-Radians)
 Mixed Optimization -- RFO/linear search
 Update second derivatives using D2CorX and points    1    2
 DE= -7.07D-02 DEPred=-1.40D-01 R= 5.07D-01
 TightC=F SS=  1.41D+00  RLast= 3.00D-01 DXNew= 5.0454D-01 8.9996D-01
 Trust test= 5.07D-01 RLast= 3.00D-01 DXMaxT set to 5.05D-01
 ITU=  1  0
 Use linear search instead of GDIIS.
     Eigenvalues ---    0.00237   0.01461   0.01467   0.02070   0.02070
     Eigenvalues ---    0.02070   0.02070   0.02070   0.02070   0.02070
     Eigenvalues ---    0.02070   0.02070   0.02070   0.02070   0.02070
     Eigenvalues ---    0.02070   0.02070   0.02070   0.02070   0.16000
     Eigenvalues ---    0.16000   0.16081   0.23471   0.23474   0.23700
     Eigenvalues ---    0.24825   0.25000   0.25000   0.25000   0.25000
     Eigenvalues ---    0.25000   0.25000   0.25000   0.25000   0.25000
     Eigenvalues ---    0.25000   0.27931   0.29512   0.29536   0.29539
     Eigenvalues ---    0.29539   0.29539   0.29539   0.29539   0.36335
     Eigenvalues ---    0.37223   0.37230   0.38235   0.41389   0.41674
     Eigenvalues ---    0.41852   0.45068   0.45331   0.45389   0.45389
     Eigenvalues ---    0.45389   0.45389   0.45389   0.45389   1.61377
 RFO step:  Lambda=-1.10607119D-02 EMin= 2.36824177D-03
 Quartic linear search produced a step of  0.14473.
 Iteration  1 RMS(Cart)=  0.04067902 RMS(Int)=  0.00107013
 Iteration  2 RMS(Cart)=  0.00111506 RMS(Int)=  0.00003967
 Iteration  3 RMS(Cart)=  0.00000029 RMS(Int)=  0.00003967
 Variable       Old X    -DE/DX   Delta X   Delta X   Delta X     New X
                                 (Linear)    (Quad)   (Total)
    R1        2.66279   0.00009   0.00210  -0.00555  -0.00343   2.65936
    R2        2.66279   0.00009   0.00210  -0.00555  -0.00343   2.65936
    R3        2.99593  -0.00771   0.01241  -0.06601  -0.05360   2.94233
    R4        2.64331  -0.00996  -0.00072  -0.02261  -0.02332   2.61999
    R5        2.00104   0.00269  -0.00304   0.01638   0.01335   2.01438
    R6        2.63207  -0.00124  -0.00234   0.00334   0.00099   2.63306
    R7        3.32233  -0.00594  -0.00052  -0.02067  -0.02119   3.30114
    R8        2.63207  -0.00124  -0.00234   0.00334   0.00099   2.63306
    R9        3.32215  -0.00811  -0.00055  -0.02870  -0.02924   3.29290
   R10        2.64331  -0.00996  -0.00072  -0.02261  -0.02332   2.61999
   R11        3.32233  -0.00594  -0.00052  -0.02067  -0.02119   3.30114
   R12        2.00104   0.00269  -0.00304   0.01638   0.01335   2.01438
   R13        2.71523   0.00702   0.00969  -0.00694   0.00283   2.71807
   R14        2.71523   0.00702   0.00969  -0.00694   0.00283   2.71807
   R15        2.64685   0.00672  -0.00020   0.01706   0.01686   2.66371
   R16        3.32032  -0.00123  -0.00081  -0.00225  -0.00306   3.31725
   R17        2.61628  -0.01219  -0.00463  -0.01920  -0.02391   2.59237
   R18        3.32078  -0.00477  -0.00074  -0.01565  -0.01640   3.30438
   R19        2.61628  -0.01219  -0.00463  -0.01920  -0.02391   2.59237
   R20        2.02603   0.00615   0.00058   0.01677   0.01735   2.04338
   R21        2.64685   0.00672  -0.00020   0.01706   0.01686   2.66371
   R22        3.32078  -0.00477  -0.00074  -0.01565  -0.01640   3.30438
   R23        3.32032  -0.00123  -0.00081  -0.00225  -0.00306   3.31725
    A1        2.02872  -0.01208  -0.00951  -0.02605  -0.03553   1.99319
    A2        2.12723   0.00604   0.00475   0.01303   0.01776   2.14500
    A3        2.12723   0.00604   0.00475   0.01303   0.01776   2.14500
    A4        2.12881   0.00624   0.00498   0.01383   0.01882   2.14763
    A5        2.09742   0.00369   0.00044   0.02849   0.02892   2.12634
    A6        2.05696  -0.00993  -0.00542  -0.04232  -0.04774   2.00922
    A7        2.10351   0.00490   0.00132   0.01696   0.01827   2.12178
    A8        2.08563  -0.00885  -0.00127  -0.03469  -0.03595   2.04968
    A9        2.09405   0.00395  -0.00005   0.01773   0.01768   2.11173
   A10        2.07302  -0.01021  -0.00309  -0.03554  -0.03866   2.03437
   A11        2.10508   0.00510   0.00155   0.01777   0.01933   2.12441
   A12        2.10508   0.00510   0.00155   0.01777   0.01933   2.12441
   A13        2.10351   0.00490   0.00132   0.01696   0.01827   2.12178
   A14        2.09405   0.00395  -0.00005   0.01773   0.01768   2.11173
   A15        2.08563  -0.00885  -0.00127  -0.03469  -0.03595   2.04968
   A16        2.12881   0.00624   0.00498   0.01383   0.01882   2.14763
   A17        2.09742   0.00369   0.00044   0.02849   0.02892   2.12634
   A18        2.05696  -0.00993  -0.00542  -0.04232  -0.04774   2.00922
   A19        2.13313   0.00704   0.00561   0.01120   0.01672   2.14985
   A20        2.13313   0.00704   0.00561   0.01120   0.01672   2.14985
   A21        2.01692  -0.01409  -0.01121  -0.02240  -0.03343   1.98349
   A22        2.11779   0.00424   0.00339   0.01124   0.01471   2.13250
   A23        2.18801   0.00767   0.01355  -0.00872   0.00478   2.19280
   A24        1.97738  -0.01191  -0.01694  -0.00251  -0.01949   1.95789
   A25        2.11676   0.00375   0.00324   0.00427   0.00742   2.12419
   A26        2.08814   0.01383  -0.00090   0.06453   0.06367   2.15182
   A27        2.07828  -0.01758  -0.00233  -0.06881  -0.07109   2.00718
   A28        2.08034  -0.00189  -0.00203  -0.00861  -0.01082   2.06951
   A29        2.10142   0.00095   0.00102   0.00431   0.00541   2.10684
   A30        2.10142   0.00095   0.00102   0.00431   0.00541   2.10684
   A31        2.11676   0.00375   0.00324   0.00427   0.00742   2.12419
   A32        2.07828  -0.01758  -0.00233  -0.06881  -0.07109   2.00718
   A33        2.08814   0.01383  -0.00090   0.06453   0.06367   2.15182
   A34        2.11779   0.00424   0.00339   0.01124   0.01471   2.13250
   A35        2.18801   0.00767   0.01355  -0.00872   0.00478   2.19280
   A36        1.97738  -0.01191  -0.01694  -0.00251  -0.01949   1.95789
    D1        0.00000  -0.00000   0.00000  -0.00000  -0.00000   0.00000
    D2        3.14159   0.00000   0.00000   0.00000   0.00000   3.14159
    D3       -3.14159  -0.00000  -0.00000  -0.00000  -0.00000   3.14159
    D4       -0.00000  -0.00000  -0.00000  -0.00000  -0.00000  -0.00000
    D5       -0.00000   0.00000  -0.00000   0.00000   0.00000  -0.00000
    D6        3.14159  -0.00000  -0.00000  -0.00000  -0.00000   3.14159
    D7        3.14159   0.00000   0.00000   0.00000   0.00000  -3.14159
    D8       -0.00000  -0.00000  -0.00000  -0.00000  -0.00000  -0.00000
    D9       -0.00000  -0.00000  -0.00000  -0.00001  -0.00001  -0.00001
   D10        3.14159  -0.00000  -0.00000  -0.00001  -0.00001   3.14158
   D11        3.14159  -0.00000  -0.00000  -0.00001  -0.00001   3.14158
   D12       -0.00000  -0.00000  -0.00000  -0.00001  -0.00001  -0.00001
   D13        0.00000  -0.00000  -0.00000  -0.00000  -0.00000  -0.00000
   D14        3.14159   0.00000  -0.00000   0.00000   0.00000   3.14159
   D15       -3.14159  -0.00000  -0.00000  -0.00000  -0.00000  -3.14159
   D16        0.00000  -0.00000  -0.00000  -0.00000  -0.00000   0.00000
   D17       -0.00000   0.00000   0.00000   0.00000   0.00000  -0.00000
   D18        3.14159  -0.00000   0.00000  -0.00000  -0.00000   3.14159
   D19        3.14159   0.00000  -0.00000   0.00000   0.00000   3.14159
   D20        0.00000  -0.00000  -0.00000  -0.00000  -0.00000  -0.00000
   D21        0.00000  -0.00000   0.00000  -0.00000  -0.00000   0.00000
   D22       -3.14159  -0.00000   0.00000  -0.00000  -0.00000  -3.14159
   D23       -3.14159   0.00000  -0.00000   0.00000   0.00000  -3.14159
   D24        0.00000   0.00000   0.00000   0.00000   0.00000   0.00000
   D25       -0.00000   0.00000   0.00000   0.00000   0.00000  -0.00000
   D26        3.14159   0.00000   0.00000   0.00000   0.00000  -3.14159
   D27        3.14159   0.00000  -0.00000   0.00000   0.00000   3.14159
   D28       -0.00000   0.00000   0.00000   0.00000   0.00000   0.00000
   D29        3.14159   0.00000   0.00000   0.00000   0.00000  -3.14159
   D30        0.00000  -0.00000   0.00000  -0.00000  -0.00000   0.00000
   D31        0.00000   0.00000   0.00000   0.00000   0.00000   0.00000
   D32       -3.14159  -0.00000  -0.00000  -0.00000  -0.00000   3.14159
   D33       -3.14159  -0.00000  -0.00000  -0.00000  -0.00000   3.14159
   D34       -0.00000  -0.00000  -0.00000  -0.00000  -0.00000  -0.00000
   D35       -0.00000   0.00000   0.00000   0.00000   0.00000  -0.00000
   D36        3.14159  -0.00000  -0.00000   0.00000   0.00000   3.14159
   D37       -0.00000  -0.00000  -0.00000  -0.00000  -0.00000  -0.00000
   D38        3.14159  -0.00000  -0.00000  -0.00000  -0.00000   3.14159
   D39        3.14159   0.00000   0.00000   0.00000   0.00000  -3.14159
   D40       -0.00000   0.00000   0.00000   0.00000   0.00000  -0.00000
   D41       -0.00000   0.00000   0.00000   0.00000   0.00000   0.00000
   D42       -3.14159  -0.00000  -0.00000  -0.00000  -0.00000  -3.14159
   D43        3.14159   0.00000   0.00000   0.00000   0.00000  -3.14159
   D44        0.00000  -0.00000   0.00000  -0.00000  -0.00000   0.00000
   D45        0.00000   0.00000   0.00000   0.00000   0.00000   0.00000
   D46       -3.14159  -0.00000  -0.00000  -0.00000  -0.00000  -3.14159
   D47        3.14159   0.00000   0.00000   0.00000   0.00000  -3.14159
   D48        0.00000  -0.00000  -0.00000  -0.00000  -0.00000   0.00000
   D49        0.00000  -0.00000  -0.00000  -0.00000  -0.00000  -0.00000
   D50       -3.14159  -0.00000   0.00000  -0.00000  -0.00000  -3.14159
   D51        3.14159   0.00000   0.00000   0.00000   0.00000   3.14159
   D52       -0.00000   0.00000   0.00000   0.00000   0.00000   0.00000
         Item               Value     Threshold  Converged?
 Maximum Force            0.017576     0.000450     NO 
 RMS     Force            0.005747     0.000300     NO 
 Maximum Displacement     0.220873     0.001800     NO 
[...]
                 (A) (A) (A) (A) (A) (A) (A) (A) (A) (A) (A) (A)
                 (A) (A) (A) (A) (A) (A) (A) (A) (A) (A) (A) (A)
                 (A) (A) (A) (A) (A) (A) (A) (A) (A) (A) (A) (A)
                 (A) (A) (A) (A) (A) (A) (A) (A) (A) (A) (A) (A)
                 (A) (A) (A) (A) (A) (A) (A) (A) (A) (A) (A) (A)
                 (A) (A) (A) (A) (A) (A) (A) (A) (A) (A) (A) (A)
                 (A) (A) (A) (A) (A) (A) (A) (A) (A) (A) (A) (A)
                 (A) (A) (A) (A) (A) (A) (A) (A) (A) (A) (A) (A)
                 (A) (A) (A) (A) (A) (A) (A) (A) (A) (A) (A) (A)
                 (A) (A) (A) (A) (A) (A) (A) (A) (A) (A) (A) (A)
                 (A) (A) (A) (A) (A) (A) (A) (A) (A) (A) (A) (A)
                 (A) (A) (A) (A) (A) (A) (A) (A) (A) (A) (A) (A)
                 (A) (A) (A) (A) (A) (A) (A) (A) (A) (A) (A) (A)
                 (A) (A) (A) (A) (A) (A) (A) (A) (A) (A) (A) (A)
                 (A) (A) (A) (A) (A) (A) (A) (A) (A) (A) (A) (A)
                 (A) (A) (A) (A) (A) (A) (A) (A) (A) (A) (A) (A)
                 (A) (A) (A) (A) (A) (A) (A) (A) (A) (A) (A) (A)
                 (A) (A) (A) (A) (A) (A) (A) (A) (A) (A) (A) (A)
                 (A) (A) (A) (A) (A) (A)
 The electronic state is 1-A.
 Alpha  occ. eigenvalues -- -101.58367-101.58367-101.58303-101.58303-101.57730
 Alpha  occ. eigenvalues -- -101.57603-101.57603 -10.28341 -10.28340 -10.28140
 Alpha  occ. eigenvalues --  -10.28140 -10.27665 -10.27409 -10.27403 -10.24846
 Alpha  occ. eigenvalues --  -10.23285 -10.23153 -10.21828 -10.21827  -9.49822
 Alpha  occ. eigenvalues --   -9.49822  -9.49773  -9.49772  -9.49191  -9.49062
 Alpha  occ. eigenvalues --   -9.49062  -7.26315  -7.26315  -7.26264  -7.26264
 Alpha  occ. eigenvalues --   -7.25691  -7.25550  -7.25550  -7.25298  -7.25298
 Alpha  occ. eigenvalues --   -7.25255  -7.25255  -7.25238  -7.25238  -7.25177
 Alpha  occ. eigenvalues --   -7.25177  -7.24673  -7.24590  -7.24541  -7.24541
 Alpha  occ. eigenvalues --   -7.24480  -7.24480  -0.96559  -0.95069  -0.92589
 Alpha  occ. eigenvalues --   -0.90159  -0.90046  -0.88253  -0.87751  -0.85855
 Alpha  occ. eigenvalues --   -0.84441  -0.79611  -0.76503  -0.75441  -0.74768
 Alpha  occ. eigenvalues --   -0.67864  -0.64202  -0.62922  -0.62044  -0.55448
 Alpha  occ. eigenvalues --   -0.55233  -0.53619  -0.53538  -0.50187  -0.48607
 Alpha  occ. eigenvalues --   -0.47494  -0.47178  -0.46764  -0.46154  -0.45290
 Alpha  occ. eigenvalues --   -0.44348  -0.43135  -0.41404  -0.41394  -0.41367
 Alpha  occ. eigenvalues --   -0.38719  -0.38117  -0.36740  -0.36687  -0.36109
 Alpha  occ. eigenvalues --   -0.35240  -0.35210  -0.34592  -0.34160  -0.33731
 Alpha  occ. eigenvalues --   -0.33478  -0.32762  -0.32020  -0.28858  -0.27508
 Alpha  occ. eigenvalues --   -0.27305  -0.27028
 Alpha virt. eigenvalues --   -0.06806  -0.06528  -0.05736  -0.05194  -0.04822
 Alpha virt. eigenvalues --   -0.03611  -0.01254  -0.00936   0.00224   0.01340
 Alpha virt. eigenvalues --    0.01418   0.01702   0.02138   0.02208   0.02611
 Alpha virt. eigenvalues --    0.02887   0.04189   0.04567   0.05474   0.05749
 Alpha virt. eigenvalues --    0.06015   0.06164   0.06246   0.06717   0.07347
 Alpha virt. eigenvalues --    0.07718   0.07819   0.08391   0.08623   0.08898
 Alpha virt. eigenvalues --    0.09281   0.09762   0.10309   0.10453   0.10504
 Alpha virt. eigenvalues --    0.10645   0.11569   0.11778   0.12201   0.12233
 Alpha virt. eigenvalues --    0.12492   0.12744   0.13678   0.13802   0.13874
 Alpha virt. eigenvalues --    0.13884   0.14125   0.15000   0.15120   0.15399
 Alpha virt. eigenvalues --    0.16067   0.16820   0.17427   0.17647   0.17818
 Alpha virt. eigenvalues --    0.17912   0.18106   0.18475   0.19225   0.19668
 Alpha virt. eigenvalues --    0.19867   0.19925   0.19945   0.20369   0.21009
 Alpha virt. eigenvalues --    0.21363   0.21519   0.21719   0.22354   0.22528
 Alpha virt. eigenvalues --    0.23742   0.23908   0.24282   0.24741   0.24901
 Alpha virt. eigenvalues --    0.25087   0.25437   0.25513   0.25751   0.26392
 Alpha virt. eigenvalues --    0.27030   0.27627   0.27712   0.28186   0.28304
 Alpha virt. eigenvalues --    0.28942   0.29280   0.29439   0.29624   0.29647
 Alpha virt. eigenvalues --    0.30959   0.31242   0.31355   0.32455   0.35228
 Alpha virt. eigenvalues --    0.35861   0.39023   0.41850   0.42261   0.42527
 Alpha virt. eigenvalues --    0.42918   0.42979   0.43659   0.43795   0.44977
 Alpha virt. eigenvalues --    0.45387   0.45481   0.45788   0.45835   0.46217
 Alpha virt. eigenvalues --    0.46512   0.47745   0.47800   0.47964   0.48215
 Alpha virt. eigenvalues --    0.48646   0.49954   0.50020   0.50747   0.51403
 Alpha virt. eigenvalues --    0.54091   0.54346   0.55276   0.55945   0.57150
 Alpha virt. eigenvalues --    0.57446   0.57880   0.58187   0.58985   0.59441
 Alpha virt. eigenvalues --    0.60295   0.60865   0.61093   0.62093   0.62974
 Alpha virt. eigenvalues --    0.63093   0.64102   0.64729   0.65254   0.65407
 Alpha virt. eigenvalues --    0.66196   0.66418   0.67490   0.68426   0.69191
 Alpha virt. eigenvalues --    0.69674   0.69906   0.71001   0.75199   0.77035
 Alpha virt. eigenvalues --    0.78012   0.79077   0.80335   0.81786   0.82180
 Alpha virt. eigenvalues --    0.82410   0.82412   0.83004   0.83347   0.83668
 Alpha virt. eigenvalues --    0.83832   0.84628   0.84680   0.84780   0.84904
 Alpha virt. eigenvalues --    0.84923   0.85015   0.85758   0.85951   0.86074
 Alpha virt. eigenvalues --    0.86099   0.86588   0.87605   0.87675   0.88277
 Alpha virt. eigenvalues --    0.89981   0.90862   0.90876   0.92254   0.92610
 Alpha virt. eigenvalues --    0.93218   0.93725   0.94166   0.94713   0.94818
 Alpha virt. eigenvalues --    0.95382   0.95404   0.96397   0.96556   0.96688
 Alpha virt. eigenvalues --    0.97428   0.97741   0.99268   1.01444   1.02012
 Alpha virt. eigenvalues --    1.02252   1.03867   1.05570   1.07407   1.08144
 Alpha virt. eigenvalues --    1.09979   1.11941   1.13772   1.16332   1.17139
 Alpha virt. eigenvalues --    1.18125   1.20287   1.21553   1.23052   1.24239
 Alpha virt. eigenvalues --    1.24295   1.26201   1.26648   1.27481   1.27640
 Alpha virt. eigenvalues --    1.28460   1.28500   1.29318   1.29721   1.31520
 Alpha virt. eigenvalues --    1.34190   1.35190   1.36571   1.36949   1.38910
 Alpha virt. eigenvalues --    1.42721   1.44840   1.46993   1.48459   1.54947
 Alpha virt. eigenvalues --    1.56347   1.57564   1.57838   1.59137   1.59153
 Alpha virt. eigenvalues --    1.60617   1.64757   1.66706   1.68212   1.72403
 Alpha virt. eigenvalues --    1.73430   1.74086   1.74208   1.78194   1.78648
 Alpha virt. eigenvalues --    1.80558   1.80695   1.84136   1.84567   1.85669
 Alpha virt. eigenvalues --    1.88948   1.91263   1.92895   1.93462   1.94713
 Alpha virt. eigenvalues --    1.95116   1.95918   1.96933   2.02124   2.02590
 Alpha virt. eigenvalues --    2.09212   2.09977   2.11139   2.11139   2.15159
 Alpha virt. eigenvalues --    2.19623   2.22622   2.23044   2.23813   2.24397
 Alpha virt. eigenvalues --    2.24596   2.25360   2.26525   2.27903   2.28132
 Alpha virt. eigenvalues --    2.28492   2.30002   2.31375   2.32905   2.33824
 Alpha virt. eigenvalues --    2.36386   2.37822   2.41208   2.41598   2.42207
 Alpha virt. eigenvalues --    2.43440   2.44118   2.47140   2.49956   2.51305
 Alpha virt. eigenvalues --    2.52776   2.53396   2.54798   2.55599   2.58467
 Alpha virt. eigenvalues --    2.60654   2.61866   2.63495   2.63517   2.67523
 Alpha virt. eigenvalues --    2.68292   2.68402   2.70635   2.73191   2.73314
 Alpha virt. eigenvalues --    2.74469   2.74602   2.76715   2.82183   2.82354
 Alpha virt. eigenvalues --    2.83579   2.88643   2.89307   2.95815   2.98098
 Alpha virt. eigenvalues --    3.05175   3.06972   3.08307   3.11314   3.12314
 Alpha virt. eigenvalues --    3.12447   3.12573   3.15463   3.20561   3.22646
 Alpha virt. eigenvalues --    3.24580   3.27294   3.33242   3.36330   3.43755
 Alpha virt. eigenvalues --    3.50564   3.57739   3.67663   3.69911   3.77030
 Alpha virt. eigenvalues --    3.78080   3.88799   3.99642   4.00702   4.07629
 Alpha virt. eigenvalues --    4.30549   4.79565   4.80853   9.74976   9.75678
 Alpha virt. eigenvalues --    9.77427   9.78933   9.80637   9.80776   9.83867
 Alpha virt. eigenvalues --   23.31850  23.48207  23.77925  23.83326  23.85357
 Alpha virt. eigenvalues --   23.87968  23.92230  23.92988  24.01270  24.03076
 Alpha virt. eigenvalues --   24.06721  24.14220  25.77225  25.78518  25.79860
 Alpha virt. eigenvalues --   25.81149  25.87283  25.89046  25.93256  26.08711
 Alpha virt. eigenvalues --   26.10710  26.11604  26.15564  26.16236  26.24236
 Alpha virt. eigenvalues --   26.26926  26.48925  26.52476  26.60331  26.62359
 Alpha virt. eigenvalues --   26.74406  26.91285  26.96617 215.74054 215.74819
 Alpha virt. eigenvalues --  215.76779 215.78447 215.80507 215.80579 215.84644
          Condensed to atoms (all electrons):
               1          2          3          4          5          6
     1  C   44.814419   7.907593 -14.597670   5.720845 -14.598413   7.908821
     2  C    7.907593  39.407655 -16.306085   5.044704 -11.407691   2.229599
     3  C  -14.597670 -16.306085  39.630275 -18.957633  12.317477 -11.409054
     4  C    5.720845   5.044704 -18.957633  40.021800 -18.956923   5.045303
     5  C  -14.598413 -11.407691  12.317477 -18.956923  39.629260 -16.306894
     6  C    7.908821   2.229599 -11.409054   5.045303 -16.306894  39.409752
     7  C   -5.913372 -12.422380  12.907791  -9.517387  12.908012 -12.423294
     8  C   -7.944465  -3.672469   1.501977  -0.430749   1.502044  -3.672668
     9  C   -2.613057  -0.074678  -0.491764   0.389056  -0.491751  -0.074991
    10  C   -1.023572   0.390966  -0.251737   0.022195  -0.251657   0.391236
    11  C   -2.610788  -0.074102  -0.491970   0.389058  -0.491985  -0.074335
    12  C   -7.948809  -3.673112   1.502271  -0.430755   1.502311  -3.673651
    13  H    0.026813   0.143118  -0.004238  -0.020340  -0.007395  -0.030358
    14  H    0.026803  -0.030360  -0.007394  -0.020337  -0.004230   0.143090
    15  H    0.027961   0.000152  -0.000310   0.000132  -0.000311   0.000151
    16  Cl  -1.139471  -0.502714   0.803560  -0.516330   0.803595  -0.502702
    17  Cl  -0.170638  -0.040541   0.023144  -0.011124   0.023145  -0.040544
    18  Cl  -0.479606   0.089200   0.304870  -0.714540  -0.050052   0.181105
    19  Cl   0.061067   0.566763  -0.973535   0.332995  -0.973402   0.566882
    20  Cl  -0.479613   0.181177  -0.049978  -0.714627   0.304821   0.089206
    21  Cl  -0.170651  -0.040544   0.023141  -0.011122   0.023143  -0.040540
    22  Cl  -1.139351  -0.502815   0.803692  -0.516403   0.803647  -0.502706
               7          8          9         10         11         12
     1  C   -5.913372  -7.944465  -2.613057  -1.023572  -2.610788  -7.948809
     2  C  -12.422380  -3.672469  -0.074678   0.390966  -0.074102  -3.673112
     3  C   12.907791   1.501977  -0.491764  -0.251737  -0.491970   1.502271
     4  C   -9.517387  -0.430749   0.389056   0.022195   0.389058  -0.430755
     5  C   12.908012   1.502044  -0.491751  -0.251657  -0.491985   1.502311
     6  C  -12.423294  -3.672668  -0.074991   0.391236  -0.074335  -3.673651
     7  C   30.154667  -1.938998  -3.962932   1.761777  -3.962840  -1.941374
     8  C   -1.938998  21.820249  -4.110314  -7.984596   1.417376  10.309613
     9  C   -3.962932  -4.110314  22.089886   0.290612  -5.847285   1.419721
    10  C    1.761777  -7.984596   0.290612  21.455652   0.290285  -7.979742
    11  C   -3.962840   1.417376  -5.847285   0.290285  22.086227  -4.107310
    12  C   -1.941374  10.309613   1.419721  -7.979742  -4.107310  21.817698
    13  H    0.086950   0.074563   0.011828   0.008631   0.011813   0.074581
    14  H    0.086966   0.074566   0.011829   0.008630   0.011815   0.074588
    15  H    0.084865   0.094396   0.021507   0.008389   0.021478   0.094281
    16  Cl   0.762591  -0.406099   0.729394   0.286168  -0.901899  -1.154819
    17  Cl  -0.488041   0.313146  -0.408276  -0.522685  -0.162577   0.933002
    18  Cl  -0.001897  -0.033718  -0.008598  -0.001782  -0.008593  -0.033726
    19  Cl  -0.277944  -0.054155  -0.003308  -0.006507  -0.003300  -0.054161
    20  Cl  -0.001888  -0.033730  -0.008604  -0.001783  -0.008599  -0.033739
    21  Cl  -0.488088   0.933013  -0.162757  -0.522449  -0.408266   0.313115
    22  Cl   0.762710  -1.154926  -0.902088   0.286161   0.729375  -0.406156
              13         14         15         16         17         18
     1  C    0.026813   0.026803   0.027961  -1.139471  -0.170638  -0.479606
     2  C    0.143118  -0.030360   0.000152  -0.502714  -0.040541   0.089200
     3  C   -0.004238  -0.007394  -0.000310   0.803560   0.023144   0.304870
     4  C   -0.020340  -0.020337   0.000132  -0.516330  -0.011124  -0.714540
     5  C   -0.007395  -0.004230  -0.000311   0.803595   0.023145  -0.050052
     6  C   -0.030358   0.143090   0.000151  -0.502702  -0.040544   0.181105
     7  C    0.086950   0.086966   0.084865   0.762591  -0.488041  -0.001897
     8  C    0.074563   0.074566   0.094396  -0.406099   0.313146  -0.033718
     9  C    0.011828   0.011829   0.021507   0.729394  -0.408276  -0.008598
    10  C    0.008631   0.008630   0.008389   0.286168  -0.522685  -0.001782
    11  C    0.011813   0.011815   0.021478  -0.901899  -0.162577  -0.008593
    12  C    0.074581   0.074588   0.094281  -1.154819   0.933002  -0.033726
    13  H    0.513807   0.000012  -0.000003  -0.009493   0.000212   0.000141
    14  H    0.000012   0.513808  -0.000003  -0.009493   0.000212  -0.012972
    15  H   -0.000003  -0.000003   0.488498  -0.001192  -0.006181  -0.000001
    16  Cl  -0.009493  -0.009493  -0.001192  18.482786  -0.264504   0.001793
    17  Cl   0.000212   0.000212  -0.006181  -0.264504  17.341305   0.000215
    18  Cl   0.000141  -0.012972  -0.000001   0.001793   0.000215  17.423903
    19  Cl  -0.001449  -0.001449   0.000000   0.006931  -0.000011  -0.219732
    20  Cl  -0.012973   0.000140  -0.000001   0.001793   0.000215   0.018318
    21  Cl   0.000212   0.000212  -0.006186   0.012691  -0.027452   0.000215
    22  Cl  -0.009495  -0.009497  -0.001191  -0.118116   0.012692   0.001795
              19         20         21         22
     1  C    0.061067  -0.479613  -0.170651  -1.139351
     2  C    0.566763   0.181177  -0.040544  -0.502815
     3  C   -0.973535  -0.049978   0.023141   0.803692
     4  C    0.332995  -0.714627  -0.011122  -0.516403
     5  C   -0.973402   0.304821   0.023143   0.803647
     6  C    0.566882   0.089206  -0.040540  -0.502706
     7  C   -0.277944  -0.001888  -0.488088   0.762710
     8  C   -0.054155  -0.033730   0.933013  -1.154926
     9  C   -0.003308  -0.008604  -0.162757  -0.902088
    10  C   -0.006507  -0.001783  -0.522449   0.286161
    11  C   -0.003300  -0.008599  -0.408266   0.729375
    12  C   -0.054161  -0.033739   0.313115  -0.406156
    13  H   -0.001449  -0.012973   0.000212  -0.009495
    14  H   -0.001449   0.000140   0.000212  -0.009497
    15  H    0.000000  -0.000001  -0.006186  -0.001191
    16  Cl   0.006931   0.001793   0.012691  -0.118116
    17  Cl  -0.000011   0.000215  -0.027452   0.012692
    18  Cl  -0.219732   0.018318   0.000215   0.001795
    19  Cl  17.617696  -0.219723  -0.000011   0.006930
    20  Cl  -0.219723  17.423905   0.000215   0.001795
    21  Cl  -0.000011   0.000215  17.341333  -0.264511
    22  Cl   0.006930   0.001795  -0.264511  18.482941
 Mulliken charges:
               1
     1  C    0.335152
     2  C   -1.213437
     3  C   -0.276828
     4  C   -0.147817
     5  C   -0.276752
     6  C   -1.213407
     7  C   -0.175894
     8  C   -0.604056
     9  C    0.196571
    10  C   -0.654193
    11  C    0.196421
    12  C   -0.603827
    13  H    0.143065
    14  H    0.143063
    15  H    0.173565
    16  Cl   0.635531
    17  Cl   0.495286
    18  Cl   0.543661
    19  Cl   0.629425
    20  Cl   0.543671
    21  Cl   0.495284
    22  Cl   0.635517
 Sum of Mulliken charges =  -0.00000
 Mulliken charges with hydrogens summed into heavy atoms:
               1
     1  C    0.335152
     2  C   -1.070372
     3  C   -0.276828
     4  C   -0.147817
     5  C   -0.276752
     6  C   -1.070344
     7  C   -0.175894
     8  C   -0.604056
     9  C    0.196571
    10  C   -0.480628
    11  C    0.196421
    12  C   -0.603827
    16  Cl   0.635531
    17  Cl   0.495286
    18  Cl   0.543661
    19  Cl   0.629425
    20  Cl   0.543671
    21  Cl   0.495284
    22  Cl   0.635517
 Electronic spatial extent (au):  <R**2>=           9881.8670
 Charge=              0.0000 electrons
 Dipole moment (field-independent basis, Debye):
    X=              2.1069    Y=             -0.0000    Z=              0.0000  Tot=              2.1069
 Quadrupole moment (field-independent basis, Debye-Ang):
   XX=           -157.9053   YY=           -161.0057   ZZ=           -156.1313
   XY=             -0.0000   XZ=             -0.0001   YZ=              0.0002
 Traceless Quadrupole moment (field-independent basis, Debye-Ang):
   XX=              0.4421   YY=             -2.6582   ZZ=              2.2161
   XY=             -0.0000   XZ=             -0.0001   YZ=              0.0002
 Octapole moment (field-independent basis, Debye-Ang**2):
  XXX=             39.0228  YYY=              0.0001  ZZZ=             -0.0005  XYY=            -10.2347
  XXY=             -0.0008  XXZ=             -0.0009  XZZ=             -3.3305  YZZ=             -0.0002
  YYZ=             -0.0008  XYZ=              0.0001
 Hexadecapole moment (field-independent basis, Debye-Ang**3):
 XXXX=          -8560.7691 YYYY=          -2502.8942 ZZZZ=          -1495.0038 XXXY=              0.0003
 XXXZ=             -0.0037 YYYX=              0.0016 YYYZ=             -0.0035 ZZZX=             -0.0013
 ZZZY=              0.0028 XXYY=          -1904.1896 XXZZ=          -1736.5823 YYZZ=           -704.6416
 XXYZ=             -0.0004 YYXZ=             -0.0020 ZZXY=              0.0007
 N-N= 2.309477306131D+03 E-N=-1.334003510251D+04  KE= 3.671255749957D+03
 1\1\GINC-CN155\FOpt\RB3LYP\6-311+G(d,p)\C12H3Cl7\20CY91R06\28-Mar-2022
 \0\\# opt b3lyp/6-311+g(d,p) scf=xqc\\Title Card Required\\0,1\C,0.277
 0595725,-0.4629804694,-0.0028115506\C,1.5528130791,-0.3952246445,0.552
 1743009\C,2.2544149189,0.8052948857,0.5456735937\C,1.697033412,1.96300
 02425,-0.014968667\C,0.4122542354,1.8779590872,-0.5693933844\C,-0.2909
 647251,0.6783814413,-0.5638715749\C,-0.4780168724,-1.7530117163,0.0036
 446251\C,-0.3576266745,-2.65645661,-1.0642662848\C,-1.0662252953,-3.86
 28722973,-1.0540756207\C,-1.8950709545,-4.1741375435,0.0157821882\C,-2
 .0249005652,-3.2910753903,1.0796486938\C,-1.320006177,-2.0824508651,1.
 0777341264\H,2.0104827705,-1.2711495499,0.9925006835\H,-1.280707021,0.
 6452645548,-0.9996545602\H,-2.4411596111,-5.1071924837,0.0204673344\Cl
 ,-1.4813109853,-0.9725299475,2.4119375573\Cl,-3.0787693045,-3.73296549
 74,2.3956938514\Cl,-0.3478372067,3.2764759874,-1.2856691995\Cl,2.57363
 52786,3.460631776,-0.0224884927\Cl,3.8491129266,0.8326511711,1.2547784
 345\Cl,-0.9411190893,-5.0079587761,-2.3621301406\Cl,0.6833200236,-2.26
 36018263,-2.4059579672\\Version=EM64L-G16RevB.01\State=1-A\HF=-3680.74
 66951\RMSD=3.996e-09\RMSF=1.010e-06\Dipole=-0.4187125,-0.7153708,0.003
 584\Quadrupole=0.7367123,0.4610066,-1.197719,-0.232445,1.2812048,-0.75
 75621\PG=C01 [X(C12H3Cl7)]\\@


 CHINESE FORTUNE COOKIE OF JAN 1 1967 SAY....
 ALL THINGS ARE DIFFICULT BEFORE THEY ARE EASY.
 WE LEARN SO LITTLE AND FORGET SO MUCH.
 YOU WILL OVERCOME OBSTACLES TO ACHIEVE SUCCESS.
 AH SO.
 Job cpu time:       0 days 10 hours 11 minutes 46.3 seconds.
 Elapsed time:       0 days  2 hours 33 minutes  2.2 seconds.
 File lengths (MBytes):  RWF=    156 Int=      0 D2E=      0 Chk=     23 Scr=      1
 Normal termination of Gaussian 16 at Mon Mar 28 02:10:36 2022.
