 Entering Gaussian System, Link 0=g16
 Input=2,3,3prime,4,4prime-Pentachlorobiphenyl.gjf
 Output=2,3,3prime,4,4prime-Pentachlorobiphenyl.log
 Initial command:
 /opt/g16/l1.exe "/scratch/gour/Gau-47192.inp" -scrdir="/scratch/gour/"
 Entering Link 1 = /opt/g16/l1.exe PID=     47193.
  
 Copyright (c) 1988-2017, Gaussian, Inc.  All Rights Reserved.
  
 This is part of the Gaussian(R) 16 program.  It is based on
 the Gaussian(R) 09 system (copyright 2009, Gaussian, Inc.),
 the Gaussian(R) 03 system (copyright 2003, Gaussian, Inc.),
 the Gaussian(R) 98 system (copyright 1998, Gaussian, Inc.),
 the Gaussian(R) 94 system (copyright 1995, Gaussian, Inc.),
 the Gaussian 92(TM) system (copyright 1992, Gaussian, Inc.),
 the Gaussian 90(TM) system (copyright 1990, Gaussian, Inc.),
 the Gaussian 88(TM) system (copyright 1988, Gaussian, Inc.),
 the Gaussian 86(TM) system (copyright 1986, Carnegie Mellon
 University), and the Gaussian 82(TM) system (copyright 1983,
 Carnegie Mellon University). Gaussian is a federally registered
 trademark of Gaussian, Inc.
  
 This software contains proprietary and confidential information,
 including trade secrets, belonging to Gaussian, Inc.
  
 This software is provided under written license and may be
 used, copied, transmitted, or stored only in accord with that
 written license.
  
 The following legend is applicable only to US Government
 contracts under FAR:
  
                    RESTRICTED RIGHTS LEGEND
  
 Use, reproduction and disclosure by the US Government is
 subject to restrictions as set forth in subparagraphs (a)
 and (c) of the Commercial Computer Software - Restricted
 Rights clause in FAR 52.227-19.
  
 Gaussian, Inc.
 340 Quinnipiac St., Bldg. 40, Wallingford CT 06492
  
  
 ---------------------------------------------------------------
 Warning -- This program may not be used in any manner that
 competes with the business of Gaussian, Inc. or will provide
 assistance to any competitor of Gaussian, Inc.  The licensee
 of this program is prohibited from giving any competitor of
 Gaussian, Inc. access to this program.  By using this program,
 the user acknowledges that Gaussian, Inc. is engaged in the
 business of creating and licensing software in the field of
 computational chemistry and represents and warrants to the
 licensee that it is not a competitor of Gaussian, Inc. and that
 it will not use this program in any manner prohibited above.
 ---------------------------------------------------------------
  

 Cite this work as:
 Gaussian 16, Revision B.01,
 M. J. Frisch, G. W. Trucks, H. B. Schlegel, G. E. Scuseria, 
 M. A. Robb, J. R. Cheeseman, G. Scalmani, V. Barone, 
 G. A. Petersson, H. Nakatsuji, X. Li, M. Caricato, A. V. Marenich, 
 J. Bloino, B. G. Janesko, R. Gomperts, B. Mennucci, H. P. Hratchian, 
 J. V. Ortiz, A. F. Izmaylov, J. L. Sonnenberg, D. Williams-Young, 
 F. Ding, F. Lipparini, F. Egidi, J. Goings, B. Peng, A. Petrone, 
 T. Henderson, D. Ranasinghe, V. G. Zakrzewski, J. Gao, N. Rega, 
 G. Zheng, W. Liang, M. Hada, M. Ehara, K. Toyota, R. Fukuda, 
 J. Hasegawa, M. Ishida, T. Nakajima, Y. Honda, O. Kitao, H. Nakai, 
 T. Vreven, K. Throssell, J. A. Montgomery, Jr., J. E. Peralta, 
 F. Ogliaro, M. J. Bearpark, J. J. Heyd, E. N. Brothers, K. N. Kudin, 
 V. N. Staroverov, T. A. Keith, R. Kobayashi, J. Normand, 
 K. Raghavachari, A. P. Rendell, J. C. Burant, S. S. Iyengar, 
 J. Tomasi, M. Cossi, J. M. Millam, M. Klene, C. Adamo, R. Cammi, 
 J. W. Ochterski, R. L. Martin, K. Morokuma, O. Farkas, 
 J. B. Foresman, and D. J. Fox, Gaussian, Inc., Wallingford CT, 2016.
 
 ******************************************
 Gaussian 16:  EM64L-G16RevB.01 20-Dec-2017
                16-Mar-2022 
 ******************************************
 %mem=10GB
 %nprocshared=4
 Will use up to    4 processors via shared memory.
 --------------------------------
 # opt b3lyp/6-311+g(d,p) scf=xqc
 --------------------------------
 1/18=20,19=15,26=3,38=1/1,3;
 2/9=110,12=2,17=6,18=5,40=1/2;
 3/5=4,6=6,7=111,11=2,25=1,30=1,71=1,74=-5/1,2,3;
 4//1;
 5/5=2,8=3,13=1,38=5/2,8;
 6/7=2,8=2,9=2,10=2,28=1/1;
 7//1,2,3,16;
 1/18=20,19=15,26=3/3(2);
 2/9=110/2;
 99//99;
 2/9=110/2;
 3/5=4,6=6,7=111,11=2,25=1,30=1,71=1,74=-5/1,2,3;
 4/5=5,16=3,69=1/1;
 5/5=2,8=3,13=1,38=5/2,8;
 7//1,2,3,16;
 1/18=20,19=15,26=3/3(-5);
 2/9=110/2;
 6/7=2,8=2,9=2,10=2,19=2,28=1/1;
 99/9=1/99;
 -------------------
 Title Card Required
 -------------------
 Symbolic Z-matrix:
 Charge =  0 Multiplicity = 1
 C                     0.13274   0.09987  -0.00285 
 C                     1.46513   0.12975  -0.4362 
 C                     2.17302   1.33921  -0.44227 
 C                     1.54853   2.51877  -0.015 
 C                     0.21615   2.48889   0.41835 
 C                    -0.49174   1.27943   0.42442 
 C                    -0.64516  -1.2292    0.00382 
 C                    -0.02067  -2.40876  -0.42345 
 C                    -0.72857  -3.61821  -0.41738 
 C                    -2.06095  -3.6481    0.01597 
 C                    -2.68543  -2.46854   0.44325 
 C                    -1.97754  -1.25909   0.43717 
 H                     1.94194  -0.77087  -0.76243 
 H                     3.19032   1.36202  -0.77314 
 H                    -1.50905   1.25662   0.75529 
 H                     0.99663  -2.38595  -0.75432 
 H                    -0.25176  -4.51884  -0.74361 
 Cl                   -2.76183   0.22231   0.97378 
 Cl                   -4.35875  -2.50607   0.98749 
 Cl                   -0.56814   3.97029   0.95495 
 Cl                   -2.94998  -5.16704   0.0236 
 Cl                    2.43757   4.0377   -0.02262 
 

 GradGradGradGradGradGradGradGradGradGradGradGradGradGradGradGradGradGrad
 Berny optimization.
 Initialization pass.
                           ----------------------------
                           !    Initial Parameters    !
                           ! (Angstroms and Degrees)  !
 --------------------------                            --------------------------
 ! Name  Definition              Value          Derivative Info.                !
 --------------------------------------------------------------------------------
 ! R1    R(1,2)                  1.4014         estimate D2E/DX2                !
 ! R2    R(1,6)                  1.4014         estimate D2E/DX2                !
 ! R3    R(1,7)                  1.54           estimate D2E/DX2                !
 ! R4    R(2,3)                  1.4014         estimate D2E/DX2                !
 ! R5    R(2,13)                 1.07           estimate D2E/DX2                !
 ! R6    R(3,4)                  1.4014         estimate D2E/DX2                !
 ! R7    R(3,14)                 1.07           estimate D2E/DX2                !
 ! R8    R(4,5)                  1.4014         estimate D2E/DX2                !
 ! R9    R(4,22)                 1.76           estimate D2E/DX2                !
 ! R10   R(5,6)                  1.4014         estimate D2E/DX2                !
 ! R11   R(5,20)                 1.76           estimate D2E/DX2                !
 ! R12   R(6,15)                 1.07           estimate D2E/DX2                !
 ! R13   R(7,8)                  1.4014         estimate D2E/DX2                !
 ! R14   R(7,12)                 1.4014         estimate D2E/DX2                !
 ! R15   R(8,9)                  1.4014         estimate D2E/DX2                !
 ! R16   R(8,16)                 1.07           estimate D2E/DX2                !
 ! R17   R(9,10)                 1.4014         estimate D2E/DX2                !
 ! R18   R(9,17)                 1.07           estimate D2E/DX2                !
 ! R19   R(10,11)                1.4014         estimate D2E/DX2                !
 ! R20   R(10,21)                1.76           estimate D2E/DX2                !
 ! R21   R(11,12)                1.4014         estimate D2E/DX2                !
 ! R22   R(11,19)                1.76           estimate D2E/DX2                !
 ! R23   R(12,18)                1.76           estimate D2E/DX2                !
 ! A1    A(2,1,6)              120.0            estimate D2E/DX2                !
 ! A2    A(2,1,7)              120.0            estimate D2E/DX2                !
 ! A3    A(6,1,7)              120.0            estimate D2E/DX2                !
 ! A4    A(1,2,3)              120.0            estimate D2E/DX2                !
 ! A5    A(1,2,13)             120.0            estimate D2E/DX2                !
 ! A6    A(3,2,13)             120.0            estimate D2E/DX2                !
 ! A7    A(2,3,4)              120.0            estimate D2E/DX2                !
 ! A8    A(2,3,14)             120.0            estimate D2E/DX2                !
 ! A9    A(4,3,14)             120.0            estimate D2E/DX2                !
 ! A10   A(3,4,5)              120.0            estimate D2E/DX2                !
 ! A11   A(3,4,22)             120.0            estimate D2E/DX2                !
 ! A12   A(5,4,22)             120.0            estimate D2E/DX2                !
 ! A13   A(4,5,6)              120.0            estimate D2E/DX2                !
 ! A14   A(4,5,20)             120.0            estimate D2E/DX2                !
 ! A15   A(6,5,20)             120.0            estimate D2E/DX2                !
 ! A16   A(1,6,5)              120.0            estimate D2E/DX2                !
 ! A17   A(1,6,15)             120.0            estimate D2E/DX2                !
 ! A18   A(5,6,15)             120.0            estimate D2E/DX2                !
 ! A19   A(1,7,8)              120.0            estimate D2E/DX2                !
 ! A20   A(1,7,12)             120.0            estimate D2E/DX2                !
 ! A21   A(8,7,12)             120.0            estimate D2E/DX2                !
 ! A22   A(7,8,9)              120.0            estimate D2E/DX2                !
 ! A23   A(7,8,16)             120.0            estimate D2E/DX2                !
 ! A24   A(9,8,16)             120.0            estimate D2E/DX2                !
 ! A25   A(8,9,10)             120.0            estimate D2E/DX2                !
 ! A26   A(8,9,17)             120.0            estimate D2E/DX2                !
 ! A27   A(10,9,17)            120.0            estimate D2E/DX2                !
 ! A28   A(9,10,11)            120.0            estimate D2E/DX2                !
 ! A29   A(9,10,21)            120.0            estimate D2E/DX2                !
 ! A30   A(11,10,21)           120.0            estimate D2E/DX2                !
 ! A31   A(10,11,12)           120.0            estimate D2E/DX2                !
 ! A32   A(10,11,19)           120.0            estimate D2E/DX2                !
 ! A33   A(12,11,19)           120.0            estimate D2E/DX2                !
 ! A34   A(7,12,11)            120.0            estimate D2E/DX2                !
 ! A35   A(7,12,18)            120.0            estimate D2E/DX2                !
 ! A36   A(11,12,18)           120.0            estimate D2E/DX2                !
 ! D1    D(6,1,2,3)              0.0001         estimate D2E/DX2                !
 ! D2    D(6,1,2,13)           180.0            estimate D2E/DX2                !
 ! D3    D(7,1,2,3)           -180.0            estimate D2E/DX2                !
 ! D4    D(7,1,2,13)            -0.0001         estimate D2E/DX2                !
 ! D5    D(2,1,6,5)             -0.0001         estimate D2E/DX2                !
 ! D6    D(2,1,6,15)           180.0            estimate D2E/DX2                !
 ! D7    D(7,1,6,5)            180.0            estimate D2E/DX2                !
 ! D8    D(7,1,6,15)             0.0            estimate D2E/DX2                !
 ! D9    D(2,1,7,8)             -0.0001         estimate D2E/DX2                !
 ! D10   D(2,1,7,12)           179.9998         estimate D2E/DX2                !
 ! D11   D(6,1,7,8)            179.9999         estimate D2E/DX2                !
 ! D12   D(6,1,7,12)            -0.0002         estimate D2E/DX2                !
 ! D13   D(1,2,3,4)              0.0            estimate D2E/DX2                !
 ! D14   D(1,2,3,14)           180.0            estimate D2E/DX2                !
 ! D15   D(13,2,3,4)          -179.9999         estimate D2E/DX2                !
 ! D16   D(13,2,3,14)            0.0001         estimate D2E/DX2                !
 ! D17   D(2,3,4,5)             -0.0001         estimate D2E/DX2                !
 ! D18   D(2,3,4,22)           180.0            estimate D2E/DX2                !
 ! D19   D(14,3,4,5)           179.9999         estimate D2E/DX2                !
 ! D20   D(14,3,4,22)            0.0            estimate D2E/DX2                !
 ! D21   D(3,4,5,6)              0.0001         estimate D2E/DX2                !
 ! D22   D(3,4,5,20)          -179.9999         estimate D2E/DX2                !
 ! D23   D(22,4,5,6)          -180.0            estimate D2E/DX2                !
 ! D24   D(22,4,5,20)            0.0            estimate D2E/DX2                !
 ! D25   D(4,5,6,1)              0.0            estimate D2E/DX2                !
 ! D26   D(4,5,6,15)           179.9999         estimate D2E/DX2                !
 ! D27   D(20,5,6,1)           180.0            estimate D2E/DX2                !
 ! D28   D(20,5,6,15)           -0.0001         estimate D2E/DX2                !
 ! D29   D(1,7,8,9)            179.9999         estimate D2E/DX2                !
 ! D30   D(1,7,8,16)             0.0001         estimate D2E/DX2                !
 ! D31   D(12,7,8,9)             0.0001         estimate D2E/DX2                !
 ! D32   D(12,7,8,16)         -179.9998         estimate D2E/DX2                !
 ! D33   D(1,7,12,11)         -179.9999         estimate D2E/DX2                !
 ! D34   D(1,7,12,18)            0.0            estimate D2E/DX2                !
 ! D35   D(8,7,12,11)           -0.0001         estimate D2E/DX2                !
 ! D36   D(8,7,12,18)          179.9999         estimate D2E/DX2                !
 ! D37   D(7,8,9,10)             0.0            estimate D2E/DX2                !
 ! D38   D(7,8,9,17)           180.0            estimate D2E/DX2                !
 ! D39   D(16,8,9,10)          179.9998         estimate D2E/DX2                !
 ! D40   D(16,8,9,17)           -0.0002         estimate D2E/DX2                !
 ! D41   D(8,9,10,11)            0.0            estimate D2E/DX2                !
 ! D42   D(8,9,10,21)         -179.9999         estimate D2E/DX2                !
 ! D43   D(17,9,10,11)         180.0            estimate D2E/DX2                !
 ! D44   D(17,9,10,21)           0.0001         estimate D2E/DX2                !
 ! D45   D(9,10,11,12)           0.0            estimate D2E/DX2                !
 ! D46   D(9,10,11,19)        -179.9998         estimate D2E/DX2                !
 ! D47   D(21,10,11,12)        179.9999         estimate D2E/DX2                !
 ! D48   D(21,10,11,19)          0.0001         estimate D2E/DX2                !
 ! D49   D(10,11,12,7)           0.0            estimate D2E/DX2                !
 ! D50   D(10,11,12,18)       -179.9999         estimate D2E/DX2                !
 ! D51   D(19,11,12,7)         179.9999         estimate D2E/DX2                !
 ! D52   D(19,11,12,18)         -0.0001         estimate D2E/DX2                !
 --------------------------------------------------------------------------------
 Trust Radius=3.00D-01 FncErr=1.00D-07 GrdErr=1.00D-06 EigMax=2.50D+02 EigMin=1.00D-04
 Number of steps in this run=    121 maximum allowed number of steps=    132.
 GradGradGradGradGradGradGradGradGradGradGradGradGradGradGradGradGradGrad

                          Input orientation:                          
 ---------------------------------------------------------------------
 Center     Atomic      Atomic             Coordinates (Angstroms)
 Number     Number       Type             X           Y           Z
 ---------------------------------------------------------------------
      1          6           0        0.132744    0.099869   -0.002851
      2          6           0        1.465125    0.129755   -0.436198
      3          6           0        2.173019    1.339206   -0.442270
      4          6           0        1.548531    2.518771   -0.014995
      5          6           0        0.216150    2.488885    0.418350
      6          6           0       -0.491744    1.279434    0.424422
      7          6           0       -0.645161   -1.229199    0.003823
      8          6           0       -0.020674   -2.408764   -0.423452
      9          6           0       -0.728566   -3.618215   -0.417378
     10          6           0       -2.060947   -3.648101    0.015972
     11          6           0       -2.685434   -2.468536    0.443247
     12          6           0       -1.977541   -1.259085    0.437173
     13          1           0        1.941936   -0.770870   -0.762430
     14          1           0        3.190321    1.362024   -0.773139
     15          1           0       -1.509047    1.256616    0.755291
     16          1           0        0.996629   -2.385945   -0.754322
     17          1           0       -0.251757   -4.518839   -0.743612
     18         17           0       -2.761825    0.222315    0.973785
     19         17           0       -4.358751   -2.506071    0.987490
     20         17           0       -0.568137    3.970286    0.954955
     21         17           0       -2.949979   -5.167036    0.023603
     22         17           0        2.437566    4.037704   -0.022621
 ---------------------------------------------------------------------
                    Distance matrix (angstroms):
                    1          2          3          4          5
     1  C    0.000000
     2  C    1.401400   0.000000
     3  C    2.427296   1.401400   0.000000
     4  C    2.802800   2.427296   1.401400   0.000000
     5  C    2.427296   2.802800   2.427296   1.401400   0.000000
     6  C    1.401400   2.427296   2.802800   2.427296   1.401400
     7  C    1.540000   2.548270   3.838989   4.342800   3.838989
     8  C    2.548270   2.941400   4.342800   5.187469   4.975106
     9  C    3.838989   4.342800   5.744200   6.558176   6.235992
    10  C    4.342800   5.187469   6.558176   7.145600   6.558176
    11  C    3.838989   4.975106   6.235992   6.558176   5.744200
    12  C    2.548270   3.813607   4.975106   5.187469   4.342800
    13  H    2.146700   1.070000   2.146700   3.396345   3.872800
    14  H    3.396345   2.146700   1.070000   2.146700   3.396345
    15  H    2.146700   3.396345   3.872800   3.396345   2.146700
    16  H    2.736837   2.578650   3.918930   4.990735   5.074276
    17  H    4.693509   4.965039   6.347206   7.300676   7.118798
    18  Cl   3.057342   4.456874   5.254079   4.983028   3.783409
    19  Cl   5.286324   6.549198   7.713260   7.819846   6.797295
    20  Cl   4.048303   4.562800   4.048303   2.743718   1.760000
    21  Cl   6.102800   6.910901   8.294174   8.905600   8.294174
    22  Cl   4.562800   4.048303   2.743718   1.760000   2.743718
                    6          7          8          9         10
     6  C    0.000000
     7  C    2.548270   0.000000
     8  C    3.813607   1.401400   0.000000
     9  C    4.975106   2.427296   1.401400   0.000000
    10  C    5.187469   2.802800   2.427296   1.401400   0.000000
    11  C    4.342800   2.427296   2.802800   2.427296   1.401400
    12  C    2.941400   1.401400   2.427296   2.802800   2.427296
    13  H    3.396345   2.736837   2.578650   3.918930   4.990735
    14  H    3.872800   4.693509   4.965039   6.347206   7.300676
    15  H    1.070000   2.736837   4.127917   5.074276   4.990735
    16  H    4.127917   2.146700   1.070000   2.146700   3.396345
    17  H    5.919617   3.396345   2.146700   1.070000   2.146700
    18  Cl   2.563702   2.743718   4.048303   4.562800   4.048303
    19  Cl   5.440665   4.048303   4.562800   4.048303   2.743718
    20  Cl   2.743718   5.286324   6.549198   7.713260   7.819846
    21  Cl   6.910901   4.562800   4.048303   2.743718   1.760000
    22  Cl   4.048303   6.102800   6.910901   8.294174   8.905600
                   11         12         13         14         15
    11  C    0.000000
    12  C    1.401400   0.000000
    13  H    5.074276   4.127917   0.000000
    14  H    7.118798   5.919617   2.471400   0.000000
    15  H    3.918930   2.578650   4.280590   4.942800   0.000000
    16  H    3.872800   3.396345   1.871400   4.342800   4.671787
    17  H    3.396345   3.872800   4.342800   6.814200   6.097816
    18  Cl   2.743718   1.760000   5.111382   6.307038   1.639199
    19  Cl   1.760000   2.743718   6.765486   8.663168   4.725732
    20  Cl   6.797295   5.440665   5.632800   4.890332   2.879094
    21  Cl   2.743718   4.048303   6.623817   8.998151   6.623817
    22  Cl   8.294174   6.910901   4.890332   2.879094   4.890332
                   16         17         18         19         20
    16  H    0.000000
    17  H    2.471400   0.000000
    18  Cl   4.890332   5.632800   0.000000
    19  Cl   5.632800   4.890332   3.161400   0.000000
    20  Cl   6.765486   8.663168   4.342800   7.504200   0.000000
    21  Cl   4.890332   2.879094   5.475705   3.161400   9.488480
    22  Cl   6.623817   8.998151   6.525618   9.488480   3.161400
                   21         22
    21  Cl   0.000000
    22  Cl  10.665600   0.000000
 Stoichiometry    C12H5Cl5
 Framework group  C1[X(C12H5Cl5)]
 Deg. of freedom    60
 Full point group                 C1      NOp   1
 Largest Abelian subgroup         C1      NOp   1
 Largest concise Abelian subgroup C1      NOp   1
                         Standard orientation:                         
 ---------------------------------------------------------------------
 Center     Atomic      Atomic             Coordinates (Angstroms)
 Number     Number       Type             X           Y           Z
 ---------------------------------------------------------------------
      1          6           0       -0.835886   -0.812445    0.000002
      2          6           0       -1.550902   -2.017714   -0.000000
      3          6           0       -2.952204   -2.001127   -0.000002
      4          6           0       -3.638490   -0.779270   -0.000002
      5          6           0       -2.923474    0.425999    0.000002
      6          6           0       -1.522172    0.409412    0.000004
      7          6           0        0.704006   -0.830672    0.000003
      8          6           0        1.390292   -2.052529    0.000004
      9          6           0        2.791594   -2.069116    0.000003
     10          6           0        3.506610   -0.863847    0.000002
     11          6           0        2.820324    0.358010    0.000001
     12          6           0        1.419022    0.374597    0.000002
     13          1           0       -1.026907   -2.950629   -0.000002
     14          1           0       -3.498134   -2.921377   -0.000004
     15          1           0       -0.976241    1.329662    0.000006
     16          1           0        0.844362   -2.972779    0.000002
     17          1           0        3.315588   -3.002031    0.000004
     18         17           0        0.557125    1.909111   -0.000002
     19         17           0        3.718303    1.871692   -0.000005
     20         17           0       -3.785371    1.960513    0.000005
     21         17           0        5.266487   -0.884679   -0.000001
     22         17           0       -5.398366   -0.758438   -0.000005
 ---------------------------------------------------------------------
 Rotational constants (GHZ):           0.7147785           0.1319046           0.1113552
 Standard basis: 6-311+G(d,p) (5D, 7F)
 There are   461 symmetry adapted cartesian basis functions of A   symmetry.
 There are   444 symmetry adapted basis functions of A   symmetry.
   444 basis functions,   737 primitive gaussians,   461 cartesian basis functions
    81 alpha electrons       81 beta electrons
       nuclear repulsion energy      1694.7079884873 Hartrees.
 NAtoms=   22 NActive=   22 NUniq=   22 SFac= 1.00D+00 NAtFMM=   60 NAOKFM=F Big=F
 Integral buffers will be    131072 words long.
 Raffenetti 2 integral format.
 Two-electron integral symmetry is turned on.
 One-electron integrals computed using PRISM.
 NBasis=   444 RedAO= T EigKep=  1.15D-06  NBF=   444
 NBsUse=   438 1.00D-06 EigRej=  7.70D-07 NBFU=   438
 ExpMin= 4.38D-02 ExpMax= 1.06D+05 ExpMxC= 3.62D+03 IAcc=3 IRadAn=         5 AccDes= 0.00D+00
 Harris functional with IExCor=  402 and IRadAn=       5 diagonalized for initial guess.
 HarFok:  IExCor=  402 AccDes= 0.00D+00 IRadAn=         5 IDoV= 1 UseB2=F ITyADJ=14
 ICtDFT=  3500011 ScaDFX=  1.000000  1.000000  1.000000  1.000000
 FoFCou: FMM=F IPFlag=           0 FMFlag=      100000 FMFlg1=           0
         NFxFlg=           0 DoJE=T BraDBF=F KetDBF=T FulRan=T
         wScrn=  0.000000 ICntrl=       500 IOpCl=  0 I1Cent=   200000004 NGrid=           0
         NMat0=    1 NMatS0=      1 NMatT0=    0 NMatD0=    1 NMtDS0=    0 NMtDT0=    0
 Petite list used in FoFCou.
 Requested convergence on RMS density matrix=1.00D-08 within  32 cycles.
 Requested convergence on MAX density matrix=1.00D-06.
 Requested convergence on             energy=1.00D-06.
 No special actions if energy rises.
 SCF Done:  E(RB3LYP) =  -2761.45394071     A.U. after   16 cycles
            NFock= 16  Conv=0.38D-08     -V/T= 2.0026
 QCSCF skips out because SCF is already converged.

 **********************************************************************

            Population analysis using the SCF Density.

 **********************************************************************

 Orbital symmetries:
       Occupied  (A) (A) (A) (A) (A) (A) (A) (A) (A) (A) (A) (A)
                 (A) (A) (A) (A) (A) (A) (A) (A) (A) (A) (A) (A)
                 (A) (A) (A) (A) (A) (A) (A) (A) (A) (A) (A) (A)
                 (A) (A) (A) (A) (A) (A) (A) (A) (A) (A) (A) (A)
                 (A) (A) (A) (A) (A) (A) (A) (A) (A) (A) (A) (A)
                 (A) (A) (A) (A) (A) (A) (A) (A) (A) (A) (A) (A)
                 (A) (A) (A) (A) (A) (A) (A) (A) (A)
       Virtual   (A) (A) (A) (A) (A) (A) (A) (A) (A) (A) (A) (A)
                 (A) (A) (A) (A) (A) (A) (A) (A) (A) (A) (A) (A)
                 (A) (A) (A) (A) (A) (A) (A) (A) (A) (A) (A) (A)
                 (A) (A) (A) (A) (A) (A) (A) (A) (A) (A) (A) (A)
                 (A) (A) (A) (A) (A) (A) (A) (A) (A) (A) (A) (A)
                 (A) (A) (A) (A) (A) (A) (A) (A) (A) (A) (A) (A)
                 (A) (A) (A) (A) (A) (A) (A) (A) (A) (A) (A) (A)
                 (A) (A) (A) (A) (A) (A) (A) (A) (A) (A) (A) (A)
                 (A) (A) (A) (A) (A) (A) (A) (A) (A) (A) (A) (A)
                 (A) (A) (A) (A) (A) (A) (A) (A) (A) (A) (A) (A)
                 (A) (A) (A) (A) (A) (A) (A) (A) (A) (A) (A) (A)
                 (A) (A) (A) (A) (A) (A) (A) (A) (A) (A) (A) (A)
                 (A) (A) (A) (A) (A) (A) (A) (A) (A) (A) (A) (A)
                 (A) (A) (A) (A) (A) (A) (A) (A) (A) (A) (A) (A)
                 (A) (A) (A) (A) (A) (A) (A) (A) (A) (A) (A) (A)
                 (A) (A) (A) (A) (A) (A) (A) (A) (A) (A) (A) (A)
                 (A) (A) (A) (A) (A) (A) (A) (A) (A) (A) (A) (A)
                 (A) (A) (A) (A) (A) (A) (A) (A) (A) (A) (A) (A)
                 (A) (A) (A) (A) (A) (A) (A) (A) (A) (A) (A) (A)
                 (A) (A) (A) (A) (A) (A) (A) (A) (A) (A) (A) (A)
                 (A) (A) (A) (A) (A) (A) (A) (A) (A) (A) (A) (A)
                 (A) (A) (A) (A) (A) (A) (A) (A) (A) (A) (A) (A)
                 (A) (A) (A) (A) (A) (A) (A) (A) (A) (A) (A) (A)
                 (A) (A) (A) (A) (A) (A) (A) (A) (A) (A) (A) (A)
                 (A) (A) (A) (A) (A) (A) (A) (A) (A) (A) (A) (A)
                 (A) (A) (A) (A) (A) (A) (A) (A) (A) (A) (A) (A)
                 (A) (A) (A) (A) (A) (A) (A) (A) (A) (A) (A) (A)
                 (A) (A) (A) (A) (A) (A) (A) (A) (A) (A) (A) (A)
                 (A) (A) (A) (A) (A) (A) (A) (A) (A) (A) (A) (A)
                 (A) (A) (A) (A) (A) (A) (A) (A) (A)
 The electronic state is 1-A.
 Alpha  occ. eigenvalues -- -101.58407-101.57833-101.57831-101.56600-101.56522
 Alpha  occ. eigenvalues --  -10.28272 -10.28175 -10.27732 -10.26233 -10.25976
 Alpha  occ. eigenvalues --  -10.23902 -10.22418 -10.22339 -10.22060 -10.21119
 Alpha  occ. eigenvalues --  -10.20810 -10.18809  -9.50190  -9.49256  -9.49253
 Alpha  occ. eigenvalues --   -9.48037  -9.47963  -7.26613  -7.25766  -7.25752
 Alpha  occ. eigenvalues --   -7.25639  -7.25602  -7.24738  -7.24730  -7.24672
 Alpha  occ. eigenvalues --   -7.24654  -7.24516  -7.24441  -7.23526  -7.23464
 Alpha  occ. eigenvalues --   -7.23450  -7.23392  -0.95620  -0.92599  -0.91098
 Alpha  occ. eigenvalues --   -0.87945  -0.86669  -0.86359  -0.85116  -0.78611
 Alpha  occ. eigenvalues --   -0.77238  -0.76495  -0.73700  -0.65789  -0.64790
 Alpha  occ. eigenvalues --   -0.64346  -0.60498  -0.55479  -0.53855  -0.53328
 Alpha  occ. eigenvalues --   -0.50127  -0.49698  -0.49262  -0.47042  -0.46065
 Alpha  occ. eigenvalues --   -0.45953  -0.45836  -0.42906  -0.42530  -0.41819
 Alpha  occ. eigenvalues --   -0.40680  -0.39636  -0.39232  -0.37465  -0.35746
 Alpha  occ. eigenvalues --   -0.35436  -0.35259  -0.34376  -0.34219  -0.32873
 Alpha  occ. eigenvalues --   -0.31604  -0.29334  -0.29307  -0.28235  -0.27175
 Alpha  occ. eigenvalues --   -0.25122
 Alpha virt. eigenvalues --   -0.07788  -0.06315  -0.05087  -0.04251  -0.01793
 Alpha virt. eigenvalues --   -0.01632  -0.01035   0.00063   0.00761   0.01306
 Alpha virt. eigenvalues --    0.01753   0.02492   0.03207   0.03830   0.03874
 Alpha virt. eigenvalues --    0.04592   0.05894   0.05912   0.05963   0.06495
 Alpha virt. eigenvalues --    0.06751   0.06943   0.07945   0.07985   0.08320
 Alpha virt. eigenvalues --    0.08573   0.08860   0.09165   0.09832   0.10668
 Alpha virt. eigenvalues --    0.10776   0.11379   0.11708   0.12551   0.12674
 Alpha virt. eigenvalues --    0.12946   0.13145   0.13564   0.13580   0.14168
 Alpha virt. eigenvalues --    0.14899   0.15289   0.15636   0.16010   0.16255
 Alpha virt. eigenvalues --    0.16339   0.16646   0.17045   0.17475   0.18272
 Alpha virt. eigenvalues --    0.18339   0.18704   0.18906   0.19204   0.19283
 Alpha virt. eigenvalues --    0.19516   0.20599   0.21189   0.21417   0.21937
 Alpha virt. eigenvalues --    0.22413   0.22603   0.22710   0.23231   0.23709
 Alpha virt. eigenvalues --    0.23877   0.24556   0.24939   0.25454   0.25921
 Alpha virt. eigenvalues --    0.26207   0.26549   0.27520   0.28055   0.28159
 Alpha virt. eigenvalues --    0.29927   0.30468   0.30994   0.31185   0.31739
 Alpha virt. eigenvalues --    0.31880   0.33916   0.34402   0.34885   0.35536
 Alpha virt. eigenvalues --    0.36727   0.38461   0.39877   0.40526   0.42043
 Alpha virt. eigenvalues --    0.42776   0.43385   0.44310   0.44528   0.44684
 Alpha virt. eigenvalues --    0.45144   0.45522   0.47307   0.47473   0.47707
 Alpha virt. eigenvalues --    0.48219   0.48507   0.48870   0.49515   0.50333
 Alpha virt. eigenvalues --    0.50543   0.51055   0.52150   0.53109   0.54379
 Alpha virt. eigenvalues --    0.55045   0.56544   0.57111   0.58087   0.58267
 Alpha virt. eigenvalues --    0.58358   0.58674   0.60077   0.60474   0.61114
 Alpha virt. eigenvalues --    0.61713   0.62439   0.63000   0.63924   0.64624
 Alpha virt. eigenvalues --    0.65595   0.65947   0.66574   0.66854   0.68025
 Alpha virt. eigenvalues --    0.68187   0.70841   0.73856   0.74925   0.75709
 Alpha virt. eigenvalues --    0.78852   0.78940   0.80010   0.81850   0.82103
 Alpha virt. eigenvalues --    0.82483   0.82493   0.83549   0.84420   0.84677
 Alpha virt. eigenvalues --    0.84937   0.85326   0.85365   0.85513   0.86124
 Alpha virt. eigenvalues --    0.86544   0.87197   0.87604   0.87662   0.88300
 Alpha virt. eigenvalues --    0.89522   0.89938   0.91022   0.91648   0.92100
 Alpha virt. eigenvalues --    0.92354   0.93087   0.93368   0.93451   0.94535
 Alpha virt. eigenvalues --    0.94961   0.95026   0.96066   0.96724   0.97269
 Alpha virt. eigenvalues --    0.97700   0.98380   0.99232   1.01100   1.02739
 Alpha virt. eigenvalues --    1.03148   1.04320   1.06360   1.07138   1.08680
 Alpha virt. eigenvalues --    1.09689   1.10203   1.10779   1.16475   1.17786
 Alpha virt. eigenvalues --    1.21109   1.21223   1.23039   1.25541   1.25590
 Alpha virt. eigenvalues --    1.25757   1.25955   1.27362   1.27939   1.28224
 Alpha virt. eigenvalues --    1.29449   1.32553   1.34542   1.35096   1.38981
 Alpha virt. eigenvalues --    1.40155   1.43439   1.46633   1.47197   1.49659
 Alpha virt. eigenvalues --    1.51805   1.53361   1.53396   1.55157   1.56161
 Alpha virt. eigenvalues --    1.58727   1.60643   1.63728   1.65992   1.67239
 Alpha virt. eigenvalues --    1.68135   1.68160   1.69474   1.74358   1.76612
 Alpha virt. eigenvalues --    1.77831   1.80697   1.80885   1.82281   1.83916
 Alpha virt. eigenvalues --    1.84739   1.85662   1.86148   1.88838   1.90722
 Alpha virt. eigenvalues --    1.91750   1.92337   1.93966   1.94273   1.95726
 Alpha virt. eigenvalues --    1.98214   2.01195   2.01665   2.04588   2.07091
 Alpha virt. eigenvalues --    2.10802   2.13220   2.15568   2.20455   2.20903
 Alpha virt. eigenvalues --    2.23547   2.24191   2.24311   2.24442   2.26320
 Alpha virt. eigenvalues --    2.26423   2.28292   2.29801   2.30730   2.31870
 Alpha virt. eigenvalues --    2.33265   2.34270   2.35716   2.39450   2.42593
 Alpha virt. eigenvalues --    2.42952   2.44042   2.44441   2.47537   2.50091
 Alpha virt. eigenvalues --    2.51268   2.54931   2.57555   2.57885   2.59343
 Alpha virt. eigenvalues --    2.59518   2.62368   2.62970   2.63653   2.64311
 Alpha virt. eigenvalues --    2.69895   2.71799   2.72195   2.73116   2.73877
 Alpha virt. eigenvalues --    2.75582   2.77920   2.78542   2.80498   2.80505
 Alpha virt. eigenvalues --    2.83554   2.84294   2.84403   2.90458   2.92470
 Alpha virt. eigenvalues --    2.94292   3.02483   3.04840   3.06207   3.07899
 Alpha virt. eigenvalues --    3.12417   3.14544   3.16181   3.16935   3.20300
 Alpha virt. eigenvalues --    3.22199   3.23566   3.34452   3.37499   3.39190
 Alpha virt. eigenvalues --    3.41663   3.53439   3.55979   3.62378   3.68833
 Alpha virt. eigenvalues --    3.71395   3.80436   3.88108   4.01223   4.06442
 Alpha virt. eigenvalues --    4.12792   4.19008   4.44443   4.78923   4.82940
 Alpha virt. eigenvalues --    9.73945   9.75693   9.79415   9.80243   9.87761
 Alpha virt. eigenvalues --   23.35240  23.52533  23.81413  23.85394  23.86245
 Alpha virt. eigenvalues --   23.90161  23.95223  23.96861  23.99561  24.05150
 Alpha virt. eigenvalues --   24.09123  24.12251  25.76024  25.78308  25.81729
 Alpha virt. eigenvalues --   25.86763  25.89652  26.10128  26.12540  26.13554
 Alpha virt. eigenvalues --   26.20516  26.46908  26.51159  26.61619  26.75264
 Alpha virt. eigenvalues --   26.77368  26.90289 215.72952 215.74610 215.79092
 Alpha virt. eigenvalues --  215.79846 215.90344
          Condensed to atoms (all electrons):
               1          2          3          4          5          6
     1  C   15.021675  -2.064958  -0.942839  -3.506692  -1.532534   3.830914
     2  C   -2.064958  18.677150   0.336948  -0.973719  -2.077123  -3.893875
     3  C   -0.942839   0.336948  19.957844   1.372703 -10.034992  -1.842900
     4  C   -3.506692  -0.973719   1.372703  25.384731  -5.802532  -9.324077
     5  C   -1.532534  -2.077123 -10.034992  -5.802532  25.107856   3.322750
     6  C    3.830914  -3.893875  -1.842900  -9.324077   3.322750  17.734557
     7  C    3.753134  -1.859040  -0.472822  -1.110008  -1.521676   0.448726
     8  C   -1.924438   3.419079  -1.680280   0.239005  -0.611455  -3.242933
     9  C   -0.660897  -1.759573   0.029573  -0.257099  -0.436812  -0.137115
    10  C   -0.884986   0.616342  -0.385681  -0.095619  -0.429532  -1.304798
    11  C   -1.672415  -1.298381  -0.401910   0.110480   0.504815   0.249589
    12  C   -2.216542  -3.504834  -0.235416  -0.041763   0.256785   1.961392
    13  H    0.045897   0.314741  -0.100391  -0.026656  -0.026117   0.001255
    14  H    0.052779  -0.047505   0.248670   0.057862   0.034037  -0.008368
    15  H   -0.226728  -0.025089  -0.059579   0.098778   0.027049   0.362769
    16  H    0.057407   0.048831   0.030463   0.000243   0.000901   0.018026
    17  H   -0.000446   0.008088  -0.000018   0.000186   0.000124   0.001419
    18  Cl   0.245038   0.365123   0.024255   0.027531  -0.392495  -1.218602
    19  Cl  -0.052681  -0.100353   0.004701   0.016865   0.088523   0.059429
    20  Cl  -0.494541   0.243801   0.570994   0.134234  -1.412782   0.596554
    21  Cl  -0.126955  -0.030105  -0.008720  -0.000926  -0.000286  -0.035829
    22  Cl  -0.252561  -0.076521   0.016672  -1.263328   0.963659  -0.023060
               7          8          9         10         11         12
     1  C    3.753134  -1.924438  -0.660897  -0.884986  -1.672415  -2.216542
     2  C   -1.859040   3.419079  -1.759573   0.616342  -1.298381  -3.504834
     3  C   -0.472822  -1.680280   0.029573  -0.385681  -0.401910  -0.235416
     4  C   -1.110008   0.239005  -0.257099  -0.095619   0.110480  -0.041763
     5  C   -1.521676  -0.611455  -0.436812  -0.429532   0.504815   0.256785
     6  C    0.448726  -3.242933  -0.137115  -1.304798   0.249589   1.961392
     7  C   12.990497  -2.971284  -0.033128  -1.571604  -1.231588   0.722610
     8  C   -2.971284  19.479691  -1.125329   0.746493  -3.137090  -3.728267
     9  C   -0.033128  -1.125329  11.279822   0.133228  -2.984802   2.165880
    10  C   -1.571604   0.746493   0.133228  21.578971  -7.460987  -3.998583
    11  C   -1.231588  -3.137090  -2.984802  -7.460987  22.342138   0.877055
    12  C    0.722610  -3.728267   2.165880  -3.998583   0.877055  15.371845
    13  H    0.048228   0.009373   0.025944   0.003378   0.004467   0.022842
    14  H    0.003646   0.012448  -0.000157   0.000496  -0.000018   0.003049
    15  H    0.012615   0.035726  -0.010500   0.005163   0.036242   0.191725
    16  H    0.063000   0.332724  -0.121595  -0.051429  -0.012107  -0.041553
    17  H    0.030331  -0.027999   0.362658   0.014195  -0.035492   0.000314
    18  Cl  -0.090952   0.593911   0.165178   0.661350   0.243550  -2.160187
    19  Cl  -0.432478   0.112309   0.233919  -1.206901  -0.602041   1.151349
    20  Cl  -0.207026  -0.099332  -0.012776  -0.006625  -0.014133  -0.002938
    21  Cl  -0.321419  -0.101828  -0.206409  -0.217945   0.645559  -0.344744
    22  Cl  -0.077575  -0.032301  -0.007005  -0.001665   0.003100  -0.045235
              13         14         15         16         17         18
     1  C    0.045897   0.052779  -0.226728   0.057407  -0.000446   0.245038
     2  C    0.314741  -0.047505  -0.025089   0.048831   0.008088   0.365123
     3  C   -0.100391   0.248670  -0.059579   0.030463  -0.000018   0.024255
     4  C   -0.026656   0.057862   0.098778   0.000243   0.000186   0.027531
     5  C   -0.026117   0.034037   0.027049   0.000901   0.000124  -0.392495
     6  C    0.001255  -0.008368   0.362769   0.018026   0.001419  -1.218602
     7  C    0.048228   0.003646   0.012615   0.063000   0.030331  -0.090952
     8  C    0.009373   0.012448   0.035726   0.332724  -0.027999   0.593911
     9  C    0.025944  -0.000157  -0.010500  -0.121595   0.362658   0.165178
    10  C    0.003378   0.000496   0.005163  -0.051429   0.014195   0.661350
    11  C    0.004467  -0.000018   0.036242  -0.012107  -0.035492   0.243550
    12  C    0.022842   0.003049   0.191725  -0.041553   0.000314  -2.160187
    13  H    0.561312  -0.006992  -0.000161   0.001370   0.000043  -0.000137
    14  H   -0.006992   0.510557   0.000095  -0.000007   0.000000  -0.000126
    15  H   -0.000161   0.000095   0.679039  -0.000119  -0.000002  -0.249824
    16  H    0.001370  -0.000007  -0.000119   0.546342  -0.006880  -0.001008
    17  H    0.000043   0.000000  -0.000002  -0.006880   0.503612   0.001224
    18  Cl  -0.000137  -0.000126  -0.249824  -0.001008   0.001224  18.557665
    19  Cl   0.000044  -0.000003   0.005341   0.001268  -0.000431  -0.411965
    20  Cl   0.000366  -0.000664  -0.033311   0.000080   0.000001  -0.069980
    21  Cl   0.000034   0.000001   0.000495  -0.001560  -0.006448   0.006233
    22  Cl  -0.000941  -0.010647   0.000745   0.000041  -0.000000   0.004494
              19         20         21         22
     1  C   -0.052681  -0.494541  -0.126955  -0.252561
     2  C   -0.100353   0.243801  -0.030105  -0.076521
     3  C    0.004701   0.570994  -0.008720   0.016672
     4  C    0.016865   0.134234  -0.000926  -1.263328
     5  C    0.088523  -1.412782  -0.000286   0.963659
     6  C    0.059429   0.596554  -0.035829  -0.023060
     7  C   -0.432478  -0.207026  -0.321419  -0.077575
     8  C    0.112309  -0.099332  -0.101828  -0.032301
     9  C    0.233919  -0.012776  -0.206409  -0.007005
    10  C   -1.206901  -0.006625  -0.217945  -0.001665
    11  C   -0.602041  -0.014133   0.645559   0.003100
    12  C    1.151349  -0.002938  -0.344744  -0.045235
    13  H    0.000044   0.000366   0.000034  -0.000941
    14  H   -0.000003  -0.000664   0.000001  -0.010647
    15  H    0.005341  -0.033311   0.000495   0.000745
    16  H    0.001268   0.000080  -0.001560   0.000041
    17  H   -0.000431   0.000001  -0.006448  -0.000000
    18  Cl  -0.411965  -0.069980   0.006233   0.004494
    19  Cl  17.670106   0.000356  -0.231841   0.000030
    20  Cl   0.000356  17.520126  -0.000065  -0.189693
    21  Cl  -0.231841  -0.000065  17.439131  -0.000009
    22  Cl   0.000030  -0.189693  -0.000009  17.475930
 Mulliken charges:
               1
     1  C   -0.446632
     2  C   -0.319027
     3  C   -0.427275
     4  C    0.959800
     5  C   -0.028163
     6  C   -1.555823
     7  C   -0.172186
     8  C   -0.298220
     9  C   -0.643005
    10  C   -0.143263
    11  C   -0.166028
    12  C   -0.404783
    13  H    0.122101
    14  H    0.150847
    15  H    0.149533
    16  H    0.135564
    17  H    0.155522
    18  Cl   0.699723
    19  Cl   0.694454
    20  Cl   0.477355
    21  Cl   0.543637
    22  Cl   0.515869
 Sum of Mulliken charges =  -0.00000
 Mulliken charges with hydrogens summed into heavy atoms:
               1
     1  C   -0.446632
     2  C   -0.196926
     3  C   -0.276428
     4  C    0.959800
     5  C   -0.028163
     6  C   -1.406290
     7  C   -0.172186
     8  C   -0.162656
     9  C   -0.487483
    10  C   -0.143263
    11  C   -0.166028
    12  C   -0.404783
    18  Cl   0.699723
    19  Cl   0.694454
    20  Cl   0.477355
    21  Cl   0.543637
    22  Cl   0.515869
 Electronic spatial extent (au):  <R**2>=           8347.2587
 Charge=             -0.0000 electrons
 Dipole moment (field-independent basis, Debye):
    X=              1.2308    Y=             -3.1237    Z=              0.0000  Tot=              3.3574
 Quadrupole moment (field-independent basis, Debye-Ang):
   XX=           -146.9561   YY=           -121.1238   ZZ=           -135.8310
   XY=             -0.4049   XZ=              0.0000   YZ=              0.0000
 Traceless Quadrupole moment (field-independent basis, Debye-Ang):
   XX=            -12.3192   YY=             13.5132   ZZ=             -1.1940
   XY=             -0.4049   XZ=              0.0000   YZ=              0.0000
 Octapole moment (field-independent basis, Debye-Ang**2):
  XXX=             30.8244  YYY=             -7.7450  ZZZ=             -0.0001  XYY=              2.5878
  XXY=             -6.6269  XXZ=             -0.0000  XZZ=              2.2822  YZZ=             12.3596
  YYZ=             -0.0001  XYZ=             -0.0000
 Hexadecapole moment (field-independent basis, Debye-Ang**3):
 XXXX=          -9193.7615 YYYY=          -1700.3009 ZZZZ=           -158.2050 XXXY=             10.2459
 XXXZ=             -0.0003 YYYX=             -3.9451 YYYZ=              0.0000 ZZZX=             -0.0001
 ZZZY=              0.0000 XXYY=          -1739.0554 XXZZ=          -1563.5329 YYZZ=           -355.4545
 XXYZ=             -0.0001 YYXZ=             -0.0000 ZZXY=              0.1409
 N-N= 1.694707988487D+03 E-N=-9.925941890047D+03  KE= 2.754195593292D+03
 Calling FoFJK, ICntrl=      2127 FMM=F ISym2X=0 I1Cent= 0 IOpClX= 0 NMat=1 NMatS=1 NMatT=0.
 ***** Axes restored to original set *****
 -------------------------------------------------------------------
 Center     Atomic                   Forces (Hartrees/Bohr)
 Number     Number              X              Y              Z
 -------------------------------------------------------------------
      1        6          -0.013984709   -0.023475104    0.000198399
      2        6          -0.002046331    0.020871631    0.004594182
      3        6          -0.015448907   -0.006043107    0.003954879
      4        6          -0.000060320    0.002639089    0.000515304
      5        6           0.006281238   -0.007160297   -0.003414108
      6        6           0.046969347    0.031593834   -0.009540862
      7        6           0.018865283    0.035738065    0.000496792
      8        6          -0.025537264   -0.010603405    0.006422085
      9        6          -0.002640136    0.015487046    0.003778356
     10        6           0.002552209   -0.000474016   -0.000929803
     11        6          -0.012924697   -0.000127809    0.004234329
     12        6           0.003987312   -0.005586720   -0.002362978
     13        1           0.007040270   -0.003068316   -0.002895770
     14        1           0.008245080    0.001651255   -0.002406250
     15        1           0.038922871    0.027473359   -0.007663944
     16        1           0.005362568   -0.002749941   -0.002283318
     17        1           0.002458026   -0.008040710   -0.002319898
     18       17          -0.083043053   -0.060100548    0.016072030
     19       17           0.008294715    0.000226086   -0.002690397
     20       17          -0.001499073   -0.006584284   -0.000742684
     21       17           0.006738237    0.004825112   -0.001313831
     22       17           0.001467334   -0.006491220   -0.001702514
 -------------------------------------------------------------------
 Cartesian Forces:  Max     0.083043053 RMS     0.018025782

 GradGradGradGradGradGradGradGradGradGradGradGradGradGradGradGradGradGrad
 Berny optimization.
 FormGI is forming the generalized inverse of G from B-inverse, IUseBI=4.
 Internal  Forces:  Max     0.273725906 RMS     0.049657326
 Search for a local minimum.
 Step number   1 out of a maximum of  121
 All quantities printed in internal units (Hartrees-Bohrs-Radians)
 Mixed Optimization -- RFO/linear search
 Second derivative matrix not updated -- first step.
 ITU=  0
     Eigenvalues ---    0.00237   0.01506   0.01506   0.02070   0.02070
     Eigenvalues ---    0.02070   0.02070   0.02070   0.02070   0.02070
     Eigenvalues ---    0.02070   0.02070   0.02070   0.02070   0.02070
     Eigenvalues ---    0.02070   0.02070   0.02070   0.02070   0.16000
     Eigenvalues ---    0.16000   0.16000   0.16000   0.16000   0.22375
     Eigenvalues ---    0.22489   0.23491   0.24492   0.24610   0.25000
     Eigenvalues ---    0.25000   0.25000   0.25000   0.25000   0.25000
     Eigenvalues ---    0.25000   0.25000   0.28519   0.29539   0.29539
     Eigenvalues ---    0.29539   0.29539   0.29539   0.37230   0.37230
     Eigenvalues ---    0.37230   0.37230   0.37230   0.41393   0.41540
     Eigenvalues ---    0.41697   0.41720   0.45389   0.45389   0.45389
     Eigenvalues ---    0.45389   0.45389   0.45389   0.45389   0.45389
 RFO step:  Lambda=-4.08610981D-01 EMin= 2.36824176D-03
 Linear search not attempted -- first point.
 Maximum step size (   0.300) exceeded in Quadratic search.
    -- Step size scaled by   0.383
 Iteration  1 RMS(Cart)=  0.20504840 RMS(Int)=  0.01015802
 Iteration  2 RMS(Cart)=  0.03797777 RMS(Int)=  0.00032038
 Iteration  3 RMS(Cart)=  0.00060110 RMS(Int)=  0.00004748
 Iteration  4 RMS(Cart)=  0.00000019 RMS(Int)=  0.00004748
 Variable       Old X    -DE/DX   Delta X   Delta X   Delta X     New X
                                 (Linear)    (Quad)   (Total)
    R1        2.64826   0.01668   0.00000   0.00762   0.00767   2.65593
    R2        2.64826   0.01400   0.00000   0.00657   0.00661   2.65487
    R3        2.91018   0.06552   0.00000   0.03620   0.03620   2.94638
    R4        2.64826  -0.01494   0.00000  -0.00678  -0.00677   2.64149
    R5        2.02201   0.00660   0.00000   0.00324   0.00324   2.02525
    R6        2.64826  -0.02700   0.00000  -0.01235  -0.01239   2.63587
    R7        2.02201   0.00862   0.00000   0.00423   0.00423   2.02624
    R8        2.64826  -0.01788   0.00000  -0.00816  -0.00820   2.64006
    R9        3.32592  -0.00485   0.00000  -0.00264  -0.00264   3.32327
   R10        2.64826  -0.00453   0.00000  -0.00188  -0.00188   2.64638
   R11        3.32592  -0.00510   0.00000  -0.00278  -0.00278   3.32314
   R12        2.02201  -0.03996   0.00000  -0.01962  -0.01962   2.00239
   R13        2.64826   0.01790   0.00000   0.00844   0.00855   2.65681
   R14        2.64826   0.11862   0.00000   0.05400   0.05408   2.70234
   R15        2.64826  -0.02517   0.00000  -0.01199  -0.01196   2.63631
   R16        2.02201   0.00575   0.00000   0.00282   0.00282   2.02483
   R17        2.64826  -0.04255   0.00000  -0.02020  -0.02027   2.62799
   R18        2.02201   0.00857   0.00000   0.00421   0.00421   2.02621
   R19        2.64826  -0.02255   0.00000  -0.01051  -0.01061   2.63765
   R20        3.32592  -0.00757   0.00000  -0.00412  -0.00412   3.32179
   R21        2.64826   0.01265   0.00000   0.00642   0.00639   2.65465
   R22        3.32592  -0.00872   0.00000  -0.00475  -0.00475   3.32117
   R23        3.32592  -0.00868   0.00000  -0.00473  -0.00473   3.32119
    A1        2.09440  -0.06039   0.00000  -0.03469  -0.03460   2.05980
    A2        2.09440  -0.12886   0.00000  -0.07524  -0.07529   2.01911
    A3        2.09440   0.18925   0.00000   0.10993   0.10988   2.20428
    A4        2.09440   0.03793   0.00000   0.02294   0.02299   2.11738
    A5        2.09440  -0.01403   0.00000  -0.00815  -0.00817   2.08622
    A6        2.09440  -0.02389   0.00000  -0.01479  -0.01482   2.07958
    A7        2.09440   0.00236   0.00000   0.00047   0.00043   2.09483
    A8        2.09440   0.00033   0.00000   0.00078   0.00080   2.09519
    A9        2.09440  -0.00269   0.00000  -0.00125  -0.00123   2.09316
   A10        2.09440  -0.01425   0.00000  -0.00932  -0.00940   2.08499
   A11        2.09440  -0.00096   0.00000  -0.00005  -0.00000   2.09439
   A12        2.09440   0.01521   0.00000   0.00936   0.00941   2.10380
   A13        2.09440   0.01353   0.00000   0.00751   0.00746   2.10185
   A14        2.09440   0.00069   0.00000   0.00059   0.00061   2.09501
   A15        2.09440  -0.01423   0.00000  -0.00810  -0.00807   2.08632
   A16        2.09440   0.02081   0.00000   0.01308   0.01312   2.10751
   A17        2.09440   0.01694   0.00000   0.01190   0.01188   2.10627
   A18        2.09440  -0.03775   0.00000  -0.02498  -0.02500   2.06940
   A19        2.09440  -0.19886   0.00000  -0.11680  -0.11690   1.97750
   A20        2.09440   0.27373   0.00000   0.15828   0.15819   2.25258
   A21        2.09440  -0.07487   0.00000  -0.04148  -0.04129   2.05311
   A22        2.09440   0.05936   0.00000   0.03550   0.03563   2.13003
   A23        2.09440  -0.02673   0.00000  -0.01576  -0.01583   2.07857
   A24        2.09440  -0.03263   0.00000  -0.01974  -0.01981   2.07459
   A25        2.09440   0.00228   0.00000  -0.00179  -0.00184   2.09256
   A26        2.09440   0.00050   0.00000   0.00200   0.00202   2.09642
   A27        2.09440  -0.00278   0.00000  -0.00021  -0.00019   2.09421
   A28        2.09440  -0.00559   0.00000  -0.00587  -0.00606   2.08834
   A29        2.09440  -0.00321   0.00000  -0.00056  -0.00047   2.09393
   A30        2.09440   0.00880   0.00000   0.00643   0.00652   2.10092
   A31        2.09440   0.03461   0.00000   0.02031   0.02017   2.11456
   A32        2.09440  -0.01724   0.00000  -0.01011  -0.01004   2.08435
   A33        2.09440  -0.01737   0.00000  -0.01019  -0.01012   2.08427
   A34        2.09440  -0.01578   0.00000  -0.00667  -0.00662   2.08777
   A35        2.09440   0.17984   0.00000   0.10342   0.10340   2.19779
   A36        2.09440  -0.16405   0.00000  -0.09675  -0.09678   1.99762
    D1        0.00000   0.00000   0.00000   0.00000   0.00000   0.00000
    D2        3.14159   0.00000   0.00000   0.00000   0.00000   3.14159
    D3       -3.14159   0.00000   0.00000  -0.00000  -0.00000  -3.14159
    D4       -0.00000  -0.00000   0.00000  -0.00000  -0.00000  -0.00000
    D5       -0.00000  -0.00000   0.00000  -0.00000  -0.00000  -0.00000
    D6        3.14159  -0.00000   0.00000  -0.00000  -0.00000   3.14159
    D7        3.14159   0.00000   0.00000   0.00000   0.00000   3.14159
    D8        0.00000  -0.00000   0.00000  -0.00000  -0.00000   0.00000
    D9       -0.00000  -0.00000   0.00000  -0.00000  -0.00000  -0.00000
   D10        3.14159  -0.00000   0.00000  -0.00000  -0.00000   3.14159
   D11        3.14159  -0.00000   0.00000  -0.00000  -0.00000   3.14159
   D12       -0.00000  -0.00000   0.00000  -0.00000  -0.00000  -0.00000
   D13        0.00000  -0.00000   0.00000  -0.00000  -0.00000   0.00000
   D14        3.14159  -0.00000   0.00000  -0.00000  -0.00000   3.14159
   D15       -3.14159  -0.00000   0.00000  -0.00000  -0.00000  -3.14159
   D16        0.00000  -0.00000   0.00000  -0.00000  -0.00000   0.00000
   D17       -0.00000   0.00000   0.00000   0.00000   0.00000  -0.00000
   D18        3.14159   0.00000   0.00000   0.00000   0.00000   3.14159
   D19        3.14159  -0.00000   0.00000  -0.00000  -0.00000   3.14159
   D20        0.00000  -0.00000   0.00000  -0.00000  -0.00000   0.00000
   D21        0.00000   0.00000   0.00000   0.00000   0.00000   0.00000
   D22       -3.14159   0.00000   0.00000   0.00000   0.00000  -3.14159
   D23       -3.14159  -0.00000   0.00000  -0.00000  -0.00000  -3.14159
   D24        0.00000   0.00000   0.00000   0.00000   0.00000   0.00000
   D25       -0.00000   0.00000   0.00000   0.00000   0.00000  -0.00000
   D26        3.14159   0.00000   0.00000   0.00000   0.00000   3.14159
   D27        3.14159   0.00000   0.00000  -0.00000  -0.00000   3.14159
   D28       -0.00000   0.00000   0.00000   0.00000   0.00000  -0.00000
   D29        3.14159   0.00000   0.00000   0.00000   0.00000   3.14159
   D30        0.00000   0.00000   0.00000   0.00000   0.00000   0.00000
   D31        0.00000   0.00000   0.00000   0.00000   0.00000   0.00000
   D32       -3.14159  -0.00000   0.00000  -0.00000  -0.00000  -3.14159
   D33       -3.14159   0.00000   0.00000   0.00000   0.00000  -3.14159
   D34        0.00000  -0.00000   0.00000  -0.00000  -0.00000   0.00000
   D35       -0.00000  -0.00000   0.00000  -0.00000  -0.00000  -0.00000
   D36        3.14159  -0.00000   0.00000  -0.00000  -0.00000   3.14159
   D37       -0.00000  -0.00000   0.00000  -0.00000  -0.00000  -0.00000
   D38        3.14159  -0.00000   0.00000  -0.00000  -0.00000   3.14159
   D39        3.14159   0.00000   0.00000   0.00000   0.00000   3.14159
   D40       -0.00000   0.00000   0.00000   0.00000   0.00000  -0.00000
   D41       -0.00000  -0.00000   0.00000  -0.00000  -0.00000  -0.00000
   D42       -3.14159  -0.00000   0.00000  -0.00000  -0.00000  -3.14159
   D43        3.14159   0.00000   0.00000   0.00000   0.00000   3.14159
   D44        0.00000  -0.00000   0.00000  -0.00000  -0.00000   0.00000
   D45        0.00000   0.00000   0.00000   0.00000   0.00000   0.00000
   D46       -3.14159  -0.00000   0.00000  -0.00000  -0.00000  -3.14159
   D47        3.14159   0.00000   0.00000   0.00000   0.00000   3.14159
   D48        0.00000   0.00000   0.00000   0.00000   0.00000   0.00000
   D49        0.00000   0.00000   0.00000   0.00000   0.00000   0.00000
   D50       -3.14159   0.00000   0.00000   0.00000   0.00000  -3.14159
   D51        3.14159   0.00000   0.00000   0.00000   0.00000   3.14159
   D52       -0.00000   0.00000   0.00000   0.00000   0.00000  -0.00000
         Item               Value     Threshold  Converged?
 Maximum Force            0.273726     0.000450     NO 
 RMS     Force            0.049657     0.000300     NO 
 Maximum Displacement     0.987793     0.001800     NO 
 RMS     Displacement     0.238289     0.001200     NO 
 Predicted change in Energy=-1.450064D-01
 GradGradGradGradGradGradGradGradGradGradGradGradGradGradGradGradGradGrad

                          Input orientation:                          
 ---------------------------------------------------------------------
 Center     Atomic      Atomic             Coordinates (Angstroms)
 Number     Number       Type             X           Y           Z
 ---------------------------------------------------------------------
      1          6           0       -0.004109    0.210218    0.062961
      2          6           0        1.320576    0.101506   -0.393880
      3          6           0        2.159898    1.217275   -0.460847
      4          6           0        1.687790    2.470245   -0.069989
      5          6           0        0.373683    2.597518    0.386851
      6          6           0       -0.465632    1.478465    0.453198
      7          6           0       -0.822903   -1.116480    0.083551
      8          6           0       -0.090630   -2.229009   -0.366645
      9          6           0       -0.646596   -3.507247   -0.423542
     10          6           0       -1.964340   -3.708219   -0.027146
     11          6           0       -2.721874   -2.626812    0.425528
     12          6           0       -2.176979   -1.333566    0.488891
     13          1           0        1.697807   -0.854507   -0.697707
     14          1           0        3.167187    1.111011   -0.812660
     15          1           0       -1.456905    1.608650    0.804227
     16          1           0        0.926148   -2.092936   -0.676071
     17          1           0       -0.059758   -4.334135   -0.772178
     18         17           0       -3.284543   -0.105766    1.084382
     19         17           0       -4.386585   -2.887620    0.925002
     20         17           0       -0.237154    4.170009    0.883419
     21         17           0       -2.666942   -5.317956   -0.097989
     22         17           0        2.744317    3.873557   -0.154511
 ---------------------------------------------------------------------
                    Distance matrix (angstroms):
                    1          2          3          4          5
     1  C    0.000000
     2  C    1.405458   0.000000
     3  C    2.443658   1.397815   0.000000
     4  C    2.826291   2.418817   1.394843   0.000000
     5  C    2.438614   2.781407   2.411271   1.397061   0.000000
     6  C    1.404898   2.409169   2.792330   2.427876   1.400405
     7  C    1.559158   2.511162   3.826210   4.380839   3.913770
     8  C    2.478280   2.724618   4.117114   5.033266   4.907006
     9  C    3.803816   4.110200   5.495353   6.426878   6.242264
    10  C    4.382325   5.043726   6.438783   7.177277   6.737957
    11  C    3.945433   4.945356   6.276493   6.758007   6.072693
    12  C    2.699269   3.882218   5.120283   5.451401   4.687187
    13  H    2.146804   1.071715   2.135863   3.383504   3.853057
    14  H    3.411049   2.145798   1.072239   2.141890   3.384109
    15  H    2.148419   3.379548   3.851604   3.375753   2.122055
    16  H    2.591537   2.247395   3.539204   4.665839   4.841011
    17  H    4.620790   4.660831   5.986816   7.060211   7.041239
    18  Cl   3.450275   4.841006   5.812066   5.717736   4.601838
    19  Cl   5.435606   6.576170   7.850298   8.160561   7.282616
    20  Cl   4.050606   4.539904   4.033800   2.739269   1.758530
    21  Cl   6.138183   6.734866   8.132607   8.923035   8.493245
    22  Cl   4.584888   4.038899   2.737009   1.758601   2.746134
                    6          7          8          9         10
     6  C    0.000000
     7  C    2.645377   0.000000
     8  C    3.815512   1.405923   0.000000
     9  C    5.065446   2.450304   1.395073   0.000000
    10  C    5.420198   2.834121   2.411247   1.390672   0.000000
    11  C    4.684516   2.450335   2.776550   2.408914   1.395784
    12  C    3.292036   1.430018   2.426234   2.810604   2.439362
    13  H    3.383460   2.651975   2.279773   3.550834   4.690911
    14  H    3.864556   4.656794   4.687007   6.002054   7.083401
    15  H    1.059619   2.889233   4.238546   5.323196   5.405346
    16  H    3.995899   2.142351   1.071493   2.130156   3.374190
    17  H    5.954208   3.415840   2.144054   1.072226   2.138755
    18  Cl   3.294608   2.843041   4.100576   4.560995   3.994509
    19  Cl   5.887204   4.067531   4.534021   4.023683   2.728963
    20  Cl   2.735270   5.378649   6.521622   7.798464   8.116574
    21  Cl   7.165257   4.591932   4.031272   2.732481   1.757818
    22  Cl   4.050870   6.138583   6.732253   8.126926   8.925861
                   11         12         13         14         15
    11  C    0.000000
    12  C    1.404781   0.000000
    13  H    4.892474   4.080623   0.000000
    14  H    7.084170   6.019145   2.456736   0.000000
    15  H    4.436518   3.045420   4.274945   4.923840   0.000000
    16  H    3.847935   3.400467   1.459327   3.912313   4.644563
    17  H    3.381762   3.882826   3.899025   6.329647   6.305059
    18  Cl   2.665775   1.757498   5.344180   6.834043   2.521501
    19  Cl   1.757486   2.736354   6.617141   8.721697   5.367872
    20  Cl   7.251225   5.848754   5.611576   4.880952   2.838067
    21  Cl   2.742142   4.057074   6.271609   8.710880   7.089150
    22  Cl   8.512960   7.193557   4.872867   2.871174   4.868187
                   16         17         18         19         20
    16  H    0.000000
    17  H    2.450351   0.000000
    18  Cl   4.977746   5.632509   0.000000
    19  Cl   5.605362   4.867675   2.996433   0.000000
    20  Cl   6.558183   8.665618   5.254448   8.187163   0.000000
    21  Cl   4.862635   2.867027   5.380182   3.148050   9.843196
    22  Cl   6.259138   8.695434   7.329190   9.885779   3.170859
                   21         22
    21  Cl   0.000000
    22  Cl  10.666247   0.000000
 Stoichiometry    C12H5Cl5
 Framework group  C1[X(C12H5Cl5)]
 Deg. of freedom    60
 Full point group                 C1      NOp   1
 Largest Abelian subgroup         C1      NOp   1
 Largest concise Abelian subgroup C1      NOp   1
                         Standard orientation:                         
 ---------------------------------------------------------------------
 Center     Atomic      Atomic             Coordinates (Angstroms)
 Number     Number       Type             X           Y           Z
 ---------------------------------------------------------------------
      1          6           0       -0.916834   -0.543428    0.000002
      2          6           0       -1.534108   -1.806078   -0.000000
      3          6           0       -2.926027   -1.934330   -0.000002
      4          6           0       -3.731835   -0.795795   -0.000002
      5          6           0       -3.135905    0.467790    0.000002
      6          6           0       -1.741214    0.594173    0.000004
      7          6           0        0.642293   -0.553396    0.000003
      8          6           0        1.190185   -1.848168    0.000004
      9          6           0        2.567677   -2.068944    0.000004
     10          6           0        3.442862   -0.988195    0.000003
     11          6           0        2.934785    0.311832    0.000001
     12          6           0        1.550541    0.551157    0.000001
     13          1           0       -0.928386   -2.690201   -0.000002
     14          1           0       -3.375464   -2.907830   -0.000004
     15          1           0       -1.320560    1.566717    0.000006
     16          1           0        0.530938   -2.692851    0.000002
     17          1           0        2.952108   -3.069885    0.000004
     18         17           0        1.106162    2.251547   -0.000003
     19         17           0        4.046256    1.673225   -0.000004
     20         17           0       -4.137387    1.913287    0.000005
     21         17           0        5.178907   -1.264004   -0.000000
     22         17           0       -5.482947   -0.957918   -0.000006
 ---------------------------------------------------------------------
 Rotational constants (GHZ):           0.6826619           0.1243459           0.1051864
 Standard basis: 6-311+G(d,p) (5D, 7F)
 There are   461 symmetry adapted cartesian basis functions of A   symmetry.
 There are   444 symmetry adapted basis functions of A   symmetry.
   444 basis functions,   737 primitive gaussians,   461 cartesian basis functions
    81 alpha electrons       81 beta electrons
       nuclear repulsion energy      1667.3836056047 Hartrees.
 NAtoms=   22 NActive=   22 NUniq=   22 SFac= 1.00D+00 NAtFMM=   60 NAOKFM=F Big=F
 Integral buffers will be    131072 words long.
 Raffenetti 2 integral format.
 Two-electron integral symmetry is turned on.
 One-electron integrals computed using PRISM.
 NBasis=   444 RedAO= T EigKep=  1.58D-06  NBF=   444
 NBsUse=   438 1.00D-06 EigRej=  9.48D-07 NBFU=   438
 Initial guess from the checkpoint file:  "/scratch/gour/Gau-47193.chk"
 B after Tr=    -0.000000    0.000000   -0.000000
         Rot=    0.999933    0.000000    0.000000    0.011599 Ang=   1.33 deg.
 ExpMin= 4.38D-02 ExpMax= 1.06D+05 ExpMxC= 3.62D+03 IAcc=3 IRadAn=         5 AccDes= 0.00D+00
 Harris functional with IExCor=  402 and IRadAn=       5 diagonalized for initial guess.
 HarFok:  IExCor=  402 AccDes= 0.00D+00 IRadAn=         5 IDoV= 1 UseB2=F ITyADJ=14
 ICtDFT=  3500011 ScaDFX=  1.000000  1.000000  1.000000  1.000000
 FoFCou: FMM=F IPFlag=           0 FMFlag=      100000 FMFlg1=           0
         NFxFlg=           0 DoJE=T BraDBF=F KetDBF=T FulRan=T
         wScrn=  0.000000 ICntrl=       500 IOpCl=  0 I1Cent=   200000004 NGrid=           0
         NMat0=    1 NMatS0=      1 NMatT0=    0 NMatD0=    1 NMtDS0=    0 NMtDT0=    0
 Petite list used in FoFCou.
 Requested convergence on RMS density matrix=1.00D-08 within  32 cycles.
 Requested convergence on MAX density matrix=1.00D-06.
 Requested convergence on             energy=1.00D-06.
 No special actions if energy rises.
 EnCoef did     4 forward-backward iterations
 SCF Done:  E(RB3LYP) =  -2761.49020389     A.U. after   17 cycles
            NFock= 17  Conv=0.42D-08     -V/T= 2.0027
 QCSCF skips out because SCF is already converged.
 Calling FoFJK, ICntrl=      2127 FMM=F ISym2X=0 I1Cent= 0 IOpClX= 0 NMat=1 NMatS=1 NMatT=0.
 ***** Axes restored to original set *****
 -------------------------------------------------------------------
 Center     Atomic                   Forces (Hartrees/Bohr)
 Number     Number              X              Y              Z
 -------------------------------------------------------------------
      1        6          -0.013362580   -0.020201812    0.000608224
      2        6           0.003799017    0.023383389    0.003140141
      3        6          -0.013006611   -0.005037909    0.003339033
      4        6           0.001754446    0.004065386    0.000185289
      5        6          -0.001650213   -0.001282844    0.000302776
      6        6           0.014064182   -0.003184201   -0.005231482
      7        6           0.008162907    0.025243171    0.002051720
      8        6          -0.025088613   -0.016018944    0.005257165
      9        6          -0.000931808    0.010683295    0.002313341
     10        6          -0.001051307   -0.003622006   -0.000333821
     11        6          -0.009533872   -0.001904909    0.002783427
     12        6           0.011442122   -0.001441383   -0.004040455
     13        1           0.010300015    0.008706512   -0.001758266
     14        1           0.006772812    0.000255087   -0.002183417
     15        1          -0.012450386    0.002504128    0.004572101
     16        1          -0.003774555   -0.011136756   -0.000848190
     17        1           0.003080098   -0.005994712   -0.002140587
     18       17           0.012561497    0.006684673   -0.002883078
     19       17           0.005853259   -0.002966972   -0.002485723
     20       17          -0.001615531   -0.006556686   -0.000699124
     21       17           0.005519207    0.004392776   -0.000993407
     22       17          -0.000844087   -0.006569284   -0.000955667
 -------------------------------------------------------------------
 Cartesian Forces:  Max     0.025243171 RMS     0.008384488

 GradGradGradGradGradGradGradGradGradGradGradGradGradGradGradGradGradGrad
 Berny optimization.
 Using GEDIIS/GDIIS optimizer.
 FormGI is forming the generalized inverse of G from B-inverse, IUseBI=4.
 Internal  Forces:  Max     0.063121805 RMS     0.012046066
 Search for a local minimum.
 Step number   2 out of a maximum of  121
 All quantities printed in internal units (Hartrees-Bohrs-Radians)
 Mixed Optimization -- RFO/linear search
 Update second derivatives using D2CorX and points    1    2
 DE= -3.63D-02 DEPred=-1.45D-01 R= 2.50D-01
 Trust test= 2.50D-01 RLast= 3.00D-01 DXMaxT set to 3.00D-01
 ITU=  0  0
 Use linear search instead of GDIIS.
     Eigenvalues ---    0.00237   0.01479   0.01484   0.02070   0.02070
     Eigenvalues ---    0.02070   0.02070   0.02070   0.02070   0.02070
     Eigenvalues ---    0.02070   0.02070   0.02070   0.02070   0.02070
     Eigenvalues ---    0.02070   0.02070   0.02070   0.02070   0.15965
     Eigenvalues ---    0.16000   0.16000   0.16000   0.16034   0.22375
     Eigenvalues ---    0.22494   0.23416   0.24377   0.24591   0.24913
     Eigenvalues ---    0.25000   0.25000   0.25000   0.25000   0.25000
     Eigenvalues ---    0.25000   0.28452   0.29518   0.29539   0.29539
     Eigenvalues ---    0.29539   0.29539   0.37089   0.37210   0.37230
     Eigenvalues ---    0.37230   0.37230   0.40495   0.41321   0.41510
     Eigenvalues ---    0.41750   0.45046   0.45342   0.45389   0.45389
     Eigenvalues ---    0.45389   0.45389   0.45389   0.45389   2.10184
 RFO step:  Lambda=-1.21064131D-02 EMin= 2.36824176D-03
 Quartic linear search produced a step of -0.34836.
 Iteration  1 RMS(Cart)=  0.14169665 RMS(Int)=  0.00420238
 Iteration  2 RMS(Cart)=  0.00698672 RMS(Int)=  0.00004578
 Iteration  3 RMS(Cart)=  0.00001522 RMS(Int)=  0.00004556
 Iteration  4 RMS(Cart)=  0.00000000 RMS(Int)=  0.00004556
 Variable       Old X    -DE/DX   Delta X   Delta X   Delta X     New X
                                 (Linear)    (Quad)   (Total)
    R1        2.65593   0.01001  -0.00267   0.02159   0.01896   2.67489
    R2        2.65487  -0.00347  -0.00230   0.00149  -0.00073   2.65414
    R3        2.94638  -0.00663  -0.01261   0.01713   0.00452   2.95090
    R4        2.64149  -0.00876   0.00236  -0.01822  -0.01589   2.62560
    R5        2.02525  -0.00364  -0.00113  -0.00323  -0.00436   2.02089
    R6        2.63587  -0.00677   0.00432  -0.02117  -0.01693   2.61894
    R7        2.02624   0.00705  -0.00147   0.01578   0.01431   2.04055
    R8        2.64006  -0.00426   0.00286  -0.01405  -0.01125   2.62881
    R9        3.32327  -0.00570   0.00092  -0.01440  -0.01348   3.30980
   R10        2.64638  -0.00847   0.00066  -0.01387  -0.01318   2.63320
   R11        3.32314  -0.00550   0.00097  -0.01409  -0.01312   3.31002
   R12        2.00239   0.01347   0.00683   0.00502   0.01186   2.01425
   R13        2.65681   0.00664  -0.00298   0.01676   0.01386   2.67067
   R14        2.70234  -0.01811  -0.01884   0.02468   0.00591   2.70825
   R15        2.63631  -0.00848   0.00417  -0.02316  -0.01899   2.61731
   R16        2.02483  -0.00475  -0.00098  -0.00549  -0.00647   2.01836
   R17        2.62799  -0.00780   0.00706  -0.02955  -0.02256   2.60543
   R18        2.02621   0.00700  -0.00147   0.01568   0.01421   2.04043
   R19        2.63765  -0.00217   0.00370  -0.01248  -0.00886   2.62879
   R20        3.32179  -0.00619   0.00144  -0.01673  -0.01529   3.30650
   R21        2.65465   0.00675  -0.00223   0.01557   0.01334   2.66799
   R22        3.32117  -0.00581   0.00165  -0.01648  -0.01482   3.30634
   R23        3.32119  -0.00422   0.00165  -0.01310  -0.01145   3.30974
    A1        2.05980  -0.01301   0.01205  -0.06118  -0.04899   2.01081
    A2        2.01911   0.05785   0.02623   0.07900   0.10516   2.12427
    A3        2.20428  -0.04484  -0.03828  -0.01783  -0.05617   2.14810
    A4        2.11738   0.00318  -0.00801   0.02891   0.02093   2.13831
    A5        2.08622   0.01168   0.00285   0.03830   0.04113   2.12736
    A6        2.07958  -0.01486   0.00516  -0.06721  -0.06206   2.01752
    A7        2.09483   0.00403  -0.00015   0.01092   0.01066   2.10549
    A8        2.09519  -0.00103  -0.00028  -0.00095  -0.00117   2.09402
    A9        2.09316  -0.00300   0.00043  -0.00998  -0.00949   2.08367
   A10        2.08499  -0.00376   0.00328  -0.01950  -0.01636   2.06863
   A11        2.09439  -0.00394   0.00000  -0.00872  -0.00865   2.08574
   A12        2.10380   0.00770  -0.00328   0.02822   0.02501   2.12882
   A13        2.10185   0.00062  -0.00260   0.00573   0.00310   2.10496
   A14        2.09501   0.00630  -0.00021   0.01728   0.01708   2.11209
   A15        2.08632  -0.00693   0.00281  -0.02301  -0.02018   2.06614
   A16        2.10751   0.00895  -0.00457   0.03512   0.03066   2.13817
   A17        2.10627  -0.00360  -0.00414  -0.00009  -0.00428   2.10199
   A18        2.06940  -0.00534   0.00871  -0.03503  -0.02637   2.04302
   A19        1.97750   0.06312   0.04072   0.05741   0.09805   2.07555
   A20        2.25258  -0.04981  -0.05510   0.01198  -0.04320   2.20938
   A21        2.05311  -0.01331   0.01438  -0.06939  -0.05485   1.99825
   A22        2.13003   0.00690  -0.01241   0.04754   0.03521   2.16523
   A23        2.07857   0.00747   0.00551   0.01909   0.02456   2.10313
   A24        2.07459  -0.01437   0.00690  -0.06663  -0.05977   2.01482
   A25        2.09256   0.00219   0.00064   0.00396   0.00453   2.09709
   A26        2.09642  -0.00012  -0.00070   0.00258   0.00191   2.09833
   A27        2.09421  -0.00208   0.00006  -0.00654  -0.00644   2.08777
   A28        2.08834  -0.00220   0.00211  -0.01024  -0.00828   2.08006
   A29        2.09393  -0.00476   0.00016  -0.01242  -0.01218   2.08174
   A30        2.10092   0.00696  -0.00227   0.02266   0.02047   2.12138
   A31        2.11456  -0.00641  -0.00703   0.00194  -0.00517   2.10939
   A32        2.08435  -0.00333   0.00350  -0.01717  -0.01362   2.07073
   A33        2.08427   0.00974   0.00353   0.01523   0.01880   2.10307
   A34        2.08777   0.01284   0.00231   0.02619   0.02856   2.11634
   A35        2.19779  -0.02949  -0.03602   0.01515  -0.02091   2.17689
   A36        1.99762   0.01665   0.03371  -0.04134  -0.00766   1.98996
    D1        0.00000  -0.00000  -0.00000  -0.00000  -0.00000   0.00000
    D2        3.14159  -0.00000  -0.00000  -0.00000  -0.00000   3.14159
    D3       -3.14159  -0.00000   0.00000  -0.00000  -0.00000  -3.14159
    D4       -0.00000  -0.00000   0.00000   0.00000   0.00000  -0.00000
    D5       -0.00000   0.00000   0.00000   0.00000   0.00000  -0.00000
    D6        3.14159   0.00000   0.00000   0.00000   0.00000   3.14159
    D7        3.14159  -0.00000  -0.00000   0.00000   0.00000   3.14159
    D8       -0.00000  -0.00000   0.00000  -0.00000  -0.00000  -0.00000
    D9       -0.00000  -0.00000   0.00000  -0.00000  -0.00000  -0.00000
   D10        3.14159  -0.00000   0.00000  -0.00000  -0.00000   3.14159
   D11        3.14159  -0.00000   0.00000  -0.00000  -0.00000   3.14159
   D12       -0.00000   0.00000   0.00000  -0.00000   0.00000  -0.00000
   D13        0.00000  -0.00000   0.00000  -0.00000  -0.00000   0.00000
   D14        3.14159   0.00000   0.00000   0.00000   0.00000   3.14159
   D15       -3.14159  -0.00000   0.00000  -0.00000  -0.00000  -3.14159
   D16        0.00000  -0.00000   0.00000  -0.00000  -0.00000   0.00000
   D17       -0.00000   0.00000  -0.00000   0.00000   0.00000  -0.00000
   D18        3.14159  -0.00000  -0.00000  -0.00000  -0.00000   3.14159
   D19        3.14159   0.00000   0.00000   0.00000   0.00000   3.14159
   D20        0.00000  -0.00000   0.00000  -0.00000  -0.00000   0.00000
   D21        0.00000  -0.00000  -0.00000  -0.00000  -0.00000   0.00000
   D22       -3.14159  -0.00000  -0.00000  -0.00000  -0.00000  -3.14159
   D23       -3.14159   0.00000   0.00000   0.00000   0.00000  -3.14159
   D24        0.00000  -0.00000  -0.00000   0.00000   0.00000   0.00000
   D25       -0.00000   0.00000  -0.00000   0.00000   0.00000  -0.00000
   D26        3.14159   0.00000  -0.00000   0.00000   0.00000   3.14159
   D27        3.14159   0.00000   0.00000   0.00000   0.00000   3.14159
   D28       -0.00000   0.00000  -0.00000   0.00000   0.00000  -0.00000
   D29        3.14159  -0.00000  -0.00000   0.00000   0.00000  -3.14159
   D30        0.00000  -0.00000  -0.00000  -0.00000  -0.00000   0.00000
   D31        0.00000  -0.00000  -0.00000  -0.00000  -0.00000   0.00000
   D32       -3.14159  -0.00000   0.00000  -0.00000  -0.00000  -3.14159
   D33       -3.14159  -0.00000  -0.00000  -0.00000  -0.00000   3.14159
   D34        0.00000  -0.00000   0.00000  -0.00000  -0.00000  -0.00000
   D35       -0.00000   0.00000   0.00000   0.00000   0.00000  -0.00000
   D36        3.14159   0.00000   0.00000   0.00000   0.00000   3.14159
   D37       -0.00000  -0.00000   0.00000   0.00000   0.00000  -0.00000
   D38        3.14159  -0.00000   0.00000  -0.00000  -0.00000   3.14159
   D39        3.14159   0.00000  -0.00000   0.00000   0.00000   3.14159
   D40       -0.00000   0.00000  -0.00000   0.00000   0.00000  -0.00000
   D41       -0.00000   0.00000   0.00000   0.00000   0.00000   0.00000
   D42       -3.14159  -0.00000   0.00000  -0.00000  -0.00000  -3.14159
   D43        3.14159   0.00000  -0.00000   0.00000   0.00000  -3.14159
   D44        0.00000  -0.00000   0.00000  -0.00000  -0.00000   0.00000
   D45        0.00000   0.00000  -0.00000   0.00000   0.00000   0.00000
   D46       -3.14159  -0.00000   0.00000  -0.00000  -0.00000  -3.14159
   D47        3.14159   0.00000  -0.00000   0.00000   0.00000   3.14159
   D48        0.00000  -0.00000  -0.00000  -0.00000  -0.00000   0.00000
   D49        0.00000  -0.00000  -0.00000  -0.00000  -0.00000   0.00000
   D50       -3.14159  -0.00000  -0.00000  -0.00000  -0.00000  -3.14159
   D51        3.14159   0.00000  -0.00000   0.00000   0.00000   3.14159
   D52       -0.00000   0.00000  -0.00000   0.00000   0.00000  -0.00000
         Item               Value     Threshold  Converged?
 Maximum Force            0.063122     0.000450     NO 
 RMS     Force            0.012046     0.000300     NO 
 Maximum Displacement     0.521385     0.001800     NO 
 RMS     Displacement     0.142871     0.001200     NO 
 Predicted change in Energy=-8.242213D-03
 GradGradGradGradGradGradGradGradGradGradGradGradGradGradGradGradGradGrad

                          Input orientation:                          
 ---------------------------------------------------------------------
 Center     Atomic      Atomic             Coordinates (Angstroms)
 Number     Number       Type             X           Y           Z
 ---------------------------------------------------------------------
      1          6           0        0.099377    0.153168    0.018153
      2          6           0        1.445076    0.181068   -0.419953
      3          6           0        2.197195    1.348955   -0.448403
      4          6           0        1.646573    2.553657   -0.040745
      5          6           0        0.326083    2.566293    0.396668
      6          6           0       -0.423731    1.392105    0.423175
      7          6           0       -0.728691   -1.170521    0.042365
[...]
                 (A) (A) (A) (A) (A) (A) (A) (A) (A) (A) (A) (A)
                 (A) (A) (A) (A) (A) (A) (A) (A) (A)
       Virtual   (A) (A) (A) (A) (A) (A) (A) (A) (A) (A) (A) (A)
                 (A) (A) (A) (A) (A) (A) (A) (A) (A) (A) (A) (A)
                 (A) (A) (A) (A) (A) (A) (A) (A) (A) (A) (A) (A)
                 (A) (A) (A) (A) (A) (A) (A) (A) (A) (A) (A) (A)
                 (A) (A) (A) (A) (A) (A) (A) (A) (A) (A) (A) (A)
                 (A) (A) (A) (A) (A) (A) (A) (A) (A) (A) (A) (A)
                 (A) (A) (A) (A) (A) (A) (A) (A) (A) (A) (A) (A)
                 (A) (A) (A) (A) (A) (A) (A) (A) (A) (A) (A) (A)
                 (A) (A) (A) (A) (A) (A) (A) (A) (A) (A) (A) (A)
                 (A) (A) (A) (A) (A) (A) (A) (A) (A) (A) (A) (A)
                 (A) (A) (A) (A) (A) (A) (A) (A) (A) (A) (A) (A)
                 (A) (A) (A) (A) (A) (A) (A) (A) (A) (A) (A) (A)
                 (A) (A) (A) (A) (A) (A) (A) (A) (A) (A) (A) (A)
                 (A) (A) (A) (A) (A) (A) (A) (A) (A) (A) (A) (A)
                 (A) (A) (A) (A) (A) (A) (A) (A) (A) (A) (A) (A)
                 (A) (A) (A) (A) (A) (A) (A) (A) (A) (A) (A) (A)
                 (A) (A) (A) (A) (A) (A) (A) (A) (A) (A) (A) (A)
                 (A) (A) (A) (A) (A) (A) (A) (A) (A) (A) (A) (A)
                 (A) (A) (A) (A) (A) (A) (A) (A) (A) (A) (A) (A)
                 (A) (A) (A) (A) (A) (A) (A) (A) (A) (A) (A) (A)
                 (A) (A) (A) (A) (A) (A) (A) (A) (A) (A) (A) (A)
                 (A) (A) (A) (A) (A) (A) (A) (A) (A) (A) (A) (A)
                 (A) (A) (A) (A) (A) (A) (A) (A) (A) (A) (A) (A)
                 (A) (A) (A) (A) (A) (A) (A) (A) (A) (A) (A) (A)
                 (A) (A) (A) (A) (A) (A) (A) (A) (A) (A) (A) (A)
                 (A) (A) (A) (A) (A) (A) (A) (A) (A) (A) (A) (A)
                 (A) (A) (A) (A) (A) (A) (A) (A) (A) (A) (A) (A)
                 (A) (A) (A) (A) (A) (A) (A) (A) (A) (A) (A) (A)
                 (A) (A) (A) (A) (A) (A) (A) (A) (A) (A) (A) (A)
                 (A) (A) (A) (A) (A) (A) (A) (A) (A) (A) (A) (A)
 The electronic state is 1-A.
 Alpha  occ. eigenvalues -- -101.57617-101.57564-101.57490-101.57058-101.56983
 Alpha  occ. eigenvalues --  -10.27627 -10.27512 -10.27197 -10.26503 -10.26444
 Alpha  occ. eigenvalues --  -10.23029 -10.22207 -10.21585 -10.21483 -10.21209
 Alpha  occ. eigenvalues --  -10.21169 -10.20860  -9.49084  -9.49023  -9.48971
 Alpha  occ. eigenvalues --   -9.48515  -9.48441  -7.25584  -7.25509  -7.25456
 Alpha  occ. eigenvalues --   -7.24996  -7.24923  -7.24567  -7.24504  -7.24482
 Alpha  occ. eigenvalues --   -7.24458  -7.24442  -7.24377  -7.23998  -7.23940
 Alpha  occ. eigenvalues --   -7.23923  -7.23865  -0.95165  -0.93372  -0.90202
 Alpha  occ. eigenvalues --   -0.88258  -0.87413  -0.86310  -0.84981  -0.79068
 Alpha  occ. eigenvalues --   -0.76843  -0.76191  -0.73712  -0.65410  -0.64824
 Alpha  occ. eigenvalues --   -0.63670  -0.60814  -0.55389  -0.53422  -0.52280
 Alpha  occ. eigenvalues --   -0.51100  -0.49511  -0.48128  -0.46623  -0.46167
 Alpha  occ. eigenvalues --   -0.45968  -0.44963  -0.43605  -0.42803  -0.41229
 Alpha  occ. eigenvalues --   -0.39822  -0.39633  -0.38600  -0.36606  -0.36219
 Alpha  occ. eigenvalues --   -0.35447  -0.35221  -0.34365  -0.34190  -0.33939
 Alpha  occ. eigenvalues --   -0.32214  -0.31851  -0.28478  -0.27480  -0.27387
 Alpha  occ. eigenvalues --   -0.25960
 Alpha virt. eigenvalues --   -0.06605  -0.05691  -0.04538  -0.03796  -0.03488
 Alpha virt. eigenvalues --   -0.02027  -0.00815   0.00620   0.01128   0.01774
 Alpha virt. eigenvalues --    0.02085   0.02368   0.02466   0.03376   0.03943
 Alpha virt. eigenvalues --    0.04547   0.04961   0.05301   0.05779   0.06419
 Alpha virt. eigenvalues --    0.06783   0.07201   0.07374   0.08108   0.08255
 Alpha virt. eigenvalues --    0.08583   0.08975   0.09040   0.09930   0.10306
 Alpha virt. eigenvalues --    0.10659   0.11233   0.11485   0.11707   0.11928
 Alpha virt. eigenvalues --    0.12149   0.12657   0.13020   0.13709   0.13893
 Alpha virt. eigenvalues --    0.14550   0.14800   0.15081   0.15247   0.15945
 Alpha virt. eigenvalues --    0.16049   0.16554   0.17135   0.17200   0.17557
 Alpha virt. eigenvalues --    0.17648   0.18032   0.18365   0.19044   0.19205
 Alpha virt. eigenvalues --    0.19576   0.20053   0.20267   0.20829   0.21437
 Alpha virt. eigenvalues --    0.21669   0.22050   0.22607   0.22741   0.23080
 Alpha virt. eigenvalues --    0.23557   0.23709   0.24305   0.24563   0.24668
 Alpha virt. eigenvalues --    0.25334   0.25572   0.26239   0.26443   0.27068
 Alpha virt. eigenvalues --    0.27459   0.27779   0.28082   0.28743   0.28866
 Alpha virt. eigenvalues --    0.29455   0.29976   0.30196   0.30501   0.31716
 Alpha virt. eigenvalues --    0.31864   0.32772   0.33226   0.33855   0.35224
 Alpha virt. eigenvalues --    0.40949   0.41356   0.42876   0.43499   0.43880
 Alpha virt. eigenvalues --    0.44495   0.44940   0.45356   0.45760   0.46595
 Alpha virt. eigenvalues --    0.47023   0.47338   0.47666   0.48095   0.48699
 Alpha virt. eigenvalues --    0.49441   0.49790   0.50494   0.51004   0.52332
 Alpha virt. eigenvalues --    0.54336   0.55144   0.55861   0.56350   0.56703
 Alpha virt. eigenvalues --    0.57558   0.58287   0.59692   0.59968   0.60572
 Alpha virt. eigenvalues --    0.61317   0.61681   0.62354   0.62831   0.63386
 Alpha virt. eigenvalues --    0.64737   0.65290   0.65550   0.66316   0.67397
 Alpha virt. eigenvalues --    0.67797   0.68187   0.69107   0.69525   0.70001
 Alpha virt. eigenvalues --    0.71166   0.71560   0.72178   0.74327   0.76801
 Alpha virt. eigenvalues --    0.78439   0.79782   0.80580   0.82409   0.82719
 Alpha virt. eigenvalues --    0.83217   0.83311   0.84141   0.84430   0.84507
 Alpha virt. eigenvalues --    0.84874   0.84953   0.85375   0.85736   0.85997
 Alpha virt. eigenvalues --    0.86143   0.87330   0.87541   0.88123   0.88836
 Alpha virt. eigenvalues --    0.89214   0.90377   0.90771   0.91510   0.92396
 Alpha virt. eigenvalues --    0.92762   0.93002   0.93923   0.94206   0.94776
 Alpha virt. eigenvalues --    0.95165   0.96110   0.96400   0.96782   0.98007
 Alpha virt. eigenvalues --    0.98976   1.00279   1.01895   1.02078   1.03780
 Alpha virt. eigenvalues --    1.05036   1.07286   1.08332   1.10046   1.11525
 Alpha virt. eigenvalues --    1.13113   1.15587   1.16242   1.22013   1.22570
 Alpha virt. eigenvalues --    1.23153   1.25003   1.25500   1.26897   1.27173
 Alpha virt. eigenvalues --    1.27608   1.28370   1.29356   1.30641   1.31588
 Alpha virt. eigenvalues --    1.34005   1.35406   1.37417   1.39873   1.43647
 Alpha virt. eigenvalues --    1.48707   1.49575   1.50079   1.50965   1.53811
 Alpha virt. eigenvalues --    1.55263   1.56478   1.57282   1.60157   1.61171
 Alpha virt. eigenvalues --    1.63898   1.64865   1.66970   1.69052   1.70613
 Alpha virt. eigenvalues --    1.71544   1.72667   1.74038   1.77673   1.79650
 Alpha virt. eigenvalues --    1.81621   1.83218   1.84517   1.85252   1.86092
 Alpha virt. eigenvalues --    1.87780   1.89468   1.91061   1.92204   1.93162
 Alpha virt. eigenvalues --    1.94334   1.94955   1.95542   1.98085   1.98280
 Alpha virt. eigenvalues --    2.02548   2.05252   2.06001   2.10932   2.12762
 Alpha virt. eigenvalues --    2.14074   2.16260   2.19865   2.23423   2.24162
 Alpha virt. eigenvalues --    2.24771   2.26009   2.26835   2.27118   2.28960
 Alpha virt. eigenvalues --    2.29775   2.31225   2.32633   2.34488   2.36162
 Alpha virt. eigenvalues --    2.39826   2.41039   2.41934   2.43622   2.44220
 Alpha virt. eigenvalues --    2.45079   2.48494   2.50516   2.51543   2.53327
 Alpha virt. eigenvalues --    2.55923   2.56924   2.59869   2.61205   2.63344
 Alpha virt. eigenvalues --    2.65338   2.66028   2.67209   2.70947   2.71521
 Alpha virt. eigenvalues --    2.73474   2.74081   2.74803   2.76367   2.77060
 Alpha virt. eigenvalues --    2.78543   2.79054   2.81130   2.82770   2.83144
 Alpha virt. eigenvalues --    2.84266   2.88328   2.91219   2.97143   2.98611
 Alpha virt. eigenvalues --    3.06706   3.07772   3.08694   3.12030   3.13695
 Alpha virt. eigenvalues --    3.15189   3.17406   3.19836   3.21561   3.22796
 Alpha virt. eigenvalues --    3.33550   3.36475   3.40669   3.43382   3.51753
 Alpha virt. eigenvalues --    3.57297   3.65154   3.69381   3.72777   3.83571
 Alpha virt. eigenvalues --    3.86104   4.00450   4.05699   4.07468   4.11806
 Alpha virt. eigenvalues --    4.35222   4.80029   4.82610   9.74370   9.76098
 Alpha virt. eigenvalues --    9.79412   9.80136   9.81878  23.36180  23.53210
 Alpha virt. eigenvalues --   23.83440  23.87112  23.88557  23.89231  23.95147
 Alpha virt. eigenvalues --   23.96881  24.02173  24.06454  24.12012  24.14945
 Alpha virt. eigenvalues --   25.77788  25.78533  25.84047  25.86992  25.92191
 Alpha virt. eigenvalues --   26.08088  26.09924  26.15552  26.19388  26.28013
 Alpha virt. eigenvalues --   26.48838  26.50272  26.65868  26.77429  26.88386
 Alpha virt. eigenvalues --  215.73385 215.75056 215.78989 215.79712 215.81976
          Condensed to atoms (all electrons):
               1          2          3          4          5          6
     1  C   34.548292  -0.163410  -2.753843  -5.044208 -10.278019   4.983752
     2  C   -0.163410  29.542542  -2.588544   0.954618  -5.074863 -12.561232
     3  C   -2.753843  -2.588544  28.439837  -5.976044  -2.756660 -13.605406
     4  C   -5.044208   0.954618  -5.976044  31.400142  -8.727988  -0.588605
     5  C  -10.278019  -5.074863  -2.756660  -8.727988  43.151554 -24.744983
     6  C    4.983752 -12.561232 -13.605406  -0.588605 -24.744983  73.233386
     7  C   -5.123325  -3.101867   4.871453  -4.439904  10.226717 -15.227579
     8  C   -3.590403   1.243907   0.049473  -0.073919   1.068005  -2.430442
     9  C    0.704082   0.135531  -0.026750   0.176952  -0.372391   0.647047
    10  C   -3.051019  -0.175557   0.141297  -0.168636   0.910242  -1.323829
    11  C    0.784389   0.289860  -0.019543   0.132357  -0.468735   0.575389
    12  C   -4.238093  -2.376389   0.751543  -0.517000   1.658652   0.001132
    13  H    0.029673   0.272464  -0.004561  -0.038600   0.003733  -0.004860
    14  H    0.007257  -0.029765   0.307810   0.049608   0.047396  -0.028109
    15  H    0.027494   0.046050   0.011082   0.015911   0.135057  -0.005364
    16  H    0.050940   0.135248  -0.012555   0.017131  -0.035789  -0.023683
    17  H    0.005940   0.002886  -0.000128   0.000136  -0.000847  -0.001405
    18  Cl  -1.090448  -0.370845   0.168759  -0.258599   1.248780  -1.374681
    19  Cl   0.002410  -0.023092   0.001588  -0.000818   0.004830   0.060326
    20  Cl  -0.420701   0.077957   0.882687  -0.028561  -0.746121  -0.704468
    21  Cl  -0.121066  -0.004565   0.006354  -0.003108   0.015659  -0.025600
    22  Cl  -0.168620   0.344790  -0.926621  -1.113898   0.177504   1.194792
               7          8          9         10         11         12
     1  C   -5.123325  -3.590403   0.704082  -3.051019   0.784389  -4.238093
     2  C   -3.101867   1.243907   0.135531  -0.175557   0.289860  -2.376389
     3  C    4.871453   0.049473  -0.026750   0.141297  -0.019543   0.751543
     4  C   -4.439904  -0.073919   0.176952  -0.168636   0.132357  -0.517000
     5  C   10.226717   1.068005  -0.372391   0.910242  -0.468735   1.658652
     6  C  -15.227579  -2.430442   0.647047  -1.323829   0.575389   0.001132
     7  C   23.131525  -4.442000  -1.211779   0.030872  -0.776066   1.537372
     8  C   -4.442000  21.623141  -1.415584   2.771739  -2.460489  -6.721515
     9  C   -1.211779  -1.415584  12.312647  -2.923648  -3.420951   1.480995
    10  C    0.030872   2.771739  -2.923648  18.929371  -3.714374  -4.913950
    11  C   -0.776066  -2.460489  -3.420951  -3.714374  17.832813  -2.022980
    12  C    1.537372  -6.721515   1.480995  -4.913950  -2.022980  22.679287
    13  H    0.039729   0.029678  -0.013267   0.008779   0.001114   0.028036
    14  H   -0.000904  -0.003905  -0.000317  -0.000108  -0.000125   0.001026
    15  H    0.081333  -0.019069  -0.005820   0.001581  -0.013332   0.069623
    16  H   -0.040614   0.349333  -0.050710  -0.010200   0.013729  -0.042306
    17  H    0.014453  -0.040323   0.347338   0.017300   0.011983  -0.006727
    18  Cl   0.440545   0.358073   0.286079   0.140348   0.033971  -1.033483
    19  Cl  -0.457242   0.117261   0.258344  -0.522920  -0.943485   0.938098
    20  Cl   0.155949   0.015898  -0.001704   0.004492  -0.000403  -0.038996
    21  Cl  -0.200246   0.088795  -0.186867  -0.290643   0.313107  -0.248834
    22  Cl  -0.197559   0.014869   0.007655  -0.003077   0.001748  -0.044817
              13         14         15         16         17         18
     1  C    0.029673   0.007257   0.027494   0.050940   0.005940  -1.090448
     2  C    0.272464  -0.029765   0.046050   0.135248   0.002886  -0.370845
     3  C   -0.004561   0.307810   0.011082  -0.012555  -0.000128   0.168759
     4  C   -0.038600   0.049608   0.015911   0.017131   0.000136  -0.258599
     5  C    0.003733   0.047396   0.135057  -0.035789  -0.000847   1.248780
     6  C   -0.004860  -0.028109  -0.005364  -0.023683  -0.001405  -1.374681
     7  C    0.039729  -0.000904   0.081333  -0.040614   0.014453   0.440545
     8  C    0.029678  -0.003905  -0.019069   0.349333  -0.040323   0.358073
     9  C   -0.013267  -0.000317  -0.005820  -0.050710   0.347338   0.286079
    10  C    0.008779  -0.000108   0.001581  -0.010200   0.017300   0.140348
    11  C    0.001114  -0.000125  -0.013332   0.013729   0.011983   0.033971
    12  C    0.028036   0.001026   0.069623  -0.042306  -0.006727  -1.033483
    13  H    0.524632  -0.007173  -0.000169  -0.000545   0.000015  -0.001045
    14  H   -0.007173   0.508355   0.000048   0.000036   0.000000  -0.000537
    15  H   -0.000169   0.000048   0.498717  -0.000009   0.000003   0.002891
    16  H   -0.000545   0.000036  -0.000009   0.520562  -0.006953  -0.003440
    17  H    0.000015   0.000000   0.000003  -0.006953   0.505472   0.001601
    18  Cl  -0.001045  -0.000537   0.002891  -0.003440   0.001601  18.018166
    19  Cl  -0.000171   0.000001   0.000440   0.000581  -0.000774  -0.191675
    20  Cl   0.000362  -0.000062  -0.003161  -0.000113  -0.000003   0.019097
    21  Cl   0.000079  -0.000002  -0.000104  -0.000470  -0.007280  -0.005026
    22  Cl  -0.000837  -0.006921  -0.001387  -0.000024  -0.000001   0.000149
              19         20         21         22
     1  C    0.002410  -0.420701  -0.121066  -0.168620
     2  C   -0.023092   0.077957  -0.004565   0.344790
     3  C    0.001588   0.882687   0.006354  -0.926621
     4  C   -0.000818  -0.028561  -0.003108  -1.113898
     5  C    0.004830  -0.746121   0.015659   0.177504
     6  C    0.060326  -0.704468  -0.025600   1.194792
     7  C   -0.457242   0.155949  -0.200246  -0.197559
     8  C    0.117261   0.015898   0.088795   0.014869
     9  C    0.258344  -0.001704  -0.186867   0.007655
    10  C   -0.522920   0.004492  -0.290643  -0.003077
    11  C   -0.943485  -0.000403   0.313107   0.001748
    12  C    0.938098  -0.038996  -0.248834  -0.044817
    13  H   -0.000171   0.000362   0.000079  -0.000837
    14  H    0.000001  -0.000062  -0.000002  -0.006921
    15  H    0.000440  -0.003161  -0.000104  -0.001387
    16  H    0.000581  -0.000113  -0.000470  -0.000024
    17  H   -0.000774  -0.000003  -0.007280  -0.000001
    18  Cl  -0.191675   0.019097  -0.005026   0.000149
    19  Cl  17.366795   0.000257  -0.168433   0.000035
    20  Cl   0.000257  17.487983   0.000084  -0.219340
    21  Cl  -0.168433   0.000084  17.333465   0.000008
    22  Cl   0.000035  -0.219340   0.000008  17.467452
 Mulliken charges:
               1
     1  C    0.898924
     2  C   -0.575723
     3  C   -0.961226
     4  C    0.233030
     5  C    0.558266
     6  C   -2.045579
     7  C    0.689137
     8  C   -0.532522
     9  C   -0.726880
    10  C    0.141938
    11  C   -0.149980
    12  C   -0.940675
    13  H    0.132934
    14  H    0.156391
    15  H    0.158184
    16  H    0.139850
    17  H    0.157315
    18  Cl   0.611317
    19  Cl   0.557643
    20  Cl   0.518865
    21  Cl   0.504691
    22  Cl   0.474100
 Sum of Mulliken charges =  -0.00000
 Mulliken charges with hydrogens summed into heavy atoms:
               1
     1  C    0.898924
     2  C   -0.442789
     3  C   -0.804835
     4  C    0.233030
     5  C    0.558266
     6  C   -1.887395
     7  C    0.689137
     8  C   -0.392672
     9  C   -0.569565
    10  C    0.141938
    11  C   -0.149980
    12  C   -0.940675
    18  Cl   0.611317
    19  Cl   0.557643
    20  Cl   0.518865
    21  Cl   0.504691
    22  Cl   0.474100
 Electronic spatial extent (au):  <R**2>=           8420.6359
 Charge=              0.0000 electrons
 Dipole moment (field-independent basis, Debye):
    X=              0.4627    Y=             -2.7618    Z=             -0.1704  Tot=              2.8054
 Quadrupole moment (field-independent basis, Debye-Ang):
   XX=           -146.1814   YY=           -125.8118   ZZ=           -131.8604
   XY=             -0.4535   XZ=              3.4418   YZ=              1.6950
 Traceless Quadrupole moment (field-independent basis, Debye-Ang):
   XX=            -11.5636   YY=              8.8061   ZZ=              2.7575
   XY=             -0.4535   XZ=              3.4418   YZ=              1.6950
 Octapole moment (field-independent basis, Debye-Ang**2):
  XXX=             20.8888  YYY=              3.7049  ZZZ=             -2.3329  XYY=              5.9937
  XXY=             -1.5630  XXZ=             -6.9517  XZZ=             -2.9913  YZZ=              2.6749
  YYZ=             -1.0974  XYZ=            -11.0032
 Hexadecapole moment (field-independent basis, Debye-Ang**3):
 XXXX=          -9196.7761 YYYY=          -1374.6530 ZZZZ=           -622.9804 XXXY=             18.5908
 XXXZ=             16.5781 YYYX=            -10.7844 YYYZ=            -14.7896 ZZZX=            -12.9302
 ZZZY=             13.4120 XXYY=          -1707.8137 XXZZ=          -1614.7830 YYZZ=           -322.2281
 XXYZ=              8.1644 YYXZ=             15.7163 ZZXY=              7.4193
 N-N= 1.683955198979D+03 E-N=-9.904603497642D+03  KE= 2.754121810765D+03
 1\1\GINC-LOCALHOST\FOpt\RB3LYP\6-311+G(d,p)\C12H5Cl5\GOUR\16-Mar-2022\
 0\\# opt b3lyp/6-311+g(d,p) scf=xqc\\Title Card Required\\0,1\C,0.0871
 862965,0.1073206312,0.0652769496\C,1.4666236846,0.0834077539,0.2954392
 878\C,2.20801499,1.2588776865,0.278622806\C,1.5869423217,2.479103191,0
 .0240984579\C,0.2090549092,2.5126494876,-0.2138582707\C,-0.5303707331,
 1.333679733,-0.1904623196\C,-0.6892263834,-1.1646689539,0.0370594677\C
 ,-0.3582410932,-2.1363127952,-0.9137932264\C,-1.0435641886,-3.33892593
 07,-0.9948159018\C,-2.0871785322,-3.600715812,-0.1143411624\C,-2.44437
 41716,-2.6585287967,0.8582233036\C,-1.737216306,-1.4459325745,0.927563
 4213\H,1.9634022367,-0.856691206,0.5039130546\H,3.2739011107,1.2396330
 574,0.4663832881\H,-1.5941950203,1.3827589181,-0.3818008877\H,0.442887
 7093,-1.9307967271,-1.6133217259\H,-0.7814353504,-4.0765417455,-1.7417
 303122\Cl,-2.1445196068,-0.292652056,2.1759475235\Cl,-3.7365020668,-2.
 9954564782,1.9699733798\Cl,-0.6200460034,4.0129480569,-0.5508965585\Cl
 ,-2.9322133661,-5.1218042716,-0.2517788179\Cl,2.5535275831,3.932850621
 7,0.009142163\\Version=EM64L-G16RevB.01\State=1-A\HF=-2761.5141452\RMS
 D=3.686e-09\RMSF=1.028e-05\Dipole=0.7157482,-0.674228,-0.5013599\Quadr
 upole=3.5932591,-5.2951702,1.7019112,-5.8278037,0.2713328,3.5748265\PG
 =C01 [X(C12H5Cl5)]\\@


 A HARD FALL SHOULD MEAN A HIGH BOUNCE 
 IF ONE IS MADE OF THE RIGHT MATERIAL.

                -- THE CHEMIST ANALYST, MARCH 1950
 Job cpu time:       0 days 12 hours 52 minutes 33.3 seconds.
 Elapsed time:       0 days  3 hours 13 minutes 42.1 seconds.
 File lengths (MBytes):  RWF=    122 Int=      0 D2E=      0 Chk=     20 Scr=      1
 Normal termination of Gaussian 16 at Wed Mar 16 15:07:49 2022.
