 Entering Gaussian System, Link 0=g16
 Input=2,3,3prime,5,6-Pentachlorobiphenyl.gjf
 Output=2,3,3prime,5,6-Pentachlorobiphenyl.log
 Initial command:
 /usr/local/g16/l1.exe "/scratch/pkc/Gau-79227.inp" -scrdir="/scratch/pkc/"
 Entering Link 1 = /usr/local/g16/l1.exe PID=     79228.
  
 Copyright (c) 1988-2017, Gaussian, Inc.  All Rights Reserved.
  
 This is part of the Gaussian(R) 16 program.  It is based on
 the Gaussian(R) 09 system (copyright 2009, Gaussian, Inc.),
 the Gaussian(R) 03 system (copyright 2003, Gaussian, Inc.),
 the Gaussian(R) 98 system (copyright 1998, Gaussian, Inc.),
 the Gaussian(R) 94 system (copyright 1995, Gaussian, Inc.),
 the Gaussian 92(TM) system (copyright 1992, Gaussian, Inc.),
 the Gaussian 90(TM) system (copyright 1990, Gaussian, Inc.),
 the Gaussian 88(TM) system (copyright 1988, Gaussian, Inc.),
 the Gaussian 86(TM) system (copyright 1986, Carnegie Mellon
 University), and the Gaussian 82(TM) system (copyright 1983,
 Carnegie Mellon University). Gaussian is a federally registered
 trademark of Gaussian, Inc.
  
 This software contains proprietary and confidential information,
 including trade secrets, belonging to Gaussian, Inc.
  
 This software is provided under written license and may be
 used, copied, transmitted, or stored only in accord with that
 written license.
  
 The following legend is applicable only to US Government
 contracts under FAR:
  
                    RESTRICTED RIGHTS LEGEND
  
 Use, reproduction and disclosure by the US Government is
 subject to restrictions as set forth in subparagraphs (a)
 and (c) of the Commercial Computer Software - Restricted
 Rights clause in FAR 52.227-19.
  
 Gaussian, Inc.
 340 Quinnipiac St., Bldg. 40, Wallingford CT 06492
  
  
 ---------------------------------------------------------------
 Warning -- This program may not be used in any manner that
 competes with the business of Gaussian, Inc. or will provide
 assistance to any competitor of Gaussian, Inc.  The licensee
 of this program is prohibited from giving any competitor of
 Gaussian, Inc. access to this program.  By using this program,
 the user acknowledges that Gaussian, Inc. is engaged in the
 business of creating and licensing software in the field of
 computational chemistry and represents and warrants to the
 licensee that it is not a competitor of Gaussian, Inc. and that
 it will not use this program in any manner prohibited above.
 ---------------------------------------------------------------
  

 Cite this work as:
 Gaussian 16, Revision B.01,
 M. J. Frisch, G. W. Trucks, H. B. Schlegel, G. E. Scuseria, 
 M. A. Robb, J. R. Cheeseman, G. Scalmani, V. Barone, 
 G. A. Petersson, H. Nakatsuji, X. Li, M. Caricato, A. V. Marenich, 
 J. Bloino, B. G. Janesko, R. Gomperts, B. Mennucci, H. P. Hratchian, 
 J. V. Ortiz, A. F. Izmaylov, J. L. Sonnenberg, D. Williams-Young, 
 F. Ding, F. Lipparini, F. Egidi, J. Goings, B. Peng, A. Petrone, 
 T. Henderson, D. Ranasinghe, V. G. Zakrzewski, J. Gao, N. Rega, 
 G. Zheng, W. Liang, M. Hada, M. Ehara, K. Toyota, R. Fukuda, 
 J. Hasegawa, M. Ishida, T. Nakajima, Y. Honda, O. Kitao, H. Nakai, 
 T. Vreven, K. Throssell, J. A. Montgomery, Jr., J. E. Peralta, 
 F. Ogliaro, M. J. Bearpark, J. J. Heyd, E. N. Brothers, K. N. Kudin, 
 V. N. Staroverov, T. A. Keith, R. Kobayashi, J. Normand, 
 K. Raghavachari, A. P. Rendell, J. C. Burant, S. S. Iyengar, 
 J. Tomasi, M. Cossi, J. M. Millam, M. Klene, C. Adamo, R. Cammi, 
 J. W. Ochterski, R. L. Martin, K. Morokuma, O. Farkas, 
 J. B. Foresman, and D. J. Fox, Gaussian, Inc., Wallingford CT, 2016.
 
 ******************************************
 Gaussian 16:  EM64L-G16RevB.01 20-Dec-2017
                16-Mar-2022 
 ******************************************
 %mem=10GB
 %nprocshared=4
 Will use up to    4 processors via shared memory.
 --------------------------------
 # opt b3lyp/6-311+g(d,p) scf=xqc
 --------------------------------
 1/18=20,19=15,26=3,38=1/1,3;
 2/9=110,12=2,17=6,18=5,40=1/2;
 3/5=4,6=6,7=111,11=2,25=1,30=1,71=1,74=-5/1,2,3;
 4//1;
 5/5=2,8=3,13=1,38=5/2,8;
 6/7=2,8=2,9=2,10=2,28=1/1;
 7//1,2,3,16;
 1/18=20,19=15,26=3/3(2);
 2/9=110/2;
 99//99;
 2/9=110/2;
 3/5=4,6=6,7=111,11=2,25=1,30=1,71=1,74=-5/1,2,3;
 4/5=5,16=3,69=1/1;
 5/5=2,8=3,13=1,38=5/2,8;
 7//1,2,3,16;
 1/18=20,19=15,26=3/3(-5);
 2/9=110/2;
 6/7=2,8=2,9=2,10=2,19=2,28=1/1;
 99/9=1/99;
 -------------------
 Title Card Required
 -------------------
 Symbolic Z-matrix:
 Charge =  0 Multiplicity = 1
 C                    -0.73557   1.83504  -0.17647 
 C                     0.59682   1.86492  -0.60982 
 C                     1.30471   3.07437  -0.61589 
 C                     0.68022   4.25394  -0.18862 
 C                    -0.65216   4.22405   0.24473 
 C                    -1.36005   3.0146    0.2508 
 C                    -1.51347   0.50597  -0.1698 
 C                    -0.88898  -0.6736   -0.59707 
 C                    -1.59688  -1.88305  -0.591 
 C                    -2.92926  -1.91293  -0.15765 
 C                    -3.55374  -0.73337   0.26963 
 C                    -2.84585   0.47608   0.26355 
 H                     1.07363   0.9643   -0.93605 
 H                     2.32201   3.09719  -0.94676 
 H                     1.22071   5.17738  -0.19325 
 H                    -2.37736   2.99178   0.58167 
 H                    -3.46975  -2.83638  -0.15301 
 Cl                   -3.63013   1.95748   0.80016 
 Cl                   -5.22706  -0.7709    0.81387 
 Cl                   -1.43645   5.70545   0.78133 
 Cl                   -0.81259  -3.36445  -1.12761 
 Cl                    0.78434  -0.63606  -1.14131 
 

 GradGradGradGradGradGradGradGradGradGradGradGradGradGradGradGradGradGrad
 Berny optimization.
 Initialization pass.
                           ----------------------------
                           !    Initial Parameters    !
                           ! (Angstroms and Degrees)  !
 --------------------------                            --------------------------
 ! Name  Definition              Value          Derivative Info.                !
 --------------------------------------------------------------------------------
 ! R1    R(1,2)                  1.4014         estimate D2E/DX2                !
 ! R2    R(1,6)                  1.4014         estimate D2E/DX2                !
 ! R3    R(1,7)                  1.54           estimate D2E/DX2                !
 ! R4    R(2,3)                  1.4014         estimate D2E/DX2                !
 ! R5    R(2,13)                 1.07           estimate D2E/DX2                !
 ! R6    R(3,4)                  1.4014         estimate D2E/DX2                !
 ! R7    R(3,14)                 1.07           estimate D2E/DX2                !
 ! R8    R(4,5)                  1.4014         estimate D2E/DX2                !
 ! R9    R(4,15)                 1.07           estimate D2E/DX2                !
 ! R10   R(5,6)                  1.4014         estimate D2E/DX2                !
 ! R11   R(5,20)                 1.76           estimate D2E/DX2                !
 ! R12   R(6,16)                 1.07           estimate D2E/DX2                !
 ! R13   R(7,8)                  1.4014         estimate D2E/DX2                !
 ! R14   R(7,12)                 1.4014         estimate D2E/DX2                !
 ! R15   R(8,9)                  1.4014         estimate D2E/DX2                !
 ! R16   R(8,22)                 1.76           estimate D2E/DX2                !
 ! R17   R(9,10)                 1.4014         estimate D2E/DX2                !
 ! R18   R(9,21)                 1.76           estimate D2E/DX2                !
 ! R19   R(10,11)                1.4014         estimate D2E/DX2                !
 ! R20   R(10,17)                1.07           estimate D2E/DX2                !
 ! R21   R(11,12)                1.4014         estimate D2E/DX2                !
 ! R22   R(11,19)                1.76           estimate D2E/DX2                !
 ! R23   R(12,18)                1.76           estimate D2E/DX2                !
 ! A1    A(2,1,6)              120.0            estimate D2E/DX2                !
 ! A2    A(2,1,7)              120.0            estimate D2E/DX2                !
 ! A3    A(6,1,7)              120.0            estimate D2E/DX2                !
 ! A4    A(1,2,3)              120.0            estimate D2E/DX2                !
 ! A5    A(1,2,13)             120.0            estimate D2E/DX2                !
 ! A6    A(3,2,13)             120.0            estimate D2E/DX2                !
 ! A7    A(2,3,4)              120.0            estimate D2E/DX2                !
 ! A8    A(2,3,14)             120.0            estimate D2E/DX2                !
 ! A9    A(4,3,14)             120.0            estimate D2E/DX2                !
 ! A10   A(3,4,5)              120.0            estimate D2E/DX2                !
 ! A11   A(3,4,15)             120.0            estimate D2E/DX2                !
 ! A12   A(5,4,15)             120.0            estimate D2E/DX2                !
 ! A13   A(4,5,6)              120.0            estimate D2E/DX2                !
 ! A14   A(4,5,20)             120.0            estimate D2E/DX2                !
 ! A15   A(6,5,20)             120.0            estimate D2E/DX2                !
 ! A16   A(1,6,5)              120.0            estimate D2E/DX2                !
 ! A17   A(1,6,16)             120.0            estimate D2E/DX2                !
 ! A18   A(5,6,16)             120.0            estimate D2E/DX2                !
 ! A19   A(1,7,8)              120.0            estimate D2E/DX2                !
 ! A20   A(1,7,12)             120.0            estimate D2E/DX2                !
 ! A21   A(8,7,12)             120.0            estimate D2E/DX2                !
 ! A22   A(7,8,9)              120.0            estimate D2E/DX2                !
 ! A23   A(7,8,22)             120.0            estimate D2E/DX2                !
 ! A24   A(9,8,22)             120.0            estimate D2E/DX2                !
 ! A25   A(8,9,10)             120.0            estimate D2E/DX2                !
 ! A26   A(8,9,21)             120.0            estimate D2E/DX2                !
 ! A27   A(10,9,21)            120.0            estimate D2E/DX2                !
 ! A28   A(9,10,11)            120.0            estimate D2E/DX2                !
 ! A29   A(9,10,17)            120.0            estimate D2E/DX2                !
 ! A30   A(11,10,17)           120.0            estimate D2E/DX2                !
 ! A31   A(10,11,12)           120.0            estimate D2E/DX2                !
 ! A32   A(10,11,19)           120.0            estimate D2E/DX2                !
 ! A33   A(12,11,19)           120.0            estimate D2E/DX2                !
 ! A34   A(7,12,11)            120.0            estimate D2E/DX2                !
 ! A35   A(7,12,18)            120.0            estimate D2E/DX2                !
 ! A36   A(11,12,18)           120.0            estimate D2E/DX2                !
 ! D1    D(6,1,2,3)              0.0001         estimate D2E/DX2                !
 ! D2    D(6,1,2,13)           180.0            estimate D2E/DX2                !
 ! D3    D(7,1,2,3)           -180.0            estimate D2E/DX2                !
 ! D4    D(7,1,2,13)            -0.0001         estimate D2E/DX2                !
 ! D5    D(2,1,6,5)             -0.0001         estimate D2E/DX2                !
 ! D6    D(2,1,6,16)           180.0            estimate D2E/DX2                !
 ! D7    D(7,1,6,5)            180.0            estimate D2E/DX2                !
 ! D8    D(7,1,6,16)             0.0            estimate D2E/DX2                !
 ! D9    D(2,1,7,8)             -0.0001         estimate D2E/DX2                !
 ! D10   D(2,1,7,12)           179.9998         estimate D2E/DX2                !
 ! D11   D(6,1,7,8)            179.9999         estimate D2E/DX2                !
 ! D12   D(6,1,7,12)            -0.0002         estimate D2E/DX2                !
 ! D13   D(1,2,3,4)              0.0            estimate D2E/DX2                !
 ! D14   D(1,2,3,14)           180.0            estimate D2E/DX2                !
 ! D15   D(13,2,3,4)          -179.9999         estimate D2E/DX2                !
 ! D16   D(13,2,3,14)            0.0001         estimate D2E/DX2                !
 ! D17   D(2,3,4,5)             -0.0001         estimate D2E/DX2                !
 ! D18   D(2,3,4,15)           180.0            estimate D2E/DX2                !
 ! D19   D(14,3,4,5)           179.9999         estimate D2E/DX2                !
 ! D20   D(14,3,4,15)            0.0            estimate D2E/DX2                !
 ! D21   D(3,4,5,6)              0.0001         estimate D2E/DX2                !
 ! D22   D(3,4,5,20)          -179.9999         estimate D2E/DX2                !
 ! D23   D(15,4,5,6)          -180.0            estimate D2E/DX2                !
 ! D24   D(15,4,5,20)            0.0            estimate D2E/DX2                !
 ! D25   D(4,5,6,1)              0.0            estimate D2E/DX2                !
 ! D26   D(4,5,6,16)           179.9999         estimate D2E/DX2                !
 ! D27   D(20,5,6,1)           180.0            estimate D2E/DX2                !
 ! D28   D(20,5,6,16)           -0.0001         estimate D2E/DX2                !
 ! D29   D(1,7,8,9)            179.9999         estimate D2E/DX2                !
 ! D30   D(1,7,8,22)             0.0001         estimate D2E/DX2                !
 ! D31   D(12,7,8,9)             0.0001         estimate D2E/DX2                !
 ! D32   D(12,7,8,22)         -179.9998         estimate D2E/DX2                !
 ! D33   D(1,7,12,11)         -179.9999         estimate D2E/DX2                !
 ! D34   D(1,7,12,18)            0.0            estimate D2E/DX2                !
 ! D35   D(8,7,12,11)           -0.0001         estimate D2E/DX2                !
 ! D36   D(8,7,12,18)          179.9999         estimate D2E/DX2                !
 ! D37   D(7,8,9,10)             0.0            estimate D2E/DX2                !
 ! D38   D(7,8,9,21)           180.0            estimate D2E/DX2                !
 ! D39   D(22,8,9,10)          179.9998         estimate D2E/DX2                !
 ! D40   D(22,8,9,21)           -0.0002         estimate D2E/DX2                !
 ! D41   D(8,9,10,11)            0.0            estimate D2E/DX2                !
 ! D42   D(8,9,10,17)         -179.9999         estimate D2E/DX2                !
 ! D43   D(21,9,10,11)         180.0            estimate D2E/DX2                !
 ! D44   D(21,9,10,17)           0.0001         estimate D2E/DX2                !
 ! D45   D(9,10,11,12)           0.0            estimate D2E/DX2                !
 ! D46   D(9,10,11,19)        -179.9998         estimate D2E/DX2                !
 ! D47   D(17,10,11,12)        179.9999         estimate D2E/DX2                !
 ! D48   D(17,10,11,19)          0.0001         estimate D2E/DX2                !
 ! D49   D(10,11,12,7)           0.0            estimate D2E/DX2                !
 ! D50   D(10,11,12,18)       -179.9999         estimate D2E/DX2                !
 ! D51   D(19,11,12,7)         179.9999         estimate D2E/DX2                !
 ! D52   D(19,11,12,18)         -0.0001         estimate D2E/DX2                !
 --------------------------------------------------------------------------------
 Trust Radius=3.00D-01 FncErr=1.00D-07 GrdErr=1.00D-06 EigMax=2.50D+02 EigMin=1.00D-04
 Number of steps in this run=    121 maximum allowed number of steps=    132.
 GradGradGradGradGradGradGradGradGradGradGradGradGradGradGradGradGradGrad

                          Input orientation:                          
 ---------------------------------------------------------------------
 Center     Atomic      Atomic             Coordinates (Angstroms)
 Number     Number       Type             X           Y           Z
 ---------------------------------------------------------------------
      1          6           0       -0.735565    1.835035   -0.176471
      2          6           0        0.596816    1.864921   -0.609818
      3          6           0        1.304709    3.074372   -0.615890
      4          6           0        0.680222    4.253937   -0.188616
      5          6           0       -0.652160    4.224052    0.244729
      6          6           0       -1.360053    3.014601    0.250801
      7          6           0       -1.513470    0.505968   -0.169798
      8          6           0       -0.888983   -0.673597   -0.597073
      9          6           0       -1.596876   -1.883048   -0.590998
     10          6           0       -2.929256   -1.912935   -0.157648
     11          6           0       -3.553743   -0.733370    0.269627
     12          6           0       -2.845850    0.476082    0.263553
     13          1           0        1.073626    0.964297   -0.936050
     14          1           0        2.322012    3.097191   -0.946760
     15          1           0        1.220715    5.177380   -0.193252
     16          1           0       -2.377356    2.991782    0.581671
     17          1           0       -3.469747   -2.836378   -0.153009
     18         17           0       -3.630135    1.957482    0.800164
     19         17           0       -5.227060   -0.770905    0.813869
     20         17           0       -1.436447    5.705453    0.781334
     21         17           0       -0.812590   -3.364449   -1.127607
     22         17           0        0.784337   -0.636064   -1.141307
 ---------------------------------------------------------------------
                    Distance matrix (angstroms):
                    1          2          3          4          5
     1  C    0.000000
     2  C    1.401400   0.000000
     3  C    2.427296   1.401400   0.000000
     4  C    2.802800   2.427296   1.401400   0.000000
     5  C    2.427296   2.802800   2.427296   1.401400   0.000000
     6  C    1.401400   2.427296   2.802800   2.427296   1.401400
     7  C    1.540000   2.548270   3.838989   4.342800   3.838989
     8  C    2.548270   2.941400   4.342800   5.187469   4.975106
     9  C    3.838989   4.342800   5.744200   6.558176   6.235992
    10  C    4.342800   5.187469   6.558176   7.145600   6.558176
    11  C    3.838989   4.975106   6.235992   6.558176   5.744200
    12  C    2.548270   3.813607   4.975106   5.187469   4.342800
    13  H    2.146700   1.070000   2.146700   3.396345   3.872800
    14  H    3.396345   2.146700   1.070000   2.146700   3.396345
    15  H    3.872800   3.396345   2.146700   1.070000   2.146700
    16  H    2.146700   3.396345   3.872800   3.396345   2.146700
    17  H    5.412800   6.232802   7.612271   8.215600   7.612271
    18  Cl   3.057342   4.456874   5.254079   4.983028   3.783409
    19  Cl   5.286324   6.549198   7.713260   7.819846   6.797295
    20  Cl   4.048303   4.562800   4.048303   2.743718   1.760000
    21  Cl   5.286324   5.440665   6.797295   7.819846   7.713260
    22  Cl   3.057342   2.563702   3.783409   4.983028   5.254079
                    6          7          8          9         10
     6  C    0.000000
     7  C    2.548270   0.000000
     8  C    3.813607   1.401400   0.000000
     9  C    4.975106   2.427296   1.401400   0.000000
    10  C    5.187469   2.802800   2.427296   1.401400   0.000000
    11  C    4.342800   2.427296   2.802800   2.427296   1.401400
    12  C    2.941400   1.401400   2.427296   2.802800   2.427296
    13  H    3.396345   2.736837   2.578650   3.918930   4.990735
    14  H    3.872800   4.693509   4.965039   6.347206   7.300676
    15  H    3.396345   5.412800   6.232802   7.612271   8.215600
    16  H    1.070000   2.736837   4.127917   5.074276   4.990735
    17  H    6.232802   3.872800   3.396345   2.146700   1.070000
    18  Cl   2.563702   2.743718   4.048303   4.562800   4.048303
    19  Cl   5.440665   4.048303   4.562800   4.048303   2.743718
    20  Cl   2.743718   5.286324   6.549198   7.713260   7.819846
    21  Cl   6.549198   4.048303   2.743718   1.760000   2.743718
    22  Cl   4.456874   2.743718   1.760000   2.743718   4.048303
                   11         12         13         14         15
    11  C    0.000000
    12  C    1.401400   0.000000
    13  H    5.074276   4.127917   0.000000
    14  H    7.118798   5.919617   2.471400   0.000000
    15  H    7.612271   6.232802   4.280590   2.471400   0.000000
    16  H    3.918930   2.578650   4.280590   4.942800   4.280590
    17  H    2.146700   3.396345   5.974992   8.329571   9.285600
    18  Cl   2.743718   1.760000   5.111382   6.307038   5.906383
    19  Cl   1.760000   2.743718   6.765486   8.663168   8.830073
    20  Cl   6.797295   5.440665   5.632800   4.890332   2.879094
    21  Cl   4.048303   4.562800   4.725732   7.184095   8.830073
    22  Cl   4.562800   4.048303   1.639199   4.042212   5.906383
                   16         17         18         19         20
    16  H    0.000000
    17  H    5.974992   0.000000
    18  Cl   1.639199   4.890332   0.000000
    19  Cl   4.725732   2.879094   3.161400   0.000000
    20  Cl   2.879094   8.830073   4.342800   7.504200   0.000000
    21  Cl   6.765486   2.879094   6.322800   5.475705   9.289584
    22  Cl   5.111382   4.890332   5.475705   6.322800   6.988795
                   21         22
    21  Cl   0.000000
    22  Cl   3.161400   0.000000
 Stoichiometry    C12H5Cl5
 Framework group  C1[X(C12H5Cl5)]
 Deg. of freedom    60
 Full point group                 C1      NOp   1
 Largest Abelian subgroup         C1      NOp   1
 Largest concise Abelian subgroup C1      NOp   1
                         Standard orientation:                         
 ---------------------------------------------------------------------
 Center     Atomic      Atomic             Coordinates (Angstroms)
 Number     Number       Type             X           Y           Z
 ---------------------------------------------------------------------
      1          6           0        1.085220   -0.687587   -0.000001
      2          6           0        1.327625   -2.067863    0.000002
      3          6           0        2.644182   -2.548071    0.000005
      4          6           0        3.718333   -1.648004    0.000005
      5          6           0        3.475928   -0.267728   -0.000000
      6          6           0        2.159371    0.212480   -0.000003
      7          6           0       -0.361546   -0.159885   -0.000002
      8          6           0       -1.435697   -1.059952   -0.000002
      9          6           0       -2.752254   -0.579744   -0.000002
     10          6           0       -2.994659    0.800532   -0.000002
     11          6           0       -1.920508    1.700600   -0.000001
     12          6           0       -0.603951    1.220391   -0.000001
     13          1           0        0.507487   -2.755084    0.000004
     14          1           0        2.829264   -3.601943    0.000008
     15          1           0        4.723554   -2.014654    0.000007
     16          1           0        1.974289    1.266352   -0.000005
     17          1           0       -3.999879    1.167182   -0.000000
     18         17           0        0.745061    2.350774    0.000002
     19         17           0       -2.224942    3.434070    0.000004
     20         17           0        4.824940    0.862654   -0.000004
     21         17           0       -4.101266   -1.710126   -0.000003
     22         17           0       -1.131263   -2.793423    0.000002
 ---------------------------------------------------------------------
 Rotational constants (GHZ):           0.3946651           0.2062306           0.1354511
 Standard basis: 6-311+G(d,p) (5D, 7F)
 There are   461 symmetry adapted cartesian basis functions of A   symmetry.
 There are   444 symmetry adapted basis functions of A   symmetry.
   444 basis functions,   737 primitive gaussians,   461 cartesian basis functions
    81 alpha electrons       81 beta electrons
       nuclear repulsion energy      1743.2530749491 Hartrees.
 NAtoms=   22 NActive=   22 NUniq=   22 SFac= 1.00D+00 NAtFMM=   60 NAOKFM=F Big=F
 Integral buffers will be    131072 words long.
 Raffenetti 2 integral format.
 Two-electron integral symmetry is turned on.
 One-electron integrals computed using PRISM.
 NBasis=   444 RedAO= T EigKep=  1.30D-06  NBF=   444
 NBsUse=   438 1.00D-06 EigRej=  8.45D-07 NBFU=   438
 ExpMin= 4.38D-02 ExpMax= 1.06D+05 ExpMxC= 3.62D+03 IAcc=3 IRadAn=         5 AccDes= 0.00D+00
 Harris functional with IExCor=  402 and IRadAn=       5 diagonalized for initial guess.
 HarFok:  IExCor=  402 AccDes= 0.00D+00 IRadAn=         5 IDoV= 1 UseB2=F ITyADJ=14
 ICtDFT=  3500011 ScaDFX=  1.000000  1.000000  1.000000  1.000000
 FoFCou: FMM=F IPFlag=           0 FMFlag=      100000 FMFlg1=           0
         NFxFlg=           0 DoJE=T BraDBF=F KetDBF=T FulRan=T
         wScrn=  0.000000 ICntrl=       500 IOpCl=  0 I1Cent=   200000004 NGrid=           0
         NMat0=    1 NMatS0=      1 NMatT0=    0 NMatD0=    1 NMtDS0=    0 NMtDT0=    0
 Petite list used in FoFCou.
 Requested convergence on RMS density matrix=1.00D-08 within  32 cycles.
 Requested convergence on MAX density matrix=1.00D-06.
 Requested convergence on             energy=1.00D-06.
 No special actions if energy rises.
 SCF Done:  E(RB3LYP) =  -2761.39594589     A.U. after   17 cycles
            NFock= 17  Conv=0.20D-08     -V/T= 2.0025
 QCSCF skips out because SCF is already converged.

 **********************************************************************

            Population analysis using the SCF Density.

 **********************************************************************

 Orbital symmetries:
       Occupied  (A) (A) (A) (A) (A) (A) (A) (A) (A) (A) (A) (A)
                 (A) (A) (A) (A) (A) (A) (A) (A) (A) (A) (A) (A)
                 (A) (A) (A) (A) (A) (A) (A) (A) (A) (A) (A) (A)
                 (A) (A) (A) (A) (A) (A) (A) (A) (A) (A) (A) (A)
                 (A) (A) (A) (A) (A) (A) (A) (A) (A) (A) (A) (A)
                 (A) (A) (A) (A) (A) (A) (A) (A) (A) (A) (A) (A)
                 (A) (A) (A) (A) (A) (A) (A) (A) (A)
       Virtual   (A) (A) (A) (A) (A) (A) (A) (A) (A) (A) (A) (A)
                 (A) (A) (A) (A) (A) (A) (A) (A) (A) (A) (A) (A)
                 (A) (A) (A) (A) (A) (A) (A) (A) (A) (A) (A) (A)
                 (A) (A) (A) (A) (A) (A) (A) (A) (A) (A) (A) (A)
                 (A) (A) (A) (A) (A) (A) (A) (A) (A) (A) (A) (A)
                 (A) (A) (A) (A) (A) (A) (A) (A) (A) (A) (A) (A)
                 (A) (A) (A) (A) (A) (A) (A) (A) (A) (A) (A) (A)
                 (A) (A) (A) (A) (A) (A) (A) (A) (A) (A) (A) (A)
                 (A) (A) (A) (A) (A) (A) (A) (A) (A) (A) (A) (A)
                 (A) (A) (A) (A) (A) (A) (A) (A) (A) (A) (A) (A)
                 (A) (A) (A) (A) (A) (A) (A) (A) (A) (A) (A) (A)
                 (A) (A) (A) (A) (A) (A) (A) (A) (A) (A) (A) (A)
                 (A) (A) (A) (A) (A) (A) (A) (A) (A) (A) (A) (A)
                 (A) (A) (A) (A) (A) (A) (A) (A) (A) (A) (A) (A)
                 (A) (A) (A) (A) (A) (A) (A) (A) (A) (A) (A) (A)
                 (A) (A) (A) (A) (A) (A) (A) (A) (A) (A) (A) (A)
                 (A) (A) (A) (A) (A) (A) (A) (A) (A) (A) (A) (A)
                 (A) (A) (A) (A) (A) (A) (A) (A) (A) (A) (A) (A)
                 (A) (A) (A) (A) (A) (A) (A) (A) (A) (A) (A) (A)
                 (A) (A) (A) (A) (A) (A) (A) (A) (A) (A) (A) (A)
                 (A) (A) (A) (A) (A) (A) (A) (A) (A) (A) (A) (A)
                 (A) (A) (A) (A) (A) (A) (A) (A) (A) (A) (A) (A)
                 (A) (A) (A) (A) (A) (A) (A) (A) (A) (A) (A) (A)
                 (A) (A) (A) (A) (A) (A) (A) (A) (A) (A) (A) (A)
                 (A) (A) (A) (A) (A) (A) (A) (A) (A) (A) (A) (A)
                 (A) (A) (A) (A) (A) (A) (A) (A) (A) (A) (A) (A)
                 (A) (A) (A) (A) (A) (A) (A) (A) (A) (A) (A) (A)
                 (A) (A) (A) (A) (A) (A) (A) (A) (A) (A) (A) (A)
                 (A) (A) (A) (A) (A) (A) (A) (A) (A) (A) (A) (A)
                 (A) (A) (A) (A) (A) (A) (A) (A) (A)
 The electronic state is 1-A.
 Alpha  occ. eigenvalues -- -101.58380-101.58353-101.58325-101.58289-101.55774
 Alpha  occ. eigenvalues --  -10.28561 -10.28540 -10.28423 -10.28386 -10.25020
 Alpha  occ. eigenvalues --  -10.24422 -10.23220 -10.21740 -10.19452 -10.19053
 Alpha  occ. eigenvalues --  -10.17714 -10.17176  -9.50162  -9.50129  -9.49741
 Alpha  occ. eigenvalues --   -9.49704  -9.47223  -7.26591  -7.26558  -7.26244
 Alpha  occ. eigenvalues --   -7.26207  -7.25613  -7.25577  -7.25569  -7.25538
 Alpha  occ. eigenvalues --   -7.25219  -7.25181  -7.25157  -7.25120  -7.23678
 Alpha  occ. eigenvalues --   -7.22707  -7.22678  -0.96437  -0.93080  -0.90742
 Alpha  occ. eigenvalues --   -0.89090  -0.88669  -0.85326  -0.84344  -0.79497
 Alpha  occ. eigenvalues --   -0.76360  -0.75574  -0.74123  -0.66801  -0.63662
 Alpha  occ. eigenvalues --   -0.62781  -0.61206  -0.55710  -0.54591  -0.53842
 Alpha  occ. eigenvalues --   -0.49488  -0.48997  -0.48692  -0.47537  -0.46716
 Alpha  occ. eigenvalues --   -0.46194  -0.45962  -0.42782  -0.42582  -0.41505
 Alpha  occ. eigenvalues --   -0.40774  -0.40181  -0.39506  -0.38344  -0.36980
 Alpha  occ. eigenvalues --   -0.34858  -0.34778  -0.34236  -0.33682  -0.32141
 Alpha  occ. eigenvalues --   -0.30309  -0.29540  -0.28311  -0.27522  -0.26256
 Alpha  occ. eigenvalues --   -0.25264
 Alpha virt. eigenvalues --   -0.07788  -0.06441  -0.05466  -0.02996  -0.02299
 Alpha virt. eigenvalues --   -0.01325  -0.00545  -0.00241   0.00798   0.01293
 Alpha virt. eigenvalues --    0.01748   0.02449   0.02620   0.04175   0.04554
 Alpha virt. eigenvalues --    0.04844   0.05317   0.05398   0.06349   0.06507
 Alpha virt. eigenvalues --    0.06648   0.07209   0.07826   0.08300   0.08481
 Alpha virt. eigenvalues --    0.08539   0.09459   0.09669   0.10372   0.10717
 Alpha virt. eigenvalues --    0.11099   0.11162   0.11875   0.11993   0.13120
 Alpha virt. eigenvalues --    0.13132   0.13377   0.13424   0.14151   0.14284
 Alpha virt. eigenvalues --    0.15038   0.15114   0.15414   0.15483   0.15879
 Alpha virt. eigenvalues --    0.16775   0.16796   0.17768   0.18045   0.18255
 Alpha virt. eigenvalues --    0.18990   0.19425   0.19790   0.19917   0.19993
 Alpha virt. eigenvalues --    0.20643   0.20685   0.20928   0.21646   0.22155
 Alpha virt. eigenvalues --    0.22208   0.22728   0.23128   0.23226   0.24355
 Alpha virt. eigenvalues --    0.24954   0.25103   0.25169   0.25377   0.25871
 Alpha virt. eigenvalues --    0.26713   0.27230   0.27771   0.27886   0.28924
 Alpha virt. eigenvalues --    0.30056   0.30312   0.30590   0.31562   0.31916
 Alpha virt. eigenvalues --    0.32533   0.33050   0.33732   0.35420   0.35688
 Alpha virt. eigenvalues --    0.36234   0.37082   0.39257   0.41128   0.42043
 Alpha virt. eigenvalues --    0.42587   0.43040   0.43075   0.43840   0.44067
 Alpha virt. eigenvalues --    0.44876   0.45222   0.45879   0.46417   0.46561
 Alpha virt. eigenvalues --    0.47587   0.47878   0.48270   0.50845   0.50989
 Alpha virt. eigenvalues --    0.51361   0.52229   0.53552   0.53610   0.54442
 Alpha virt. eigenvalues --    0.55849   0.56258   0.57613   0.57798   0.57955
 Alpha virt. eigenvalues --    0.58279   0.58759   0.59515   0.59873   0.61333
 Alpha virt. eigenvalues --    0.62456   0.62783   0.63231   0.63932   0.64417
 Alpha virt. eigenvalues --    0.65046   0.66956   0.67844   0.68100   0.68566
 Alpha virt. eigenvalues --    0.69186   0.71043   0.73673   0.75038   0.77595
 Alpha virt. eigenvalues --    0.79061   0.79604   0.80635   0.81531   0.81841
 Alpha virt. eigenvalues --    0.82498   0.83326   0.83696   0.83723   0.83941
 Alpha virt. eigenvalues --    0.84929   0.85259   0.85469   0.86102   0.86285
 Alpha virt. eigenvalues --    0.86694   0.87055   0.87334   0.88082   0.88388
 Alpha virt. eigenvalues --    0.89034   0.89134   0.90192   0.92001   0.92269
 Alpha virt. eigenvalues --    0.92743   0.93898   0.94128   0.94228   0.95367
 Alpha virt. eigenvalues --    0.95861   0.96019   0.96558   0.97203   0.98582
 Alpha virt. eigenvalues --    0.98998   0.99923   0.99973   1.00776   1.03914
 Alpha virt. eigenvalues --    1.04863   1.07284   1.08837   1.09831   1.11271
 Alpha virt. eigenvalues --    1.11928   1.12926   1.13409   1.15035   1.17166
 Alpha virt. eigenvalues --    1.19048   1.20822   1.23621   1.24510   1.25277
 Alpha virt. eigenvalues --    1.26368   1.27230   1.28109   1.28338   1.29134
 Alpha virt. eigenvalues --    1.31592   1.33726   1.34241   1.37932   1.39883
 Alpha virt. eigenvalues --    1.41500   1.43916   1.45912   1.49369   1.49836
 Alpha virt. eigenvalues --    1.51379   1.54325   1.55036   1.56729   1.58482
 Alpha virt. eigenvalues --    1.61600   1.62364   1.63138   1.65076   1.66991
 Alpha virt. eigenvalues --    1.67975   1.70179   1.74109   1.74314   1.75655
 Alpha virt. eigenvalues --    1.75941   1.77273   1.81692   1.82258   1.84307
 Alpha virt. eigenvalues --    1.85309   1.86603   1.87323   1.90262   1.92561
 Alpha virt. eigenvalues --    1.93220   1.93392   1.96436   1.97568   1.98933
 Alpha virt. eigenvalues --    1.99785   2.01860   2.02441   2.04349   2.08153
 Alpha virt. eigenvalues --    2.08943   2.12065   2.14986   2.19627   2.20385
 Alpha virt. eigenvalues --    2.21387   2.23023   2.23073   2.24251   2.24866
 Alpha virt. eigenvalues --    2.27753   2.28356   2.29862   2.33888   2.34610
 Alpha virt. eigenvalues --    2.34998   2.35975   2.38892   2.39783   2.41975
 Alpha virt. eigenvalues --    2.43685   2.44102   2.46532   2.50097   2.52174
 Alpha virt. eigenvalues --    2.54242   2.55510   2.56544   2.58384   2.58873
 Alpha virt. eigenvalues --    2.61093   2.64384   2.64687   2.68761   2.69796
 Alpha virt. eigenvalues --    2.71091   2.72863   2.73045   2.73142   2.74759
 Alpha virt. eigenvalues --    2.76492   2.78757   2.79127   2.80836   2.81435
 Alpha virt. eigenvalues --    2.83473   2.84635   2.85774   2.91180   2.92859
 Alpha virt. eigenvalues --    3.00363   3.03612   3.04367   3.07531   3.10096
 Alpha virt. eigenvalues --    3.11636   3.12822   3.14528   3.19794   3.21616
 Alpha virt. eigenvalues --    3.23891   3.26242   3.33344   3.35459   3.39220
 Alpha virt. eigenvalues --    3.51007   3.53477   3.54882   3.61954   3.69432
 Alpha virt. eigenvalues --    3.75451   3.80497   3.89485   3.98980   4.04180
 Alpha virt. eigenvalues --    4.15032   4.21541   4.44985   4.78711   4.83961
 Alpha virt. eigenvalues --    9.75058   9.77855   9.78263   9.86322   9.87670
 Alpha virt. eigenvalues --   23.31510  23.59679  23.77516  23.83081  23.89012
 Alpha virt. eigenvalues --   23.92376  23.94057  23.98105  24.03579  24.04974
 Alpha virt. eigenvalues --   24.07055  24.15661  25.76591  25.78211  25.82482
 Alpha virt. eigenvalues --   25.86634  25.88193  26.08950  26.13976  26.20865
 Alpha virt. eigenvalues --   26.46076  26.50182  26.62204  26.72909  26.75906
 Alpha virt. eigenvalues --   26.81963  26.94404 215.74250 215.77374 215.77498
 Alpha virt. eigenvalues --  215.88703 215.90156
          Condensed to atoms (all electrons):
               1          2          3          4          5          6
     1  C   21.615872   1.162813  -2.033537  -2.056401  -4.602280   5.431277
     2  C    1.162813  11.602231  -1.698330  -1.047496   0.734284  -0.900197
     3  C   -2.033537  -1.698330  14.197551   1.305827  -2.940721   0.388532
     4  C   -2.056401  -1.047496   1.305827  16.706762  -2.865082  -6.098306
     5  C   -4.602280   0.734284  -2.940721  -2.865082  22.772374   0.632073
     6  C    5.431277  -0.900197   0.388532  -6.098306   0.632073  14.891426
     7  C    7.999355   0.193812  -1.720789  -0.625240  -3.091272   0.490553
     8  C   -2.732605  -1.885341  -0.313272  -0.203814  -2.713525  -2.112751
     9  C   -6.940809  -0.319150   0.508736  -0.065387  -1.028985  -1.964963
    10  C   -1.161682   0.908642   0.181665   0.101255  -0.121444   0.052409
    11  C   -5.683066  -1.170881  -0.581377   0.325722   0.454978  -1.286385
    12  C   -2.878135  -1.218328  -0.971449   0.572241  -1.105823  -2.067773
    13  H   -0.226922   0.447781   0.260325   0.007373  -0.017921   0.040539
    14  H    0.092480   0.047004   0.263379  -0.002938  -0.046295  -0.023487
    15  H    0.069125  -0.017368  -0.101393   0.301333  -0.007047   0.081127
    16  H   -0.270723  -0.043958  -0.046325   0.177457   0.148717   0.331426
    17  H    0.009286  -0.000040   0.000088  -0.000008   0.000109   0.001099
    18  Cl  -0.068882  -0.060917   0.066075  -0.027113  -0.890242  -0.923910
    19  Cl  -0.081907  -0.045467  -0.006522   0.000566   0.037569   0.031589
    20  Cl  -0.404034   0.273082   0.223883  -0.294853  -0.584219   0.563820
    21  Cl  -0.020971  -0.031402   0.007585  -0.003798   0.000120  -0.032622
    22  Cl   0.004543  -0.717070  -0.732588  -0.015909   0.046943  -0.150298
               7          8          9         10         11         12
     1  C    7.999355  -2.732605  -6.940809  -1.161682  -5.683066  -2.878135
     2  C    0.193812  -1.885341  -0.319150   0.908642  -1.170881  -1.218328
     3  C   -1.720789  -0.313272   0.508736   0.181665  -0.581377  -0.971449
     4  C   -0.625240  -0.203814  -0.065387   0.101255   0.325722   0.572241
     5  C   -3.091272  -2.713525  -1.028985  -0.121444   0.454978  -1.105823
     6  C    0.490553  -2.112751  -1.964963   0.052409  -1.286385  -2.067773
     7  C   24.015684  -1.035449  -9.063764   2.469646  -8.879268  -2.009979
     8  C   -1.035449  16.606858   1.122911  -7.351074   3.291934   3.936307
     9  C   -9.063764   1.122911  27.208160  -3.489649  -4.329680   3.112159
    10  C    2.469646  -7.351074  -3.489649  25.628610  -3.816707  -6.690580
    11  C   -8.879268   3.291934  -4.329680  -3.816707  25.471795   1.005330
    12  C   -2.009979   3.936307   3.112159  -6.690580   1.005330  15.138134
    13  H   -0.123254   0.090587   0.017608  -0.002877  -0.013994  -0.010533
    14  H    0.014064  -0.001077  -0.000996   0.000153   0.000491   0.005250
    15  H    0.020704   0.004964   0.000565  -0.000045   0.000034   0.001052
    16  H   -0.048030   0.011159  -0.006562  -0.007322   0.052896   0.153194
    17  H    0.045874   0.055309  -0.003373   0.178160   0.001471   0.061568
    18  Cl  -0.247341   0.094510   0.769396   0.670543   0.434735  -1.362199
    19  Cl  -0.453681   0.196313  -0.165341  -0.554917  -0.442567   0.863109
    20  Cl  -0.257827  -0.116147  -0.022602  -0.006504  -0.061748  -0.131636
    21  Cl  -0.419784   1.006541  -0.547450  -0.657748  -0.166447   0.228360
    22  Cl  -0.308199  -1.328624   0.376091   0.576927   0.739872  -0.061844
              13         14         15         16         17         18
     1  C   -0.226922   0.092480   0.069125  -0.270723   0.009286  -0.068882
     2  C    0.447781   0.047004  -0.017368  -0.043958  -0.000040  -0.060917
     3  C    0.260325   0.263379  -0.101393  -0.046325   0.000088   0.066075
     4  C    0.007373  -0.002938   0.301333   0.177457  -0.000008  -0.027113
     5  C   -0.017921  -0.046295  -0.007047   0.148717   0.000109  -0.890242
     6  C    0.040539  -0.023487   0.081127   0.331426   0.001099  -0.923910
     7  C   -0.123254   0.014064   0.020704  -0.048030   0.045874  -0.247341
     8  C    0.090587  -0.001077   0.004964   0.011159   0.055309   0.094510
     9  C    0.017608  -0.000996   0.000565  -0.006562  -0.003373   0.769396
    10  C   -0.002877   0.000153  -0.000045  -0.007322   0.178160   0.670543
    11  C   -0.013994   0.000491   0.000034   0.052896   0.001471   0.434735
    12  C   -0.010533   0.005250   0.001052   0.153194   0.061568  -1.362199
    13  H    0.729779  -0.014115  -0.000501  -0.000293   0.000003   0.002723
    14  H   -0.014115   0.543635  -0.007190   0.000145  -0.000000  -0.000272
    15  H   -0.000501  -0.007190   0.523308  -0.000581   0.000000   0.000230
    16  H   -0.000293   0.000145  -0.000581   0.699872   0.000002  -0.263920
    17  H    0.000003  -0.000000   0.000000   0.000002   0.484958  -0.000202
    18  Cl   0.002723  -0.000272   0.000230  -0.263920  -0.000202  18.453511
    19  Cl   0.000060  -0.000000   0.000000   0.006186  -0.003773  -0.296366
    20  Cl   0.000924  -0.000475  -0.009554  -0.037410   0.000000  -0.055216
    21  Cl   0.005984  -0.000005  -0.000000   0.000083  -0.003222   0.003979
    22  Cl  -0.313744   0.003468   0.000272   0.002175  -0.000150  -0.046055
              19         20         21         22
     1  C   -0.081907  -0.404034  -0.020971   0.004543
     2  C   -0.045467   0.273082  -0.031402  -0.717070
     3  C   -0.006522   0.223883   0.007585  -0.732588
     4  C    0.000566  -0.294853  -0.003798  -0.015909
     5  C    0.037569  -0.584219   0.000120   0.046943
     6  C    0.031589   0.563820  -0.032622  -0.150298
     7  C   -0.453681  -0.257827  -0.419784  -0.308199
     8  C    0.196313  -0.116147   1.006541  -1.328624
     9  C   -0.165341  -0.022602  -0.547450   0.376091
    10  C   -0.554917  -0.006504  -0.657748   0.576927
    11  C   -0.442567  -0.061748  -0.166447   0.739872
    12  C    0.863109  -0.131636   0.228360  -0.061844
    13  H    0.000060   0.000924   0.005984  -0.313744
    14  H   -0.000000  -0.000475  -0.000005   0.003468
    15  H    0.000000  -0.009554  -0.000000   0.000272
    16  H    0.006186  -0.037410   0.000083   0.002175
    17  H   -0.003773   0.000000  -0.003222  -0.000150
    18  Cl  -0.296366  -0.055216   0.003979  -0.046055
    19  Cl  17.393295   0.001282  -0.028505   0.004477
    20  Cl   0.001282  17.525112   0.000007   0.001731
    21  Cl  -0.028505   0.000007  17.414529  -0.289331
    22  Cl   0.004477   0.001731  -0.289331  18.475215
 Mulliken charges:
               1
     1  C   -1.222798
     2  C   -0.213704
     3  C   -0.257340
     4  C   -0.192190
     5  C    1.187690
     6  C   -1.375177
     7  C   -0.965813
     8  C   -0.623711
     9  C    0.833086
    10  C   -0.907461
    11  C    0.652860
    12  C   -0.568425
    13  H    0.120469
    14  H    0.126783
    15  H    0.140967
    16  H    0.141811
    17  H    0.172841
    18  Cl   0.746934
    19  Cl   0.544599
    20  Cl   0.392384
    21  Cl   0.534097
    22  Cl   0.732099
 Sum of Mulliken charges =  -0.00000
 Mulliken charges with hydrogens summed into heavy atoms:
               1
     1  C   -1.222798
     2  C   -0.093235
     3  C   -0.130557
     4  C   -0.051224
     5  C    1.187690
     6  C   -1.233366
     7  C   -0.965813
     8  C   -0.623711
     9  C    0.833086
    10  C   -0.734620
    11  C    0.652860
    12  C   -0.568425
    18  Cl   0.746934
    19  Cl   0.544599
    20  Cl   0.392384
    21  Cl   0.534097
    22  Cl   0.732099
 Electronic spatial extent (au):  <R**2>=           6965.7082
 Charge=             -0.0000 electrons
 Dipole moment (field-independent basis, Debye):
    X=             -1.4465    Y=             -1.1004    Z=              0.0000  Tot=              1.8175
 Quadrupole moment (field-independent basis, Debye-Ang):
   XX=           -134.5011   YY=           -127.5077   ZZ=           -135.6957
   XY=             -6.4392   XZ=              0.0000   YZ=             -0.0000
 Traceless Quadrupole moment (field-independent basis, Debye-Ang):
   XX=             -1.9330   YY=              5.0605   ZZ=             -3.1275
   XY=             -6.4392   XZ=              0.0000   YZ=             -0.0000
 Octapole moment (field-independent basis, Debye-Ang**2):
  XXX=            -47.0163  YYY=            -15.1370  ZZZ=              0.0000  XYY=             16.9210
  XXY=             -5.7661  XXZ=              0.0001  XZZ=             -7.8446  YZZ=              6.7069
  YYZ=              0.0001  XYZ=             -0.0001
 Hexadecapole moment (field-independent basis, Debye-Ang**3):
 XXXX=          -5969.0049 YYYY=          -2935.3719 ZZZZ=           -158.1656 XXXY=            -62.7157
 XXXZ=              0.0003 YYYX=              9.1311 YYYZ=             -0.0001 ZZZX=             -0.0002
 ZZZY=              0.0001 XXYY=          -1437.1990 XXZZ=          -1061.9302 YYZZ=           -562.3372
 XXYZ=             -0.0002 YYXZ=              0.0001 ZZXY=             25.2025
 N-N= 1.743253074949D+03 E-N=-1.002314368913D+04  KE= 2.754522773881D+03
 Calling FoFJK, ICntrl=      2127 FMM=F ISym2X=0 I1Cent= 0 IOpClX= 0 NMat=1 NMatS=1 NMatT=0.
 ***** Axes restored to original set *****
 -------------------------------------------------------------------
 Center     Atomic                   Forces (Hartrees/Bohr)
 Number     Number              X              Y              Z
 -------------------------------------------------------------------
      1        6          -0.010899804   -0.021175566   -0.000386068
      2        6           0.008939395    0.050243241    0.006491176
      3        6          -0.026573460    0.001515230    0.009039436
      4        6          -0.003793365   -0.003816548    0.000532743
      5        6           0.012505862   -0.019433238   -0.007769800
      6        6           0.038277188    0.035317526   -0.005977855
      7        6           0.022059561    0.039543883    0.000159179
      8        6          -0.004070684   -0.003785896    0.000630193
      9        6           0.000865462   -0.000312890   -0.000343960
     10        6           0.006808172    0.011631713   -0.000058423
     11        6          -0.000807734    0.000512734    0.000362607
     12        6          -0.001692776   -0.005648102   -0.000503157
     13        1           0.003468534    0.051842797    0.008593805
     14        1           0.009083655    0.000827325   -0.002837262
     15        1           0.004485177    0.009066128    0.000225061
     16        1           0.041083727    0.028053684   -0.008266870
     17        1          -0.003909486   -0.006688353    0.000031825
     18       17          -0.082877355   -0.061438144    0.015766230
     19       17           0.007832382   -0.004683744   -0.003460187
     20       17           0.000339126   -0.001728792   -0.000436377
     21       17          -0.007901860    0.004468131    0.003442497
     22       17          -0.013221717   -0.104311118   -0.015234794
 -------------------------------------------------------------------
 Cartesian Forces:  Max     0.104311118 RMS     0.023874347

 GradGradGradGradGradGradGradGradGradGradGradGradGradGradGradGradGradGrad
 Berny optimization.
 FormGI is forming the generalized inverse of G from B-inverse, IUseBI=4.
 Internal  Forces:  Max     0.192433858 RMS     0.049652222
 Search for a local minimum.
 Step number   1 out of a maximum of  121
 All quantities printed in internal units (Hartrees-Bohrs-Radians)
 Mixed Optimization -- RFO/linear search
 Second derivative matrix not updated -- first step.
 ITU=  0
     Eigenvalues ---    0.00237   0.01506   0.01506   0.02070   0.02070
     Eigenvalues ---    0.02070   0.02070   0.02070   0.02070   0.02070
     Eigenvalues ---    0.02070   0.02070   0.02070   0.02070   0.02070
     Eigenvalues ---    0.02070   0.02070   0.02070   0.02070   0.16000
     Eigenvalues ---    0.16000   0.16000   0.16000   0.16000   0.22000
     Eigenvalues ---    0.23478   0.23485   0.23493   0.25000   0.25000
     Eigenvalues ---    0.25000   0.25000   0.25000   0.25000   0.25000
     Eigenvalues ---    0.25000   0.25000   0.28519   0.29539   0.29539
     Eigenvalues ---    0.29539   0.29539   0.29539   0.37230   0.37230
     Eigenvalues ---    0.37230   0.37230   0.37230   0.41364   0.41554
     Eigenvalues ---    0.41635   0.41797   0.45389   0.45389   0.45389
     Eigenvalues ---    0.45389   0.45389   0.45389   0.45389   0.45389
 RFO step:  Lambda=-3.99417608D-01 EMin= 2.36824310D-03
 Linear search not attempted -- first point.
 Maximum step size (   0.300) exceeded in Quadratic search.
    -- Step size scaled by   0.391
 Iteration  1 RMS(Cart)=  0.09904116 RMS(Int)=  0.00387073
 Iteration  2 RMS(Cart)=  0.00441091 RMS(Int)=  0.00015799
 Iteration  3 RMS(Cart)=  0.00000767 RMS(Int)=  0.00015796
 Iteration  4 RMS(Cart)=  0.00000000 RMS(Int)=  0.00015796
 Variable       Old X    -DE/DX   Delta X   Delta X   Delta X     New X
                                 (Linear)    (Quad)   (Total)
    R1        2.64826   0.03411   0.00000   0.01615   0.01629   2.66455
    R2        2.64826   0.03283   0.00000   0.01556   0.01571   2.66398
    R3        2.91018   0.15166   0.00000   0.08663   0.08663   2.99680
    R4        2.64826  -0.00444   0.00000  -0.00204  -0.00204   2.64622
    R5        2.02201  -0.04471   0.00000  -0.02265  -0.02265   1.99935
    R6        2.64826  -0.04090   0.00000  -0.01926  -0.01941   2.62885
    R7        2.02201   0.00953   0.00000   0.00483   0.00483   2.02684
    R8        2.64826  -0.04276   0.00000  -0.02011  -0.02026   2.62800
    R9        2.02201   0.01009   0.00000   0.00511   0.00511   2.02712
   R10        2.64826  -0.00927   0.00000  -0.00424  -0.00424   2.64403
   R11        3.32592  -0.00174   0.00000  -0.00098  -0.00098   3.32494
   R12        2.02201  -0.04222   0.00000  -0.02139  -0.02139   2.00062
   R13        2.64826   0.14209   0.00000   0.06712   0.06743   2.71569
   R14        2.64826   0.14067   0.00000   0.06646   0.06677   2.71503
   R15        2.64826  -0.00262   0.00000  -0.00119  -0.00120   2.64707
   R16        3.32592  -0.01008   0.00000  -0.00568  -0.00568   3.32024
   R17        2.64826  -0.06453   0.00000  -0.03157  -0.03188   2.61638
   R18        3.32592  -0.00833   0.00000  -0.00469  -0.00469   3.32123
   R19        2.64826  -0.06479   0.00000  -0.03170  -0.03201   2.61625
   R20        2.02201   0.00775   0.00000   0.00393   0.00393   2.02593
   R21        2.64826  -0.00310   0.00000  -0.00143  -0.00143   2.64683
   R22        3.32592  -0.00842   0.00000  -0.00474  -0.00474   3.32118
   R23        3.32592  -0.00997   0.00000  -0.00561  -0.00561   3.32030
    A1        2.09440  -0.11160   0.00000  -0.06623  -0.06591   2.02848
    A2        2.09440   0.06054   0.00000   0.03597   0.03582   2.13021
    A3        2.09440   0.05105   0.00000   0.03026   0.03010   2.12449
    A4        2.09440   0.05243   0.00000   0.03337   0.03352   2.12791
    A5        2.09440   0.00192   0.00000   0.00298   0.00291   2.09730
    A6        2.09440  -0.05435   0.00000  -0.03635  -0.03642   2.05797
    A7        2.09440   0.01653   0.00000   0.00925   0.00909   2.10348
    A8        2.09440  -0.00762   0.00000  -0.00418  -0.00410   2.09030
    A9        2.09440  -0.00891   0.00000  -0.00507  -0.00499   2.08940
   A10        2.09440  -0.02912   0.00000  -0.02028  -0.02059   2.07381
   A11        2.09440   0.01532   0.00000   0.01067   0.01083   2.10522
   A12        2.09440   0.01379   0.00000   0.00960   0.00976   2.10415
   A13        2.09440   0.02060   0.00000   0.01130   0.01115   2.10554
   A14        2.09440  -0.00944   0.00000  -0.00513  -0.00506   2.08934
   A15        2.09440  -0.01116   0.00000  -0.00617  -0.00609   2.08830
   A16        2.09440   0.05116   0.00000   0.03259   0.03275   2.12714
   A17        2.09440   0.00231   0.00000   0.00320   0.00312   2.09752
   A18        2.09440  -0.05347   0.00000  -0.03579  -0.03587   2.05852
   A19        2.09440   0.07372   0.00000   0.04165   0.04132   2.13571
   A20        2.09440   0.06534   0.00000   0.03660   0.03627   2.13067
   A21        2.09440  -0.13906   0.00000  -0.07825  -0.07759   2.01681
   A22        2.09440   0.03310   0.00000   0.02274   0.02306   2.11745
   A23        2.09440   0.15933   0.00000   0.09453   0.09437   2.18877
   A24        2.09440  -0.19243   0.00000  -0.11727  -0.11743   1.97697
   A25        2.09440   0.04241   0.00000   0.02297   0.02265   2.11704
   A26        2.09440  -0.01292   0.00000  -0.00649  -0.00633   2.08806
   A27        2.09440  -0.02949   0.00000  -0.01647  -0.01631   2.07808
   A28        2.09440  -0.01255   0.00000  -0.01345  -0.01409   2.08030
   A29        2.09440   0.00627   0.00000   0.00672   0.00704   2.10144
   A30        2.09440   0.00628   0.00000   0.00673   0.00705   2.10144
   A31        2.09440   0.04163   0.00000   0.02246   0.02214   2.11654
   A32        2.09440  -0.02903   0.00000  -0.01618  -0.01602   2.07838
   A33        2.09440  -0.01260   0.00000  -0.00629  -0.00612   2.08827
   A34        2.09440   0.03446   0.00000   0.02352   0.02384   2.11823
   A35        2.09440   0.15553   0.00000   0.09226   0.09210   2.18650
   A36        2.09440  -0.18999   0.00000  -0.11578  -0.11594   1.97846
    D1        0.00000   0.00000   0.00000   0.00000   0.00000   0.00000
    D2        3.14159  -0.00000   0.00000   0.00000   0.00000   3.14159
    D3       -3.14159  -0.00000   0.00000  -0.00000  -0.00000  -3.14159
    D4       -0.00000  -0.00000   0.00000  -0.00000  -0.00000  -0.00000
    D5       -0.00000  -0.00000   0.00000  -0.00000  -0.00000  -0.00000
    D6        3.14159  -0.00000   0.00000  -0.00000  -0.00000   3.14159
    D7        3.14159   0.00000   0.00000   0.00000   0.00000   3.14159
    D8        0.00000  -0.00000   0.00000  -0.00000  -0.00000  -0.00000
    D9       -0.00000  -0.00000   0.00000  -0.00000  -0.00000  -0.00000
   D10        3.14159  -0.00000   0.00000  -0.00000  -0.00000   3.14159
   D11        3.14159  -0.00000   0.00000  -0.00000  -0.00000   3.14159
   D12       -0.00000  -0.00000   0.00000  -0.00000  -0.00000  -0.00000
   D13        0.00000  -0.00000   0.00000  -0.00000  -0.00000   0.00000
   D14        3.14159  -0.00000   0.00000  -0.00000  -0.00000   3.14159
   D15       -3.14159  -0.00000   0.00000  -0.00000  -0.00000  -3.14159
   D16        0.00000  -0.00000   0.00000  -0.00000  -0.00000   0.00000
   D17       -0.00000  -0.00000   0.00000   0.00000   0.00000  -0.00000
   D18        3.14159   0.00000   0.00000   0.00000   0.00000   3.14159
   D19        3.14159  -0.00000   0.00000  -0.00000  -0.00000   3.14159
   D20        0.00000  -0.00000   0.00000  -0.00000  -0.00000   0.00000
   D21        0.00000   0.00000   0.00000   0.00000   0.00000   0.00000
   D22       -3.14159   0.00000   0.00000   0.00000   0.00000  -3.14159
   D23       -3.14159  -0.00000   0.00000  -0.00000  -0.00000  -3.14159
   D24        0.00000   0.00000   0.00000   0.00000   0.00000   0.00000
   D25       -0.00000   0.00000   0.00000   0.00000   0.00000  -0.00000
   D26        3.14159   0.00000   0.00000   0.00000   0.00000   3.14159
   D27        3.14159   0.00000   0.00000  -0.00000  -0.00000   3.14159
   D28       -0.00000   0.00000   0.00000   0.00000   0.00000  -0.00000
   D29        3.14159   0.00000   0.00000   0.00000   0.00000   3.14159
   D30        0.00000   0.00000   0.00000   0.00000   0.00000   0.00000
   D31        0.00000   0.00000   0.00000   0.00000   0.00000   0.00000
   D32       -3.14159  -0.00000   0.00000  -0.00000  -0.00000  -3.14159
   D33       -3.14159  -0.00000   0.00000  -0.00000  -0.00000  -3.14159
   D34        0.00000  -0.00000   0.00000  -0.00000  -0.00000  -0.00000
   D35       -0.00000   0.00000   0.00000   0.00000   0.00000  -0.00000
   D36        3.14159  -0.00000   0.00000  -0.00000  -0.00000   3.14159
   D37       -0.00000  -0.00000   0.00000  -0.00000  -0.00000  -0.00000
   D38        3.14159  -0.00000   0.00000  -0.00000  -0.00000   3.14159
   D39        3.14159   0.00000   0.00000   0.00000   0.00000   3.14159
   D40       -0.00000   0.00000   0.00000   0.00000   0.00000  -0.00000
   D41       -0.00000   0.00000   0.00000   0.00000   0.00000  -0.00000
   D42       -3.14159  -0.00000   0.00000  -0.00000  -0.00000  -3.14159
   D43        3.14159   0.00000   0.00000   0.00000   0.00000   3.14159
   D44        0.00000   0.00000   0.00000   0.00000   0.00000   0.00000
   D45        0.00000   0.00000   0.00000   0.00000   0.00000   0.00000
   D46       -3.14159  -0.00000   0.00000  -0.00000  -0.00000  -3.14159
   D47        3.14159   0.00000   0.00000   0.00000   0.00000   3.14159
   D48        0.00000  -0.00000   0.00000  -0.00000  -0.00000   0.00000
   D49        0.00000  -0.00000   0.00000  -0.00000  -0.00000   0.00000
   D50       -3.14159   0.00000   0.00000   0.00000   0.00000  -3.14159
   D51        3.14159   0.00000   0.00000   0.00000   0.00000   3.14159
   D52       -0.00000   0.00000   0.00000   0.00000   0.00000  -0.00000
         Item               Value     Threshold  Converged?
 Maximum Force            0.192434     0.000450     NO 
 RMS     Force            0.049652     0.000300     NO 
 Maximum Displacement     0.552082     0.001800     NO 
 RMS     Displacement     0.100370     0.001200     NO 
 Predicted change in Energy=-1.435971D-01
 GradGradGradGradGradGradGradGradGradGradGradGradGradGradGradGradGradGrad

                          Input orientation:                          
 ---------------------------------------------------------------------
 Center     Atomic      Atomic             Coordinates (Angstroms)
 Number     Number       Type             X           Y           Z
 ---------------------------------------------------------------------
      1          6           0       -0.707042    1.875640   -0.178242
      2          6           0        0.634411    1.955759   -0.605143
      3          6           0        1.338854    3.165978   -0.609935
      4          6           0        0.726580    4.341502   -0.187443
      5          6           0       -0.596152    4.292591    0.239149
      6          6           0       -1.299616    3.083144    0.243763
      7          6           0       -1.507756    0.506808   -0.171522
      8          6           0       -0.917473   -0.731879   -0.598632
      9          6           0       -1.645246   -1.928654   -0.583628
     10          6           0       -2.961792   -1.964527   -0.156619
     11          6           0       -3.567724   -0.792604    0.263108
     12          6           0       -2.874619    0.424525    0.263349
     13          1           0        1.140191    1.086962   -0.934941
     14          1           0        2.358529    3.187240   -0.941878
     15          1           0        1.264706    5.269461   -0.190451
     16          1           0       -2.304413    3.094907    0.577006
     17          1           0       -3.505393   -2.888548   -0.151064
     18         17           0       -3.840580    1.776113    0.835435
     19         17           0       -5.239019   -0.841473    0.804556
     20         17           0       -1.393506    5.765399    0.778444
     21         17           0       -0.879340   -3.418326   -1.115736
     22         17           0        0.729548   -0.928213   -1.178125
 ---------------------------------------------------------------------
                    Distance matrix (angstroms):
                    1          2          3          4          5
     1  C    0.000000
     2  C    1.410021   0.000000
     3  C    2.457035   1.400319   0.000000
     4  C    2.852338   2.423786   1.391127   0.000000
     5  C    2.455232   2.772705   2.394670   1.390680   0.000000
     6  C    1.409716   2.394180   2.774380   2.423814   1.399159
     7  C    1.585840   2.622282   3.920022   4.438174   3.915587
     8  C    2.649559   3.103512   4.503824   5.348942   5.103961
     9  C    3.939190   4.503995   5.904305   6.715458   6.362503
    10  C    4.453229   5.338772   6.709927   7.305548   6.701075
    11  C    3.936727   5.095616   6.364517   6.708434   5.889824
    12  C    2.645587   3.925844   5.102112   5.339902   4.489313
    13  H    2.146364   1.058012   2.113624   3.364797   3.830069
    14  H    3.420695   2.145348   1.072556   2.136528   3.368495
    15  H    3.925042   3.398508   2.146183   1.072705   2.145139
    16  H    2.146766   3.366277   3.832397   3.365308   2.113469
    17  H    5.525305   6.388387   7.767534   8.377622   7.757881
    18  Cl   3.294921   4.704581   5.554039   5.337270   4.149040
    19  Cl   5.374701   6.656496   7.831275   7.964651   6.945107
    20  Cl   4.064075   4.532120   4.018753   2.730418   1.759482
    21  Cl   5.379094   5.606508   6.966296   7.978448   7.834165
    22  Cl   3.305321   2.941879   4.178097   5.362029   5.569824
                    6          7          8          9         10
     6  C    0.000000
     7  C    2.617879   0.000000
     8  C    3.925565   1.437081   0.000000
     9  C    5.091381   2.473906   1.400768   0.000000
    10  C    5.329363   2.867392   2.427763   1.384528   0.000000
    11  C    4.490669   2.474034   2.787492   2.388199   1.384459
    12  C    3.090190   1.436732   2.431193   2.786787   2.427249
    13  H    3.365523   2.816205   2.766816   4.120197   5.171425
    14  H    3.846896   4.767213   5.119521   6.506222   7.447358
    15  H    3.397686   5.510877   6.398796   7.774012   8.378246
    16  H    1.058681   2.809486   4.236746   5.197859   5.154437
    17  H    6.378280   3.939470   3.398363   2.137441   1.072077
    18  Cl   2.918031   2.840276   4.109881   4.534152   3.968479
    19  Cl   5.588918   4.085697   4.544965   4.003027   2.714935
    20  Cl   2.736638   5.344929   6.658645   7.817740   7.942645
    21  Cl   6.655372   4.085722   2.736028   1.757519   2.714782
    22  Cl   4.714897   2.842193   1.756997   2.644609   3.967797
                   11         12         13         14         15
    11  C    0.000000
    12  C    1.400642   0.000000
    13  H    5.208892   4.241866   0.000000
    14  H    7.239587   6.039123   2.428078   0.000000
    15  H    7.765740   6.388533   4.250067   2.469157   0.000000
    16  H    4.099662   2.748537   4.264168   4.904952   4.249268
    17  H    2.137383   3.397951   6.164463   8.480930   9.450318
    18  Cl   2.645811   1.757030   5.330783   6.601444   6.270555
    19  Cl   1.757494   2.736063   6.887600   8.775152   8.979532
    20  Cl   6.928217   5.566323   5.589551   4.866639   2.872421
    21  Cl   4.002878   4.544284   4.940527   7.358499   8.996150
    22  Cl   4.534544   4.110689   2.070917   4.432419   6.298655
                   16         17         18         19         20
    16  H    0.000000
    17  H    6.146070   0.000000
    18  Cl   2.041032   4.779602   0.000000
    19  Cl   4.915158   2.847664   2.967885   0.000000
    20  Cl   2.828755   8.956274   4.680365   7.644567   0.000000
    21  Cl   6.878838   2.847352   6.289532   5.416133   9.391117
    22  Cl   5.335812   4.778336   5.679249   6.289860   7.289716
                   21         22
    21  Cl   0.000000
    22  Cl   2.965312   0.000000
 Stoichiometry    C12H5Cl5
 Framework group  C1[X(C12H5Cl5)]
 Deg. of freedom    60
 Full point group                 C1      NOp   1
 Largest Abelian subgroup         C1      NOp   1
 Largest concise Abelian subgroup C1      NOp   1
                         Standard orientation:                         
 ---------------------------------------------------------------------
 Center     Atomic      Atomic             Coordinates (Angstroms)
 Number     Number       Type             X           Y           Z
 ---------------------------------------------------------------------
      1          6           0        1.193493   -0.706100   -0.000000
      2          6           0        1.510142   -2.080106    0.000003
      3          6           0        2.834625   -2.534681    0.000006
      4          6           0        3.891870   -1.630542    0.000005
      5          6           0        3.609474   -0.268836   -0.000001
      6          6           0        2.285929    0.184900   -0.000003
      7          6           0       -0.305276   -0.187853   -0.000002
      8          6           0       -1.429036   -1.083602   -0.000002
      9          6           0       -2.744315   -0.601740   -0.000002
     10          6           0       -3.012689    0.756528   -0.000002
     11          6           0       -1.957893    1.653261   -0.000001
     12          6           0       -0.628563    1.212034   -0.000001
     13          1           0        0.738180   -2.803615    0.000006
     14          1           0        3.036017   -3.588159    0.000009
     15          1           0        4.907086   -1.977000    0.000007
     16          1           0        2.119912    1.230483   -0.000006
     17          1           0       -4.024969    1.109569   -0.000001
     18         17           0        0.540705    2.523509    0.000003
     19         17           0       -2.301883    3.376762    0.000004
     20         17           0        4.928743    0.895340   -0.000005
     21         17           0       -4.085866   -1.737131   -0.000003
     22         17           0       -1.332452   -2.837942    0.000002
 ---------------------------------------------------------------------
 Rotational constants (GHZ):           0.3865323           0.1971216           0.1305463
 Standard basis: 6-311+G(d,p) (5D, 7F)
 There are   461 symmetry adapted cartesian basis functions of A   symmetry.
 There are   444 symmetry adapted basis functions of A   symmetry.
   444 basis functions,   737 primitive gaussians,   461 cartesian basis functions
    81 alpha electrons       81 beta electrons
       nuclear repulsion energy      1720.8404748538 Hartrees.
 NAtoms=   22 NActive=   22 NUniq=   22 SFac= 1.00D+00 NAtFMM=   60 NAOKFM=F Big=F
 Integral buffers will be    131072 words long.
 Raffenetti 2 integral format.
 Two-electron integral symmetry is turned on.
 One-electron integrals computed using PRISM.
 NBasis=   444 RedAO= T EigKep=  1.05D-06  NBF=   444
 NBsUse=   439 1.00D-06 EigRej=  4.57D-07 NBFU=   439
 Initial guess from the checkpoint file:  "/scratch/pkc/Gau-79228.chk"
 B after Tr=     0.000000   -0.000000   -0.000000
         Rot=    0.999980    0.000000    0.000000   -0.006288 Ang=  -0.72 deg.
 ExpMin= 4.38D-02 ExpMax= 1.06D+05 ExpMxC= 3.62D+03 IAcc=3 IRadAn=         5 AccDes= 0.00D+00
 Harris functional with IExCor=  402 and IRadAn=       5 diagonalized for initial guess.
 HarFok:  IExCor=  402 AccDes= 0.00D+00 IRadAn=         5 IDoV= 1 UseB2=F ITyADJ=14
 ICtDFT=  3500011 ScaDFX=  1.000000  1.000000  1.000000  1.000000
 FoFCou: FMM=F IPFlag=           0 FMFlag=      100000 FMFlg1=           0
         NFxFlg=           0 DoJE=T BraDBF=F KetDBF=T FulRan=T
         wScrn=  0.000000 ICntrl=       500 IOpCl=  0 I1Cent=   200000004 NGrid=           0
         NMat0=    1 NMatS0=      1 NMatT0=    0 NMatD0=    1 NMtDS0=    0 NMtDT0=    0
 Petite list used in FoFCou.
 Requested convergence on RMS density matrix=1.00D-08 within  32 cycles.
 Requested convergence on MAX density matrix=1.00D-06.
 Requested convergence on             energy=1.00D-06.
 No special actions if energy rises.
 SCF Done:  E(RB3LYP) =  -2761.46932208     A.U. after   15 cycles
            NFock= 15  Conv=0.31D-08     -V/T= 2.0027
 QCSCF skips out because SCF is already converged.
 Calling FoFJK, ICntrl=      2127 FMM=F ISym2X=0 I1Cent= 0 IOpClX= 0 NMat=1 NMatS=1 NMatT=0.
 ***** Axes restored to original set *****
 -------------------------------------------------------------------
 Center     Atomic                   Forces (Hartrees/Bohr)
 Number     Number              X              Y              Z
 -------------------------------------------------------------------
      1        6          -0.009718587   -0.019354709   -0.000433251
      2        6          -0.001744379    0.014934776    0.003379727
      3        6          -0.018008476   -0.004878734    0.005016812
      4        6          -0.001611687   -0.001080592    0.000327822
      5        6           0.003095788   -0.013741907   -0.003600730
      6        6           0.011919342    0.007465336   -0.002524865
      7        6           0.012804245    0.023288671    0.000155558
      8        6          -0.005675759    0.007190482    0.003220450
      9        6           0.003108430   -0.000517046   -0.001121285
     10        6           0.001162363    0.001959990   -0.000014807
     11        6          -0.002146012    0.002435128    0.001164535
     12        6           0.008640747   -0.001581648   -0.003143865
     13        1           0.005919181    0.000506895   -0.001854949
     14        1           0.007030237   -0.000579399   -0.002424948
     15        1           0.003160352    0.006705839    0.000218241
     16        1          -0.001300356    0.006467803    0.001643007
     17        1          -0.003126848   -0.005324988    0.000030030
     18       17          -0.005640234   -0.005887698    0.000752501
     19       17           0.003949528   -0.009249077   -0.003038358
     20       17           0.000087566   -0.002034487   -0.000410908
     21       17          -0.010032693   -0.001169160    0.003085773
     22       17          -0.001872748   -0.005555478   -0.000426490
 -------------------------------------------------------------------
 Cartesian Forces:  Max     0.023288671 RMS     0.006716082

 GradGradGradGradGradGradGradGradGradGradGradGradGradGradGradGradGradGrad
 Berny optimization.
 Using GEDIIS/GDIIS optimizer.
 FormGI is forming the generalized inverse of G from B-inverse, IUseBI=4.
 Internal  Forces:  Max     0.018102819 RMS     0.005948797
 Search for a local minimum.
 Step number   2 out of a maximum of  121
 All quantities printed in internal units (Hartrees-Bohrs-Radians)
 Mixed Optimization -- RFO/linear search
 Update second derivatives using D2CorX and points    1    2
 DE= -7.34D-02 DEPred=-1.44D-01 R= 5.11D-01
 TightC=F SS=  1.41D+00  RLast= 3.00D-01 DXNew= 5.0454D-01 8.9996D-01
 Trust test= 5.11D-01 RLast= 3.00D-01 DXMaxT set to 5.05D-01
 ITU=  1  0
 Use linear search instead of GDIIS.
     Eigenvalues ---    0.00237   0.01461   0.01467   0.02070   0.02070
     Eigenvalues ---    0.02070   0.02070   0.02070   0.02070   0.02070
     Eigenvalues ---    0.02070   0.02070   0.02070   0.02070   0.02070
     Eigenvalues ---    0.02070   0.02070   0.02070   0.02070   0.16000
     Eigenvalues ---    0.16000   0.16000   0.16000   0.16082   0.21999
     Eigenvalues ---    0.23464   0.23481   0.23722   0.24857   0.25000
     Eigenvalues ---    0.25000   0.25000   0.25000   0.25000   0.25000
     Eigenvalues ---    0.25000   0.27924   0.29530   0.29537   0.29539
     Eigenvalues ---    0.29539   0.29539   0.36229   0.37202   0.37230
     Eigenvalues ---    0.37230   0.37230   0.38214   0.41224   0.41674
     Eigenvalues ---    0.41694   0.45068   0.45341   0.45389   0.45389
     Eigenvalues ---    0.45389   0.45389   0.45389   0.45389   1.63928
 RFO step:  Lambda=-1.06249639D-02 EMin= 2.36824310D-03
 Quartic linear search produced a step of  0.16211.
 Iteration  1 RMS(Cart)=  0.05653798 RMS(Int)=  0.00146745
 Iteration  2 RMS(Cart)=  0.00167001 RMS(Int)=  0.00004788
 Iteration  3 RMS(Cart)=  0.00000041 RMS(Int)=  0.00004788
 Variable       Old X    -DE/DX   Delta X   Delta X   Delta X     New X
                                 (Linear)    (Quad)   (Total)
    R1        2.66455   0.00257   0.00264  -0.00049   0.00217   2.66672
    R2        2.66398   0.00228   0.00255  -0.00086   0.00172   2.66569
    R3        2.99680  -0.00541   0.01404  -0.06412  -0.05008   2.94672
    R4        2.64622  -0.00747  -0.00033  -0.01787  -0.01821   2.62801
    R5        1.99935   0.00299  -0.00367   0.01961   0.01594   2.01529
    R6        2.62885  -0.00697  -0.00315  -0.00921  -0.01239   2.61646
    R7        2.02684   0.00742   0.00078   0.02027   0.02106   2.04789
    R8        2.62800  -0.00828  -0.00328  -0.01201  -0.01531   2.61270
    R9        2.02712   0.00739   0.00083   0.02003   0.02086   2.04798
   R10        2.64403  -0.00916  -0.00069  -0.02091  -0.02158   2.62244
   R11        3.32494  -0.00187  -0.00016  -0.00661  -0.00677   3.31817
   R12        2.00062   0.00182  -0.00347   0.01548   0.01201   2.01263
   R13        2.71569   0.00719   0.01093  -0.01061   0.00042   2.71611
   R14        2.71503   0.00967   0.01082  -0.00397   0.00694   2.72197
   R15        2.64707   0.00655  -0.00019   0.01679   0.01660   2.66366
   R16        3.32024  -0.00099  -0.00092  -0.00099  -0.00191   3.31833
   R17        2.61638  -0.01296  -0.00517  -0.01985  -0.02511   2.59126
   R18        3.32123  -0.00432  -0.00076  -0.01408  -0.01484   3.30639
   R19        2.61625  -0.01274  -0.00519  -0.01911  -0.02440   2.59184
   R20        2.02593   0.00618   0.00064   0.01691   0.01754   2.04348
   R21        2.64683   0.00694  -0.00023   0.01813   0.01788   2.66471
   R22        3.32118  -0.00443  -0.00077  -0.01451  -0.01528   3.30590
   R23        3.32030  -0.00118  -0.00091  -0.00174  -0.00265   3.31766
    A1        2.02848  -0.01339  -0.01069  -0.02480  -0.03543   1.99305
    A2        2.13021   0.00410   0.00581  -0.00063   0.00514   2.13535
    A3        2.12449   0.00929   0.00488   0.02544   0.03029   2.15478
    A4        2.12791   0.00581   0.00543   0.01156   0.01700   2.14491
    A5        2.09730   0.00255   0.00047   0.01974   0.02021   2.11751
    A6        2.05797  -0.00836  -0.00590  -0.03130  -0.03721   2.02076
    A7        2.10348   0.00451   0.00147   0.01642   0.01784   2.12132
    A8        2.09030  -0.00301  -0.00066  -0.01357  -0.01421   2.07609
    A9        2.08940  -0.00151  -0.00081  -0.00285  -0.00363   2.08577
   A10        2.07381  -0.00838  -0.00334  -0.03325  -0.03664   2.03717
   A11        2.10522   0.00487   0.00176   0.02095   0.02274   2.12796
   A12        2.10415   0.00351   0.00158   0.01230   0.01391   2.11806
   A13        2.10554   0.00750   0.00181   0.02692   0.02873   2.13427
   A14        2.08934  -0.00224  -0.00082  -0.00701  -0.00782   2.08151
   A15        2.08830  -0.00526  -0.00099  -0.01992  -0.02090   2.06740
   A16        2.12714   0.00394   0.00531   0.00315   0.00851   2.13565
   A17        2.09752   0.00458   0.00051   0.03151   0.03199   2.12951
   A18        2.05852  -0.00852  -0.00581  -0.03466  -0.04050   2.01802
   A19        2.13571   0.00242   0.00670  -0.01341  -0.00682   2.12889
   A20        2.13067   0.01343   0.00588   0.03826   0.04403   2.17470
   A21        2.01681  -0.01585  -0.01258  -0.02484  -0.03721   1.97960
   A22        2.11745   0.00561   0.00374   0.01599   0.01984   2.13729
   A23        2.18877   0.00681   0.01530  -0.01940  -0.00416   2.18461
   A24        1.97697  -0.01242  -0.01904   0.00341  -0.01568   1.96129
   A25        2.11704   0.00384   0.00367   0.00259   0.00616   2.12321
   A26        2.08806   0.01409  -0.00103   0.06750   0.06652   2.15459
   A27        2.07808  -0.01793  -0.00264  -0.07009  -0.07269   2.00539
   A28        2.08030  -0.00227  -0.00228  -0.01010  -0.01259   2.06771
   A29        2.10144   0.00113   0.00114   0.00502   0.00626   2.10770
   A30        2.10144   0.00114   0.00114   0.00508   0.00633   2.10777
   A31        2.11654   0.00458   0.00359   0.00681   0.01028   2.12682
   A32        2.07838  -0.01810  -0.00260  -0.07136  -0.07389   2.00448
   A33        2.08827   0.01353  -0.00099   0.06455   0.06361   2.15188
   A34        2.11823   0.00410   0.00386   0.00956   0.01351   2.13174
   A35        2.18650   0.01140   0.01493   0.00186   0.01674   2.20324
   A36        1.97846  -0.01550  -0.01879  -0.01142  -0.03026   1.94820
    D1        0.00000  -0.00000   0.00000  -0.00000  -0.00000   0.00000
    D2        3.14159   0.00000   0.00000   0.00000   0.00000  -3.14159
    D3       -3.14159  -0.00000  -0.00000  -0.00000  -0.00000   3.14159
    D4       -0.00000  -0.00000  -0.00000   0.00000   0.00000  -0.00000
    D5       -0.00000   0.00000  -0.00000   0.00000   0.00000  -0.00000
    D6        3.14159  -0.00000  -0.00000  -0.00000  -0.00000   3.14159
    D7        3.14159   0.00000   0.00000   0.00000   0.00000  -3.14159
    D8       -0.00000  -0.00000  -0.00000  -0.00000  -0.00000  -0.00000
    D9       -0.00000  -0.00000  -0.00000  -0.00001  -0.00001  -0.00002
   D10        3.14159  -0.00000  -0.00000  -0.00001  -0.00001   3.14158
   D11        3.14159  -0.00000  -0.00000  -0.00001  -0.00002   3.14158
   D12       -0.00000  -0.00000  -0.00000  -0.00001  -0.00001  -0.00002
   D13        0.00000  -0.00000  -0.00000  -0.00000  -0.00000  -0.00000
   D14        3.14159   0.00000  -0.00000   0.00000   0.00000   3.14159
   D15       -3.14159  -0.00000  -0.00000  -0.00000  -0.00000  -3.14159
   D16        0.00000  -0.00000  -0.00000  -0.00000  -0.00000   0.00000
   D17       -0.00000   0.00000   0.00000   0.00000   0.00000  -0.00000
   D18        3.14159   0.00000   0.00000   0.00000   0.00000   3.14159
   D19        3.14159   0.00000  -0.00000   0.00000   0.00000   3.14159
   D20        0.00000  -0.00000  -0.00000  -0.00000  -0.00000  -0.00000
   D21        0.00000  -0.00000   0.00000  -0.00000  -0.00000   0.00000
   D22       -3.14159  -0.00000   0.00000  -0.00000  -0.00000  -3.14159
   D23       -3.14159  -0.00000  -0.00000  -0.00000  -0.00000  -3.14159
   D24        0.00000   0.00000   0.00000   0.00000   0.00000   0.00000
   D25       -0.00000   0.00000   0.00000   0.00000   0.00000  -0.00000
   D26        3.14159   0.00000   0.00000   0.00000   0.00000  -3.14159
   D27        3.14159   0.00000  -0.00000   0.00000   0.00000   3.14159
   D28       -0.00000   0.00000   0.00000   0.00000   0.00000   0.00000
   D29        3.14159   0.00000   0.00000   0.00000   0.00000  -3.14159
   D30        0.00000  -0.00000   0.00000  -0.00000  -0.00000   0.00000
   D31        0.00000   0.00000   0.00000   0.00000   0.00000   0.00000
   D32       -3.14159  -0.00000  -0.00000  -0.00000  -0.00000   3.14159
   D33       -3.14159  -0.00000  -0.00000  -0.00000  -0.00000   3.14159
   D34       -0.00000  -0.00000  -0.00000  -0.00000  -0.00000  -0.00000
   D35       -0.00000  -0.00000   0.00000   0.00000   0.00000  -0.00000
   D36        3.14159  -0.00000  -0.00000   0.00000   0.00000   3.14159
   D37       -0.00000  -0.00000  -0.00000  -0.00000  -0.00000  -0.00000
   D38        3.14159  -0.00000  -0.00000  -0.00000  -0.00000   3.14159
   D39        3.14159   0.00000   0.00000   0.00000   0.00000  -3.14159
   D40       -0.00000   0.00000   0.00000   0.00000   0.00000  -0.00000
   D41       -0.00000  -0.00000   0.00000   0.00000   0.00000   0.00000
   D42       -3.14159  -0.00000  -0.00000  -0.00000  -0.00000  -3.14159
   D43        3.14159   0.00000   0.00000   0.00000   0.00000  -3.14159
   D44        0.00000  -0.00000   0.00000  -0.00000  -0.00000   0.00000
   D45        0.00000   0.00000   0.00000   0.00000   0.00000   0.00000
   D46       -3.14159  -0.00000  -0.00000  -0.00000  -0.00000  -3.14159
   D47        3.14159   0.00000   0.00000   0.00000   0.00000  -3.14159
   D48        0.00000  -0.00000  -0.00000  -0.00000  -0.00000   0.00000
   D49        0.00000  -0.00000  -0.00000  -0.00000  -0.00000  -0.00000
   D50       -3.14159  -0.00000   0.00000  -0.00000  -0.00000  -3.14159
   D51        3.14159   0.00000   0.00000   0.00000   0.00000   3.14159
   D52       -0.00000   0.00000   0.00000   0.00000   0.00000   0.00000
         Item               Value     Threshold  Converged?
 Maximum Force            0.018103     0.000450     NO 
 RMS     Force            0.005949     0.000300     NO 
 Maximum Displacement     0.346982     0.001800     NO 
 RMS     Displacement     0.056375     0.001200     NO 
 Predicted change in Energy=-4.832531D-03
 GradGradGradGradGradGradGradGradGradGradGradGradGradGradGradGradGradGrad

                          Input orientation:                          
 ---------------------------------------------------------------------
 Center     Atomic      Atomic             Coordinates (Angstroms)
 Number     Number       Type             X           Y           Z
 ---------------------------------------------------------------------
      1          6           0       -0.730584    1.890520   -0.167688
      2          6           0        0.611962    1.968559   -0.595331
      3          6           0        1.332259    3.158085   -0.609235
      4          6           0        0.765751    4.352736   -0.198241
      5          6           0       -0.549285    4.303762    0.225796
      6          6           0       -1.278629    3.123284    0.244380
      7          6           0       -1.526311    0.549531   -0.157380
[...]
                 (A) (A) (A) (A) (A) (A) (A) (A) (A) (A) (A) (A)
                 (A) (A) (A) (A) (A) (A) (A) (A) (A) (A) (A) (A)
                 (A) (A) (A) (A) (A) (A) (A) (A) (A) (A) (A) (A)
                 (A) (A) (A) (A) (A) (A) (A) (A) (A) (A) (A) (A)
                 (A) (A) (A) (A) (A) (A) (A) (A) (A) (A) (A) (A)
                 (A) (A) (A) (A) (A) (A) (A) (A) (A) (A) (A) (A)
 The electronic state is 1-A.
 Alpha  occ. eigenvalues -- -101.57871-101.57870-101.57658-101.57657-101.56251
 Alpha  occ. eigenvalues --  -10.27681 -10.27679 -10.27556 -10.27556 -10.25337
 Alpha  occ. eigenvalues --  -10.24061 -10.22563 -10.21890 -10.20450 -10.20245
 Alpha  occ. eigenvalues --  -10.20168 -10.19969  -9.49328  -9.49327  -9.49129
 Alpha  occ. eigenvalues --   -9.49129  -9.47708  -7.25819  -7.25818  -7.25620
 Alpha  occ. eigenvalues --   -7.25620  -7.24805  -7.24804  -7.24745  -7.24745
 Alpha  occ. eigenvalues --   -7.24613  -7.24613  -7.24534  -7.24533  -7.24169
 Alpha  occ. eigenvalues --   -7.23191  -7.23156  -0.95843  -0.91983  -0.91131
 Alpha  occ. eigenvalues --   -0.89139  -0.87660  -0.85658  -0.83992  -0.80013
 Alpha  occ. eigenvalues --   -0.76357  -0.75036  -0.74161  -0.67405  -0.63183
 Alpha  occ. eigenvalues --   -0.62282  -0.60995  -0.54783  -0.54729  -0.53166
 Alpha  occ. eigenvalues --   -0.49966  -0.49538  -0.47815  -0.46899  -0.45930
 Alpha  occ. eigenvalues --   -0.45563  -0.44880  -0.43086  -0.42903  -0.41010
 Alpha  occ. eigenvalues --   -0.40770  -0.38683  -0.38612  -0.37353  -0.36154
 Alpha  occ. eigenvalues --   -0.35447  -0.35171  -0.34443  -0.33153  -0.32922
 Alpha  occ. eigenvalues --   -0.32589  -0.32586  -0.28202  -0.28045  -0.26546
 Alpha  occ. eigenvalues --   -0.26392
 Alpha virt. eigenvalues --   -0.06119  -0.05785  -0.04359  -0.04120  -0.03636
 Alpha virt. eigenvalues --   -0.00805  -0.00789   0.00247   0.00778   0.01434
 Alpha virt. eigenvalues --    0.01941   0.02535   0.02671   0.03026   0.04268
 Alpha virt. eigenvalues --    0.04368   0.04733   0.05583   0.05894   0.06446
 Alpha virt. eigenvalues --    0.06573   0.07336   0.07855   0.07965   0.08084
 Alpha virt. eigenvalues --    0.08357   0.09264   0.09658   0.10210   0.10622
 Alpha virt. eigenvalues --    0.10836   0.10930   0.11352   0.11728   0.12110
 Alpha virt. eigenvalues --    0.12714   0.12808   0.13203   0.13532   0.14217
 Alpha virt. eigenvalues --    0.14450   0.14797   0.14862   0.15231   0.15332
 Alpha virt. eigenvalues --    0.16010   0.16214   0.16541   0.17256   0.18340
 Alpha virt. eigenvalues --    0.18569   0.18873   0.19461   0.19616   0.19748
 Alpha virt. eigenvalues --    0.20144   0.20383   0.20680   0.20853   0.20964
 Alpha virt. eigenvalues --    0.21592   0.21768   0.22191   0.22260   0.22428
 Alpha virt. eigenvalues --    0.23608   0.23728   0.24342   0.24459   0.25298
 Alpha virt. eigenvalues --    0.25490   0.25841   0.26287   0.26417   0.27069
 Alpha virt. eigenvalues --    0.28259   0.28511   0.28583   0.28946   0.29086
 Alpha virt. eigenvalues --    0.29421   0.29823   0.30277   0.31075   0.31338
 Alpha virt. eigenvalues --    0.32507   0.32756   0.33897   0.34575   0.36681
 Alpha virt. eigenvalues --    0.39861   0.42419   0.42890   0.43454   0.43980
 Alpha virt. eigenvalues --    0.44447   0.44742   0.45722   0.45821   0.46506
 Alpha virt. eigenvalues --    0.46845   0.46900   0.48089   0.48215   0.48799
 Alpha virt. eigenvalues --    0.49929   0.51662   0.51851   0.52568   0.53219
 Alpha virt. eigenvalues --    0.54193   0.55028   0.56337   0.56613   0.57806
 Alpha virt. eigenvalues --    0.58109   0.58279   0.58797   0.59702   0.60109
 Alpha virt. eigenvalues --    0.60227   0.61416   0.61607   0.62559   0.64087
 Alpha virt. eigenvalues --    0.64188   0.65555   0.65921   0.66007   0.67439
 Alpha virt. eigenvalues --    0.68895   0.69159   0.69546   0.69697   0.70219
 Alpha virt. eigenvalues --    0.70463   0.71939   0.74594   0.75901   0.78232
 Alpha virt. eigenvalues --    0.79700   0.80335   0.81578   0.83064   0.83079
 Alpha virt. eigenvalues --    0.83448   0.83713   0.83789   0.84162   0.84376
 Alpha virt. eigenvalues --    0.85021   0.85292   0.85566   0.85652   0.86207
 Alpha virt. eigenvalues --    0.86532   0.87169   0.87527   0.87689   0.88287
 Alpha virt. eigenvalues --    0.89185   0.89914   0.92684   0.92852   0.93814
 Alpha virt. eigenvalues --    0.94617   0.95007   0.95012   0.95518   0.96007
 Alpha virt. eigenvalues --    0.96255   0.97546   0.97739   0.98414   0.99386
 Alpha virt. eigenvalues --    0.99482   1.00372   1.02779   1.03331   1.04561
 Alpha virt. eigenvalues --    1.06024   1.06898   1.09964   1.10975   1.11886
 Alpha virt. eigenvalues --    1.15602   1.17053   1.18216   1.19505   1.22173
 Alpha virt. eigenvalues --    1.23711   1.24011   1.25680   1.27595   1.28131
 Alpha virt. eigenvalues --    1.28454   1.29004   1.29445   1.29922   1.33681
 Alpha virt. eigenvalues --    1.36468   1.38685   1.38863   1.43199   1.43206
 Alpha virt. eigenvalues --    1.47836   1.49006   1.50554   1.54663   1.55108
 Alpha virt. eigenvalues --    1.56394   1.57882   1.58192   1.59421   1.60798
 Alpha virt. eigenvalues --    1.61771   1.65548   1.68007   1.68014   1.69744
 Alpha virt. eigenvalues --    1.72796   1.73607   1.74774   1.74918   1.75682
 Alpha virt. eigenvalues --    1.80042   1.82328   1.82598   1.84345   1.87167
 Alpha virt. eigenvalues --    1.88990   1.90091   1.91869   1.93650   1.94240
 Alpha virt. eigenvalues --    1.96092   1.98148   1.98684   1.99433   2.01133
 Alpha virt. eigenvalues --    2.03243   2.03726   2.03896   2.10227   2.11957
 Alpha virt. eigenvalues --    2.12135   2.18599   2.18653   2.23210   2.23435
 Alpha virt. eigenvalues --    2.25256   2.25446   2.27729   2.27875   2.28486
 Alpha virt. eigenvalues --    2.30975   2.34257   2.35675   2.36295   2.38082
 Alpha virt. eigenvalues --    2.38928   2.39630   2.41607   2.42714   2.46436
 Alpha virt. eigenvalues --    2.46872   2.50702   2.51727   2.53188   2.53372
 Alpha virt. eigenvalues --    2.54953   2.57779   2.58829   2.61229   2.64627
 Alpha virt. eigenvalues --    2.64861   2.67067   2.68689   2.69372   2.71172
 Alpha virt. eigenvalues --    2.73351   2.73973   2.74005   2.74417   2.75565
 Alpha virt. eigenvalues --    2.78370   2.79930   2.83068   2.83466   2.85117
 Alpha virt. eigenvalues --    2.85156   2.88271   2.90628   2.97036   2.99640
 Alpha virt. eigenvalues --    3.05722   3.08453   3.09481   3.12107   3.12719
 Alpha virt. eigenvalues --    3.15467   3.19020   3.21837   3.25148   3.27913
 Alpha virt. eigenvalues --    3.34005   3.36212   3.38172   3.51014   3.51808
 Alpha virt. eigenvalues --    3.57961   3.59589   3.74726   3.78128   3.78570
 Alpha virt. eigenvalues --    3.89396   3.98576   4.01112   4.10489   4.13223
 Alpha virt. eigenvalues --    4.33282   4.80291   4.82840   9.75909   9.78188
 Alpha virt. eigenvalues --    9.78420   9.81137   9.84047  23.34646  23.59746
 Alpha virt. eigenvalues --   23.78730  23.85920  23.90030  23.92571  23.93541
 Alpha virt. eigenvalues --   23.99901  24.05031  24.07010  24.09603  24.16872
 Alpha virt. eigenvalues --   25.79008  25.80254  25.83014  25.87731  25.93209
 Alpha virt. eigenvalues --   26.11207  26.12988  26.15125  26.23465  26.35197
 Alpha virt. eigenvalues --   26.52376  26.57300  26.63537  26.75194  26.96564
 Alpha virt. eigenvalues --  215.75087 215.77587 215.77688 215.81071 215.84729
          Condensed to atoms (all electrons):
               1          2          3          4          5          6
     1  C   19.051256  -1.557460  -2.099037  -1.243025  -5.328609   5.168994
     2  C   -1.557460  20.535194  -2.169581   2.206366  -0.963675  -9.237285
     3  C   -2.099037  -2.169581  13.081350  -1.537670   1.089342  -4.022190
     4  C   -1.243025   2.206366  -1.537670  19.848766  -1.565551 -10.498992
     5  C   -5.328609  -0.963675   1.089342  -1.565551  26.733498 -17.867309
     6  C    5.168994  -9.237285  -4.022190 -10.498992 -17.867309  54.174081
     7  C    0.686530   0.648347   1.173115  -0.825426   4.978063  -9.636765
     8  C   -1.144779  -1.208518  -0.016950   0.104911  -0.147600  -0.907090
     9  C   -3.113872  -0.762550   0.140163  -0.016308  -0.357454   0.089637
    10  C    0.281158   0.193795  -0.158299   0.130435  -0.639801   1.269763
    11  C   -3.165871  -0.763240   0.141477  -0.018248  -0.351862   0.083829
    12  C   -1.063611  -1.207213  -0.019244   0.107738  -0.154222  -0.902588
    13  H    0.049990   0.232846  -0.047946  -0.007737  -0.022519   0.033650
    14  H    0.029495   0.025430   0.330997   0.015250  -0.023092  -0.037723
    15  H    0.042011  -0.060035  -0.021023   0.290936   0.049170   0.042442
    16  H    0.040830   0.027049  -0.015196   0.054209   0.032222   0.058573
    17  H    0.014695  -0.000150   0.000002  -0.000017   0.000078  -0.000591
    18  Cl  -0.318177   0.284262   0.226326  -0.161937   0.652191  -0.823125
    19  Cl  -0.077387  -0.019235   0.005405  -0.003099   0.016052  -0.035312
    20  Cl  -0.334125   0.207017   0.160827  -0.198964  -1.410125   1.031040
    21  Cl  -0.076960  -0.019187   0.005412  -0.003105   0.016133  -0.035495
    22  Cl  -0.325538   0.283015   0.226590  -0.162088   0.645503  -0.812326
               7          8          9         10         11         12
     1  C    0.686530  -1.144779  -3.113872   0.281158  -3.165871  -1.063611
     2  C    0.648347  -1.208518  -0.762550   0.193795  -0.763240  -1.207213
     3  C    1.173115  -0.016950   0.140163  -0.158299   0.141477  -0.019244
     4  C   -0.825426   0.104911  -0.016308   0.130435  -0.018248   0.107738
     5  C    4.978063  -0.147600  -0.357454  -0.639801  -0.351862  -0.154222
     6  C   -9.636765  -0.907090   0.089637   1.269763   0.083829  -0.902588
     7  C   17.573627  -2.460024  -3.257919   3.310713  -3.264283  -2.440267
     8  C   -2.460024  42.989450 -13.337122 -10.320889   9.234885 -15.710543
     9  C   -3.257919 -13.337122  26.868873  -0.100561  -8.860480   9.214261
    10  C    3.310713 -10.320889  -0.100561  23.247387  -0.093232 -10.320052
    11  C   -3.264283   9.234885  -8.860480  -0.093232  26.897640 -13.346626
    12  C   -2.440267 -15.710543   9.214261 -10.320052 -13.346626  42.946171
    13  H   -0.001378   0.051196   0.011179  -0.000261   0.011321   0.050858
    14  H    0.003229   0.002595  -0.000001   0.000130  -0.000001   0.002596
    15  H    0.009516   0.001346   0.000171  -0.000001   0.000171   0.001346
    16  H    0.077923   0.046789   0.004638   0.000335   0.004462   0.047211
    17  H    0.042612   0.112166  -0.003432   0.073501  -0.003809   0.112378
    18  Cl   0.121705  -1.185520   0.925375   0.185631  -1.263307   0.047147
    19  Cl  -0.401243   0.464173  -0.287857  -0.308199  -0.267581   0.329013
    20  Cl  -0.119819  -0.056099  -0.008132  -0.005956  -0.008128  -0.056180
    21  Cl  -0.400140   0.330781  -0.269288  -0.309421  -0.287784   0.463432
    22  Cl   0.115898   0.062485  -1.265847   0.186902   0.929673  -1.191490
              13         14         15         16         17         18
     1  C    0.049990   0.029495   0.042011   0.040830   0.014695  -0.318177
     2  C    0.232846   0.025430  -0.060035   0.027049  -0.000150   0.284262
     3  C   -0.047946   0.330997  -0.021023  -0.015196   0.000002   0.226326
     4  C   -0.007737   0.015250   0.290936   0.054209  -0.000017  -0.161937
     5  C   -0.022519  -0.023092   0.049170   0.032222   0.000078   0.652191
     6  C    0.033650  -0.037723   0.042442   0.058573  -0.000591  -0.823125
     7  C   -0.001378   0.003229   0.009516   0.077923   0.042612   0.121705
     8  C    0.051196   0.002595   0.001346   0.046789   0.112166  -1.185520
     9  C    0.011179  -0.000001   0.000171   0.004638  -0.003432   0.925375
    10  C   -0.000261   0.000130  -0.000001   0.000335   0.073501   0.185631
    11  C    0.011321  -0.000001   0.000171   0.004462  -0.003809  -1.263307
    12  C    0.050858   0.002596   0.001346   0.047211   0.112378   0.047147
    13  H    0.537244  -0.007095  -0.000170   0.000001  -0.000001  -0.007785
    14  H   -0.007095   0.529910  -0.007826   0.000062  -0.000000  -0.001013
    15  H   -0.000170  -0.007826   0.510752  -0.000248  -0.000000  -0.000215
    16  H    0.000001   0.000062  -0.000248   0.515449  -0.000001  -0.005891
    17  H   -0.000001  -0.000000  -0.000000  -0.000001   0.488704  -0.000732
    18  Cl  -0.007785  -0.001013  -0.000215  -0.005891  -0.000732  18.081095
    19  Cl   0.000181   0.000000   0.000001   0.000156  -0.003912  -0.239043
    20  Cl  -0.000514   0.000529  -0.008861  -0.018271  -0.000000   0.001349
    21  Cl   0.000182   0.000000   0.000001   0.000156  -0.003892   0.007941
    22  Cl  -0.007691  -0.001007  -0.000212  -0.005897  -0.000745  -0.117153
              19         20         21         22
     1  C   -0.077387  -0.334125  -0.076960  -0.325538
     2  C   -0.019235   0.207017  -0.019187   0.283015
     3  C    0.005405   0.160827   0.005412   0.226590
     4  C   -0.003099  -0.198964  -0.003105  -0.162088
     5  C    0.016052  -1.410125   0.016133   0.645503
     6  C   -0.035312   1.031040  -0.035495  -0.812326
     7  C   -0.401243  -0.119819  -0.400140   0.115898
     8  C    0.464173  -0.056099   0.330781   0.062485
     9  C   -0.287857  -0.008132  -0.269288  -1.265847
    10  C   -0.308199  -0.005956  -0.309421   0.186902
    11  C   -0.267581  -0.008128  -0.287784   0.929673
    12  C    0.329013  -0.056180   0.463432  -1.191490
    13  H    0.000181  -0.000514   0.000182  -0.007691
    14  H    0.000000   0.000529   0.000000  -0.001007
    15  H    0.000001  -0.008861   0.000001  -0.000212
    16  H    0.000156  -0.018271   0.000156  -0.005897
    17  H   -0.003912  -0.000000  -0.003892  -0.000745
    18  Cl  -0.239043   0.001349   0.007941  -0.117153
    19  Cl  17.365625   0.000130  -0.032578   0.007932
    20  Cl   0.000130  17.406029   0.000128   0.001382
    21  Cl  -0.032578   0.000128  17.365610  -0.238896
    22  Cl   0.007932   0.001382  -0.238896  18.079175
 Mulliken charges:
               1
     1  C    0.483492
     2  C   -0.675193
     3  C   -0.473870
     4  C   -0.516444
     5  C    0.619568
     6  C   -1.135216
     7  C    0.065987
     8  C   -0.905643
     9  C    0.386527
    10  C   -0.623078
    11  C    0.390992
    12  C   -0.910116
    13  H    0.124449
    14  H    0.137535
    15  H    0.150729
    16  H    0.135439
    17  H    0.173144
    18  Cl   0.590875
    19  Cl   0.486777
    20  Cl   0.416744
    21  Cl   0.486970
    22  Cl   0.590333
 Sum of Mulliken charges =  -0.00000
 Mulliken charges with hydrogens summed into heavy atoms:
               1
     1  C    0.483492
     2  C   -0.550744
     3  C   -0.336336
     4  C   -0.365715
     5  C    0.619568
     6  C   -0.999777
     7  C    0.065987
     8  C   -0.905643
     9  C    0.386527
    10  C   -0.449934
    11  C    0.390992
    12  C   -0.910116
    18  Cl   0.590875
    19  Cl   0.486777
    20  Cl   0.416744
    21  Cl   0.486970
    22  Cl   0.590333
 Electronic spatial extent (au):  <R**2>=           6883.5028
 Charge=             -0.0000 electrons
 Dipole moment (field-independent basis, Debye):
    X=             -0.3605    Y=             -0.0018    Z=              1.4750  Tot=              1.5184
 Quadrupole moment (field-independent basis, Debye-Ang):
   XX=           -129.1369   YY=           -138.6618   ZZ=           -127.9743
   XY=             -0.0200   XZ=              7.2503   YZ=             -0.0199
 Traceless Quadrupole moment (field-independent basis, Debye-Ang):
   XX=              2.7874   YY=             -6.7375   ZZ=              3.9501
   XY=             -0.0200   XZ=              7.2503   YZ=             -0.0199
 Octapole moment (field-independent basis, Debye-Ang**2):
  XXX=            -24.5495  YYY=              0.0277  ZZZ=              5.3712  XYY=             -2.5825
  XXY=             -0.0023  XXZ=             22.8971  XZZ=              9.7163  YZZ=             -0.0318
  YYZ=             -5.1297  XYZ=             -0.0407
 Hexadecapole moment (field-independent basis, Debye-Ang**3):
 XXXX=          -5649.9065 YYYY=          -2488.8659 ZZZZ=           -712.2969 XXXY=             -0.2119
 XXXZ=            122.6678 YYYX=              0.2476 YYYZ=              0.1302 ZZZX=              3.5695
 ZZZY=             -0.1398 XXYY=          -1411.9532 XXZZ=          -1061.0961 YYZZ=           -571.4646
 XXYZ=             -0.1804 YYXZ=             -7.7745 ZZXY=             -0.0465
 N-N= 1.731661112272D+03 E-N=-1.000003821806D+04  KE= 2.754116955629D+03
 1\1\GINC-DAMODAR\FOpt\RB3LYP\6-311+G(d,p)\C12H5Cl5\PKC\16-Mar-2022\0\\
 # opt b3lyp/6-311+g(d,p) scf=xqc\\Title Card Required\\0,1\C,-0.735279
 5441,1.8228397376,-0.1282458184\C,0.5138711656,1.8811477817,0.49326812
 13\C,1.2187197633,3.081345184,0.5285739785\C,0.690130473,4.2317393649,
 -0.0519470673\C,-0.5551334978,4.1596773136,-0.6677064963\C,-1.27449792
 18,2.9708964716,-0.713409604\C,-1.5005914343,0.538853881,-0.1711665416
 \C,-1.3326300727,-0.3605321696,-1.2363396044\C,-2.0495660376,-1.561541
 5943,-1.2707940111\C,-2.9358335744,-1.8734962312,-0.2484607934\C,-3.11
 44573702,-0.9946976765,0.8116739533\C,-2.4013486561,0.2081988831,0.854
 1425826\H,0.9321280879,0.9907497407,0.9473570787\H,2.1880009473,3.1243
 653016,1.0114896004\H,1.2319801008,5.1683738364,-0.0286991\H,-2.241983
 3751,2.9403091096,-1.1980611762\H,-3.488494085,-2.8021244132,-0.278242
 2228\Cl,-2.6268128302,1.3115072671,2.1852101399\Cl,-4.2408768279,-1.43
 67720013,2.0677118559\Cl,-1.2381071466,5.6018567897,-1.4056926904\Cl,-
 1.8649419439,-2.7014814874,-2.5777697052\Cl,-0.2211304702,0.030592441,
 -2.5214412698\\Version=EM64L-G16RevB.01\State=1-A\HF=-2761.5137452\RMS
 D=2.580e-09\RMSF=3.510e-05\Dipole=0.4215815,-0.3016273,0.2969386\Quadr
 upole=4.5288637,-1.1742148,-3.3546489,4.0240858,3.7779202,1.0125665\PG
 =C01 [X(C12H5Cl5)]\\@


 "THE ACADEMIC HIERARCHY"


 THE PRESIDENT:
   LEAPS TALL BUILDINGS IN A SINGLE BOUND,
     IS MORE POWERFUL THAN A LOCOMOTIVE,
       IS FASTER THAN A SPEEDING BULLET,
         WALKS ON WATER,
           GIVES POLICY TO GOD.

 THE VICE PRESIDENT FOR ACADEMIC AFFAIRS:
   LEAPS SHORT BUILDINGS IN A SINGLE BOUND,
     IS MORE POWERFUL THAN A SWITCH ENGINE,
       IS JUST AS FAST AS A SPEEDING BULLET,
         WALKS ON WATER IF SEA IS CALM,
           TALKS WITH GOD.

 PROFESSOR:
   LEAPS SHORT BUILDINGS WITH A RUNNING START AND FAVORABLE WINDS,
     IS ALMOST AS POWERFUL AS A SWITCH ENGINE,
       CAN FIRE A SPEEDING BULLET,
         WALKS ON WATER IN AN INDOOR SWIMMING POOL,
          TALKS WITH GOD IF SPECIAL REQUEST IS APPROVED.

 ASSOCIATE PROFESSOR:
   BARELY CLEARS A QUONSET HUT,
     LOSES TUG OF WAR WITH LOCOMOTIVE,
       MISFIRES FREQUENTLY,
         SWIMS WELL,
           IS OCCASIONALLY ADDRESSED BY GOD.

 ASSISTANT PROFESSOR:
   MAKES HIGH MARKS ON WALLS WHEN TRYING TO LEAP TALL BUILDINGS,
     IS RUN OVER BY LOCOMOTIVES,
       CAN SOMETIMES HANDLE A GUN WITHOUT INFLICTING SELF INJURY,
         DOG PADDLES,
           TALKS TO ANIMALS.

 GRADUATE STUDENT:
   RUNS INTO BUILDINGS,
     RECOGNIZES LOCOMOTIVES TWO OUT OF THREE TIMES,
       IS NOT ISSUED AMMUNITION,
         CAN STAY AFLOAT WITH A LIFE JACKET,
           TALKS TO WALLS.

 UNDERGRADUATE AND WORK STUDY STUDENT:
   FALLS OVER DOORSTEP WHEN TRYING TO ENTER BUILDINGS,
     SAYS, "LOOK AT THE CHOO-CHOO,"
       WETS HIMSELF WITH A WATER PISTOL,
        PLAYS IN MUD PUDDLES,
          MUMBLES TO HIMSELF.

 DEPARTMENT SECRETARY:
   LIFTS TALL BUILDINGS AND WALKS UNDER THEM,
     KICKS LOCOMOTIVES OFF THE TRACKS,
       CATCHES SPEEDING BULLETS IN HER TEETH AND EATS THEM,
         FREEZES WATER WITH A SINGLE GLANCE,
           IS GOD.
 Job cpu time:       0 days 15 hours 45 minutes 54.8 seconds.
 Elapsed time:       0 days  3 hours 57 minutes  9.9 seconds.
 File lengths (MBytes):  RWF=    133 Int=      0 D2E=      0 Chk=     20 Scr=      1
 Normal termination of Gaussian 16 at Wed Mar 16 20:02:44 2022.
