 Entering Gaussian System, Link 0=g16
 Input=2,3,3prime,4,5,5prime,6-Heptachlorobiphenyl.gjf
 Output=2,3,3prime,4,5,5prime,6-Heptachlorobiphenyl.log
 Initial command:
 /home/apps/g16/l1.exe "./Gau-316592.inp" -scrdir="./"
 Entering Link 1 = /home/apps/g16/l1.exe PID=    316593.
  
 Copyright (c) 1988-2017, Gaussian, Inc.  All Rights Reserved.
  
 This is part of the Gaussian(R) 16 program.  It is based on
 the Gaussian(R) 09 system (copyright 2009, Gaussian, Inc.),
 the Gaussian(R) 03 system (copyright 2003, Gaussian, Inc.),
 the Gaussian(R) 98 system (copyright 1998, Gaussian, Inc.),
 the Gaussian(R) 94 system (copyright 1995, Gaussian, Inc.),
 the Gaussian 92(TM) system (copyright 1992, Gaussian, Inc.),
 the Gaussian 90(TM) system (copyright 1990, Gaussian, Inc.),
 the Gaussian 88(TM) system (copyright 1988, Gaussian, Inc.),
 the Gaussian 86(TM) system (copyright 1986, Carnegie Mellon
 University), and the Gaussian 82(TM) system (copyright 1983,
 Carnegie Mellon University). Gaussian is a federally registered
 trademark of Gaussian, Inc.
  
 This software contains proprietary and confidential information,
 including trade secrets, belonging to Gaussian, Inc.
  
 This software is provided under written license and may be
 used, copied, transmitted, or stored only in accord with that
 written license.
  
 The following legend is applicable only to US Government
 contracts under FAR:
  
                    RESTRICTED RIGHTS LEGEND
  
 Use, reproduction and disclosure by the US Government is
 subject to restrictions as set forth in subparagraphs (a)
 and (c) of the Commercial Computer Software - Restricted
 Rights clause in FAR 52.227-19.
  
 Gaussian, Inc.
 340 Quinnipiac St., Bldg. 40, Wallingford CT 06492
  
  
 ---------------------------------------------------------------
 Warning -- This program may not be used in any manner that
 competes with the business of Gaussian, Inc. or will provide
 assistance to any competitor of Gaussian, Inc.  The licensee
 of this program is prohibited from giving any competitor of
 Gaussian, Inc. access to this program.  By using this program,
 the user acknowledges that Gaussian, Inc. is engaged in the
 business of creating and licensing software in the field of
 computational chemistry and represents and warrants to the
 licensee that it is not a competitor of Gaussian, Inc. and that
 it will not use this program in any manner prohibited above.
 ---------------------------------------------------------------
  

 Cite this work as:
 Gaussian 16, Revision B.01,
 M. J. Frisch, G. W. Trucks, H. B. Schlegel, G. E. Scuseria, 
 M. A. Robb, J. R. Cheeseman, G. Scalmani, V. Barone, 
 G. A. Petersson, H. Nakatsuji, X. Li, M. Caricato, A. V. Marenich, 
 J. Bloino, B. G. Janesko, R. Gomperts, B. Mennucci, H. P. Hratchian, 
 J. V. Ortiz, A. F. Izmaylov, J. L. Sonnenberg, D. Williams-Young, 
 F. Ding, F. Lipparini, F. Egidi, J. Goings, B. Peng, A. Petrone, 
 T. Henderson, D. Ranasinghe, V. G. Zakrzewski, J. Gao, N. Rega, 
 G. Zheng, W. Liang, M. Hada, M. Ehara, K. Toyota, R. Fukuda, 
 J. Hasegawa, M. Ishida, T. Nakajima, Y. Honda, O. Kitao, H. Nakai, 
 T. Vreven, K. Throssell, J. A. Montgomery, Jr., J. E. Peralta, 
 F. Ogliaro, M. J. Bearpark, J. J. Heyd, E. N. Brothers, K. N. Kudin, 
 V. N. Staroverov, T. A. Keith, R. Kobayashi, J. Normand, 
 K. Raghavachari, A. P. Rendell, J. C. Burant, S. S. Iyengar, 
 J. Tomasi, M. Cossi, J. M. Millam, M. Klene, C. Adamo, R. Cammi, 
 J. W. Ochterski, R. L. Martin, K. Morokuma, O. Farkas, 
 J. B. Foresman, and D. J. Fox, Gaussian, Inc., Wallingford CT, 2016.
 
 ******************************************
 Gaussian 16:  EM64L-G16RevB.01 20-Dec-2017
                27-Mar-2022 
 ******************************************
 %mem=10GB
 %nprocshared=4
 Will use up to    4 processors via shared memory.
 --------------------------------
 # opt b3lyp/6-311+g(d,p) scf=xqc
 --------------------------------
 1/18=20,19=15,26=3,38=1/1,3;
 2/9=110,12=2,17=6,18=5,40=1/2;
 3/5=4,6=6,7=111,11=2,25=1,30=1,71=1,74=-5/1,2,3;
 4//1;
 5/5=2,8=3,13=1,38=5/2,8;
 6/7=2,8=2,9=2,10=2,28=1/1;
 7//1,2,3,16;
 1/18=20,19=15,26=3/3(2);
 2/9=110/2;
 99//99;
 2/9=110/2;
 3/5=4,6=6,7=111,11=2,25=1,30=1,71=1,74=-5/1,2,3;
 4/5=5,16=3,69=1/1;
 5/5=2,8=3,13=1,38=5/2,8;
 7//1,2,3,16;
 1/18=20,19=15,26=3/3(-5);
 2/9=110/2;
 6/7=2,8=2,9=2,10=2,19=2,28=1/1;
 99/9=1/99;
 -------------------
 Title Card Required
 -------------------
 Symbolic Z-matrix:
 Charge =  0 Multiplicity = 1
 C                    -0.245     0.57587   0.02771 
 C                     1.08738   0.60576  -0.40564 
 C                     1.79528   1.81521  -0.41171 
 C                     1.17079   2.99478   0.01557 
 C                    -0.16159   2.96489   0.44891 
 C                    -0.86949   1.75544   0.45498 
 C                    -1.0229   -0.75319   0.03439 
 C                    -0.39842  -1.93276  -0.39289 
 C                    -1.10631  -3.14221  -0.38682 
 C                    -2.43869  -3.1721    0.04653 
 C                    -3.06318  -1.99253   0.47381 
 C                    -2.35528  -0.78308   0.46774 
 H                     1.56419  -0.29486  -0.73187 
 H                     1.71128   3.91822   0.01093 
 H                    -1.88679   1.73262   0.78585 
 Cl                   -3.13957   0.69832   1.00435 
 Cl                   -4.73649  -2.03007   1.01805 
 Cl                   -0.94588   4.44629   0.98552 
 Cl                   -3.32772  -4.69103   0.05417 
 Cl                   -0.32202  -4.62361  -0.92342 
 Cl                    3.4686    1.85274  -0.95594 
 Cl                    1.2749   -1.89523  -0.93712 
 

 GradGradGradGradGradGradGradGradGradGradGradGradGradGradGradGradGradGrad
 Berny optimization.
 Initialization pass.
                           ----------------------------
                           !    Initial Parameters    !
                           ! (Angstroms and Degrees)  !
 --------------------------                            --------------------------
 ! Name  Definition              Value          Derivative Info.                !
 --------------------------------------------------------------------------------
 ! R1    R(1,2)                  1.4014         estimate D2E/DX2                !
 ! R2    R(1,6)                  1.4014         estimate D2E/DX2                !
 ! R3    R(1,7)                  1.54           estimate D2E/DX2                !
 ! R4    R(2,3)                  1.4014         estimate D2E/DX2                !
 ! R5    R(2,13)                 1.07           estimate D2E/DX2                !
 ! R6    R(3,4)                  1.4014         estimate D2E/DX2                !
 ! R7    R(3,21)                 1.76           estimate D2E/DX2                !
 ! R8    R(4,5)                  1.4014         estimate D2E/DX2                !
 ! R9    R(4,14)                 1.07           estimate D2E/DX2                !
 ! R10   R(5,6)                  1.4014         estimate D2E/DX2                !
 ! R11   R(5,18)                 1.76           estimate D2E/DX2                !
 ! R12   R(6,15)                 1.07           estimate D2E/DX2                !
 ! R13   R(7,8)                  1.4014         estimate D2E/DX2                !
 ! R14   R(7,12)                 1.4014         estimate D2E/DX2                !
 ! R15   R(8,9)                  1.4014         estimate D2E/DX2                !
 ! R16   R(8,22)                 1.76           estimate D2E/DX2                !
 ! R17   R(9,10)                 1.4014         estimate D2E/DX2                !
 ! R18   R(9,20)                 1.76           estimate D2E/DX2                !
 ! R19   R(10,11)                1.4014         estimate D2E/DX2                !
 ! R20   R(10,19)                1.76           estimate D2E/DX2                !
 ! R21   R(11,12)                1.4014         estimate D2E/DX2                !
 ! R22   R(11,17)                1.76           estimate D2E/DX2                !
 ! R23   R(12,16)                1.76           estimate D2E/DX2                !
 ! A1    A(2,1,6)              120.0            estimate D2E/DX2                !
 ! A2    A(2,1,7)              120.0            estimate D2E/DX2                !
 ! A3    A(6,1,7)              120.0            estimate D2E/DX2                !
 ! A4    A(1,2,3)              120.0            estimate D2E/DX2                !
 ! A5    A(1,2,13)             120.0            estimate D2E/DX2                !
 ! A6    A(3,2,13)             120.0            estimate D2E/DX2                !
 ! A7    A(2,3,4)              120.0            estimate D2E/DX2                !
 ! A8    A(2,3,21)             120.0            estimate D2E/DX2                !
 ! A9    A(4,3,21)             120.0            estimate D2E/DX2                !
 ! A10   A(3,4,5)              120.0            estimate D2E/DX2                !
 ! A11   A(3,4,14)             120.0            estimate D2E/DX2                !
 ! A12   A(5,4,14)             120.0            estimate D2E/DX2                !
 ! A13   A(4,5,6)              120.0            estimate D2E/DX2                !
 ! A14   A(4,5,18)             120.0            estimate D2E/DX2                !
 ! A15   A(6,5,18)             120.0            estimate D2E/DX2                !
 ! A16   A(1,6,5)              120.0            estimate D2E/DX2                !
 ! A17   A(1,6,15)             120.0            estimate D2E/DX2                !
 ! A18   A(5,6,15)             120.0            estimate D2E/DX2                !
 ! A19   A(1,7,8)              120.0            estimate D2E/DX2                !
 ! A20   A(1,7,12)             120.0            estimate D2E/DX2                !
 ! A21   A(8,7,12)             120.0            estimate D2E/DX2                !
 ! A22   A(7,8,9)              120.0            estimate D2E/DX2                !
 ! A23   A(7,8,22)             120.0            estimate D2E/DX2                !
 ! A24   A(9,8,22)             120.0            estimate D2E/DX2                !
 ! A25   A(8,9,10)             120.0            estimate D2E/DX2                !
 ! A26   A(8,9,20)             120.0            estimate D2E/DX2                !
 ! A27   A(10,9,20)            120.0            estimate D2E/DX2                !
 ! A28   A(9,10,11)            120.0            estimate D2E/DX2                !
 ! A29   A(9,10,19)            120.0            estimate D2E/DX2                !
 ! A30   A(11,10,19)           120.0            estimate D2E/DX2                !
 ! A31   A(10,11,12)           120.0            estimate D2E/DX2                !
 ! A32   A(10,11,17)           120.0            estimate D2E/DX2                !
 ! A33   A(12,11,17)           120.0            estimate D2E/DX2                !
 ! A34   A(7,12,11)            120.0            estimate D2E/DX2                !
 ! A35   A(7,12,16)            120.0            estimate D2E/DX2                !
 ! A36   A(11,12,16)           120.0            estimate D2E/DX2                !
 ! D1    D(6,1,2,3)              0.0001         estimate D2E/DX2                !
 ! D2    D(6,1,2,13)           180.0            estimate D2E/DX2                !
 ! D3    D(7,1,2,3)           -180.0            estimate D2E/DX2                !
 ! D4    D(7,1,2,13)            -0.0001         estimate D2E/DX2                !
 ! D5    D(2,1,6,5)             -0.0001         estimate D2E/DX2                !
 ! D6    D(2,1,6,15)           180.0            estimate D2E/DX2                !
 ! D7    D(7,1,6,5)            180.0            estimate D2E/DX2                !
 ! D8    D(7,1,6,15)             0.0            estimate D2E/DX2                !
 ! D9    D(2,1,7,8)             -0.0001         estimate D2E/DX2                !
 ! D10   D(2,1,7,12)           179.9998         estimate D2E/DX2                !
 ! D11   D(6,1,7,8)            179.9999         estimate D2E/DX2                !
 ! D12   D(6,1,7,12)            -0.0002         estimate D2E/DX2                !
 ! D13   D(1,2,3,4)              0.0            estimate D2E/DX2                !
 ! D14   D(1,2,3,21)           180.0            estimate D2E/DX2                !
 ! D15   D(13,2,3,4)          -179.9999         estimate D2E/DX2                !
 ! D16   D(13,2,3,21)            0.0001         estimate D2E/DX2                !
 ! D17   D(2,3,4,5)             -0.0001         estimate D2E/DX2                !
 ! D18   D(2,3,4,14)           180.0            estimate D2E/DX2                !
 ! D19   D(21,3,4,5)           179.9999         estimate D2E/DX2                !
 ! D20   D(21,3,4,14)            0.0            estimate D2E/DX2                !
 ! D21   D(3,4,5,6)              0.0001         estimate D2E/DX2                !
 ! D22   D(3,4,5,18)          -179.9999         estimate D2E/DX2                !
 ! D23   D(14,4,5,6)          -180.0            estimate D2E/DX2                !
 ! D24   D(14,4,5,18)            0.0            estimate D2E/DX2                !
 ! D25   D(4,5,6,1)              0.0            estimate D2E/DX2                !
 ! D26   D(4,5,6,15)           179.9999         estimate D2E/DX2                !
 ! D27   D(18,5,6,1)           180.0            estimate D2E/DX2                !
 ! D28   D(18,5,6,15)           -0.0001         estimate D2E/DX2                !
 ! D29   D(1,7,8,9)            179.9999         estimate D2E/DX2                !
 ! D30   D(1,7,8,22)             0.0001         estimate D2E/DX2                !
 ! D31   D(12,7,8,9)             0.0001         estimate D2E/DX2                !
 ! D32   D(12,7,8,22)         -179.9998         estimate D2E/DX2                !
 ! D33   D(1,7,12,11)         -179.9999         estimate D2E/DX2                !
 ! D34   D(1,7,12,16)            0.0            estimate D2E/DX2                !
 ! D35   D(8,7,12,11)           -0.0001         estimate D2E/DX2                !
 ! D36   D(8,7,12,16)          179.9999         estimate D2E/DX2                !
 ! D37   D(7,8,9,10)             0.0            estimate D2E/DX2                !
 ! D38   D(7,8,9,20)           180.0            estimate D2E/DX2                !
 ! D39   D(22,8,9,10)          179.9998         estimate D2E/DX2                !
 ! D40   D(22,8,9,20)           -0.0002         estimate D2E/DX2                !
 ! D41   D(8,9,10,11)            0.0            estimate D2E/DX2                !
 ! D42   D(8,9,10,19)         -179.9999         estimate D2E/DX2                !
 ! D43   D(20,9,10,11)         180.0            estimate D2E/DX2                !
 ! D44   D(20,9,10,19)           0.0001         estimate D2E/DX2                !
 ! D45   D(9,10,11,12)           0.0            estimate D2E/DX2                !
 ! D46   D(9,10,11,17)        -179.9998         estimate D2E/DX2                !
 ! D47   D(19,10,11,12)        179.9999         estimate D2E/DX2                !
 ! D48   D(19,10,11,17)          0.0001         estimate D2E/DX2                !
 ! D49   D(10,11,12,7)           0.0            estimate D2E/DX2                !
 ! D50   D(10,11,12,16)       -179.9999         estimate D2E/DX2                !
 ! D51   D(17,11,12,7)         179.9999         estimate D2E/DX2                !
 ! D52   D(17,11,12,16)         -0.0001         estimate D2E/DX2                !
 --------------------------------------------------------------------------------
 Trust Radius=3.00D-01 FncErr=1.00D-07 GrdErr=1.00D-06 EigMax=2.50D+02 EigMin=1.00D-04
 Number of steps in this run=    121 maximum allowed number of steps=    132.
 GradGradGradGradGradGradGradGradGradGradGradGradGradGradGradGradGradGrad

                          Input orientation:                          
 ---------------------------------------------------------------------
 Center     Atomic      Atomic             Coordinates (Angstroms)
 Number     Number       Type             X           Y           Z
 ---------------------------------------------------------------------
      1          6           0       -0.244998    0.575874    0.027711
      2          6           0        1.087383    0.605760   -0.405635
      3          6           0        1.795277    1.815211   -0.411708
      4          6           0        1.170789    2.994776    0.015567
      5          6           0       -0.161593    2.964890    0.448912
      6          6           0       -0.869486    1.755439    0.454984
      7          6           0       -1.022903   -0.753193    0.034385
      8          6           0       -0.398416   -1.932758   -0.392890
      9          6           0       -1.106308   -3.142210   -0.386815
     10          6           0       -2.438689   -3.172096    0.046534
     11          6           0       -3.063176   -1.992531    0.473810
     12          6           0       -2.355283   -0.783080    0.467735
     13          1           0        1.564194   -0.294865   -0.731867
     14          1           0        1.711282    3.918218    0.010931
     15          1           0       -1.886789    1.732621    0.785853
     16         17           0       -3.139568    0.698320    1.004347
     17         17           0       -4.736493   -2.030066    1.018052
     18         17           0       -0.945879    4.446291    0.985517
     19         17           0       -3.327721   -4.691031    0.054166
     20         17           0       -0.322023   -4.623610   -0.923425
     21         17           0        3.468597    1.852744   -0.955941
     22         17           0        1.274905   -1.895225   -0.937124
 ---------------------------------------------------------------------
                    Distance matrix (angstroms):
                    1          2          3          4          5
     1  C    0.000000
     2  C    1.401400   0.000000
     3  C    2.427296   1.401400   0.000000
     4  C    2.802800   2.427296   1.401400   0.000000
     5  C    2.427296   2.802800   2.427296   1.401400   0.000000
     6  C    1.401400   2.427296   2.802800   2.427296   1.401400
     7  C    1.540000   2.548270   3.838989   4.342800   3.838989
     8  C    2.548270   2.941400   4.342800   5.187469   4.975106
     9  C    3.838989   4.342800   5.744200   6.558176   6.235992
    10  C    4.342800   5.187469   6.558176   7.145600   6.558176
    11  C    3.838989   4.975106   6.235992   6.558176   5.744200
    12  C    2.548270   3.813607   4.975106   5.187469   4.342800
    13  H    2.146700   1.070000   2.146700   3.396345   3.872800
    14  H    3.872800   3.396345   2.146700   1.070000   2.146700
    15  H    2.146700   3.396345   3.872800   3.396345   2.146700
    16  Cl   3.057342   4.456874   5.254079   4.983028   3.783409
    17  Cl   5.286324   6.549198   7.713260   7.819846   6.797295
    18  Cl   4.048303   4.562800   4.048303   2.743718   1.760000
    19  Cl   6.102800   6.910901   8.294174   8.905600   8.294174
    20  Cl   5.286324   5.440665   6.797295   7.819846   7.713260
    21  Cl   4.048303   2.743718   1.760000   2.743718   4.048303
    22  Cl   3.057342   2.563702   3.783409   4.983028   5.254079
                    6          7          8          9         10
     6  C    0.000000
     7  C    2.548270   0.000000
     8  C    3.813607   1.401400   0.000000
     9  C    4.975106   2.427296   1.401400   0.000000
    10  C    5.187469   2.802800   2.427296   1.401400   0.000000
    11  C    4.342800   2.427296   2.802800   2.427296   1.401400
    12  C    2.941400   1.401400   2.427296   2.802800   2.427296
    13  H    3.396345   2.736837   2.578650   3.918930   4.990735
    14  H    3.396345   5.412800   6.232802   7.612271   8.215600
    15  H    1.070000   2.736837   4.127917   5.074276   4.990735
    16  Cl   2.563702   2.743718   4.048303   4.562800   4.048303
    17  Cl   5.440665   4.048303   4.562800   4.048303   2.743718
    18  Cl   2.743718   5.286324   6.549198   7.713260   7.819846
    19  Cl   6.910901   4.562800   4.048303   2.743718   1.760000
    20  Cl   6.549198   4.048303   2.743718   1.760000   2.743718
    21  Cl   4.562800   5.286324   5.440665   6.797295   7.819846
    22  Cl   4.456874   2.743718   1.760000   2.743718   4.048303
                   11         12         13         14         15
    11  C    0.000000
    12  C    1.401400   0.000000
    13  H    5.074276   4.127917   0.000000
    14  H    7.612271   6.232802   4.280590   0.000000
    15  H    3.918930   2.578650   4.280590   4.280590   0.000000
    16  Cl   2.743718   1.760000   5.111382   5.906383   1.639199
    17  Cl   1.760000   2.743718   6.765486   8.830073   4.725732
    18  Cl   6.797295   5.440665   5.632800   2.879094   2.879094
    19  Cl   2.743718   4.048303   6.623817   9.975600   6.623817
    20  Cl   4.048303   4.562800   4.725732   8.830073   6.765486
    21  Cl   7.713260   6.549198   2.879094   2.879094   5.632800
    22  Cl   4.562800   4.048303   1.639199   5.906383   5.111382
                   16         17         18         19         20
    16  Cl   0.000000
    17  Cl   3.161400   0.000000
    18  Cl   4.342800   7.504200   0.000000
    19  Cl   5.475705   3.161400   9.488480   0.000000
    20  Cl   6.322800   5.475705   9.289584   3.161400   0.000000
    21  Cl   6.988795   9.289584   5.475705   9.488480   7.504200
    22  Cl   5.475705   6.322800   6.988795   5.475705   3.161400
                   21         22
    21  Cl   0.000000
    22  Cl   4.342800   0.000000
 Stoichiometry    C12H3Cl7
 Framework group  C1[X(C12H3Cl7)]
 Deg. of freedom    60
 Full point group                 C1      NOp   1
 Largest Abelian subgroup         C1      NOp   1
 Largest concise Abelian subgroup C1      NOp   1
                         Standard orientation:                         
 ---------------------------------------------------------------------
 Center     Atomic      Atomic             Coordinates (Angstroms)
 Number     Number       Type             X           Y           Z
 ---------------------------------------------------------------------
      1          6           0        1.307254    0.000000    0.000002
      2          6           0        2.007954    1.213648   -0.000000
      3          6           0        3.409354    1.213648   -0.000002
      4          6           0        4.110054    0.000000   -0.000002
      5          6           0        3.409354   -1.213648    0.000002
      6          6           0        2.007954   -1.213648    0.000004
      7          6           0       -0.232746    0.000000    0.000003
      8          6           0       -0.933446    1.213648    0.000003
      9          6           0       -2.334846    1.213648    0.000003
     10          6           0       -3.035546    0.000000    0.000002
     11          6           0       -2.334846   -1.213648    0.000001
     12          6           0       -0.933446   -1.213648    0.000001
     13          1           0        1.472954    2.140295   -0.000002
     14          1           0        5.180054    0.000000   -0.000004
     15          1           0        1.472954   -2.140295    0.000006
     16         17           0       -0.053446   -2.737853   -0.000002
     17         17           0       -3.214846   -2.737853   -0.000005
     18         17           0        4.289354   -2.737853    0.000005
     19         17           0       -4.795546    0.000000   -0.000001
     20         17           0       -3.214846    2.737853    0.000004
     21         17           0        4.289354    2.737853   -0.000006
     22         17           0       -0.053446    2.737853    0.000000
 ---------------------------------------------------------------------
 Rotational constants (GHZ):           0.2932520           0.1363307           0.0930653
 Standard basis: 6-311+G(d,p) (5D, 7F)
 There are   511 symmetry adapted cartesian basis functions of A   symmetry.
 There are   492 symmetry adapted basis functions of A   symmetry.
   492 basis functions,   827 primitive gaussians,   511 cartesian basis functions
    97 alpha electrons       97 beta electrons
       nuclear repulsion energy      2329.3520479957 Hartrees.
 NAtoms=   22 NActive=   22 NUniq=   22 SFac= 1.00D+00 NAtFMM=   60 NAOKFM=F Big=F
 Integral buffers will be    131072 words long.
 Raffenetti 2 integral format.
 Two-electron integral symmetry is turned on.
 One-electron integrals computed using PRISM.
 NBasis=   492 RedAO= T EigKep=  1.22D-06  NBF=   492
 NBsUse=   485 1.00D-06 EigRej=  5.30D-07 NBFU=   485
 ExpMin= 4.38D-02 ExpMax= 1.06D+05 ExpMxC= 3.62D+03 IAcc=3 IRadAn=         5 AccDes= 0.00D+00
 Harris functional with IExCor=  402 and IRadAn=       5 diagonalized for initial guess.
 HarFok:  IExCor=  402 AccDes= 0.00D+00 IRadAn=         5 IDoV= 1 UseB2=F ITyADJ=14
 ICtDFT=  3500011 ScaDFX=  1.000000  1.000000  1.000000  1.000000
 FoFCou: FMM=F IPFlag=           0 FMFlag=      100000 FMFlg1=           0
         NFxFlg=           0 DoJE=T BraDBF=F KetDBF=T FulRan=T
         wScrn=  0.000000 ICntrl=       500 IOpCl=  0 I1Cent=   200000004 NGrid=           0
         NMat0=    1 NMatS0=      1 NMatT0=    0 NMatD0=    1 NMtDS0=    0 NMtDT0=    0
 Petite list used in FoFCou.
 Requested convergence on RMS density matrix=1.00D-08 within  32 cycles.
 Requested convergence on MAX density matrix=1.00D-06.
 Requested convergence on             energy=1.00D-06.
 No special actions if energy rises.
 SCF Done:  E(RB3LYP) =  -3680.62737823     A.U. after   16 cycles
            NFock= 16  Conv=0.26D-08     -V/T= 2.0025
 QCSCF skips out because SCF is already converged.

 **********************************************************************

            Population analysis using the SCF Density.

 **********************************************************************

 Orbital symmetries:
       Occupied  (A) (A) (A) (A) (A) (A) (A) (A) (A) (A) (A) (A)
                 (A) (A) (A) (A) (A) (A) (A) (A) (A) (A) (A) (A)
                 (A) (A) (A) (A) (A) (A) (A) (A) (A) (A) (A) (A)
                 (A) (A) (A) (A) (A) (A) (A) (A) (A) (A) (A) (A)
                 (A) (A) (A) (A) (A) (A) (A) (A) (A) (A) (A) (A)
                 (A) (A) (A) (A) (A) (A) (A) (A) (A) (A) (A) (A)
                 (A) (A) (A) (A) (A) (A) (A) (A) (A) (A) (A) (A)
                 (A) (A) (A) (A) (A) (A) (A) (A) (A) (A) (A) (A)
                 (A)
       Virtual   (A) (A) (A) (A) (A) (A) (A) (A) (A) (A) (A) (A)
                 (A) (A) (A) (A) (A) (A) (A) (A) (A) (A) (A) (A)
                 (A) (A) (A) (A) (A) (A) (A) (A) (A) (A) (A) (A)
                 (A) (A) (A) (A) (A) (A) (A) (A) (A) (A) (A) (A)
                 (A) (A) (A) (A) (A) (A) (A) (A) (A) (A) (A) (A)
                 (A) (A) (A) (A) (A) (A) (A) (A) (A) (A) (A) (A)
                 (A) (A) (A) (A) (A) (A) (A) (A) (A) (A) (A) (A)
                 (A) (A) (A) (A) (A) (A) (A) (A) (A) (A) (A) (A)
                 (A) (A) (A) (A) (A) (A) (A) (A) (A) (A) (A) (A)
                 (A) (A) (A) (A) (A) (A) (A) (A) (A) (A) (A) (A)
                 (A) (A) (A) (A) (A) (A) (A) (A) (A) (A) (A) (A)
                 (A) (A) (A) (A) (A) (A) (A) (A) (A) (A) (A) (A)
                 (A) (A) (A) (A) (A) (A) (A) (A) (A) (A) (A) (A)
                 (A) (A) (A) (A) (A) (A) (A) (A) (A) (A) (A) (A)
                 (A) (A) (A) (A) (A) (A) (A) (A) (A) (A) (A) (A)
                 (A) (A) (A) (A) (A) (A) (A) (A) (A) (A) (A) (A)
                 (A) (A) (A) (A) (A) (A) (A) (A) (A) (A) (A) (A)
                 (A) (A) (A) (A) (A) (A) (A) (A) (A) (A) (A) (A)
                 (A) (A) (A) (A) (A) (A) (A) (A) (A) (A) (A) (A)
                 (A) (A) (A) (A) (A) (A) (A) (A) (A) (A) (A) (A)
                 (A) (A) (A) (A) (A) (A) (A) (A) (A) (A) (A) (A)
                 (A) (A) (A) (A) (A) (A) (A) (A) (A) (A) (A) (A)
                 (A) (A) (A) (A) (A) (A) (A) (A) (A) (A) (A) (A)
                 (A) (A) (A) (A) (A) (A) (A) (A) (A) (A) (A) (A)
                 (A) (A) (A) (A) (A) (A) (A) (A) (A) (A) (A) (A)
                 (A) (A) (A) (A) (A) (A) (A) (A) (A) (A) (A) (A)
                 (A) (A) (A) (A) (A) (A) (A) (A) (A) (A) (A) (A)
                 (A) (A) (A) (A) (A) (A) (A) (A) (A) (A) (A) (A)
                 (A) (A) (A) (A) (A) (A) (A) (A) (A) (A) (A) (A)
                 (A) (A) (A) (A) (A) (A) (A) (A) (A) (A) (A) (A)
                 (A) (A) (A) (A) (A) (A) (A) (A) (A) (A) (A) (A)
                 (A) (A) (A) (A) (A) (A) (A) (A) (A) (A) (A) (A)
                 (A) (A) (A) (A)
 The electronic state is 1-A.
 Alpha  occ. eigenvalues -- -101.59355-101.59355-101.59019-101.58996-101.58996
 Alpha  occ. eigenvalues -- -101.56807-101.56807 -10.29813 -10.29803 -10.29698
 Alpha  occ. eigenvalues --  -10.29648 -10.29647 -10.26015 -10.25795 -10.25794
 Alpha  occ. eigenvalues --  -10.23143 -10.20937 -10.18710 -10.18709  -9.51122
 Alpha  occ. eigenvalues --   -9.51122  -9.50425  -9.50407  -9.50406  -9.48244
 Alpha  occ. eigenvalues --   -9.48243  -7.27562  -7.27562  -7.26956  -7.26930
 Alpha  occ. eigenvalues --   -7.26930  -7.26566  -7.26566  -7.26525  -7.26525
 Alpha  occ. eigenvalues --   -7.25897  -7.25884  -7.25884  -7.25815  -7.25797
 Alpha  occ. eigenvalues --   -7.25797  -7.24711  -7.24711  -7.23723  -7.23723
 Alpha  occ. eigenvalues --   -7.23693  -7.23693  -0.98102  -0.94080  -0.93286
 Alpha  occ. eigenvalues --   -0.91298  -0.89681  -0.88360  -0.87545  -0.86136
 Alpha  occ. eigenvalues --   -0.84325  -0.79219  -0.76857  -0.75929  -0.74804
 Alpha  occ. eigenvalues --   -0.66821  -0.64966  -0.63168  -0.62499  -0.56563
 Alpha  occ. eigenvalues --   -0.56151  -0.54356  -0.50264  -0.50045  -0.49587
 Alpha  occ. eigenvalues --   -0.49363  -0.48365  -0.47153  -0.47094  -0.44309
 Alpha  occ. eigenvalues --   -0.43878  -0.43009  -0.42440  -0.41783  -0.41549
 Alpha  occ. eigenvalues --   -0.40741  -0.37903  -0.37291  -0.36761  -0.36358
 Alpha  occ. eigenvalues --   -0.35623  -0.35378  -0.33599  -0.33505  -0.33353
 Alpha  occ. eigenvalues --   -0.32779  -0.30662  -0.29941  -0.29298  -0.28481
 Alpha  occ. eigenvalues --   -0.26499  -0.26074
 Alpha virt. eigenvalues --   -0.08759  -0.07970  -0.07599  -0.04194  -0.03040
 Alpha virt. eigenvalues --   -0.02387  -0.01716  -0.01148  -0.00706   0.01071
 Alpha virt. eigenvalues --    0.01091   0.01170   0.01614   0.02323   0.02917
 Alpha virt. eigenvalues --    0.03600   0.04703   0.05075   0.05156   0.05554
 Alpha virt. eigenvalues --    0.06196   0.06647   0.06751   0.06875   0.07429
 Alpha virt. eigenvalues --    0.07795   0.07878   0.08299   0.08367   0.09093
 Alpha virt. eigenvalues --    0.09411   0.10211   0.10300   0.10511   0.10620
 Alpha virt. eigenvalues --    0.11100   0.11201   0.11926   0.12459   0.12962
 Alpha virt. eigenvalues --    0.13096   0.13194   0.13670   0.14092   0.14124
 Alpha virt. eigenvalues --    0.14691   0.14836   0.15197   0.15202   0.16237
 Alpha virt. eigenvalues --    0.16599   0.17029   0.17433   0.17793   0.18044
 Alpha virt. eigenvalues --    0.18261   0.18578   0.19098   0.19514   0.19664
 Alpha virt. eigenvalues --    0.20215   0.20474   0.20842   0.21207   0.21637
 Alpha virt. eigenvalues --    0.21820   0.22379   0.23277   0.23928   0.24487
 Alpha virt. eigenvalues --    0.24575   0.24625   0.24873   0.25101   0.25663
 Alpha virt. eigenvalues --    0.26624   0.26664   0.26967   0.27336   0.27541
 Alpha virt. eigenvalues --    0.28419   0.28550   0.29386   0.29897   0.31063
 Alpha virt. eigenvalues --    0.31298   0.31491   0.32547   0.32726   0.33057
 Alpha virt. eigenvalues --    0.34647   0.35395   0.36011   0.36631   0.38856
 Alpha virt. eigenvalues --    0.39848   0.40532   0.40698   0.42013   0.42323
 Alpha virt. eigenvalues --    0.42369   0.43220   0.43399   0.44194   0.44507
 Alpha virt. eigenvalues --    0.45348   0.45382   0.45649   0.45789   0.46766
 Alpha virt. eigenvalues --    0.47056   0.47750   0.47751   0.47954   0.49290
 Alpha virt. eigenvalues --    0.50144   0.50294   0.50516   0.52758   0.53110
 Alpha virt. eigenvalues --    0.53846   0.55356   0.55740   0.56875   0.57447
 Alpha virt. eigenvalues --    0.57611   0.57701   0.57916   0.58961   0.59391
 Alpha virt. eigenvalues --    0.60353   0.60357   0.60787   0.60879   0.62309
 Alpha virt. eigenvalues --    0.62359   0.63682   0.65389   0.66432   0.66897
 Alpha virt. eigenvalues --    0.67538   0.67837   0.69034   0.72586   0.72850
 Alpha virt. eigenvalues --    0.76786   0.78107   0.78438   0.79588   0.80432
 Alpha virt. eigenvalues --    0.81102   0.81909   0.81931   0.82512   0.82773
 Alpha virt. eigenvalues --    0.82892   0.83304   0.84003   0.84699   0.84774
 Alpha virt. eigenvalues --    0.85020   0.85368   0.85913   0.85956   0.86095
 Alpha virt. eigenvalues --    0.86507   0.86613   0.86753   0.87283   0.87975
 Alpha virt. eigenvalues --    0.88115   0.88348   0.88404   0.89704   0.89938
 Alpha virt. eigenvalues --    0.90481   0.92519   0.92921   0.93142   0.94050
 Alpha virt. eigenvalues --    0.94465   0.95039   0.95169   0.95492   0.96375
 Alpha virt. eigenvalues --    0.96766   0.97446   0.97660   0.98379   0.98627
 Alpha virt. eigenvalues --    0.98636   1.00159   1.02458   1.05527   1.07482
 Alpha virt. eigenvalues --    1.07832   1.09391   1.10131   1.10766   1.11710
 Alpha virt. eigenvalues --    1.12739   1.15188   1.15842   1.18031   1.20609
 Alpha virt. eigenvalues --    1.21349   1.22292   1.22637   1.24268   1.25786
 Alpha virt. eigenvalues --    1.25893   1.26101   1.26263   1.27203   1.27436
 Alpha virt. eigenvalues --    1.29994   1.30130   1.30212   1.33547   1.34792
 Alpha virt. eigenvalues --    1.35154   1.38560   1.42882   1.43064   1.45222
 Alpha virt. eigenvalues --    1.49102   1.49165   1.54764   1.56038   1.57472
 Alpha virt. eigenvalues --    1.58588   1.60458   1.60565   1.62904   1.63339
 Alpha virt. eigenvalues --    1.65439   1.67736   1.68156   1.72252   1.72826
 Alpha virt. eigenvalues --    1.76866   1.77765   1.80409   1.80725   1.82155
 Alpha virt. eigenvalues --    1.83363   1.83609   1.86333   1.87863   1.88356
 Alpha virt. eigenvalues --    1.91175   1.91666   1.94352   1.95623   1.96146
 Alpha virt. eigenvalues --    2.01594   2.01769   2.04660   2.08915   2.09995
 Alpha virt. eigenvalues --    2.12923   2.14821   2.18323   2.18818   2.21162
 Alpha virt. eigenvalues --    2.21168   2.22236   2.22595   2.23211   2.25607
 Alpha virt. eigenvalues --    2.26004   2.26605   2.26978   2.28810   2.31561
 Alpha virt. eigenvalues --    2.33137   2.33364   2.33511   2.35100   2.36466
 Alpha virt. eigenvalues --    2.40066   2.40841   2.42583   2.43065   2.43415
 Alpha virt. eigenvalues --    2.45160   2.49638   2.49690   2.53001   2.53001
 Alpha virt. eigenvalues --    2.56271   2.57289   2.58407   2.59777   2.60214
 Alpha virt. eigenvalues --    2.62813   2.63139   2.68327   2.68949   2.71272
 Alpha virt. eigenvalues --    2.71895   2.73244   2.74226   2.77825   2.79580
 Alpha virt. eigenvalues --    2.79789   2.80148   2.82416   2.84666   2.89978
 Alpha virt. eigenvalues --    2.92058   2.94970   3.00179   3.04423   3.06438
 Alpha virt. eigenvalues --    3.08382   3.09687   3.10091   3.11867   3.15930
 Alpha virt. eigenvalues --    3.17474   3.21279   3.22069   3.23002   3.24753
 Alpha virt. eigenvalues --    3.33185   3.40951   3.43561   3.50054   3.58821
 Alpha virt. eigenvalues --    3.61216   3.70085   3.74211   3.80019   3.87800
 Alpha virt. eigenvalues --    3.88829   4.11892   4.19284   4.42036   4.78836
 Alpha virt. eigenvalues --    4.82930   9.71969   9.76253   9.77672   9.78572
 Alpha virt. eigenvalues --    9.78982   9.86844   9.87564  23.23657  23.53744
 Alpha virt. eigenvalues --   23.76222  23.77571  23.85125  23.87773  23.91354
 Alpha virt. eigenvalues --   23.92973  23.98895  24.02824  24.04845  24.11816
 Alpha virt. eigenvalues --   25.73759  25.77405  25.80205  25.81208  25.82607
 Alpha virt. eigenvalues --   25.86227  25.91536  26.08837  26.10134  26.12483
 Alpha virt. eigenvalues --   26.16461  26.21902  26.42354  26.52837  26.58024
 Alpha virt. eigenvalues --   26.59634  26.66650  26.75102  26.81228  26.81630
 Alpha virt. eigenvalues --   27.06179 215.70979 215.75246 215.77268 215.78057
 Alpha virt. eigenvalues --  215.78745 215.89464 215.90153
          Condensed to atoms (all electrons):
               1          2          3          4          5          6
     1  C   28.828704   2.585547  -4.241136   0.791533  -4.241136   2.585547
     2  C    2.585547  13.823740   2.804984  -7.845805   1.265076   1.111339
     3  C   -4.241136   2.804984  21.911157  -5.795640  -3.098285   1.265076
     4  C    0.791533  -7.845805  -5.795640  31.968864  -5.795642  -7.845805
     5  C   -4.241136   1.265076  -3.098285  -5.795642  21.911159   2.804985
     6  C    2.585547   1.111339   1.265076  -7.845805   2.804985  13.823740
     7  C   10.413581   0.589427  -2.580434  -1.133328  -2.580434   0.589427
     8  C   -5.280587  -1.498530  -0.627224   1.164161  -2.386084  -3.162427
     9  C   -7.336455   0.292775   0.071734   0.074262  -1.012091  -2.641853
    10  C   -2.108742  -0.555269  -0.454385   0.267267  -0.454385  -0.555269
    11  C   -7.336455  -2.641853  -1.012091   0.074262   0.071734   0.292775
    12  C   -5.280588  -3.162427  -2.386084   1.164161  -0.627224  -1.498531
    13  H   -0.177035   0.337908   0.038971   0.182653  -0.023621  -0.065472
    14  H    0.080971   0.069496  -0.005355   0.111357  -0.005355   0.069496
    15  H   -0.177035  -0.065472  -0.023621   0.182653   0.038971   0.337908
    16  Cl   0.110080   0.122953   0.211055  -0.064662  -0.832780  -0.987794
    17  Cl  -0.115820  -0.070987  -0.001282  -0.006143   0.059093   0.099970
    18  Cl  -0.465713   0.229621   0.078890  -0.483582  -0.368387   0.665417
    19  Cl  -0.212443  -0.034516  -0.006349   0.003313  -0.006349  -0.034516
    20  Cl  -0.115820   0.099970   0.059093  -0.006143  -0.001282  -0.070987
    21  Cl  -0.465713   0.665417  -0.368387  -0.483582   0.078890   0.229621
    22  Cl   0.110080  -0.987794  -0.832780  -0.064662   0.211055   0.122953
               7          8          9         10         11         12
     1  C   10.413581  -5.280587  -7.336455  -2.108742  -7.336455  -5.280588
     2  C    0.589427  -1.498530   0.292775  -0.555269  -2.641853  -3.162427
     3  C   -2.580434  -0.627224   0.071734  -0.454385  -1.012091  -2.386084
     4  C   -1.133328   1.164161   0.074262   0.267267   0.074262   1.164161
     5  C   -2.580434  -2.386084  -1.012091  -0.454385   0.071734  -0.627224
     6  C    0.589427  -3.162427  -2.641853  -0.555269   0.292775  -1.498531
     7  C   31.038832  -4.221565 -10.694782   3.763710 -10.694782  -4.221565
     8  C   -4.221565  17.667682   1.109710  -6.654170   5.786139   5.058643
     9  C  -10.694782   1.109710  24.542580  -3.730339  -1.263819   5.786139
    10  C    3.763710  -6.654170  -3.730339  27.266016  -3.730338  -6.654170
    11  C  -10.694782   5.786139  -1.263819  -3.730338  24.542580   1.109710
    12  C   -4.221565   5.058643   5.786139  -6.654170   1.109710  17.667682
    13  H   -0.054163   0.196421   0.015507   0.025677  -0.022128   0.014951
    14  H    0.026649   0.003554   0.000369  -0.000030   0.000369   0.003554
    15  H   -0.054163   0.014951  -0.022128   0.025677   0.015507   0.196421
    16  Cl  -0.273901   0.166571   0.807426  -0.133645   0.360827  -1.142200
    17  Cl  -0.949594   0.443695  -0.134516  -0.656120  -0.274683   0.888936
    18  Cl  -0.189757  -0.119629  -0.020136  -0.013074  -0.029784  -0.101524
    19  Cl   0.015080  -0.790009   0.127863   0.826891   0.127863  -0.790009
    20  Cl  -0.949594   0.888936  -0.274683  -0.656120  -0.134516   0.443695
    21  Cl  -0.189757  -0.101524  -0.029784  -0.013074  -0.020136  -0.119629
    22  Cl  -0.273901  -1.142200   0.360827  -0.133645   0.807426   0.166571
              13         14         15         16         17         18
     1  C   -0.177035   0.080971  -0.177035   0.110080  -0.115820  -0.465713
     2  C    0.337908   0.069496  -0.065472   0.122953  -0.070987   0.229621
     3  C    0.038971  -0.005355  -0.023621   0.211055  -0.001282   0.078890
     4  C    0.182653   0.111357   0.182653  -0.064662  -0.006143  -0.483582
     5  C   -0.023621  -0.005355   0.038971  -0.832780   0.059093  -0.368387
     6  C   -0.065472   0.069496   0.337908  -0.987794   0.099970   0.665417
     7  C   -0.054163   0.026649  -0.054163  -0.273901  -0.949594  -0.189757
     8  C    0.196421   0.003554   0.014951   0.166571   0.443695  -0.119629
     9  C    0.015507   0.000369  -0.022128   0.807426  -0.134516  -0.020136
    10  C    0.025677  -0.000030   0.025677  -0.133645  -0.656120  -0.013074
    11  C   -0.022128   0.000369   0.015507   0.360827  -0.274683  -0.029784
    12  C    0.014951   0.003554   0.196421  -1.142200   0.888936  -0.101524
    13  H    0.706239  -0.000510  -0.000033   0.001559  -0.000367   0.000722
    14  H   -0.000510   0.504252  -0.000510   0.000012   0.000000  -0.008701
    15  H   -0.000033  -0.000510   0.706239  -0.284578   0.004709  -0.041942
    16  Cl   0.001559   0.000012  -0.284578  18.674514  -0.379768  -0.059791
    17  Cl  -0.000367   0.000000   0.004709  -0.379768  17.696949   0.001566
    18  Cl   0.000722  -0.008701  -0.041942  -0.059791   0.001566  17.524160
    19  Cl   0.000759   0.000000   0.000759  -0.000312  -0.312214  -0.000119
    20  Cl   0.004709   0.000000  -0.000367   0.020772  -0.007877   0.000065
    21  Cl  -0.041942  -0.008701   0.000722   0.004895   0.000065  -0.016074
    22  Cl  -0.284578   0.000012   0.001559  -0.059246   0.020772   0.004895
              19         20         21         22
     1  C   -0.212443  -0.115820  -0.465713   0.110080
     2  C   -0.034516   0.099970   0.665417  -0.987794
     3  C   -0.006349   0.059093  -0.368387  -0.832780
     4  C    0.003313  -0.006143  -0.483582  -0.064662
     5  C   -0.006349  -0.001282   0.078890   0.211055
     6  C   -0.034516  -0.070987   0.229621   0.122953
     7  C    0.015080  -0.949594  -0.189757  -0.273901
     8  C   -0.790009   0.888936  -0.101524  -1.142200
     9  C    0.127863  -0.274683  -0.029784   0.360827
    10  C    0.826891  -0.656120  -0.013074  -0.133645
    11  C    0.127863  -0.134516  -0.020136   0.807426
    12  C   -0.790009   0.443695  -0.119629   0.166571
    13  H    0.000759   0.004709  -0.041942  -0.284578
    14  H    0.000000   0.000000  -0.008701   0.000012
    15  H    0.000759  -0.000367   0.000722   0.001559
    16  Cl  -0.000312   0.020772   0.004895  -0.059246
    17  Cl  -0.312214  -0.007877   0.000065   0.020772
    18  Cl  -0.000119   0.000065  -0.016074   0.004895
    19  Cl  17.697026  -0.312214  -0.000119  -0.000312
    20  Cl  -0.312214  17.696949   0.001566  -0.379768
    21  Cl  -0.000119   0.001566  17.524160  -0.059791
    22  Cl  -0.000312  -0.379768  -0.059791  18.674514
 Mulliken charges:
               1
     1  C   -1.951366
     2  C   -1.135598
     3  C    0.992094
     4  C   -0.459491
     5  C    0.992094
     6  C   -1.135598
     7  C   -1.374985
     8  C   -0.516514
     9  C   -0.028607
    10  C    0.327537
    11  C   -0.028607
    12  C   -0.516514
    13  H    0.143772
    14  H    0.159070
    15  H    0.143772
    16  Cl   0.738013
    17  Cl   0.693618
    18  Cl   0.412877
    19  Cl   0.699929
    20  Cl   0.693618
    21  Cl   0.412877
    22  Cl   0.738013
 Sum of Mulliken charges =  -0.00000
 Mulliken charges with hydrogens summed into heavy atoms:
               1
     1  C   -1.951366
     2  C   -0.991826
     3  C    0.992094
     4  C   -0.300421
     5  C    0.992094
     6  C   -0.991826
     7  C   -1.374985
     8  C   -0.516514
     9  C   -0.028607
    10  C    0.327537
    11  C   -0.028607
    12  C   -0.516514
    16  Cl   0.738013
    17  Cl   0.693618
    18  Cl   0.412877
    19  Cl   0.699929
    20  Cl   0.693618
    21  Cl   0.412877
    22  Cl   0.738013
 Electronic spatial extent (au):  <R**2>=           9907.2325
 Charge=             -0.0000 electrons
 Dipole moment (field-independent basis, Debye):
    X=             -1.1361    Y=             -0.0000    Z=             -0.0000  Tot=              1.1361
 Quadrupole moment (field-independent basis, Debye-Ang):
   XX=           -162.7279   YY=           -157.4999   ZZ=           -158.8239
   XY=             -0.0000   XZ=             -0.0000   YZ=              0.0000
 Traceless Quadrupole moment (field-independent basis, Debye-Ang):
   XX=             -3.0440   YY=              2.1840   ZZ=              0.8600
   XY=             -0.0000   XZ=             -0.0000   YZ=              0.0000
 Octapole moment (field-independent basis, Debye-Ang**2):
  XXX=            -36.3269  YYY=             -0.0000  ZZZ=             -0.0000  XYY=            -18.3614
  XXY=              0.0000  XXZ=             -0.0001  XZZ=            -10.4692  YZZ=              0.0000
  YYZ=             -0.0000  XYZ=             -0.0000
 Hexadecapole moment (field-independent basis, Debye-Ang**3):
 XXXX=          -8648.9853 YYYY=          -3866.2164 ZZZZ=           -183.5735 XXXY=              0.0000
 XXXZ=              0.0000 YYYX=              0.0000 YYYZ=              0.0001 ZZZX=              0.0001
 ZZZY=              0.0000 XXYY=          -2147.3741 XXZZ=          -1528.0548 YYZZ=           -712.9354
 XXYZ=              0.0002 YYXZ=              0.0001 ZZXY=              0.0000
 N-N= 2.329352047996D+03 E-N=-1.337945783020D+04  KE= 3.671551481297D+03
 Calling FoFJK, ICntrl=      2127 FMM=F ISym2X=0 I1Cent= 0 IOpClX= 0 NMat=1 NMatS=1 NMatT=0.
 ***** Axes restored to original set *****
 -------------------------------------------------------------------
 Center     Atomic                   Forces (Hartrees/Bohr)
 Number     Number              X              Y              Z
 -------------------------------------------------------------------
      1        6          -0.010201791   -0.017429910    0.000087434
      2        6           0.012187325    0.049609010    0.005302012
      3        6          -0.024297464    0.000087801    0.008021520
      4        6           0.000175174    0.000299417   -0.000001683
      5        6           0.011939489   -0.021201766   -0.007915359
      6        6           0.037262508    0.034877104   -0.005726280
      7        6           0.023480664    0.040117160   -0.000201352
      8        6          -0.005835337   -0.002503964    0.001452336
      9        6           0.008716698   -0.008811475   -0.004526725
     10        6          -0.004320825   -0.007382273    0.000037144
     11        6          -0.011931185    0.003319361    0.004554425
     12        6           0.000667926   -0.006324703   -0.001407977
     13        1           0.004266069    0.049723741    0.007933082
     14        1           0.004815947    0.008228136   -0.000041297
     15        1           0.041229799    0.028007189   -0.008323724
     16       17          -0.082668565   -0.062967022    0.015410303
     17       17           0.010279622   -0.000226604   -0.003429365
     18       17           0.001905747   -0.003192887   -0.001227475
     19       17           0.005742668    0.009811529   -0.000049342
     20       17          -0.005216330    0.008877418    0.003385830
     21       17          -0.003711672    0.000107402    0.001242998
     22       17          -0.014486467   -0.103024666   -0.014576507
 -------------------------------------------------------------------
 Cartesian Forces:  Max     0.103024666 RMS     0.023781084

 GradGradGradGradGradGradGradGradGradGradGradGradGradGradGradGradGradGrad
 Berny optimization.
 FormGI is forming the generalized inverse of G from B-inverse, IUseBI=4.
 Internal  Forces:  Max     0.192123001 RMS     0.048958304
 Search for a local minimum.
 Step number   1 out of a maximum of  121
 All quantities printed in internal units (Hartrees-Bohrs-Radians)
 Mixed Optimization -- RFO/linear search
 Second derivative matrix not updated -- first step.
 ITU=  0
     Eigenvalues ---    0.00237   0.01506   0.01506   0.02070   0.02070
     Eigenvalues ---    0.02070   0.02070   0.02070   0.02070   0.02070
     Eigenvalues ---    0.02070   0.02070   0.02070   0.02070   0.02070
     Eigenvalues ---    0.02070   0.02070   0.02070   0.02070   0.16000
     Eigenvalues ---    0.16000   0.16000   0.23478   0.23478   0.23500
     Eigenvalues ---    0.25000   0.25000   0.25000   0.25000   0.25000
     Eigenvalues ---    0.25000   0.25000   0.25000   0.25000   0.25000
     Eigenvalues ---    0.25000   0.25000   0.28519   0.29539   0.29539
     Eigenvalues ---    0.29539   0.29539   0.29539   0.29539   0.29539
     Eigenvalues ---    0.37230   0.37230   0.37230   0.41554   0.41554
     Eigenvalues ---    0.41797   0.41797   0.45389   0.45389   0.45389
     Eigenvalues ---    0.45389   0.45389   0.45389   0.45389   0.45389
 RFO step:  Lambda=-3.93013926D-01 EMin= 2.36824243D-03
 Linear search not attempted -- first point.
 Maximum step size (   0.300) exceeded in Quadratic search.
    -- Step size scaled by   0.392
 Iteration  1 RMS(Cart)=  0.09809586 RMS(Int)=  0.00386874
 Iteration  2 RMS(Cart)=  0.00438910 RMS(Int)=  0.00015669
 Iteration  3 RMS(Cart)=  0.00000723 RMS(Int)=  0.00015666
 Iteration  4 RMS(Cart)=  0.00000000 RMS(Int)=  0.00015666
 Variable       Old X    -DE/DX   Delta X   Delta X   Delta X     New X
                                 (Linear)    (Quad)   (Total)
    R1        2.64826   0.03211   0.00000   0.01535   0.01550   2.66376
    R2        2.64826   0.03211   0.00000   0.01535   0.01550   2.66376
    R3        2.91018   0.14961   0.00000   0.08645   0.08645   2.99663
    R4        2.64826  -0.00908   0.00000  -0.00420  -0.00420   2.64406
    R5        2.02201  -0.04237   0.00000  -0.02170  -0.02170   2.00031
    R6        2.64826  -0.04299   0.00000  -0.02039  -0.02053   2.62773
    R7        3.32592  -0.00391   0.00000  -0.00223  -0.00223   3.32369
    R8        2.64826  -0.04299   0.00000  -0.02039  -0.02053   2.62773
    R9        2.02201   0.00953   0.00000   0.00488   0.00488   2.02689
   R10        2.64826  -0.00908   0.00000  -0.00420  -0.00420   2.64406
   R11        3.32592  -0.00391   0.00000  -0.00223  -0.00223   3.32369
   R12        2.02201  -0.04237   0.00000  -0.02170  -0.02170   2.00031
   R13        2.64826   0.13840   0.00000   0.06602   0.06632   2.71458
   R14        2.64826   0.13840   0.00000   0.06602   0.06632   2.71458
   R15        2.64826  -0.00324   0.00000  -0.00150  -0.00150   2.64676
   R16        3.32592  -0.01146   0.00000  -0.00653  -0.00653   3.31939
   R17        2.64826  -0.05419   0.00000  -0.02705  -0.02736   2.62091
   R18        3.32592  -0.01083   0.00000  -0.00616  -0.00616   3.31975
   R19        2.64826  -0.05419   0.00000  -0.02705  -0.02736   2.62091
   R20        3.32592  -0.01137   0.00000  -0.00647  -0.00647   3.31945
   R21        2.64826  -0.00324   0.00000  -0.00150  -0.00150   2.64676
   R22        3.32592  -0.01083   0.00000  -0.00616  -0.00616   3.31975
   R23        3.32592  -0.01146   0.00000  -0.00653  -0.00653   3.31939
    A1        2.09440  -0.10945   0.00000  -0.06569  -0.06538   2.02901
    A2        2.09440   0.05473   0.00000   0.03285   0.03269   2.12709
    A3        2.09440   0.05473   0.00000   0.03285   0.03269   2.12709
    A4        2.09440   0.04946   0.00000   0.03198   0.03213   2.12653
    A5        2.09440   0.00311   0.00000   0.00374   0.00366   2.09806
    A6        2.09440  -0.05257   0.00000  -0.03572  -0.03579   2.05860
    A7        2.09440   0.02140   0.00000   0.01205   0.01190   2.10629
    A8        2.09440  -0.01038   0.00000  -0.00583  -0.00575   2.08864
    A9        2.09440  -0.01102   0.00000  -0.00622  -0.00615   2.08825
   A10        2.09440  -0.03227   0.00000  -0.02238  -0.02268   2.07172
   A11        2.09440   0.01614   0.00000   0.01119   0.01134   2.10573
   A12        2.09440   0.01614   0.00000   0.01119   0.01134   2.10573
   A13        2.09440   0.02140   0.00000   0.01205   0.01190   2.10629
   A14        2.09440  -0.01102   0.00000  -0.00622  -0.00615   2.08825
   A15        2.09440  -0.01038   0.00000  -0.00583  -0.00575   2.08864
   A16        2.09440   0.04946   0.00000   0.03198   0.03213   2.12653
   A17        2.09440   0.00311   0.00000   0.00374   0.00366   2.09806
   A18        2.09440  -0.05257   0.00000  -0.03572  -0.03579   2.05860
   A19        2.09440   0.06882   0.00000   0.03929   0.03897   2.13336
   A20        2.09440   0.06882   0.00000   0.03929   0.03897   2.13336
   A21        2.09440  -0.13765   0.00000  -0.07859  -0.07793   2.01646
   A22        2.09440   0.03693   0.00000   0.02516   0.02547   2.11986
   A23        2.09440   0.15519   0.00000   0.09326   0.09310   2.18750
   A24        2.09440  -0.19212   0.00000  -0.11841  -0.11857   1.97583
   A25        2.09440   0.03854   0.00000   0.02084   0.02052   2.11492
   A26        2.09440  -0.01850   0.00000  -0.00995  -0.00979   2.08461
   A27        2.09440  -0.02005   0.00000  -0.01089  -0.01073   2.08366
   A28        2.09440  -0.01330   0.00000  -0.01341  -0.01405   2.08035
   A29        2.09440   0.00665   0.00000   0.00670   0.00702   2.10142
   A30        2.09440   0.00665   0.00000   0.00670   0.00702   2.10142
   A31        2.09440   0.03854   0.00000   0.02084   0.02052   2.11492
   A32        2.09440  -0.02005   0.00000  -0.01089  -0.01073   2.08366
   A33        2.09440  -0.01850   0.00000  -0.00995  -0.00979   2.08461
   A34        2.09440   0.03693   0.00000   0.02516   0.02547   2.11986
   A35        2.09440   0.15519   0.00000   0.09326   0.09310   2.18750
   A36        2.09440  -0.19212   0.00000  -0.11841  -0.11857   1.97583
    D1        0.00000   0.00000   0.00000   0.00000   0.00000   0.00000
    D2        3.14159  -0.00000   0.00000   0.00000   0.00000   3.14159
    D3       -3.14159  -0.00000   0.00000  -0.00000  -0.00000  -3.14159
    D4       -0.00000  -0.00000   0.00000  -0.00000  -0.00000  -0.00000
    D5       -0.00000  -0.00000   0.00000  -0.00000  -0.00000  -0.00000
    D6        3.14159  -0.00000   0.00000  -0.00000  -0.00000   3.14159
    D7        3.14159   0.00000   0.00000   0.00000   0.00000   3.14159
    D8        0.00000  -0.00000   0.00000  -0.00000  -0.00000  -0.00000
    D9       -0.00000  -0.00000   0.00000  -0.00000  -0.00000  -0.00000
   D10        3.14159  -0.00000   0.00000  -0.00000  -0.00000   3.14159
   D11        3.14159  -0.00000   0.00000  -0.00000  -0.00000   3.14159
   D12       -0.00000  -0.00000   0.00000  -0.00000  -0.00000  -0.00000
   D13        0.00000  -0.00000   0.00000  -0.00000  -0.00000   0.00000
   D14        3.14159  -0.00000   0.00000  -0.00000  -0.00000   3.14159
   D15       -3.14159  -0.00000   0.00000  -0.00000  -0.00000  -3.14159
   D16        0.00000  -0.00000   0.00000  -0.00000  -0.00000   0.00000
   D17       -0.00000  -0.00000   0.00000   0.00000   0.00000  -0.00000
   D18        3.14159   0.00000   0.00000   0.00000   0.00000   3.14159
   D19        3.14159  -0.00000   0.00000  -0.00000  -0.00000   3.14159
   D20        0.00000  -0.00000   0.00000  -0.00000  -0.00000   0.00000
   D21        0.00000   0.00000   0.00000   0.00000   0.00000   0.00000
   D22       -3.14159   0.00000   0.00000   0.00000   0.00000  -3.14159
   D23       -3.14159  -0.00000   0.00000  -0.00000  -0.00000  -3.14159
   D24        0.00000   0.00000   0.00000   0.00000   0.00000   0.00000
   D25       -0.00000   0.00000   0.00000   0.00000   0.00000  -0.00000
   D26        3.14159   0.00000   0.00000   0.00000   0.00000   3.14159
   D27        3.14159  -0.00000   0.00000  -0.00000  -0.00000   3.14159
   D28       -0.00000   0.00000   0.00000   0.00000   0.00000  -0.00000
   D29        3.14159   0.00000   0.00000   0.00000   0.00000   3.14159
   D30        0.00000   0.00000   0.00000   0.00000   0.00000   0.00000
   D31        0.00000   0.00000   0.00000   0.00000   0.00000   0.00000
   D32       -3.14159  -0.00000   0.00000  -0.00000  -0.00000  -3.14159
   D33       -3.14159  -0.00000   0.00000  -0.00000  -0.00000  -3.14159
   D34        0.00000  -0.00000   0.00000  -0.00000  -0.00000  -0.00000
   D35       -0.00000   0.00000   0.00000   0.00000   0.00000  -0.00000
   D36        3.14159  -0.00000   0.00000  -0.00000  -0.00000   3.14159
   D37       -0.00000  -0.00000   0.00000  -0.00000  -0.00000  -0.00000
   D38        3.14159  -0.00000   0.00000  -0.00000  -0.00000   3.14159
   D39        3.14159   0.00000   0.00000   0.00000   0.00000   3.14159
   D40       -0.00000   0.00000   0.00000   0.00000   0.00000  -0.00000
   D41       -0.00000   0.00000   0.00000   0.00000   0.00000  -0.00000
   D42       -3.14159  -0.00000   0.00000  -0.00000  -0.00000  -3.14159
   D43        3.14159   0.00000   0.00000   0.00000   0.00000   3.14159
   D44        0.00000   0.00000   0.00000   0.00000   0.00000   0.00000
   D45        0.00000   0.00000   0.00000   0.00000   0.00000   0.00000
   D46       -3.14159  -0.00000   0.00000  -0.00000  -0.00000  -3.14159
   D47        3.14159   0.00000   0.00000   0.00000   0.00000   3.14159
   D48        0.00000   0.00000   0.00000   0.00000   0.00000   0.00000
   D49        0.00000  -0.00000   0.00000  -0.00000  -0.00000   0.00000
   D50       -3.14159   0.00000   0.00000   0.00000   0.00000  -3.14159
   D51        3.14159   0.00000   0.00000   0.00000   0.00000   3.14159
   D52       -0.00000   0.00000   0.00000   0.00000   0.00000  -0.00000
         Item               Value     Threshold  Converged?
 Maximum Force            0.192123     0.000450     NO 
 RMS     Force            0.048958     0.000300     NO 
 Maximum Displacement     0.533968     0.001800     NO 
 RMS     Displacement     0.099368     0.001200     NO 
 Predicted change in Energy=-1.415016D-01
 GradGradGradGradGradGradGradGradGradGradGradGradGradGradGradGradGradGrad

                          Input orientation:                          
 ---------------------------------------------------------------------
 Center     Atomic      Atomic             Coordinates (Angstroms)
 Number     Number       Type             X           Y           Z
 ---------------------------------------------------------------------
      1          6           0       -0.220316    0.618044    0.027500
      2          6           0        1.120730    0.693437   -0.400155
      3          6           0        1.826868    1.901341   -0.405939
      4          6           0        1.220515    3.079734    0.015140
      5          6           0       -0.101992    3.034565    0.442361
      6          6           0       -0.809394    1.827404    0.448702
      7          6           0       -1.021328   -0.750503    0.034372
      8          6           0       -0.428726   -1.987261   -0.393140
      9          6           0       -1.151393   -3.186962   -0.380367
     10          6           0       -2.470312   -3.226125    0.046805
     11          6           0       -3.080146   -2.053801    0.467894
     12          6           0       -2.387960   -0.836192    0.468527
     13          1           0        1.624453   -0.177291   -0.729637
     14          1           0        1.762313    4.005406    0.010493
     15          1           0       -1.813795    1.842713    0.782480
     16         17           0       -3.358317    0.511324    1.041297
     17         17           0       -4.750574   -2.097678    1.009994
     18         17           0       -0.893420    4.510291    0.980252
     19         17           0       -3.357615   -4.742104    0.054422
     20         17           0       -0.374043   -4.668933   -0.914799
     21         17           0        3.498732    1.929859   -0.951386
     22         17           0        1.218820   -2.177789   -0.971715
 ---------------------------------------------------------------------
                    Distance matrix (angstroms):
                    1          2          3          4          5
     1  C    0.000000
     2  C    1.409601   0.000000
     3  C    2.454726   1.399177   0.000000
     4  C    2.852379   2.424219   1.390533   0.000000
     5  C    2.454726   2.772320   2.392553   1.390533   0.000000
     6  C    1.409601   2.394121   2.772320   2.424219   1.399177
     7  C    1.585746   2.619578   3.916423   4.438124   3.916423
     8  C    2.647261   3.096289   4.495452   5.344261   5.101328
     9  C    3.938443   4.496714   5.895890   6.712217   6.362823
    10  C    4.454267   5.334635   6.705344   7.306646   6.705344
    11  C    3.938443   5.093936   6.362823   6.712217   5.895890
    12  C    2.647261   3.924956   5.101328   5.344261   4.495452
    13  H    2.146854   1.058519   2.113400   3.365422   3.830170
    14  H    3.924962   3.398441   2.145851   1.072583   2.145851
    15  H    2.146854   3.366139   3.830170   3.365422   2.113400
    16  Cl   3.299428   4.708801   5.559927   5.349340   4.162826
    17  Cl   5.372494   6.652147   7.826862   7.965503   6.947765
    18  Cl   4.063298   4.531081   4.015983   2.728856   1.758822
    19  Cl   6.210842   7.057430   8.439559   9.063221   8.439559
    20  Cl   5.372494   5.590547   6.947765   7.965503   7.826862
    21  Cl   4.063298   2.736328   1.758822   2.728856   4.015983
    22  Cl   3.299428   2.929205   4.162826   5.349340   5.559927
                    6          7          8          9         10
     6  C    0.000000
     7  C    2.619578   0.000000
     8  C    3.924956   1.436494   0.000000
     9  C    5.093936   2.474926   1.400605   0.000000
    10  C    5.334635   2.868521   2.428253   1.386924   0.000000
    11  C    4.496714   2.474926   2.788519   2.392423   1.386924
    12  C    3.096289   1.436494   2.430232   2.788519   2.428253
    13  H    3.366139   2.812906   2.757674   4.109189   5.163851
    14  H    3.398441   5.510708   6.393405   7.769982   8.379229
    15  H    1.058519   2.812906   4.239009   5.204673   5.163851
    16  Cl   2.929205   2.840356   4.108898   4.535301   3.968134
    17  Cl   5.590547   4.083381   4.545256   4.009208   2.720427
    18  Cl   2.736328   5.346682   6.657352   7.820840   7.950475
    19  Cl   7.057430   4.625097   4.045722   2.734031   1.756575
    20  Cl   6.652147   4.083381   2.732486   1.756738   2.720427
    21  Cl   4.531081   5.346682   5.574979   6.937693   7.950475
    22  Cl   4.708801   2.840356   1.756547   2.643111   3.968134
                   11         12         13         14         15
    11  C    0.000000
    12  C    1.400605   0.000000
    13  H    5.204673   4.239009   0.000000
    14  H    7.769982   6.393405   4.249912   0.000000
    15  H    4.109189   2.757674   4.264793   4.249912   0.000000
    16  Cl   2.643111   1.756547   5.332766   6.284268   2.055513
    17  Cl   1.756738   2.732486   6.881510   8.981333   4.919667
    18  Cl   6.937693   5.574979   5.588992   2.871978   2.828812
    19  Cl   2.734031   4.045722   6.802446  10.135804   6.802446
    20  Cl   4.009208   4.545256   4.919667   8.981333   6.881510
    21  Cl   7.820840   6.657352   2.828812   2.871978   5.588992
    22  Cl   4.535301   4.108898   2.055513   6.284268   5.332766
                   16         17         18         19         20
    16  Cl   0.000000
    17  Cl   2.957406   0.000000
    18  Cl   4.697998   7.651391   0.000000
    19  Cl   5.345318   3.137904   9.619576   0.000000
    20  Cl   6.290251   5.428647   9.387179   3.137904   0.000000
    21  Cl   7.280258   9.387179   5.448014   9.619576   7.651391
    22  Cl   5.677475   6.290251   7.280258   5.345318   2.957406
                   21         22
    21  Cl   0.000000
    22  Cl   4.697998   0.000000
 Stoichiometry    C12H3Cl7
 Framework group  C1[X(C12H3Cl7)]
 Deg. of freedom    60
 Full point group                 C1      NOp   1
 Largest Abelian subgroup         C1      NOp   1
 Largest concise Abelian subgroup C1      NOp   1
                         Standard orientation:                         
 ---------------------------------------------------------------------
 Center     Atomic      Atomic             Coordinates (Angstroms)
 Number     Number       Type             X           Y           Z
 ---------------------------------------------------------------------
      1          6           0        1.397874    0.000000    0.000002
      2          6           0        2.142200    1.197061   -0.000001
      3          6           0        3.541376    1.196277   -0.000003
      4          6           0        4.250252    0.000000   -0.000002
      5          6           0        3.541376   -1.196277    0.000002
      6          6           0        2.142200   -1.197061    0.000004
      7          6           0       -0.187872    0.000000    0.000003
      8          6           0       -0.954037    1.215116    0.000003
      9          6           0       -2.354514    1.196212    0.000003
     10          6           0       -3.056394    0.000000    0.000002
     11          6           0       -2.354514   -1.196212    0.000001
     12          6           0       -0.954037   -1.215116    0.000001
     13          1           0        1.646610    2.132396   -0.000003
     14          1           0        5.322836    0.000000   -0.000004
     15          1           0        1.646610   -2.132396    0.000006
     16         17           0       -0.283731   -2.838738   -0.000003
     17         17           0       -3.238519   -2.714323   -0.000006
     18         17           0        4.412866   -2.724007    0.000006
     19         17           0       -4.812969    0.000000   -0.000001
     20         17           0       -3.238519    2.714323    0.000004
     21         17           0        4.412866    2.724007   -0.000007
     22         17           0       -0.283731    2.838738    0.000001
 ---------------------------------------------------------------------
 Rotational constants (GHZ):           0.2895340           0.1308067           0.0901007
 Standard basis: 6-311+G(d,p) (5D, 7F)
 There are   511 symmetry adapted cartesian basis functions of A   symmetry.
 There are   492 symmetry adapted basis functions of A   symmetry.
   492 basis functions,   827 primitive gaussians,   511 cartesian basis functions
    97 alpha electrons       97 beta electrons
       nuclear repulsion energy      2303.9200609206 Hartrees.
 NAtoms=   22 NActive=   22 NUniq=   22 SFac= 1.00D+00 NAtFMM=   60 NAOKFM=F Big=F
 Integral buffers will be    131072 words long.
 Raffenetti 2 integral format.
 Two-electron integral symmetry is turned on.
 One-electron integrals computed using PRISM.
 NBasis=   492 RedAO= T EigKep=  1.13D-06  NBF=   492
 NBsUse=   485 1.00D-06 EigRej=  6.91D-07 NBFU=   485
 Initial guess from the checkpoint file:  "./Gau-316593.chk"
 B after Tr=     0.000000    0.000000   -0.000000
         Rot=    1.000000    0.000000   -0.000000    0.000000 Ang=   0.00 deg.
 ExpMin= 4.38D-02 ExpMax= 1.06D+05 ExpMxC= 3.62D+03 IAcc=3 IRadAn=         5 AccDes= 0.00D+00
 Harris functional with IExCor=  402 and IRadAn=       5 diagonalized for initial guess.
 HarFok:  IExCor=  402 AccDes= 0.00D+00 IRadAn=         5 IDoV= 1 UseB2=F ITyADJ=14
 ICtDFT=  3500011 ScaDFX=  1.000000  1.000000  1.000000  1.000000
 FoFCou: FMM=F IPFlag=           0 FMFlag=      100000 FMFlg1=           0
         NFxFlg=           0 DoJE=T BraDBF=F KetDBF=T FulRan=T
         wScrn=  0.000000 ICntrl=       500 IOpCl=  0 I1Cent=   200000004 NGrid=           0
         NMat0=    1 NMatS0=      1 NMatT0=    0 NMatD0=    1 NMtDS0=    0 NMtDT0=    0
 Petite list used in FoFCou.
 Requested convergence on RMS density matrix=1.00D-08 within  32 cycles.
 Requested convergence on MAX density matrix=1.00D-06.
 Requested convergence on             energy=1.00D-06.
 No special actions if energy rises.
 SCF Done:  E(RB3LYP) =  -3680.69895732     A.U. after   16 cycles
            NFock= 16  Conv=0.26D-08     -V/T= 2.0026
 QCSCF skips out because SCF is already converged.
 Calling FoFJK, ICntrl=      2127 FMM=F ISym2X=0 I1Cent= 0 IOpClX= 0 NMat=1 NMatS=1 NMatT=0.
 ***** Axes restored to original set *****
 -------------------------------------------------------------------
 Center     Atomic                   Forces (Hartrees/Bohr)
 Number     Number              X              Y              Z
 -------------------------------------------------------------------
      1        6          -0.009521477   -0.016267565    0.000081603
      2        6           0.000710860    0.012417510    0.002098070
      3        6          -0.014644865   -0.005390441    0.003812556
      4        6           0.001550243    0.002648744   -0.000013475
      5        6           0.002454785   -0.015436661   -0.003707843
      6        6           0.010469474    0.006684231   -0.002193897
      7        6           0.013967445    0.023863603   -0.000119695
      8        6          -0.007089628    0.008396955    0.003912853
      9        6           0.009242570   -0.008527615   -0.004646689
     10        6          -0.007892728   -0.013484963    0.000067786
     11        6          -0.011940691    0.003917765    0.004669924
     12        6           0.010775772   -0.002099143   -0.003944453
     13        1           0.006278333    0.001307998   -0.001822812
     14        1           0.003472331    0.005932541   -0.000029776
     15        1          -0.001926019    0.006128129    0.001785348
     16       17          -0.003627079   -0.005765950    0.000112110
     17       17           0.006011292   -0.005474834   -0.003008791
     18       17           0.001420384   -0.003248329   -0.001077978
     19       17           0.004767595    0.008145591   -0.000040970
     20       17          -0.007703929    0.002582991    0.003023228
     21       17          -0.003522992   -0.000344048    0.001096050
     22       17          -0.003251674   -0.005986510   -0.000053148
 -------------------------------------------------------------------
 Cartesian Forces:  Max     0.023863603 RMS     0.007108746

 GradGradGradGradGradGradGradGradGradGradGradGradGradGradGradGradGradGrad
 Berny optimization.
 Using GEDIIS/GDIIS optimizer.
 FormGI is forming the generalized inverse of G from B-inverse, IUseBI=4.
 Internal  Forces:  Max     0.015151934 RMS     0.005188311
 Search for a local minimum.
 Step number   2 out of a maximum of  121
 All quantities printed in internal units (Hartrees-Bohrs-Radians)
 Mixed Optimization -- RFO/linear search
 Update second derivatives using D2CorX and points    1    2
 DE= -7.16D-02 DEPred=-1.42D-01 R= 5.06D-01
 TightC=F SS=  1.41D+00  RLast= 3.00D-01 DXNew= 5.0454D-01 8.9996D-01
 Trust test= 5.06D-01 RLast= 3.00D-01 DXMaxT set to 5.05D-01
 ITU=  1  0
 Use linear search instead of GDIIS.
     Eigenvalues ---    0.00237   0.01461   0.01467   0.02070   0.02070
     Eigenvalues ---    0.02070   0.02070   0.02070   0.02070   0.02070
     Eigenvalues ---    0.02070   0.02070   0.02070   0.02070   0.02070
     Eigenvalues ---    0.02070   0.02070   0.02070   0.02070   0.16000
     Eigenvalues ---    0.16000   0.16081   0.23470   0.23478   0.23649
     Eigenvalues ---    0.24933   0.25000   0.25000   0.25000   0.25000
     Eigenvalues ---    0.25000   0.25000   0.25000   0.25000   0.25000
     Eigenvalues ---    0.25000   0.27941   0.29507   0.29537   0.29539
     Eigenvalues ---    0.29539   0.29539   0.29539   0.29539   0.36389
     Eigenvalues ---    0.37221   0.37230   0.38411   0.41382   0.41678
     Eigenvalues ---    0.41735   0.45071   0.45320   0.45389   0.45389
     Eigenvalues ---    0.45389   0.45389   0.45389   0.45389   1.63322
 RFO step:  Lambda=-8.12791869D-03 EMin= 2.36824243D-03
 Quartic linear search produced a step of  0.13870.
 Iteration  1 RMS(Cart)=  0.02956427 RMS(Int)=  0.00044349
 Iteration  2 RMS(Cart)=  0.00052747 RMS(Int)=  0.00003279
 Iteration  3 RMS(Cart)=  0.00000013 RMS(Int)=  0.00003279
 Variable       Old X    -DE/DX   Delta X   Delta X   Delta X     New X
                                 (Linear)    (Quad)   (Total)
    R1        2.66376   0.00176   0.00215  -0.00150   0.00063   2.66439
    R2        2.66376   0.00176   0.00215  -0.00150   0.00063   2.66439
    R3        2.99663  -0.00645   0.01199  -0.06305  -0.05106   2.94557
    R4        2.64406  -0.00918  -0.00058  -0.02094  -0.02152   2.62254
    R5        2.00031   0.00248  -0.00301   0.01638   0.01337   2.01369
    R6        2.62773  -0.00852  -0.00285  -0.01316  -0.01599   2.61174
    R7        3.32369  -0.00369  -0.00031  -0.01289  -0.01319   3.31050
    R8        2.62773  -0.00852  -0.00285  -0.01316  -0.01599   2.61174
    R9        2.02689   0.00687   0.00068   0.01855   0.01923   2.04612
   R10        2.64406  -0.00918  -0.00058  -0.02094  -0.02152   2.62254
   R11        3.32369  -0.00369  -0.00031  -0.01289  -0.01319   3.31050
   R12        2.00031   0.00248  -0.00301   0.01638   0.01337   2.01369
   R13        2.71458   0.00596   0.00920  -0.01098  -0.00171   2.71287
   R14        2.71458   0.00596   0.00920  -0.01098  -0.00171   2.71287
   R15        2.64676   0.00729  -0.00021   0.01856   0.01835   2.66511
   R16        3.31939  -0.00238  -0.00091  -0.00609  -0.00700   3.31239
   R17        2.62091  -0.00411  -0.00379   0.00006  -0.00380   2.61711
   R18        3.31975  -0.00651  -0.00086  -0.02172  -0.02258   3.29718
   R19        2.62091  -0.00411  -0.00379   0.00006  -0.00380   2.61711
   R20        3.31945  -0.00944  -0.00090  -0.03258  -0.03348   3.28597
   R21        2.64676   0.00729  -0.00021   0.01856   0.01835   2.66511
   R22        3.31975  -0.00651  -0.00086  -0.02172  -0.02258   3.29718
   R23        3.31939  -0.00238  -0.00091  -0.00609  -0.00700   3.31239
    A1        2.02901  -0.01203  -0.00907  -0.02167  -0.03078   1.99823
    A2        2.12709   0.00602   0.00453   0.01084   0.01539   2.14248
    A3        2.12709   0.00602   0.00453   0.01084   0.01539   2.14248
    A4        2.12653   0.00311   0.00446   0.00155   0.00599   2.13252
    A5        2.09806   0.00463   0.00051   0.03076   0.03128   2.12934
    A6        2.05860  -0.00775  -0.00496  -0.03232  -0.03727   2.02133
    A7        2.10629   0.00837   0.00165   0.03148   0.03315   2.13944
    A8        2.08864  -0.00466  -0.00080  -0.01795  -0.01875   2.06989
    A9        2.08825  -0.00370  -0.00085  -0.01354  -0.01440   2.07385
   A10        2.07172  -0.01092  -0.00315  -0.04439  -0.04750   2.02421
   A11        2.10573   0.00546   0.00157   0.02220   0.02375   2.12949
   A12        2.10573   0.00546   0.00157   0.02220   0.02375   2.12949
   A13        2.10629   0.00837   0.00165   0.03148   0.03315   2.13944
   A14        2.08825  -0.00370  -0.00085  -0.01354  -0.01440   2.07385
   A15        2.08864  -0.00466  -0.00080  -0.01795  -0.01875   2.06989
   A16        2.12653   0.00311   0.00446   0.00155   0.00599   2.13252
   A17        2.09806   0.00463   0.00051   0.03076   0.03128   2.12934
   A18        2.05860  -0.00775  -0.00496  -0.03232  -0.03727   2.02133
   A19        2.13336   0.00758   0.00540   0.01454   0.01987   2.15323
   A20        2.13336   0.00758   0.00540   0.01454   0.01987   2.15323
   A21        2.01646  -0.01515  -0.01081  -0.02908  -0.03974   1.97672
   A22        2.11986   0.00779   0.00353   0.02394   0.02754   2.14740
   A23        2.18750   0.00670   0.01291  -0.01345  -0.00057   2.18692
   A24        1.97583  -0.01449  -0.01645  -0.01048  -0.02696   1.94886
   A25        2.11492   0.00124   0.00285  -0.00504  -0.00227   2.11265
   A26        2.08461   0.00889  -0.00136   0.04424   0.04292   2.12752
   A27        2.08366  -0.01013  -0.00149  -0.03920  -0.04065   2.04301
   A28        2.08035  -0.00290  -0.00195  -0.00871  -0.01080   2.06955
   A29        2.10142   0.00145   0.00097   0.00436   0.00540   2.10682
   A30        2.10142   0.00145   0.00097   0.00436   0.00540   2.10682
   A31        2.11492   0.00124   0.00285  -0.00504  -0.00227   2.11265
   A32        2.08366  -0.01013  -0.00149  -0.03920  -0.04065   2.04301
   A33        2.08461   0.00889  -0.00136   0.04424   0.04292   2.12752
   A34        2.11986   0.00779   0.00353   0.02394   0.02754   2.14740
   A35        2.18750   0.00670   0.01291  -0.01345  -0.00057   2.18692
   A36        1.97583  -0.01449  -0.01645  -0.01048  -0.02696   1.94886
    D1        0.00000  -0.00000   0.00000  -0.00000  -0.00000   0.00000
    D2        3.14159   0.00000   0.00000   0.00000   0.00000  -3.14159
    D3       -3.14159  -0.00000  -0.00000  -0.00000  -0.00000   3.14159
    D4       -0.00000  -0.00000  -0.00000  -0.00000  -0.00000  -0.00000
    D5       -0.00000   0.00000  -0.00000   0.00000   0.00000  -0.00000
    D6        3.14159  -0.00000  -0.00000  -0.00000  -0.00000   3.14159
    D7        3.14159   0.00000   0.00000   0.00000   0.00000  -3.14159
    D8       -0.00000  -0.00000  -0.00000  -0.00000  -0.00000  -0.00000
    D9       -0.00000  -0.00000  -0.00000  -0.00002  -0.00002  -0.00002
   D10        3.14159  -0.00000  -0.00000  -0.00001  -0.00001   3.14158
   D11        3.14159  -0.00000  -0.00000  -0.00002  -0.00002   3.14157
   D12       -0.00000  -0.00000  -0.00000  -0.00001  -0.00001  -0.00002
   D13        0.00000  -0.00000  -0.00000  -0.00000  -0.00000  -0.00000
   D14        3.14159   0.00000  -0.00000   0.00000   0.00000   3.14159
   D15       -3.14159  -0.00000  -0.00000  -0.00000  -0.00000  -3.14159
   D16        0.00000  -0.00000  -0.00000  -0.00000  -0.00000   0.00000
   D17       -0.00000   0.00000   0.00000   0.00000   0.00000  -0.00000
   D18        3.14159   0.00000   0.00000   0.00000   0.00000  -3.14159
   D19        3.14159   0.00000  -0.00000   0.00000   0.00000   3.14159
   D20        0.00000  -0.00000  -0.00000  -0.00000  -0.00000  -0.00000
   D21        0.00000  -0.00000   0.00000  -0.00000  -0.00000   0.00000
   D22       -3.14159  -0.00000   0.00000  -0.00000  -0.00000  -3.14159
   D23       -3.14159  -0.00000  -0.00000  -0.00000  -0.00000  -3.14159
   D24        0.00000   0.00000   0.00000   0.00000   0.00000   0.00000
   D25       -0.00000   0.00000   0.00000   0.00000   0.00000  -0.00000
   D26        3.14159   0.00000   0.00000   0.00000   0.00000  -3.14159
   D27        3.14159   0.00000  -0.00000   0.00000   0.00000   3.14159
   D28       -0.00000   0.00000   0.00000   0.00000   0.00000   0.00000
   D29        3.14159   0.00000   0.00000   0.00000   0.00000  -3.14159
   D30        0.00000  -0.00000   0.00000  -0.00000  -0.00000   0.00000
   D31        0.00000   0.00000   0.00000   0.00000   0.00000   0.00000
   D32       -3.14159  -0.00000  -0.00000  -0.00000  -0.00000   3.14159
   D33       -3.14159  -0.00000  -0.00000  -0.00000  -0.00000   3.14159
   D34       -0.00000  -0.00000  -0.00000  -0.00000  -0.00000  -0.00000
   D35       -0.00000   0.00000   0.00000   0.00000   0.00000  -0.00000
   D36        3.14159  -0.00000  -0.00000   0.00000   0.00000   3.14159
   D37       -0.00000  -0.00000  -0.00000  -0.00000  -0.00000  -0.00000
   D38        3.14159  -0.00000  -0.00000  -0.00000  -0.00000   3.14159
   D39        3.14159   0.00000   0.00000   0.00000   0.00000  -3.14159
   D40       -0.00000   0.00000   0.00000   0.00000   0.00000  -0.00000
   D41       -0.00000   0.00000   0.00000   0.00000   0.00000   0.00000
   D42       -3.14159  -0.00000  -0.00000  -0.00000  -0.00000   3.14159
   D43        3.14159   0.00000   0.00000   0.00000   0.00000  -3.14159
   D44        0.00000  -0.00000   0.00000  -0.00000  -0.00000   0.00000
   D45        0.00000   0.00000   0.00000   0.00000   0.00000   0.00000
   D46       -3.14159  -0.00000  -0.00000  -0.00000  -0.00000  -3.14159
   D47        3.14159   0.00000   0.00000   0.00000   0.00000  -3.14159
   D48        0.00000  -0.00000   0.00000  -0.00000  -0.00000   0.00000
   D49        0.00000  -0.00000  -0.00000  -0.00000  -0.00000  -0.00000
   D50       -3.14159  -0.00000   0.00000  -0.00000  -0.00000  -3.14159
   D51        3.14159   0.00000   0.00000   0.00000   0.00000  -3.14159
   D52       -0.00000   0.00000   0.00000   0.00000   0.00000   0.00000
         Item               Value     Threshold  Converged?
 Maximum Force            0.015152     0.000450     NO 
 RMS     Force            0.005188     0.000300     NO 
 Maximum Displacement     0.134323     0.001800     NO 
[...]
                 (A) (A) (A) (A) (A) (A) (A) (A) (A) (A) (A) (A)
                 (A) (A) (A) (A) (A) (A) (A) (A) (A) (A) (A) (A)
                 (A) (A) (A) (A) (A) (A) (A) (A) (A) (A) (A) (A)
                 (A) (A) (A) (A) (A) (A) (A) (A) (A) (A) (A) (A)
                 (A) (A) (A) (A) (A) (A) (A) (A) (A) (A) (A) (A)
                 (A) (A) (A) (A) (A) (A) (A) (A) (A) (A) (A) (A)
                 (A) (A) (A) (A) (A) (A) (A) (A) (A) (A) (A) (A)
                 (A) (A) (A) (A) (A) (A) (A) (A) (A) (A) (A) (A)
                 (A) (A) (A) (A) (A) (A) (A) (A) (A) (A) (A) (A)
                 (A) (A) (A) (A) (A) (A) (A) (A) (A) (A) (A) (A)
                 (A) (A) (A) (A) (A) (A) (A) (A) (A) (A) (A) (A)
                 (A) (A) (A) (A) (A) (A) (A) (A) (A) (A) (A) (A)
                 (A) (A) (A) (A) (A) (A) (A) (A) (A) (A) (A) (A)
                 (A) (A) (A) (A) (A) (A) (A) (A) (A) (A) (A) (A)
                 (A) (A) (A) (A) (A) (A) (A) (A) (A) (A) (A) (A)
                 (A) (A) (A) (A) (A) (A) (A) (A) (A) (A) (A) (A)
                 (A) (A) (A) (A) (A) (A) (A) (A) (A) (A) (A) (A)
                 (A) (A) (A) (A) (A) (A) (A) (A) (A) (A) (A) (A)
                 (A) (A) (A) (A) (A) (A) (A)
 The electronic state is 1-A.
 Alpha  occ. eigenvalues -- -101.58682-101.58580-101.58580-101.58423-101.58423
 Alpha  occ. eigenvalues -- -101.57228-101.57228 -10.29093 -10.28802 -10.28796
 Alpha  occ. eigenvalues --  -10.28672 -10.28672 -10.26670 -10.26670 -10.24776
 Alpha  occ. eigenvalues --  -10.23247 -10.21649 -10.21379 -10.21378  -9.50148
 Alpha  occ. eigenvalues --   -9.50046  -9.50046  -9.49897  -9.49897  -9.48683
 Alpha  occ. eigenvalues --   -9.48683  -7.26658  -7.26554  -7.26554  -7.26393
 Alpha  occ. eigenvalues --   -7.26393  -7.25629  -7.25537  -7.25525  -7.25525
 Alpha  occ. eigenvalues --   -7.25437  -7.25437  -7.25379  -7.25379  -7.25296
 Alpha  occ. eigenvalues --   -7.25296  -7.25153  -7.25153  -7.24162  -7.24162
 Alpha  occ. eigenvalues --   -7.24125  -7.24125  -0.97622  -0.93409  -0.93068
 Alpha  occ. eigenvalues --   -0.91815  -0.89318  -0.88513  -0.87634  -0.85610
 Alpha  occ. eigenvalues --   -0.84226  -0.79725  -0.76110  -0.75617  -0.75116
 Alpha  occ. eigenvalues --   -0.67388  -0.63787  -0.62988  -0.61990  -0.56682
 Alpha  occ. eigenvalues --   -0.55431  -0.53498  -0.52252  -0.50180  -0.48648
 Alpha  occ. eigenvalues --   -0.47843  -0.47367  -0.47010  -0.46120  -0.44794
 Alpha  occ. eigenvalues --   -0.44528  -0.42986  -0.41715  -0.40785  -0.40594
 Alpha  occ. eigenvalues --   -0.39659  -0.38204  -0.36824  -0.36439  -0.36347
 Alpha  occ. eigenvalues --   -0.36037  -0.35497  -0.33937  -0.33930  -0.33804
 Alpha  occ. eigenvalues --   -0.33448  -0.33090  -0.31797  -0.28203  -0.28077
 Alpha  occ. eigenvalues --   -0.27340  -0.27107
 Alpha virt. eigenvalues --   -0.06894  -0.06827  -0.06354  -0.05563  -0.04782
 Alpha virt. eigenvalues --   -0.01830  -0.01280  -0.00792  -0.00077   0.01001
 Alpha virt. eigenvalues --    0.01393   0.01743   0.01969   0.02085   0.02561
 Alpha virt. eigenvalues --    0.03101   0.03958   0.04608   0.05323   0.05448
 Alpha virt. eigenvalues --    0.06109   0.06260   0.06485   0.07255   0.07645
 Alpha virt. eigenvalues --    0.07832   0.08061   0.08341   0.08488   0.08817
 Alpha virt. eigenvalues --    0.09173   0.09523   0.10101   0.10130   0.10665
 Alpha virt. eigenvalues --    0.10669   0.11622   0.11732   0.11891   0.12241
 Alpha virt. eigenvalues --    0.12335   0.12732   0.12837   0.13433   0.13842
 Alpha virt. eigenvalues --    0.14160   0.14363   0.15097   0.15183   0.15664
 Alpha virt. eigenvalues --    0.16283   0.16697   0.17101   0.17450   0.17508
 Alpha virt. eigenvalues --    0.17666   0.18324   0.18733   0.18812   0.19391
 Alpha virt. eigenvalues --    0.19458   0.19756   0.20524   0.21162   0.21196
 Alpha virt. eigenvalues --    0.21530   0.21817   0.21927   0.22549   0.23064
 Alpha virt. eigenvalues --    0.23326   0.23414   0.23999   0.24139   0.25012
 Alpha virt. eigenvalues --    0.25387   0.25597   0.26423   0.26599   0.26735
 Alpha virt. eigenvalues --    0.26935   0.27105   0.27801   0.28037   0.28123
 Alpha virt. eigenvalues --    0.28642   0.28921   0.28931   0.29974   0.30191
 Alpha virt. eigenvalues --    0.30221   0.30993   0.31770   0.32633   0.32752
 Alpha virt. eigenvalues --    0.34378   0.35876   0.38254   0.41729   0.41962
 Alpha virt. eigenvalues --    0.42516   0.42544   0.42852   0.43450   0.43501
 Alpha virt. eigenvalues --    0.44814   0.45565   0.45697   0.45883   0.45885
 Alpha virt. eigenvalues --    0.46980   0.47099   0.47174   0.47738   0.47966
 Alpha virt. eigenvalues --    0.48507   0.49111   0.50132   0.50348   0.50708
 Alpha virt. eigenvalues --    0.51891   0.54578   0.54609   0.55406   0.55857
 Alpha virt. eigenvalues --    0.56940   0.57220   0.58540   0.58632   0.59013
 Alpha virt. eigenvalues --    0.59153   0.60433   0.60809   0.60813   0.61451
 Alpha virt. eigenvalues --    0.62227   0.63115   0.64208   0.64492   0.64521
 Alpha virt. eigenvalues --    0.65053   0.66365   0.67087   0.68006   0.68081
 Alpha virt. eigenvalues --    0.68533   0.69609   0.70518   0.71247   0.75678
 Alpha virt. eigenvalues --    0.78601   0.78670   0.78731   0.80685   0.81446
 Alpha virt. eigenvalues --    0.81995   0.82661   0.82975   0.83080   0.83488
 Alpha virt. eigenvalues --    0.83608   0.83633   0.83892   0.84243   0.84574
 Alpha virt. eigenvalues --    0.84898   0.85529   0.85546   0.85572   0.85989
 Alpha virt. eigenvalues --    0.86291   0.86418   0.87709   0.87986   0.88240
 Alpha virt. eigenvalues --    0.88757   0.89247   0.91021   0.92114   0.92320
 Alpha virt. eigenvalues --    0.92916   0.93457   0.93672   0.93727   0.93881
 Alpha virt. eigenvalues --    0.94513   0.95176   0.95321   0.96131   0.96211
 Alpha virt. eigenvalues --    0.97635   0.97975   0.99110   0.99585   1.02318
 Alpha virt. eigenvalues --    1.02712   1.04074   1.04891   1.06005   1.08251
 Alpha virt. eigenvalues --    1.08638   1.08881   1.09829   1.13653   1.16727
 Alpha virt. eigenvalues --    1.17986   1.18031   1.18178   1.21239   1.22226
 Alpha virt. eigenvalues --    1.23415   1.24506   1.25269   1.26622   1.26944
 Alpha virt. eigenvalues --    1.27731   1.28382   1.29072   1.29228   1.29846
 Alpha virt. eigenvalues --    1.30575   1.30695   1.34553   1.38051   1.38744
 Alpha virt. eigenvalues --    1.38957   1.45175   1.46495   1.49701   1.51572
 Alpha virt. eigenvalues --    1.54550   1.56316   1.56622   1.57983   1.59453
 Alpha virt. eigenvalues --    1.59924   1.62857   1.64385   1.67818   1.67865
 Alpha virt. eigenvalues --    1.68148   1.70181   1.73534   1.74111   1.78576
 Alpha virt. eigenvalues --    1.79772   1.80401   1.82779   1.83466   1.85103
 Alpha virt. eigenvalues --    1.85217   1.88338   1.91004   1.91558   1.92389
 Alpha virt. eigenvalues --    1.95292   1.95476   1.96999   1.99547   2.02805
 Alpha virt. eigenvalues --    2.04443   2.09631   2.09735   2.10062   2.11462
 Alpha virt. eigenvalues --    2.11500   2.21456   2.21867   2.22756   2.23208
 Alpha virt. eigenvalues --    2.24621   2.24623   2.25738   2.26699   2.27670
 Alpha virt. eigenvalues --    2.28026   2.29134   2.32014   2.33034   2.34031
 Alpha virt. eigenvalues --    2.34086   2.38264   2.40597   2.40755   2.40877
 Alpha virt. eigenvalues --    2.41135   2.42078   2.45202   2.46808   2.49149
 Alpha virt. eigenvalues --    2.50045   2.50713   2.52140   2.55443   2.56251
 Alpha virt. eigenvalues --    2.56974   2.60697   2.63237   2.63981   2.64573
 Alpha virt. eigenvalues --    2.65733   2.68270   2.70045   2.72389   2.72857
 Alpha virt. eigenvalues --    2.73717   2.74915   2.75395   2.77292   2.81477
 Alpha virt. eigenvalues --    2.82170   2.83931   2.88019   2.89493   2.95546
 Alpha virt. eigenvalues --    2.98541   3.05147   3.05932   3.09147   3.11081
 Alpha virt. eigenvalues --    3.11780   3.12930   3.14555   3.15349   3.21375
 Alpha virt. eigenvalues --    3.21505   3.22947   3.27678   3.34181   3.34910
 Alpha virt. eigenvalues --    3.49581   3.50216   3.57727   3.65251   3.70643
 Alpha virt. eigenvalues --    3.74233   3.80619   3.87786   3.90780   4.08546
 Alpha virt. eigenvalues --    4.09971   4.30398   4.79686   4.81715   9.72884
 Alpha virt. eigenvalues --    9.76876   9.77918   9.78608   9.80405   9.81059
 Alpha virt. eigenvalues --    9.84294  23.27517  23.54203  23.76359  23.80529
 Alpha virt. eigenvalues --   23.85241  23.89666  23.91417  23.94951  24.00151
 Alpha virt. eigenvalues --   24.03541  24.06631  24.14537  25.76104  25.78569
 Alpha virt. eigenvalues --   25.81448  25.82975  25.85133  25.87071  25.95253
 Alpha virt. eigenvalues --   26.07475  26.08635  26.10278  26.17720  26.18510
 Alpha virt. eigenvalues --   26.26888  26.35175  26.45190  26.53944  26.60713
 Alpha virt. eigenvalues --   26.66570  26.75364  26.75440  27.09137 215.71898
 Alpha virt. eigenvalues --  215.75962 215.77393 215.78049 215.80298 215.81111
 Alpha virt. eigenvalues --  215.85141
          Condensed to atoms (all electrons):
               1          2          3          4          5          6
     1  C   27.836738  -0.874238  -4.846922   2.908203  -4.844897  -0.881684
     2  C   -0.874238  79.629929 -23.199076 -14.121326   3.993140 -29.934479
     3  C   -4.846922 -23.199076  32.427951  -2.547786  -1.937623   3.987827
     4  C    2.908203 -14.121326  -2.547786  36.172396  -2.548490 -14.118425
     5  C   -4.844897   3.993140  -1.937623  -2.548490  32.436977 -23.216455
     6  C   -0.881684 -29.934479   3.987827 -14.118425 -23.216455  79.656560
     7  C    4.803816  -3.940570   2.573576  -0.841239   2.570178  -3.935391
     8  C   -2.663661  -1.758469  -0.478131   1.234285  -0.474123  -1.765355
     9  C   -5.184108  -0.858234   0.166926   0.162932   0.167515  -0.856806
    10  C   -1.428776   0.180347  -0.461114   0.301117  -0.461169   0.181142
    11  C   -5.182471  -0.855593   0.166398   0.162591   0.168125  -0.858962
    12  C   -2.667684  -1.766492  -0.475099   1.235379  -0.477061  -1.760222
    13  H    0.116729  -0.116290   0.074632   0.104033  -0.042005   0.056078
    14  H    0.040344   0.035940   0.040533   0.151661   0.040530   0.035927
    15  H    0.116798   0.056113  -0.041993   0.104014   0.074688  -0.116364
    16  Cl  -0.410402  -0.070683   0.512958  -0.366849   0.512275  -0.069286
    17  Cl  -0.135276  -0.026156   0.017926  -0.006362   0.017905  -0.026223
    18  Cl  -0.238614   0.467376   0.136020  -0.260872  -1.372414   0.681603
    19  Cl  -0.203213  -0.017880   0.000110   0.002510   0.000112  -0.017844
    20  Cl  -0.135339  -0.026186   0.017908  -0.006355   0.017912  -0.026199
    21  Cl  -0.238674   0.681665  -1.372457  -0.260712   0.135990   0.467201
    22  Cl  -0.409802  -0.068701   0.512257  -0.367160   0.513552  -0.071627
               7          8          9         10         11         12
     1  C    4.803816  -2.663661  -5.184108  -1.428776  -5.182471  -2.667684
     2  C   -3.940570  -1.758469  -0.858234   0.180347  -0.855593  -1.766492
     3  C    2.573576  -0.478131   0.166926  -0.461114   0.166398  -0.475099
     4  C   -0.841239   1.234285   0.162932   0.301117   0.162591   1.235379
     5  C    2.570178  -0.474123   0.167515  -0.461169   0.168125  -0.477061
     6  C   -3.935391  -1.765355  -0.856806   0.181142  -0.858962  -1.760222
     7  C   25.813815  -3.571418  -8.345853   4.348610  -8.345602  -3.573371
     8  C   -3.571418  17.390674  -3.897137  -7.189053   8.562362   3.284408
     9  C   -8.345853  -3.897137  28.945350  -2.882659 -10.195939   8.563610
    10  C    4.348610  -7.189053  -2.882659  24.725242  -2.885971  -7.184697
    11  C   -8.345602   8.562362 -10.195939  -2.885971  28.944025  -3.893924
    12  C   -3.573371   3.284408   8.563610  -7.184697  -3.893924  17.389980
    13  H    0.042262   0.059152   0.008820   0.015102   0.008782   0.059250
    14  H    0.006767   0.000345  -0.000035   0.000003  -0.000035   0.000343
    15  H    0.042174   0.059219   0.008800   0.015101   0.008810   0.059185
    16  Cl   0.221042  -0.745011   1.445393  -0.489965  -1.358497  -0.982599
    17  Cl  -0.946474   0.634087  -0.640391  -0.678491   0.901950   0.289543
    18  Cl  -0.069016  -0.056697  -0.014844  -0.005792  -0.014832  -0.056745
    19  Cl   0.118196  -0.782915  -0.008310   1.014418  -0.008079  -0.782736
    20  Cl  -0.946563   0.289298   0.902277  -0.678250  -0.640499   0.634057
    21  Cl  -0.069023  -0.056645  -0.014827  -0.005786  -0.014812  -0.056691
    22  Cl   0.221270  -0.982282  -1.359205  -0.490398   1.445454  -0.745459
              13         14         15         16         17         18
     1  C    0.116729   0.040344   0.116798  -0.410402  -0.135276  -0.238614
     2  C   -0.116290   0.035940   0.056113  -0.070683  -0.026156   0.467376
     3  C    0.074632   0.040533  -0.041993   0.512958   0.017926   0.136020
     4  C    0.104033   0.151661   0.104014  -0.366849  -0.006362  -0.260872
     5  C   -0.042005   0.040530   0.074688   0.512275   0.017905  -1.372414
     6  C    0.056078   0.035927  -0.116364  -0.069286  -0.026223   0.681603
     7  C    0.042262   0.006767   0.042174   0.221042  -0.946474  -0.069016
     8  C    0.059152   0.000345   0.059219  -0.745011   0.634087  -0.056697
     9  C    0.008820  -0.000035   0.008800   1.445393  -0.640391  -0.014844
    10  C    0.015102   0.000003   0.015101  -0.489965  -0.678491  -0.005792
    11  C    0.008782  -0.000035   0.008810  -1.358497   0.901950  -0.014832
    12  C    0.059250   0.000343   0.059185  -0.982599   0.289543  -0.056745
    13  H    0.516628  -0.000206   0.000081  -0.012108   0.000027  -0.000412
    14  H   -0.000206   0.491413  -0.000206  -0.000174   0.000000  -0.007548
    15  H    0.000081  -0.000206   0.516624  -0.012117   0.000027  -0.019299
    16  Cl  -0.012108  -0.000174  -0.012117  18.689786  -0.348296   0.001977
    17  Cl   0.000027   0.000000   0.000027  -0.348296  17.532452   0.000148
    18  Cl  -0.000412  -0.007548  -0.019299   0.001977   0.000148  17.418968
    19  Cl   0.000260   0.000000   0.000260  -0.024816  -0.226388   0.000035
    20  Cl   0.000027   0.000000   0.000027   0.032826  -0.014227   0.000149
    21  Cl  -0.019298  -0.007548  -0.000412   0.001976   0.000148  -0.015627
    22  Cl  -0.012125  -0.000174  -0.012118  -0.151122   0.032829   0.001984
              19         20         21         22
     1  C   -0.203213  -0.135339  -0.238674  -0.409802
     2  C   -0.017880  -0.026186   0.681665  -0.068701
     3  C    0.000110   0.017908  -1.372457   0.512257
     4  C    0.002510  -0.006355  -0.260712  -0.367160
     5  C    0.000112   0.017912   0.135990   0.513552
     6  C   -0.017844  -0.026199   0.467201  -0.071627
     7  C    0.118196  -0.946563  -0.069023   0.221270
     8  C   -0.782915   0.289298  -0.056645  -0.982282
     9  C   -0.008310   0.902277  -0.014827  -1.359205
    10  C    1.014418  -0.678250  -0.005786  -0.490398
    11  C   -0.008079  -0.640499  -0.014812   1.445454
    12  C   -0.782736   0.634057  -0.056691  -0.745459
    13  H    0.000260   0.000027  -0.019298  -0.012125
    14  H    0.000000   0.000000  -0.007548  -0.000174
    15  H    0.000260   0.000027  -0.000412  -0.012118
    16  Cl  -0.024816   0.032826   0.001976  -0.151122
    17  Cl  -0.226388  -0.014227   0.000148   0.032829
    18  Cl   0.000035   0.000149  -0.015627   0.001984
    19  Cl  17.509803  -0.226372   0.000035  -0.024827
    20  Cl  -0.226372  17.532395   0.000148  -0.348280
    21  Cl   0.000035   0.000148  17.418933   0.001992
    22  Cl  -0.024827  -0.348280   0.001992  18.690267
 Mulliken charges:
               1
     1  C    0.523132
     2  C   -1.410136
     3  C    0.725179
     4  C   -1.093547
     5  C    0.725338
     6  C   -1.411017
     7  C   -0.177186
     8  C   -1.092931
     9  C   -0.113274
    10  C    0.061038
    11  C   -0.113280
    12  C   -1.092977
    13  H    0.140581
    14  H    0.172118
    15  H    0.140588
    16  Cl   0.623693
    17  Cl   0.621240
    18  Cl   0.424453
    19  Cl   0.677640
    20  Cl   0.621244
    21  Cl   0.424426
    22  Cl   0.623676
 Sum of Mulliken charges =  -0.00000
 Mulliken charges with hydrogens summed into heavy atoms:
               1
     1  C    0.523132
     2  C   -1.269555
     3  C    0.725179
     4  C   -0.921429
     5  C    0.725338
     6  C   -1.270429
     7  C   -0.177186
     8  C   -1.092931
     9  C   -0.113274
    10  C    0.061038
    11  C   -0.113280
    12  C   -1.092977
    16  Cl   0.623693
    17  Cl   0.621240
    18  Cl   0.424453
    19  Cl   0.677640
    20  Cl   0.621244
    21  Cl   0.424426
    22  Cl   0.623676
 Electronic spatial extent (au):  <R**2>=           9750.0566
 Charge=             -0.0000 electrons
 Dipole moment (field-independent basis, Debye):
    X=             -0.2119    Y=              0.0000    Z=             -0.0001  Tot=              0.2119
 Quadrupole moment (field-independent basis, Debye-Ang):
   XX=           -158.8638   YY=           -159.1583   ZZ=           -157.8236
   XY=             -0.0001   XZ=              0.0001   YZ=              0.0015
 Traceless Quadrupole moment (field-independent basis, Debye-Ang):
   XX=             -0.2486   YY=             -0.5431   ZZ=              0.7917
   XY=             -0.0001   XZ=              0.0001   YZ=              0.0015
 Octapole moment (field-independent basis, Debye-Ang**2):
  XXX=            -16.0442  YYY=             -0.0016  ZZZ=              0.0004  XYY=            -10.8088
  XXY=             -0.0005  XXZ=              0.0030  XZZ=            -15.7580  YZZ=              0.0001
  YYZ=              0.0021  XYZ=             -0.0053
 Hexadecapole moment (field-independent basis, Debye-Ang**3):
 XXXX=          -8429.2446 YYYY=          -2494.3386 ZZZZ=          -1496.3745 XXXY=             -0.0109
 XXXZ=              0.0059 YYYX=              0.0023 YYYZ=             -0.0953 ZZZX=             -0.0036
 ZZZY=              0.0548 XXYY=          -1855.9840 XXZZ=          -1745.5609 YYZZ=           -703.6983
 XXYZ=             -0.0433 YYXZ=             -0.0007 ZZXY=             -0.0008
 N-N= 2.320480028958D+03 E-N=-1.336194618403D+04  KE= 3.671254794210D+03
 1\1\GINC-CN049\FOpt\RB3LYP\6-311+G(d,p)\C12H3Cl7\20CY91R06\28-Mar-2022
 \0\\# opt b3lyp/6-311+g(d,p) scf=xqc\\Title Card Required\\0,1\C,-0.25
 14694093,0.5643612541,0.0281871411\C,1.0218225276,0.6266693499,0.59693
 32697\C,1.7102556713,1.8344396783,0.5828937405\C,1.164101753,2.9818758
 876,0.0173319087\C,-0.1059850963,2.892889472,-0.542772902\C,-0.8224031
 877,1.7014276185,-0.5460613669\C,-1.0071124364,-0.7260449059,0.0339517
 379\C,-0.8827108588,-1.6360928796,-1.0236522132\C,-1.585756985,-2.8475
 562521,-1.0287390891\C,-2.4316791092,-3.1585885547,0.0447916207\C,-2.5
 70159191,-2.2615294301,1.1129122091\C,-1.8576097964,-1.0557258076,1.09
 70483593\H,1.4711629175,-0.2501827974,1.0439828542\H,1.7103373286,3.91
 47558638,0.0131631863\H,-1.8087109925,1.6612112525,-0.9890176447\Cl,-2
 .0248281567,0.0649703256,2.4215683184\Cl,-3.6169332094,-2.6449868244,2
 .4426642512\Cl,-0.8192757188,4.3246585165,-1.2631220065\Cl,-3.30847905
 01,-4.6557699609,0.0514536449\Cl,-1.4133151824,-3.956877129,-2.3518778
 494\Cl,3.3107186732,1.9178207845,1.2964836191\Cl,0.1711307845,-1.24224
 74248,-2.355023982\\Version=EM64L-G16RevB.01\State=1-A\HF=-3680.744420
 1\RMSD=1.650e-09\RMSF=7.167e-06\Dipole=-0.0420991,-0.0719508,0.0003274
 \Quadrupole=0.2276408,-0.0451433,-0.1824975,-0.2400162,0.3564704,-0.20
 87131\PG=C01 [X(C12H3Cl7)]\\@


 ... THIS SEEMS PLAINLY ABSURD; BUT WHOEVER WISHES TO BECOME A 
 PHILOSOPHER MUST LEARN NOT TO BE FRIGHTENED BY ABSURDITIES.

                          -- BERTRAND RUSSELL
 Job cpu time:       0 days  9 hours  9 minutes 57.7 seconds.
 Elapsed time:       0 days  2 hours 20 minutes 53.9 seconds.
 File lengths (MBytes):  RWF=    156 Int=      0 D2E=      0 Chk=     23 Scr=      1
 Normal termination of Gaussian 16 at Mon Mar 28 01:56:30 2022.
