 Entering Gaussian System, Link 0=g16
 Input=2,3,3prime,4,4prime,5-Hexachlorobiphenyl.gjf
 Output=2,3,3prime,4,4prime,5-Hexachlorobiphenyl.log
 Initial command:
 /opt/g16/l1.exe "/scratch/gour/Gau-105089.inp" -scrdir="/scratch/gour/"
 Entering Link 1 = /opt/g16/l1.exe PID=    105090.
  
 Copyright (c) 1988-2017, Gaussian, Inc.  All Rights Reserved.
  
 This is part of the Gaussian(R) 16 program.  It is based on
 the Gaussian(R) 09 system (copyright 2009, Gaussian, Inc.),
 the Gaussian(R) 03 system (copyright 2003, Gaussian, Inc.),
 the Gaussian(R) 98 system (copyright 1998, Gaussian, Inc.),
 the Gaussian(R) 94 system (copyright 1995, Gaussian, Inc.),
 the Gaussian 92(TM) system (copyright 1992, Gaussian, Inc.),
 the Gaussian 90(TM) system (copyright 1990, Gaussian, Inc.),
 the Gaussian 88(TM) system (copyright 1988, Gaussian, Inc.),
 the Gaussian 86(TM) system (copyright 1986, Carnegie Mellon
 University), and the Gaussian 82(TM) system (copyright 1983,
 Carnegie Mellon University). Gaussian is a federally registered
 trademark of Gaussian, Inc.
  
 This software contains proprietary and confidential information,
 including trade secrets, belonging to Gaussian, Inc.
  
 This software is provided under written license and may be
 used, copied, transmitted, or stored only in accord with that
 written license.
  
 The following legend is applicable only to US Government
 contracts under FAR:
  
                    RESTRICTED RIGHTS LEGEND
  
 Use, reproduction and disclosure by the US Government is
 subject to restrictions as set forth in subparagraphs (a)
 and (c) of the Commercial Computer Software - Restricted
 Rights clause in FAR 52.227-19.
  
 Gaussian, Inc.
 340 Quinnipiac St., Bldg. 40, Wallingford CT 06492
  
  
 ---------------------------------------------------------------
 Warning -- This program may not be used in any manner that
 competes with the business of Gaussian, Inc. or will provide
 assistance to any competitor of Gaussian, Inc.  The licensee
 of this program is prohibited from giving any competitor of
 Gaussian, Inc. access to this program.  By using this program,
 the user acknowledges that Gaussian, Inc. is engaged in the
 business of creating and licensing software in the field of
 computational chemistry and represents and warrants to the
 licensee that it is not a competitor of Gaussian, Inc. and that
 it will not use this program in any manner prohibited above.
 ---------------------------------------------------------------
  

 Cite this work as:
 Gaussian 16, Revision B.01,
 M. J. Frisch, G. W. Trucks, H. B. Schlegel, G. E. Scuseria, 
 M. A. Robb, J. R. Cheeseman, G. Scalmani, V. Barone, 
 G. A. Petersson, H. Nakatsuji, X. Li, M. Caricato, A. V. Marenich, 
 J. Bloino, B. G. Janesko, R. Gomperts, B. Mennucci, H. P. Hratchian, 
 J. V. Ortiz, A. F. Izmaylov, J. L. Sonnenberg, D. Williams-Young, 
 F. Ding, F. Lipparini, F. Egidi, J. Goings, B. Peng, A. Petrone, 
 T. Henderson, D. Ranasinghe, V. G. Zakrzewski, J. Gao, N. Rega, 
 G. Zheng, W. Liang, M. Hada, M. Ehara, K. Toyota, R. Fukuda, 
 J. Hasegawa, M. Ishida, T. Nakajima, Y. Honda, O. Kitao, H. Nakai, 
 T. Vreven, K. Throssell, J. A. Montgomery, Jr., J. E. Peralta, 
 F. Ogliaro, M. J. Bearpark, J. J. Heyd, E. N. Brothers, K. N. Kudin, 
 V. N. Staroverov, T. A. Keith, R. Kobayashi, J. Normand, 
 K. Raghavachari, A. P. Rendell, J. C. Burant, S. S. Iyengar, 
 J. Tomasi, M. Cossi, J. M. Millam, M. Klene, C. Adamo, R. Cammi, 
 J. W. Ochterski, R. L. Martin, K. Morokuma, O. Farkas, 
 J. B. Foresman, and D. J. Fox, Gaussian, Inc., Wallingford CT, 2016.
 
 ******************************************
 Gaussian 16:  EM64L-G16RevB.01 20-Dec-2017
                17-Mar-2022 
 ******************************************
 %mem=10GB
 %nprocshared=4
 Will use up to    4 processors via shared memory.
 --------------------------------
 # opt b3lyp/6-311+g(d,p) scf=xqc
 --------------------------------
 1/18=20,19=15,26=3,38=1/1,3;
 2/9=110,12=2,17=6,18=5,40=1/2;
 3/5=4,6=6,7=111,11=2,25=1,30=1,71=1,74=-5/1,2,3;
 4//1;
 5/5=2,8=3,13=1,38=5/2,8;
 6/7=2,8=2,9=2,10=2,28=1/1;
 7//1,2,3,16;
 1/18=20,19=15,26=3/3(2);
 2/9=110/2;
 99//99;
 2/9=110/2;
 3/5=4,6=6,7=111,11=2,25=1,30=1,71=1,74=-5/1,2,3;
 4/5=5,16=3,69=1/1;
 5/5=2,8=3,13=1,38=5/2,8;
 7//1,2,3,16;
 1/18=20,19=15,26=3/3(-5);
 2/9=110/2;
 6/7=2,8=2,9=2,10=2,19=2,28=1/1;
 99/9=1/99;
 -------------------
 Title Card Required
 -------------------
 Symbolic Z-matrix:
 Charge =  0 Multiplicity = 1
 C                     0.52619   0.67364  -0.00285 
 C                     1.85857   0.70353  -0.4362 
 C                     2.56646   1.91298  -0.44227 
 C                     1.94197   3.09254  -0.015 
 C                     0.60959   3.06266   0.41835 
 C                    -0.0983    1.8532    0.42442 
 C                    -0.25172  -0.65543   0.00382 
 C                     0.37277  -1.83499  -0.42345 
 C                    -0.33512  -3.04444  -0.41738 
 C                    -1.6675   -3.07433   0.01597 
 C                    -2.29199  -1.89477   0.44325 
 C                    -1.5841   -0.68531   0.43717 
 H                     2.33538  -0.1971   -0.76243 
 H                     3.58376   1.93579  -0.77314 
 H                    -1.1156    1.83039   0.75529 
 H                     1.39007  -1.81217  -0.75432 
 Cl                   -2.36838   0.79609   0.97378 
 Cl                   -3.96531  -1.9323    0.98749 
 Cl                   -0.17469   4.54406   0.95495 
 Cl                   -2.55654  -4.59327   0.0236 
 Cl                    2.83101   4.61147  -0.02262 
 Cl                    0.44916  -4.52584  -0.95399 
 

 GradGradGradGradGradGradGradGradGradGradGradGradGradGradGradGradGradGrad
 Berny optimization.
 Initialization pass.
                           ----------------------------
                           !    Initial Parameters    !
                           ! (Angstroms and Degrees)  !
 --------------------------                            --------------------------
 ! Name  Definition              Value          Derivative Info.                !
 --------------------------------------------------------------------------------
 ! R1    R(1,2)                  1.4014         estimate D2E/DX2                !
 ! R2    R(1,6)                  1.4014         estimate D2E/DX2                !
 ! R3    R(1,7)                  1.54           estimate D2E/DX2                !
 ! R4    R(2,3)                  1.4014         estimate D2E/DX2                !
 ! R5    R(2,13)                 1.07           estimate D2E/DX2                !
 ! R6    R(3,4)                  1.4014         estimate D2E/DX2                !
 ! R7    R(3,14)                 1.07           estimate D2E/DX2                !
 ! R8    R(4,5)                  1.4014         estimate D2E/DX2                !
 ! R9    R(4,21)                 1.76           estimate D2E/DX2                !
 ! R10   R(5,6)                  1.4014         estimate D2E/DX2                !
 ! R11   R(5,19)                 1.76           estimate D2E/DX2                !
 ! R12   R(6,15)                 1.07           estimate D2E/DX2                !
 ! R13   R(7,8)                  1.4014         estimate D2E/DX2                !
 ! R14   R(7,12)                 1.4014         estimate D2E/DX2                !
 ! R15   R(8,9)                  1.4014         estimate D2E/DX2                !
 ! R16   R(8,16)                 1.07           estimate D2E/DX2                !
 ! R17   R(9,10)                 1.4014         estimate D2E/DX2                !
 ! R18   R(9,22)                 1.76           estimate D2E/DX2                !
 ! R19   R(10,11)                1.4014         estimate D2E/DX2                !
 ! R20   R(10,20)                1.76           estimate D2E/DX2                !
 ! R21   R(11,12)                1.4014         estimate D2E/DX2                !
 ! R22   R(11,18)                1.76           estimate D2E/DX2                !
 ! R23   R(12,17)                1.76           estimate D2E/DX2                !
 ! A1    A(2,1,6)              120.0            estimate D2E/DX2                !
 ! A2    A(2,1,7)              120.0            estimate D2E/DX2                !
 ! A3    A(6,1,7)              120.0            estimate D2E/DX2                !
 ! A4    A(1,2,3)              120.0            estimate D2E/DX2                !
 ! A5    A(1,2,13)             120.0            estimate D2E/DX2                !
 ! A6    A(3,2,13)             120.0            estimate D2E/DX2                !
 ! A7    A(2,3,4)              120.0            estimate D2E/DX2                !
 ! A8    A(2,3,14)             120.0            estimate D2E/DX2                !
 ! A9    A(4,3,14)             120.0            estimate D2E/DX2                !
 ! A10   A(3,4,5)              120.0            estimate D2E/DX2                !
 ! A11   A(3,4,21)             120.0            estimate D2E/DX2                !
 ! A12   A(5,4,21)             120.0            estimate D2E/DX2                !
 ! A13   A(4,5,6)              120.0            estimate D2E/DX2                !
 ! A14   A(4,5,19)             120.0            estimate D2E/DX2                !
 ! A15   A(6,5,19)             120.0            estimate D2E/DX2                !
 ! A16   A(1,6,5)              120.0            estimate D2E/DX2                !
 ! A17   A(1,6,15)             120.0            estimate D2E/DX2                !
 ! A18   A(5,6,15)             120.0            estimate D2E/DX2                !
 ! A19   A(1,7,8)              120.0            estimate D2E/DX2                !
 ! A20   A(1,7,12)             120.0            estimate D2E/DX2                !
 ! A21   A(8,7,12)             120.0            estimate D2E/DX2                !
 ! A22   A(7,8,9)              120.0            estimate D2E/DX2                !
 ! A23   A(7,8,16)             120.0            estimate D2E/DX2                !
 ! A24   A(9,8,16)             120.0            estimate D2E/DX2                !
 ! A25   A(8,9,10)             120.0            estimate D2E/DX2                !
 ! A26   A(8,9,22)             120.0            estimate D2E/DX2                !
 ! A27   A(10,9,22)            120.0            estimate D2E/DX2                !
 ! A28   A(9,10,11)            120.0            estimate D2E/DX2                !
 ! A29   A(9,10,20)            120.0            estimate D2E/DX2                !
 ! A30   A(11,10,20)           120.0            estimate D2E/DX2                !
 ! A31   A(10,11,12)           120.0            estimate D2E/DX2                !
 ! A32   A(10,11,18)           120.0            estimate D2E/DX2                !
 ! A33   A(12,11,18)           120.0            estimate D2E/DX2                !
 ! A34   A(7,12,11)            120.0            estimate D2E/DX2                !
 ! A35   A(7,12,17)            120.0            estimate D2E/DX2                !
 ! A36   A(11,12,17)           120.0            estimate D2E/DX2                !
 ! D1    D(6,1,2,3)              0.0001         estimate D2E/DX2                !
 ! D2    D(6,1,2,13)           180.0            estimate D2E/DX2                !
 ! D3    D(7,1,2,3)           -180.0            estimate D2E/DX2                !
 ! D4    D(7,1,2,13)            -0.0001         estimate D2E/DX2                !
 ! D5    D(2,1,6,5)             -0.0001         estimate D2E/DX2                !
 ! D6    D(2,1,6,15)           180.0            estimate D2E/DX2                !
 ! D7    D(7,1,6,5)            180.0            estimate D2E/DX2                !
 ! D8    D(7,1,6,15)             0.0            estimate D2E/DX2                !
 ! D9    D(2,1,7,8)             -0.0001         estimate D2E/DX2                !
 ! D10   D(2,1,7,12)           179.9998         estimate D2E/DX2                !
 ! D11   D(6,1,7,8)            179.9999         estimate D2E/DX2                !
 ! D12   D(6,1,7,12)            -0.0002         estimate D2E/DX2                !
 ! D13   D(1,2,3,4)              0.0            estimate D2E/DX2                !
 ! D14   D(1,2,3,14)           180.0            estimate D2E/DX2                !
 ! D15   D(13,2,3,4)          -179.9999         estimate D2E/DX2                !
 ! D16   D(13,2,3,14)            0.0001         estimate D2E/DX2                !
 ! D17   D(2,3,4,5)             -0.0001         estimate D2E/DX2                !
 ! D18   D(2,3,4,21)           180.0            estimate D2E/DX2                !
 ! D19   D(14,3,4,5)           179.9999         estimate D2E/DX2                !
 ! D20   D(14,3,4,21)            0.0            estimate D2E/DX2                !
 ! D21   D(3,4,5,6)              0.0001         estimate D2E/DX2                !
 ! D22   D(3,4,5,19)          -179.9999         estimate D2E/DX2                !
 ! D23   D(21,4,5,6)          -180.0            estimate D2E/DX2                !
 ! D24   D(21,4,5,19)            0.0            estimate D2E/DX2                !
 ! D25   D(4,5,6,1)              0.0            estimate D2E/DX2                !
 ! D26   D(4,5,6,15)           179.9999         estimate D2E/DX2                !
 ! D27   D(19,5,6,1)           180.0            estimate D2E/DX2                !
 ! D28   D(19,5,6,15)           -0.0001         estimate D2E/DX2                !
 ! D29   D(1,7,8,9)            179.9999         estimate D2E/DX2                !
 ! D30   D(1,7,8,16)             0.0001         estimate D2E/DX2                !
 ! D31   D(12,7,8,9)             0.0001         estimate D2E/DX2                !
 ! D32   D(12,7,8,16)         -179.9998         estimate D2E/DX2                !
 ! D33   D(1,7,12,11)         -179.9999         estimate D2E/DX2                !
 ! D34   D(1,7,12,17)            0.0            estimate D2E/DX2                !
 ! D35   D(8,7,12,11)           -0.0001         estimate D2E/DX2                !
 ! D36   D(8,7,12,17)          179.9999         estimate D2E/DX2                !
 ! D37   D(7,8,9,10)             0.0            estimate D2E/DX2                !
 ! D38   D(7,8,9,22)           180.0            estimate D2E/DX2                !
 ! D39   D(16,8,9,10)          179.9998         estimate D2E/DX2                !
 ! D40   D(16,8,9,22)           -0.0002         estimate D2E/DX2                !
 ! D41   D(8,9,10,11)            0.0            estimate D2E/DX2                !
 ! D42   D(8,9,10,20)         -179.9999         estimate D2E/DX2                !
 ! D43   D(22,9,10,11)         180.0            estimate D2E/DX2                !
 ! D44   D(22,9,10,20)           0.0001         estimate D2E/DX2                !
 ! D45   D(9,10,11,12)           0.0            estimate D2E/DX2                !
 ! D46   D(9,10,11,18)        -179.9998         estimate D2E/DX2                !
 ! D47   D(20,10,11,12)        179.9999         estimate D2E/DX2                !
 ! D48   D(20,10,11,18)          0.0001         estimate D2E/DX2                !
 ! D49   D(10,11,12,7)           0.0            estimate D2E/DX2                !
 ! D50   D(10,11,12,17)       -179.9999         estimate D2E/DX2                !
 ! D51   D(18,11,12,7)         179.9999         estimate D2E/DX2                !
 ! D52   D(18,11,12,17)         -0.0001         estimate D2E/DX2                !
 --------------------------------------------------------------------------------
 Trust Radius=3.00D-01 FncErr=1.00D-07 GrdErr=1.00D-06 EigMax=2.50D+02 EigMin=1.00D-04
 Number of steps in this run=    121 maximum allowed number of steps=    132.
 GradGradGradGradGradGradGradGradGradGradGradGradGradGradGradGradGradGrad

                          Input orientation:                          
 ---------------------------------------------------------------------
 Center     Atomic      Atomic             Coordinates (Angstroms)
 Number     Number       Type             X           Y           Z
 ---------------------------------------------------------------------
      1          6           0        0.526187    0.673639   -0.002851
      2          6           0        1.858568    0.703525   -0.436198
      3          6           0        2.566461    1.912976   -0.442270
      4          6           0        1.941974    3.092541   -0.014995
      5          6           0        0.609592    3.062656    0.418349
      6          6           0       -0.098301    1.853205    0.424422
      7          6           0       -0.251718   -0.655428    0.003823
      8          6           0        0.372769   -1.834993   -0.423452
      9          6           0       -0.335124   -3.044445   -0.417378
     10          6           0       -1.667504   -3.074331    0.015972
     11          6           0       -2.291991   -1.894766    0.443247
     12          6           0       -1.584098   -0.685315    0.437173
     13          1           0        2.335378   -0.197099   -0.762429
     14          1           0        3.583764    1.935794   -0.773139
     15          1           0       -1.115604    1.830386    0.755291
     16          1           0        1.390072   -1.812175   -0.754322
     17         17           0       -2.368383    0.796085    0.973785
     18         17           0       -3.965309   -1.932301    0.987490
     19         17           0       -0.174695    4.544057    0.954955
     20         17           0       -2.556537   -4.593266    0.023603
     21         17           0        2.831008    4.611475   -0.022621
     22         17           0        0.449162   -4.525845   -0.953987
 ---------------------------------------------------------------------
                    Distance matrix (angstroms):
                    1          2          3          4          5
     1  C    0.000000
     2  C    1.401400   0.000000
     3  C    2.427296   1.401400   0.000000
     4  C    2.802800   2.427296   1.401400   0.000000
     5  C    2.427296   2.802800   2.427296   1.401400   0.000000
     6  C    1.401400   2.427296   2.802800   2.427296   1.401400
     7  C    1.540000   2.548270   3.838989   4.342800   3.838989
     8  C    2.548270   2.941400   4.342800   5.187469   4.975106
     9  C    3.838989   4.342800   5.744200   6.558176   6.235992
    10  C    4.342800   5.187469   6.558176   7.145600   6.558176
    11  C    3.838989   4.975106   6.235992   6.558176   5.744200
    12  C    2.548270   3.813607   4.975106   5.187469   4.342800
    13  H    2.146700   1.070000   2.146700   3.396345   3.872800
    14  H    3.396345   2.146700   1.070000   2.146700   3.396345
    15  H    2.146700   3.396345   3.872800   3.396345   2.146700
    16  H    2.736837   2.578650   3.918930   4.990735   5.074276
    17  Cl   3.057342   4.456874   5.254079   4.983028   3.783409
    18  Cl   5.286324   6.549198   7.713260   7.819846   6.797295
    19  Cl   4.048303   4.562800   4.048303   2.743718   1.760000
    20  Cl   6.102800   6.910901   8.294174   8.905600   8.294174
    21  Cl   4.562800   4.048303   2.743718   1.760000   2.743718
    22  Cl   5.286324   5.440665   6.797295   7.819846   7.713260
                    6          7          8          9         10
     6  C    0.000000
     7  C    2.548270   0.000000
     8  C    3.813607   1.401400   0.000000
     9  C    4.975106   2.427296   1.401400   0.000000
    10  C    5.187469   2.802800   2.427296   1.401400   0.000000
    11  C    4.342800   2.427296   2.802800   2.427296   1.401400
    12  C    2.941400   1.401400   2.427296   2.802800   2.427296
    13  H    3.396345   2.736837   2.578650   3.918930   4.990735
    14  H    3.872800   4.693509   4.965039   6.347206   7.300676
    15  H    1.070000   2.736837   4.127917   5.074276   4.990735
    16  H    4.127917   2.146700   1.070000   2.146700   3.396345
    17  Cl   2.563702   2.743718   4.048303   4.562800   4.048303
    18  Cl   5.440665   4.048303   4.562800   4.048303   2.743718
    19  Cl   2.743718   5.286324   6.549198   7.713260   7.819846
    20  Cl   6.910901   4.562800   4.048303   2.743718   1.760000
    21  Cl   4.048303   6.102800   6.910901   8.294174   8.905600
    22  Cl   6.549198   4.048303   2.743718   1.760000   2.743718
                   11         12         13         14         15
    11  C    0.000000
    12  C    1.401400   0.000000
    13  H    5.074276   4.127917   0.000000
    14  H    7.118798   5.919617   2.471400   0.000000
    15  H    3.918930   2.578650   4.280590   4.942800   0.000000
    16  H    3.872800   3.396345   1.871400   4.342800   4.671787
    17  Cl   2.743718   1.760000   5.111382   6.307038   1.639199
    18  Cl   1.760000   2.743718   6.765486   8.663168   4.725732
    19  Cl   6.797295   5.440665   5.632800   4.890332   2.879094
    20  Cl   2.743718   4.048303   6.623817   8.998151   6.623817
    21  Cl   8.294174   6.910901   4.890332   2.879094   4.890332
    22  Cl   4.048303   4.562800   4.725732   7.184095   6.765486
                   16         17         18         19         20
    16  H    0.000000
    17  Cl   4.890332   0.000000
    18  Cl   5.632800   3.161400   0.000000
    19  Cl   6.765486   4.342800   7.504200   0.000000
    20  Cl   4.890332   5.475705   3.161400   9.488480   0.000000
    21  Cl   6.623817   6.525618   9.488480   3.161400  10.665600
    22  Cl   2.879094   6.322800   5.475705   9.289584   3.161400
                   21         22
    21  Cl   0.000000
    22  Cl   9.488480   0.000000
 Stoichiometry    C12H4Cl6
 Framework group  C1[X(C12H4Cl6)]
 Deg. of freedom    60
 Full point group                 C1      NOp   1
 Largest Abelian subgroup         C1      NOp   1
 Largest concise Abelian subgroup C1      NOp   1
                         Standard orientation:                         
 ---------------------------------------------------------------------
 Center     Atomic      Atomic             Coordinates (Angstroms)
 Number     Number       Type             X           Y           Z
 ---------------------------------------------------------------------
      1          6           0        1.096629    0.626709    0.000002
      2          6           0        1.655850    1.911696   -0.000001
      3          6           0        3.048293    2.069890   -0.000003
      4          6           0        3.881514    0.943097   -0.000003
      5          6           0        3.322293   -0.341891    0.000002
      6          6           0        1.929850   -0.500085    0.000004
      7          6           0       -0.433528    0.452869    0.000003
      8          6           0       -1.266749    1.579663    0.000003
      9          6           0       -2.659192    1.421469    0.000002
     10          6           0       -3.218413    0.136481    0.000002
     11          6           0       -2.385192   -0.990313    0.000001
     12          6           0       -0.992749   -0.832119    0.000001
     13          1           0        1.019667    2.772028   -0.000003
     14          1           0        3.475271    3.051007   -0.000005
     15          1           0        1.502872   -1.481202    0.000006
     16          1           0       -0.839771    2.560779    0.000000
     17         17           0        0.053682   -2.247244   -0.000001
     18         17           0       -3.087511   -2.604112   -0.000004
     19         17           0        4.368725   -1.757017    0.000006
     20         17           0       -4.967164   -0.062193   -0.000002
     21         17           0        5.630265    1.141770   -0.000005
     22         17           0       -3.705624    2.836594    0.000002
 ---------------------------------------------------------------------
 Rotational constants (GHZ):           0.4738953           0.1176398           0.0942445
 Standard basis: 6-311+G(d,p) (5D, 7F)
 There are   486 symmetry adapted cartesian basis functions of A   symmetry.
 There are   468 symmetry adapted basis functions of A   symmetry.
   468 basis functions,   782 primitive gaussians,   486 cartesian basis functions
    89 alpha electrons       89 beta electrons
       nuclear repulsion energy      1973.1649298785 Hartrees.
 NAtoms=   22 NActive=   22 NUniq=   22 SFac= 1.00D+00 NAtFMM=   60 NAOKFM=F Big=F
 Integral buffers will be    131072 words long.
 Raffenetti 2 integral format.
 Two-electron integral symmetry is turned on.
 One-electron integrals computed using PRISM.
 NBasis=   468 RedAO= T EigKep=  1.24D-06  NBF=   468
 NBsUse=   461 1.00D-06 EigRej=  8.29D-07 NBFU=   461
 ExpMin= 4.38D-02 ExpMax= 1.06D+05 ExpMxC= 3.62D+03 IAcc=3 IRadAn=         5 AccDes= 0.00D+00
 Harris functional with IExCor=  402 and IRadAn=       5 diagonalized for initial guess.
 HarFok:  IExCor=  402 AccDes= 0.00D+00 IRadAn=         5 IDoV= 1 UseB2=F ITyADJ=14
 ICtDFT=  3500011 ScaDFX=  1.000000  1.000000  1.000000  1.000000
 FoFCou: FMM=F IPFlag=           0 FMFlag=      100000 FMFlg1=           0
         NFxFlg=           0 DoJE=T BraDBF=F KetDBF=T FulRan=T
         wScrn=  0.000000 ICntrl=       500 IOpCl=  0 I1Cent=   200000004 NGrid=           0
         NMat0=    1 NMatS0=      1 NMatT0=    0 NMatD0=    1 NMtDS0=    0 NMtDT0=    0
 Petite list used in FoFCou.
 Requested convergence on RMS density matrix=1.00D-08 within  32 cycles.
 Requested convergence on MAX density matrix=1.00D-06.
 Requested convergence on             energy=1.00D-06.
 No special actions if energy rises.
 SCF Done:  E(RB3LYP) =  -3221.06917497     A.U. after   16 cycles
            NFock= 16  Conv=0.87D-08     -V/T= 2.0026
 QCSCF skips out because SCF is already converged.

 **********************************************************************

            Population analysis using the SCF Density.

 **********************************************************************

 Orbital symmetries:
       Occupied  (A) (A) (A) (A) (A) (A) (A) (A) (A) (A) (A) (A)
                 (A) (A) (A) (A) (A) (A) (A) (A) (A) (A) (A) (A)
                 (A) (A) (A) (A) (A) (A) (A) (A) (A) (A) (A) (A)
                 (A) (A) (A) (A) (A) (A) (A) (A) (A) (A) (A) (A)
                 (A) (A) (A) (A) (A) (A) (A) (A) (A) (A) (A) (A)
                 (A) (A) (A) (A) (A) (A) (A) (A) (A) (A) (A) (A)
                 (A) (A) (A) (A) (A) (A) (A) (A) (A) (A) (A) (A)
                 (A) (A) (A) (A) (A)
       Virtual   (A) (A) (A) (A) (A) (A) (A) (A) (A) (A) (A) (A)
                 (A) (A) (A) (A) (A) (A) (A) (A) (A) (A) (A) (A)
                 (A) (A) (A) (A) (A) (A) (A) (A) (A) (A) (A) (A)
                 (A) (A) (A) (A) (A) (A) (A) (A) (A) (A) (A) (A)
                 (A) (A) (A) (A) (A) (A) (A) (A) (A) (A) (A) (A)
                 (A) (A) (A) (A) (A) (A) (A) (A) (A) (A) (A) (A)
                 (A) (A) (A) (A) (A) (A) (A) (A) (A) (A) (A) (A)
                 (A) (A) (A) (A) (A) (A) (A) (A) (A) (A) (A) (A)
                 (A) (A) (A) (A) (A) (A) (A) (A) (A) (A) (A) (A)
                 (A) (A) (A) (A) (A) (A) (A) (A) (A) (A) (A) (A)
                 (A) (A) (A) (A) (A) (A) (A) (A) (A) (A) (A) (A)
                 (A) (A) (A) (A) (A) (A) (A) (A) (A) (A) (A) (A)
                 (A) (A) (A) (A) (A) (A) (A) (A) (A) (A) (A) (A)
                 (A) (A) (A) (A) (A) (A) (A) (A) (A) (A) (A) (A)
                 (A) (A) (A) (A) (A) (A) (A) (A) (A) (A) (A) (A)
                 (A) (A) (A) (A) (A) (A) (A) (A) (A) (A) (A) (A)
                 (A) (A) (A) (A) (A) (A) (A) (A) (A) (A) (A) (A)
                 (A) (A) (A) (A) (A) (A) (A) (A) (A) (A) (A) (A)
                 (A) (A) (A) (A) (A) (A) (A) (A) (A) (A) (A) (A)
                 (A) (A) (A) (A) (A) (A) (A) (A) (A) (A) (A) (A)
                 (A) (A) (A) (A) (A) (A) (A) (A) (A) (A) (A) (A)
                 (A) (A) (A) (A) (A) (A) (A) (A) (A) (A) (A) (A)
                 (A) (A) (A) (A) (A) (A) (A) (A) (A) (A) (A) (A)
                 (A) (A) (A) (A) (A) (A) (A) (A) (A) (A) (A) (A)
                 (A) (A) (A) (A) (A) (A) (A) (A) (A) (A) (A) (A)
                 (A) (A) (A) (A) (A) (A) (A) (A) (A) (A) (A) (A)
                 (A) (A) (A) (A) (A) (A) (A) (A) (A) (A) (A) (A)
                 (A) (A) (A) (A) (A) (A) (A) (A) (A) (A) (A) (A)
                 (A) (A) (A) (A) (A) (A) (A) (A) (A) (A) (A) (A)
                 (A) (A) (A) (A) (A) (A) (A) (A) (A) (A) (A) (A)
                 (A) (A) (A) (A) (A) (A) (A) (A) (A) (A) (A) (A)
 The electronic state is 1-A.
 Alpha  occ. eigenvalues -- -101.58856-101.58479-101.58425-101.58283-101.56885
 Alpha  occ. eigenvalues -- -101.56821 -10.29153 -10.28736 -10.28700 -10.28588
 Alpha  occ. eigenvalues --  -10.26595 -10.26331 -10.24809 -10.23059 -10.22923
 Alpha  occ. eigenvalues --  -10.21462 -10.21213 -10.19244  -9.50635  -9.49893
 Alpha  occ. eigenvalues --   -9.49843  -9.49700  -9.48320  -9.48261  -7.27062
 Alpha  occ. eigenvalues --   -7.26413  -7.26345  -7.26219  -7.26082  -7.26047
 Alpha  occ. eigenvalues --   -7.25373  -7.25319  -7.25286  -7.25259  -7.25178
 Alpha  occ. eigenvalues --   -7.25097  -7.24801  -7.24740  -7.23809  -7.23746
 Alpha  occ. eigenvalues --   -7.23745  -7.23689  -0.96692  -0.93234  -0.92325
 Alpha  occ. eigenvalues --   -0.90112  -0.87234  -0.86918  -0.86715  -0.85084
 Alpha  occ. eigenvalues --   -0.79035  -0.76967  -0.76449  -0.74260  -0.66506
 Alpha  occ. eigenvalues --   -0.65195  -0.64167  -0.60996  -0.55474  -0.55283
 Alpha  occ. eigenvalues --   -0.53871  -0.50646  -0.49988  -0.49672  -0.47600
 Alpha  occ. eigenvalues --   -0.46975  -0.46633  -0.46383  -0.43529  -0.43380
 Alpha  occ. eigenvalues --   -0.42837  -0.41313  -0.41092  -0.39966  -0.39058
 Alpha  occ. eigenvalues --   -0.36491  -0.36126  -0.35953  -0.35733  -0.35070
 Alpha  occ. eigenvalues --   -0.34393  -0.34113  -0.32648  -0.31873  -0.29724
 Alpha  occ. eigenvalues --   -0.29630  -0.28074  -0.27548  -0.25619
 Alpha virt. eigenvalues --   -0.08395  -0.06990  -0.06308  -0.04647  -0.02096
 Alpha virt. eigenvalues --   -0.02031  -0.01858  -0.00945   0.00625   0.00780
 Alpha virt. eigenvalues --    0.01553   0.01668   0.02326   0.03434   0.03659
 Alpha virt. eigenvalues --    0.03931   0.04307   0.05686   0.05871   0.05905
 Alpha virt. eigenvalues --    0.06281   0.06610   0.07037   0.07931   0.07985
 Alpha virt. eigenvalues --    0.08046   0.08426   0.08429   0.08989   0.09464
 Alpha virt. eigenvalues --    0.10023   0.10167   0.10824   0.11351   0.11493
 Alpha virt. eigenvalues --    0.12283   0.12457   0.12754   0.13135   0.13368
 Alpha virt. eigenvalues --    0.13444   0.13908   0.14511   0.14744   0.15300
 Alpha virt. eigenvalues --    0.15500   0.15630   0.16036   0.16265   0.17253
 Alpha virt. eigenvalues --    0.17398   0.17661   0.17873   0.18130   0.18482
 Alpha virt. eigenvalues --    0.18923   0.19408   0.19806   0.20160   0.20523
 Alpha virt. eigenvalues --    0.20988   0.21980   0.21996   0.22128   0.22307
 Alpha virt. eigenvalues --    0.22756   0.23487   0.23655   0.24164   0.24866
 Alpha virt. eigenvalues --    0.25052   0.25620   0.25873   0.26224   0.26823
 Alpha virt. eigenvalues --    0.27220   0.27521   0.28931   0.29561   0.29851
 Alpha virt. eigenvalues --    0.30540   0.30669   0.31457   0.31821   0.32962
 Alpha virt. eigenvalues --    0.33978   0.34580   0.35465   0.35983   0.37922
 Alpha virt. eigenvalues --    0.39049   0.41396   0.41496   0.41586   0.42816
 Alpha virt. eigenvalues --    0.43309   0.43551   0.44229   0.44439   0.45017
 Alpha virt. eigenvalues --    0.45429   0.45930   0.46157   0.46979   0.47437
 Alpha virt. eigenvalues --    0.47663   0.48085   0.48682   0.49369   0.50086
 Alpha virt. eigenvalues --    0.50241   0.50481   0.51951   0.52590   0.52864
 Alpha virt. eigenvalues --    0.55064   0.56030   0.56777   0.56822   0.58030
 Alpha virt. eigenvalues --    0.58430   0.58686   0.59108   0.60166   0.60604
 Alpha virt. eigenvalues --    0.60976   0.61457   0.62783   0.63035   0.63538
 Alpha virt. eigenvalues --    0.64147   0.65027   0.66245   0.66417   0.66974
 Alpha virt. eigenvalues --    0.67629   0.69697   0.72065   0.73526   0.74974
 Alpha virt. eigenvalues --    0.78226   0.78604   0.80405   0.80591   0.81652
 Alpha virt. eigenvalues --    0.82007   0.82407   0.82748   0.83583   0.83643
 Alpha virt. eigenvalues --    0.83857   0.84637   0.84721   0.85056   0.85220
 Alpha virt. eigenvalues --    0.85359   0.85982   0.86478   0.86500   0.87128
 Alpha virt. eigenvalues --    0.87409   0.87898   0.88874   0.89515   0.89782
 Alpha virt. eigenvalues --    0.90532   0.91593   0.91864   0.92663   0.93187
 Alpha virt. eigenvalues --    0.93443   0.93669   0.94238   0.94763   0.95310
 Alpha virt. eigenvalues --    0.95719   0.95722   0.96971   0.97243   0.97819
 Alpha virt. eigenvalues --    0.98337   0.98944   1.00713   1.02381   1.03421
 Alpha virt. eigenvalues --    1.04854   1.07072   1.08963   1.09463   1.09778
 Alpha virt. eigenvalues --    1.10466   1.13528   1.17294   1.17791   1.19107
 Alpha virt. eigenvalues --    1.22683   1.23066   1.23261   1.25351   1.25479
 Alpha virt. eigenvalues --    1.25491   1.26925   1.27301   1.27516   1.27672
 Alpha virt. eigenvalues --    1.28937   1.29738   1.33479   1.35732   1.35957
 Alpha virt. eigenvalues --    1.38806   1.42334   1.42964   1.46618   1.47598
 Alpha virt. eigenvalues --    1.49162   1.51851   1.54277   1.54999   1.56038
 Alpha virt. eigenvalues --    1.59203   1.62876   1.63369   1.63881   1.66377
 Alpha virt. eigenvalues --    1.68453   1.68519   1.70488   1.74659   1.77027
 Alpha virt. eigenvalues --    1.78071   1.79906   1.80366   1.82193   1.82868
 Alpha virt. eigenvalues --    1.84855   1.85394   1.86569   1.87425   1.88431
 Alpha virt. eigenvalues --    1.91502   1.92474   1.93883   1.95352   1.98353
 Alpha virt. eigenvalues --    1.99491   2.00846   2.05378   2.05923   2.08945
 Alpha virt. eigenvalues --    2.14247   2.15967   2.19773   2.21059   2.21707
 Alpha virt. eigenvalues --    2.22489   2.23303   2.24061   2.24614   2.25513
 Alpha virt. eigenvalues --    2.26813   2.26826   2.29670   2.29797   2.32335
 Alpha virt. eigenvalues --    2.32769   2.33595   2.33780   2.39309   2.40153
 Alpha virt. eigenvalues --    2.41109   2.42450   2.43352   2.44933   2.48178
 Alpha virt. eigenvalues --    2.49377   2.50275   2.52175   2.54287   2.57164
 Alpha virt. eigenvalues --    2.58380   2.59764   2.61285   2.61855   2.62629
 Alpha virt. eigenvalues --    2.64825   2.68324   2.71081   2.71340   2.72793
 Alpha virt. eigenvalues --    2.73130   2.77295   2.77760   2.78910   2.79970
 Alpha virt. eigenvalues --    2.82632   2.83283   2.84324   2.89946   2.92203
 Alpha virt. eigenvalues --    2.94608   2.99523   3.04455   3.05849   3.06607
 Alpha virt. eigenvalues --    3.10858   3.11224   3.13837   3.15659   3.16456
 Alpha virt. eigenvalues --    3.19511   3.22750   3.24225   3.34152   3.38284
 Alpha virt. eigenvalues --    3.40025   3.47165   3.53716   3.60735   3.64627
 Alpha virt. eigenvalues --    3.69572   3.74249   3.86643   3.89363   4.03153
 Alpha virt. eigenvalues --    4.11728   4.18537   4.43314   4.78657   4.82728
 Alpha virt. eigenvalues --    9.71841   9.75333   9.77758   9.79565   9.79966
 Alpha virt. eigenvalues --    9.87188  23.30068  23.51317  23.78070  23.82084
 Alpha virt. eigenvalues --   23.85107  23.89707  23.93140  23.94604  23.98528
 Alpha virt. eigenvalues --   24.04300  24.05821  24.11839  25.74708  25.77883
 Alpha virt. eigenvalues --   25.79032  25.83197  25.86876  25.90362  26.09662
 Alpha virt. eigenvalues --   26.10190  26.12079  26.15664  26.19463  26.44424
 Alpha virt. eigenvalues --   26.50778  26.55449  26.69601  26.76192  26.78797
 Alpha virt. eigenvalues --   26.94599 215.70621 215.74245 215.77288 215.79310
 Alpha virt. eigenvalues --  215.79569 215.89737
          Condensed to atoms (all electrons):
               1          2          3          4          5          6
     1  C   14.338074  -1.463723  -1.916228  -2.140595  -0.291467   3.933216
     2  C   -1.463723  16.283629   1.537781  -0.546883  -3.454259  -2.549505
     3  C   -1.916228   1.537781  14.114892   2.184125  -5.274033  -1.981414
     4  C   -2.140595  -0.546883   2.184125  23.763865  -5.562183  -9.629163
     5  C   -0.291467  -3.454259  -5.274033  -5.562183  21.586248   2.907840
     6  C    3.933216  -2.549505  -1.981414  -9.629163   2.907840  18.088509
     7  C    4.094182  -0.489882  -0.813093  -1.153528  -1.322293   0.317868
     8  C   -1.836129  -0.741202  -1.440314  -0.236930  -0.736081  -1.722955
     9  C   -2.573832  -0.502402   0.301433  -0.144297  -0.680068  -1.148943
    10  C   -1.817551  -0.195245  -0.286553  -0.058284  -0.292723  -0.242502
    11  C   -1.481808  -0.311700  -0.392511   0.147502   0.346318  -0.289198
    12  C   -1.075560  -1.751384  -0.586142  -0.645138  -0.246885  -0.011814
    13  H    0.016445   0.377557  -0.129330  -0.015072  -0.015389  -0.021375
    14  H    0.065458  -0.066496   0.318072   0.027307  -0.003789  -0.002625
    15  H   -0.197815  -0.004350  -0.063577   0.124676   0.050028   0.323105
    16  H    0.072147   0.086896   0.024712   0.006228   0.004298   0.027811
    17  Cl  -0.220224   0.012161   0.124087   0.008669  -0.456036  -0.931838
    18  Cl   0.119301  -0.026187  -0.004936   0.020391   0.089852  -0.003754
    19  Cl  -0.515613   0.300502   0.398307  -0.020016  -1.155767   0.638244
    20  Cl  -0.112440  -0.050929  -0.010293  -0.001710   0.001073  -0.030493
    21  Cl  -0.272869  -0.173205   0.232605  -0.936868   0.581034  -0.061729
    22  Cl  -0.193662  -0.032717   0.031466  -0.003686  -0.016636  -0.075518
               7          8          9         10         11         12
     1  C    4.094182  -1.836129  -2.573832  -1.817551  -1.481808  -1.075560
     2  C   -0.489882  -0.741202  -0.502402  -0.195245  -0.311700  -1.751384
     3  C   -0.813093  -1.440314   0.301433  -0.286553  -0.392511  -0.586142
     4  C   -1.153528  -0.236930  -0.144297  -0.058284   0.147502  -0.645138
     5  C   -1.322293  -0.736081  -0.680068  -0.292723   0.346318  -0.246885
     6  C    0.317868  -1.722955  -1.148943  -0.242502  -0.289198  -0.011814
     7  C   17.778713  -1.452801  -4.850313   3.006013  -2.918787  -3.874086
     8  C   -1.452801  12.811560   1.438757  -6.414632   3.887653   2.089771
     9  C   -4.850313   1.438757  14.312448  -3.615264  -0.913452   4.815117
    10  C    3.006013  -6.414632  -3.615264  27.451788  -4.921212  -5.628779
    11  C   -2.918787   3.887653  -0.913452  -4.921212  14.411758  -1.214175
    12  C   -3.874086   2.089771   4.815117  -5.628779  -1.214175  14.834525
    13  H    0.033913   0.059762  -0.005305   0.000227   0.000882   0.021138
    14  H    0.004336   0.009442   0.001546   0.000569   0.000064   0.003264
    15  H   -0.001531   0.035003  -0.022310   0.020155   0.029681   0.156850
    16  H    0.096318   0.297221  -0.151765  -0.033346  -0.004397  -0.086517
    17  Cl  -0.309217   0.306815   0.574171  -0.226956   0.444571  -0.879493
    18  Cl  -0.338054   0.301073  -0.119784  -0.889937  -0.643607   0.801435
    19  Cl  -0.224181  -0.101166  -0.016711  -0.004034  -0.013776  -0.009420
    20  Cl  -0.011825  -0.422027  -0.355298   0.383422   0.492824  -0.684030
    21  Cl  -0.066782  -0.037841  -0.001419  -0.003878   0.000584  -0.038982
    22  Cl  -0.955666   0.366681  -0.015363  -0.220309  -0.139230   0.468990
              13         14         15         16         17         18
     1  C    0.016445   0.065458  -0.197815   0.072147  -0.220224   0.119301
     2  C    0.377557  -0.066496  -0.004350   0.086896   0.012161  -0.026187
     3  C   -0.129330   0.318072  -0.063577   0.024712   0.124087  -0.004936
     4  C   -0.015072   0.027307   0.124676   0.006228   0.008669   0.020391
     5  C   -0.015389  -0.003789   0.050028   0.004298  -0.456036   0.089852
     6  C   -0.021375  -0.002625   0.323105   0.027811  -0.931838  -0.003754
     7  C    0.033913   0.004336  -0.001531   0.096318  -0.309217  -0.338054
     8  C    0.059762   0.009442   0.035003   0.297221   0.306815   0.301073
     9  C   -0.005305   0.001546  -0.022310  -0.151765   0.574171  -0.119784
    10  C    0.000227   0.000569   0.020155  -0.033346  -0.226956  -0.889937
    11  C    0.000882   0.000064   0.029681  -0.004397   0.444571  -0.643607
    12  C    0.021138   0.003264   0.156850  -0.086517  -0.879493   0.801435
    13  H    0.556587  -0.006773  -0.000186   0.002498   0.000592  -0.000043
    14  H   -0.006773   0.507409   0.000103   0.000013  -0.000209  -0.000001
    15  H   -0.000186   0.000103   0.682619  -0.000093  -0.252936   0.004856
    16  H    0.002498   0.000013  -0.000093   0.526105  -0.002434   0.002055
    17  Cl   0.000592  -0.000209  -0.252936  -0.002434  18.521103  -0.386947
    18  Cl  -0.000043  -0.000001   0.004856   0.002055  -0.386947  17.676128
    19  Cl   0.000262  -0.000401  -0.034136   0.000117  -0.067927   0.000008
    20  Cl   0.000128   0.000000   0.000674  -0.002097  -0.004658  -0.297570
    21  Cl  -0.001134  -0.009387   0.000886   0.000079   0.003162   0.000076
    22  Cl  -0.000065   0.000003  -0.000203  -0.016098   0.017128  -0.007480
              19         20         21         22
     1  C   -0.515613  -0.112440  -0.272869  -0.193662
     2  C    0.300502  -0.050929  -0.173205  -0.032717
     3  C    0.398307  -0.010293   0.232605   0.031466
     4  C   -0.020016  -0.001710  -0.936868  -0.003686
     5  C   -1.155767   0.001073   0.581034  -0.016636
     6  C    0.638244  -0.030493  -0.061729  -0.075518
     7  C   -0.224181  -0.011825  -0.066782  -0.955666
     8  C   -0.101166  -0.422027  -0.037841   0.366681
     9  C   -0.016711  -0.355298  -0.001419  -0.015363
    10  C   -0.004034   0.383422  -0.003878  -0.220309
    11  C   -0.013776   0.492824   0.000584  -0.139230
    12  C   -0.009420  -0.684030  -0.038982   0.468990
    13  H    0.000262   0.000128  -0.001134  -0.000065
    14  H   -0.000401   0.000000  -0.009387   0.000003
    15  H   -0.034136   0.000674   0.000886  -0.000203
    16  H    0.000117  -0.002097   0.000079  -0.016098
    17  Cl  -0.067927  -0.004658   0.003162   0.017128
    18  Cl   0.000008  -0.297570   0.000076  -0.007480
    19  Cl  17.517647  -0.000028  -0.169157  -0.000134
    20  Cl  -0.000028  17.620414  -0.000012  -0.194941
    21  Cl  -0.169157  -0.000012  17.424577   0.000037
    22  Cl  -0.000134  -0.194941   0.000037  17.436259
 Mulliken charges:
               1
     1  C   -0.529307
     2  C   -0.238456
     3  C   -0.369055
     4  C    0.811592
     5  C   -0.059081
     6  C   -1.533767
     7  C   -0.549305
     8  C   -0.461658
     9  C   -0.326945
    10  C   -0.010970
    11  C   -0.517983
    12  C   -0.458687
    13  H    0.124680
    14  H    0.152094
    15  H    0.148500
    16  H    0.150248
    17  Cl   0.726413
    18  Cl   0.703125
    19  Cl   0.477379
    20  Cl   0.679816
    21  Cl   0.530224
    22  Cl   0.551143
 Sum of Mulliken charges =  -0.00000
 Mulliken charges with hydrogens summed into heavy atoms:
               1
     1  C   -0.529307
     2  C   -0.113777
     3  C   -0.216961
     4  C    0.811592
     5  C   -0.059081
     6  C   -1.385267
     7  C   -0.549305
     8  C   -0.311410
     9  C   -0.326945
    10  C   -0.010970
    11  C   -0.517983
    12  C   -0.458687
    17  Cl   0.726413
    18  Cl   0.703125
    19  Cl   0.477379
    20  Cl   0.679816
    21  Cl   0.530224
    22  Cl   0.551143
 Electronic spatial extent (au):  <R**2>=           9767.8853
 Charge=             -0.0000 electrons
 Dipole moment (field-independent basis, Debye):
    X=             -0.7712    Y=              1.7350    Z=             -0.0000  Tot=              1.8987
 Quadrupole moment (field-independent basis, Debye-Ang):
   XX=           -160.0917   YY=           -137.8584   ZZ=           -147.4073
   XY=              2.8086   XZ=             -0.0000   YZ=             -0.0000
 Traceless Quadrupole moment (field-independent basis, Debye-Ang):
   XX=            -11.6393   YY=             10.5941   ZZ=              1.0452
   XY=              2.8086   XZ=             -0.0000   YZ=             -0.0000
 Octapole moment (field-independent basis, Debye-Ang**2):
  XXX=            -56.3094  YYY=             -0.9967  ZZZ=             -0.0000  XYY=              8.6896
  XXY=             -5.0895  XXZ=             -0.0001  XZZ=             -6.6249  YZZ=             -8.4588
  YYZ=             -0.0001  XYZ=             -0.0000
 Hexadecapole moment (field-independent basis, Debye-Ang**3):
 XXXX=         -10173.2983 YYYY=          -2481.3384 ZZZZ=           -170.9690 XXXY=             -1.3667
 XXXZ=              0.0003 YYYX=              5.8736 YYYZ=             -0.0000 ZZZX=              0.0001
 ZZZY=              0.0000 XXYY=          -2053.2451 XXZZ=          -1731.5472 YYZZ=           -481.3657
 XXYZ=             -0.0000 YYXZ=              0.0001 ZZXY=            -10.1105
 N-N= 1.973164929878D+03 E-N=-1.157484996289D+04  KE= 3.212710844145D+03
 Calling FoFJK, ICntrl=      2127 FMM=F ISym2X=0 I1Cent= 0 IOpClX= 0 NMat=1 NMatS=1 NMatT=0.
 ***** Axes restored to original set *****
 -------------------------------------------------------------------
 Center     Atomic                   Forces (Hartrees/Bohr)
 Number     Number              X              Y              Z
 -------------------------------------------------------------------
      1        6          -0.012880829   -0.023593846   -0.000187585
      2        6          -0.002113172    0.020641129    0.004572917
      3        6          -0.015450046   -0.006213651    0.003923219
      4        6           0.000110370    0.002882119    0.000504718
      5        6           0.006120776   -0.006955983   -0.003322875
      6        6           0.046524575    0.031148479   -0.009477967
      7        6           0.016872031    0.032364100    0.000519822
      8        6          -0.020722889   -0.009342892    0.005072690
      9        6           0.005415407    0.005216246   -0.000804547
     10        6          -0.005316314   -0.010227245   -0.000169196
     11        6          -0.010437743    0.002477945    0.003904376
     12        6           0.001918496   -0.004432749   -0.001464668
     13        1           0.007204384   -0.003092258   -0.002954334
     14        1           0.008208777    0.001596543   -0.002404564
     15        1           0.039000145    0.027558714   -0.007673372
     16        1           0.004904516   -0.003381771   -0.002251071
     17       17          -0.082922161   -0.060446216    0.015967280
     18       17           0.009757176   -0.000203400   -0.003252883
     19       17          -0.001415293   -0.006829512   -0.000816341
     20       17           0.004525228    0.008686250    0.000140417
     21       17           0.001246155   -0.006835774   -0.001694356
     22       17          -0.000549588    0.008983771    0.001868319
 -------------------------------------------------------------------
 Cartesian Forces:  Max     0.082922161 RMS     0.017716150

 GradGradGradGradGradGradGradGradGradGradGradGradGradGradGradGradGradGrad
 Berny optimization.
 FormGI is forming the generalized inverse of G from B-inverse, IUseBI=4.
 Internal  Forces:  Max     0.274298640 RMS     0.049695387
 Search for a local minimum.
 Step number   1 out of a maximum of  121
 All quantities printed in internal units (Hartrees-Bohrs-Radians)
 Mixed Optimization -- RFO/linear search
 Second derivative matrix not updated -- first step.
 ITU=  0
     Eigenvalues ---    0.00237   0.01506   0.01506   0.02070   0.02070
     Eigenvalues ---    0.02070   0.02070   0.02070   0.02070   0.02070
     Eigenvalues ---    0.02070   0.02070   0.02070   0.02070   0.02070
     Eigenvalues ---    0.02070   0.02070   0.02070   0.02070   0.16000
     Eigenvalues ---    0.16000   0.16000   0.16000   0.22375   0.23485
     Eigenvalues ---    0.23491   0.24610   0.25000   0.25000   0.25000
     Eigenvalues ---    0.25000   0.25000   0.25000   0.25000   0.25000
     Eigenvalues ---    0.25000   0.25000   0.28519   0.29539   0.29539
     Eigenvalues ---    0.29539   0.29539   0.29539   0.29539   0.37230
     Eigenvalues ---    0.37230   0.37230   0.37230   0.41393   0.41635
     Eigenvalues ---    0.41697   0.41797   0.45389   0.45389   0.45389
     Eigenvalues ---    0.45389   0.45389   0.45389   0.45389   0.45389
 RFO step:  Lambda=-4.09198717D-01 EMin= 2.36824243D-03
 Linear search not attempted -- first point.
 Maximum step size (   0.300) exceeded in Quadratic search.
    -- Step size scaled by   0.383
 Iteration  1 RMS(Cart)=  0.20819057 RMS(Int)=  0.01022045
 Iteration  2 RMS(Cart)=  0.03866890 RMS(Int)=  0.00031956
 Iteration  3 RMS(Cart)=  0.00060033 RMS(Int)=  0.00004489
 Iteration  4 RMS(Cart)=  0.00000018 RMS(Int)=  0.00004489
 Variable       Old X    -DE/DX   Delta X   Delta X   Delta X     New X
                                 (Linear)    (Quad)   (Total)
    R1        2.64826   0.01660   0.00000   0.00757   0.00762   2.65588
    R2        2.64826   0.01370   0.00000   0.00643   0.00647   2.65473
    R3        2.91018   0.06491   0.00000   0.03582   0.03582   2.94599
    R4        2.64826  -0.01520   0.00000  -0.00689  -0.00688   2.64138
    R5        2.02201   0.00671   0.00000   0.00329   0.00329   2.02530
    R6        2.64826  -0.02689   0.00000  -0.01228  -0.01232   2.63594
    R7        2.02201   0.00858   0.00000   0.00421   0.00421   2.02621
    R8        2.64826  -0.01776   0.00000  -0.00809  -0.00813   2.64013
    R9        3.32592  -0.00526   0.00000  -0.00286  -0.00286   3.32306
   R10        2.64826  -0.00467   0.00000  -0.00194  -0.00194   2.64632
   R11        3.32592  -0.00537   0.00000  -0.00292  -0.00292   3.32300
   R12        2.02201  -0.04004   0.00000  -0.01963  -0.01963   2.00238
   R13        2.64826   0.01540   0.00000   0.00728   0.00738   2.65564
   R14        2.64826   0.11842   0.00000   0.05379   0.05386   2.70212
   R15        2.64826  -0.02596   0.00000  -0.01230  -0.01228   2.63599
   R16        2.02201   0.00529   0.00000   0.00259   0.00259   2.02460
   R17        2.64826  -0.03396   0.00000  -0.01629  -0.01637   2.63190
   R18        3.32592  -0.00838   0.00000  -0.00455  -0.00455   3.32136
   R19        2.64826  -0.02176   0.00000  -0.01010  -0.01020   2.63806
   R20        3.32592  -0.00978   0.00000  -0.00532  -0.00532   3.32060
   R21        2.64826   0.01136   0.00000   0.00582   0.00580   2.65406
   R22        3.32592  -0.01028   0.00000  -0.00559  -0.00559   3.32033
   R23        3.32592  -0.00906   0.00000  -0.00493  -0.00493   3.32099
    A1        2.09440  -0.05984   0.00000  -0.03432  -0.03424   2.06016
    A2        2.09440  -0.12898   0.00000  -0.07520  -0.07524   2.01916
    A3        2.09440   0.18882   0.00000   0.10952   0.10947   2.20387
    A4        2.09440   0.03767   0.00000   0.02274   0.02279   2.11719
    A5        2.09440  -0.01377   0.00000  -0.00796  -0.00799   2.08641
    A6        2.09440  -0.02390   0.00000  -0.01478  -0.01481   2.07959
    A7        2.09440   0.00229   0.00000   0.00043   0.00040   2.09479
    A8        2.09440   0.00031   0.00000   0.00076   0.00078   2.09517
    A9        2.09440  -0.00260   0.00000  -0.00119  -0.00118   2.09322
   A10        2.09440  -0.01412   0.00000  -0.00922  -0.00930   2.08509
   A11        2.09440  -0.00099   0.00000  -0.00007  -0.00003   2.09436
   A12        2.09440   0.01512   0.00000   0.00929   0.00933   2.10373
   A13        2.09440   0.01348   0.00000   0.00747   0.00742   2.10182
   A14        2.09440   0.00079   0.00000   0.00064   0.00067   2.09506
   A15        2.09440  -0.01427   0.00000  -0.00811  -0.00809   2.08631
   A16        2.09440   0.02053   0.00000   0.01289   0.01293   2.10732
   A17        2.09440   0.01717   0.00000   0.01202   0.01200   2.10640
   A18        2.09440  -0.03770   0.00000  -0.02491  -0.02493   2.06947
   A19        2.09440  -0.20150   0.00000  -0.11809  -0.11818   1.97622
   A20        2.09440   0.27430   0.00000   0.15845   0.15836   2.25276
   A21        2.09440  -0.07280   0.00000  -0.04036  -0.04018   2.05421
   A22        2.09440   0.05827   0.00000   0.03473   0.03486   2.12926
   A23        2.09440  -0.02555   0.00000  -0.01495  -0.01501   2.07938
   A24        2.09440  -0.03273   0.00000  -0.01978  -0.01985   2.07455
   A25        2.09440   0.00432   0.00000  -0.00042  -0.00047   2.09393
   A26        2.09440  -0.00846   0.00000  -0.00345  -0.00343   2.09097
   A27        2.09440   0.00414   0.00000   0.00387   0.00389   2.09829
   A28        2.09440  -0.01099   0.00000  -0.00886  -0.00904   2.08536
   A29        2.09440   0.00635   0.00000   0.00493   0.00502   2.09941
   A30        2.09440   0.00464   0.00000   0.00393   0.00402   2.09842
   A31        2.09440   0.03775   0.00000   0.02213   0.02200   2.11640
   A32        2.09440  -0.01959   0.00000  -0.01148  -0.01142   2.08298
   A33        2.09440  -0.01816   0.00000  -0.01065  -0.01059   2.08381
   A34        2.09440  -0.01655   0.00000  -0.00722  -0.00717   2.08722
   A35        2.09440   0.18032   0.00000   0.10360   0.10358   2.19797
   A36        2.09440  -0.16376   0.00000  -0.09638  -0.09641   1.99799
    D1        0.00000   0.00000   0.00000   0.00000   0.00000   0.00000
    D2        3.14159   0.00000   0.00000   0.00000   0.00000   3.14159
    D3       -3.14159   0.00000   0.00000  -0.00000  -0.00000  -3.14159
    D4       -0.00000  -0.00000   0.00000  -0.00000  -0.00000  -0.00000
    D5       -0.00000  -0.00000   0.00000  -0.00000  -0.00000  -0.00000
    D6        3.14159  -0.00000   0.00000  -0.00000  -0.00000   3.14159
    D7        3.14159   0.00000   0.00000   0.00000   0.00000   3.14159
    D8        0.00000  -0.00000   0.00000  -0.00000  -0.00000   0.00000
    D9       -0.00000  -0.00000   0.00000  -0.00000  -0.00000  -0.00000
   D10        3.14159  -0.00000   0.00000  -0.00000  -0.00000   3.14159
   D11        3.14159  -0.00000   0.00000  -0.00000  -0.00000   3.14159
   D12       -0.00000  -0.00000   0.00000  -0.00000  -0.00000  -0.00000
   D13        0.00000  -0.00000   0.00000  -0.00000  -0.00000   0.00000
   D14        3.14159  -0.00000   0.00000  -0.00000  -0.00000   3.14159
   D15       -3.14159  -0.00000   0.00000  -0.00000  -0.00000  -3.14159
   D16        0.00000  -0.00000   0.00000  -0.00000  -0.00000   0.00000
   D17       -0.00000   0.00000   0.00000   0.00000   0.00000  -0.00000
   D18        3.14159   0.00000   0.00000   0.00000   0.00000   3.14159
   D19        3.14159  -0.00000   0.00000  -0.00000  -0.00000   3.14159
   D20        0.00000  -0.00000   0.00000  -0.00000  -0.00000   0.00000
   D21        0.00000   0.00000   0.00000   0.00000   0.00000   0.00000
   D22       -3.14159   0.00000   0.00000   0.00000   0.00000  -3.14159
   D23       -3.14159  -0.00000   0.00000  -0.00000  -0.00000  -3.14159
   D24        0.00000   0.00000   0.00000   0.00000   0.00000   0.00000
   D25       -0.00000   0.00000   0.00000   0.00000   0.00000  -0.00000
   D26        3.14159   0.00000   0.00000   0.00000   0.00000   3.14159
   D27        3.14159   0.00000   0.00000  -0.00000   0.00000   3.14159
   D28       -0.00000   0.00000   0.00000   0.00000   0.00000  -0.00000
   D29        3.14159   0.00000   0.00000   0.00000   0.00000   3.14159
   D30        0.00000   0.00000   0.00000   0.00000   0.00000   0.00000
   D31        0.00000   0.00000   0.00000   0.00000   0.00000   0.00000
   D32       -3.14159  -0.00000   0.00000  -0.00000  -0.00000  -3.14159
   D33       -3.14159   0.00000   0.00000   0.00000   0.00000  -3.14159
   D34        0.00000  -0.00000   0.00000  -0.00000  -0.00000   0.00000
   D35       -0.00000  -0.00000   0.00000  -0.00000  -0.00000  -0.00000
   D36        3.14159  -0.00000   0.00000  -0.00000  -0.00000   3.14159
   D37       -0.00000  -0.00000   0.00000  -0.00000  -0.00000  -0.00000
   D38        3.14159  -0.00000   0.00000  -0.00000  -0.00000   3.14159
   D39        3.14159   0.00000   0.00000   0.00000   0.00000   3.14159
   D40       -0.00000   0.00000   0.00000   0.00000   0.00000  -0.00000
   D41       -0.00000  -0.00000   0.00000  -0.00000  -0.00000  -0.00000
   D42       -3.14159  -0.00000   0.00000  -0.00000  -0.00000  -3.14159
   D43        3.14159   0.00000   0.00000   0.00000   0.00000   3.14159
   D44        0.00000  -0.00000   0.00000  -0.00000  -0.00000   0.00000
   D45        0.00000   0.00000   0.00000   0.00000   0.00000   0.00000
   D46       -3.14159  -0.00000   0.00000  -0.00000  -0.00000  -3.14159
   D47        3.14159   0.00000   0.00000   0.00000   0.00000   3.14159
   D48        0.00000   0.00000   0.00000   0.00000   0.00000   0.00000
   D49        0.00000   0.00000   0.00000   0.00000   0.00000   0.00000
   D50       -3.14159   0.00000   0.00000   0.00000   0.00000  -3.14159
   D51        3.14159   0.00000   0.00000   0.00000   0.00000   3.14159
   D52       -0.00000   0.00000   0.00000   0.00000   0.00000  -0.00000
         Item               Value     Threshold  Converged?
 Maximum Force            0.274299     0.000450     NO 
 RMS     Force            0.049695     0.000300     NO 
 Maximum Displacement     0.991761     0.001800     NO 
 RMS     Displacement     0.242116     0.001200     NO 
 Predicted change in Energy=-1.451574D-01
 GradGradGradGradGradGradGradGradGradGradGradGradGradGradGradGradGradGrad

                          Input orientation:                          
 ---------------------------------------------------------------------
 Center     Atomic      Atomic             Coordinates (Angstroms)
 Number     Number       Type             X           Y           Z
 ---------------------------------------------------------------------
      1          6           0        0.387653    0.780390    0.062839
      2          6           0        1.711868    0.668344   -0.394474
      3          6           0        2.553448    1.782275   -0.462529
      4          6           0        2.084040    3.036504   -0.072324
      5          6           0        0.770360    3.166913    0.384964
      6          6           0       -0.071264    2.049700    0.452418
      7          6           0       -0.434081   -0.544225    0.084789
      8          6           0        0.296545   -1.657236   -0.364955
      9          6           0       -0.261710   -2.934335   -0.420885
     10          6           0       -1.581482   -3.134810   -0.023727
     11          6           0       -2.335236   -2.050213    0.428301
     12          6           0       -1.788345   -0.758109    0.490792
     13          1           0        2.086991   -0.288687   -0.697797
     14          1           0        3.560361    1.673655   -0.814661
     15          1           0       -1.062129    2.182143    0.803736
     16          1           0        1.313351   -1.523268   -0.674786
     17         17           0       -2.893200    0.472185    1.085858
     18         17           0       -3.999866   -2.307194    0.928467
     19         17           0        0.163033    4.740952    0.880666
     20         17           0       -2.293033   -4.740082   -0.090783
     21         17           0        3.143365    4.437477   -0.158208
     22         17           0        0.705003   -4.286003   -0.993231
 ---------------------------------------------------------------------
                    Distance matrix (angstroms):
                    1          2          3          4          5
     1  C    0.000000
     2  C    1.405431   0.000000
     3  C    2.443451   1.397758   0.000000
     4  C    2.825959   2.418774   1.394881   0.000000
     5  C    2.438385   2.781512   2.411404   1.397095   0.000000
     6  C    1.404822   2.409342   2.792446   2.427853   1.400373
     7  C    1.558953   2.510999   3.825896   4.380323   3.913225
     8  C    2.476556   2.722561   4.115017   5.031100   4.905028
     9  C    3.801953   4.107920   5.493019   6.424558   6.240175
    10  C    4.383352   5.044561   6.439558   7.177989   6.738687
    11  C    3.944617   4.944347   6.275410   6.756871   6.071656
    12  C    2.699091   3.882004   5.119916   5.450831   4.686573
    13  H    2.146915   1.071742   2.135840   3.383506   3.853188
    14  H    3.410866   2.145724   1.072227   2.141948   3.384232
    15  H    2.148419   3.379697   3.851716   3.375766   2.122064
    16  H    2.589951   2.245118   3.536878   4.663522   4.838978
    17  Cl   3.450443   4.841128   5.812040   5.717520   4.601574
    18  Cl   5.434410   6.574794   7.848856   8.159081   7.281229
    19  Cl   4.050352   4.539935   4.033860   2.739271   1.758456
    20  Cl   6.138835   6.736656   8.134354   8.923811   8.493014
    21  Cl   4.584441   4.038733   2.736917   1.758486   2.746001
    22  Cl   5.185011   5.090958   6.365720   7.507924   7.579555
                    6          7          8          9         10
     6  C    0.000000
     7  C    2.644851   0.000000
     8  C    3.813759   1.405303   0.000000
     9  C    5.063550   2.449090   1.394904   0.000000
    10  C    5.420943   2.835390   2.413844   1.392739   0.000000
    11  C    4.683528   2.449570   2.776681   2.408796   1.396004
    12  C    3.291449   1.429901   2.426416   2.810290   2.440539
    13  H    3.383654   2.652083   2.278028   3.548596   4.691746
    14  H    3.864660   4.656562   4.685037   5.999738   7.084170
    15  H    1.059612   2.888669   4.237058   5.321533   5.405961
    16  H    3.994227   2.142194   1.071372   2.129881   3.376537
    17  Cl   3.294408   2.842973   4.100459   4.560635   3.995272
    18  Cl   5.885836   4.066285   4.533710   4.023415   2.727674
    19  Cl   2.735165   5.378017   6.519679   7.796440   8.117197
    20  Cl   7.164668   4.592575   4.035470   2.737876   1.757185
    21  Cl   4.050702   6.137957   6.729982   8.124478   8.926466
    22  Cl   6.544741   4.057160   2.733493   1.757590   2.737370
                   11         12         13         14         15
    11  C    0.000000
    12  C    1.404467   0.000000
    13  H    4.891540   4.080604   0.000000
    14  H    7.083093   6.018832   2.456677   0.000000
    15  H    4.435605   3.044734   4.275109   4.923940   0.000000
    16  H    3.847942   3.400670   1.457134   3.910107   4.643167
    17  Cl   2.665745   1.757394   5.344404   6.834029   2.521185
    18  Cl   1.757042   2.735333   6.615810   8.720246   5.366563
    19  Cl   7.250235   5.848039   5.611634   4.881013   2.838035
    20  Cl   2.739822   4.055743   6.274393   8.713337   7.087488
    21  Cl   8.511709   7.192849   4.872751   2.871155   4.868064
    22  Cl   4.032687   4.567838   4.239777   6.610785   6.941813
                   16         17         18         19         20
    16  H    0.000000
    17  Cl   4.977627   0.000000
    18  Cl   5.604929   2.995735   0.000000
    19  Cl   6.556151   5.254050   8.185864   0.000000
    20  Cl   4.867746   5.377026   3.141830   9.842052   0.000000
    21  Cl   6.256699   7.328804   9.884189   3.170763  10.667078
    22  Cl   2.846788   6.317439   5.453843   9.235321   3.163672
                   21         22
    21  Cl   0.000000
    22  Cl   9.096262   0.000000
 Stoichiometry    C12H4Cl6
 Framework group  C1[X(C12H4Cl6)]
 Deg. of freedom    60
 Full point group                 C1      NOp   1
 Largest Abelian subgroup         C1      NOp   1
 Largest concise Abelian subgroup C1      NOp   1
                         Standard orientation:                         
 ---------------------------------------------------------------------
 Center     Atomic      Atomic             Coordinates (Angstroms)
 Number     Number       Type             X           Y           Z
 ---------------------------------------------------------------------
      1          6           0        1.174701    0.337360    0.000002
      2          6           0        1.649744    1.660074   -0.000001
      3          6           0        3.019195    1.939950   -0.000003
      4          6           0        3.944807    0.896430   -0.000003
      5          6           0        3.490889   -0.424870    0.000002
      6          6           0        2.118461   -0.703236    0.000004
      7          6           0       -0.375898    0.176198    0.000003
      8          6           0       -1.060688    1.403365    0.000003
      9          6           0       -2.453885    1.472352    0.000002
     10          6           0       -3.208506    0.301767    0.000002
     11          6           0       -2.559372   -0.934134    0.000001
     12          6           0       -1.157601   -1.021115    0.000001
     13          1           0        0.950832    2.472571   -0.000003
     14          1           0        3.359312    2.956803   -0.000006
     15          1           0        1.806784   -1.715973    0.000007
     16          1           0       -0.497750    2.314923    0.000000
     17         17           0       -0.529938   -2.662599   -0.000002
     18         17           0       -3.514889   -2.408645   -0.000004
     19         17           0        4.644591   -1.751949    0.000006
     20         17           0       -4.963992    0.379042   -0.000001
     21         17           0        5.667530    1.249274   -0.000006
     22         17           0       -3.250964    3.038808    0.000003
 ---------------------------------------------------------------------
 Rotational constants (GHZ):           0.4451945           0.1144040           0.0910153
 Standard basis: 6-311+G(d,p) (5D, 7F)
 There are   486 symmetry adapted cartesian basis functions of A   symmetry.
 There are   468 symmetry adapted basis functions of A   symmetry.
   468 basis functions,   782 primitive gaussians,   486 cartesian basis functions
    89 alpha electrons       89 beta electrons
       nuclear repulsion energy      1949.0935850391 Hartrees.
 NAtoms=   22 NActive=   22 NUniq=   22 SFac= 1.00D+00 NAtFMM=   60 NAOKFM=F Big=F
 Integral buffers will be    131072 words long.
 Raffenetti 2 integral format.
 Two-electron integral symmetry is turned on.
 One-electron integrals computed using PRISM.
 NBasis=   468 RedAO= T EigKep=  1.66D-06  NBF=   468
 NBsUse=   461 1.00D-06 EigRej=  9.54D-07 NBFU=   461
 Initial guess from the checkpoint file:  "/scratch/gour/Gau-105090.chk"
 B after Tr=     0.000000    0.000000    0.000000
         Rot=    0.999728   -0.000000   -0.000000    0.023302 Ang=  -2.67 deg.
 ExpMin= 4.38D-02 ExpMax= 1.06D+05 ExpMxC= 3.62D+03 IAcc=3 IRadAn=         5 AccDes= 0.00D+00
 Harris functional with IExCor=  402 and IRadAn=       5 diagonalized for initial guess.
 HarFok:  IExCor=  402 AccDes= 0.00D+00 IRadAn=         5 IDoV= 1 UseB2=F ITyADJ=14
 ICtDFT=  3500011 ScaDFX=  1.000000  1.000000  1.000000  1.000000
 FoFCou: FMM=F IPFlag=           0 FMFlag=      100000 FMFlg1=           0
         NFxFlg=           0 DoJE=T BraDBF=F KetDBF=T FulRan=T
         wScrn=  0.000000 ICntrl=       500 IOpCl=  0 I1Cent=   200000004 NGrid=           0
         NMat0=    1 NMatS0=      1 NMatT0=    0 NMatD0=    1 NMtDS0=    0 NMtDT0=    0
 Petite list used in FoFCou.
 Requested convergence on RMS density matrix=1.00D-08 within  32 cycles.
 Requested convergence on MAX density matrix=1.00D-06.
 Requested convergence on             energy=1.00D-06.
 No special actions if energy rises.
 EnCoef did     4 forward-backward iterations
 SCF Done:  E(RB3LYP) =  -3221.10561110     A.U. after   17 cycles
            NFock= 17  Conv=0.95D-08     -V/T= 2.0027
 QCSCF skips out because SCF is already converged.
 Calling FoFJK, ICntrl=      2127 FMM=F ISym2X=0 I1Cent= 0 IOpClX= 0 NMat=1 NMatS=1 NMatT=0.
 ***** Axes restored to original set *****
 -------------------------------------------------------------------
 Center     Atomic                   Forces (Hartrees/Bohr)
 Number     Number              X              Y              Z
 -------------------------------------------------------------------
      1        6          -0.012268386   -0.020308058    0.000227779
      2        6           0.003520278    0.023139350    0.003186142
      3        6          -0.012942883   -0.005121008    0.003302428
      4        6           0.001957096    0.004199530    0.000143719
      5        6          -0.001755677   -0.001064739    0.000378483
      6        6           0.013654870   -0.003508704   -0.005157574
      7        6           0.006566326    0.022533032    0.002068738
      8        6          -0.021391768   -0.014623054    0.004301373
      9        6           0.005749656    0.003690502   -0.001201219
     10        6          -0.006177836   -0.013218556   -0.000447159
     11        6          -0.007431409    0.000689838    0.002578078
     12        6           0.009529383   -0.000618640   -0.003255773
     13        1           0.010655196    0.008649822   -0.001885929
     14        1           0.006740623    0.000191053   -0.002184838
     15        1          -0.012422842    0.002569165    0.004575240
     16        1          -0.004040064   -0.011665783   -0.000860070
     17       17           0.012816326    0.006453344   -0.003010480
     18       17           0.007099196   -0.003099148   -0.002921034
     19       17          -0.001586574   -0.006792883   -0.000753024
     20       17           0.003532568    0.007631062    0.000269284
     21       17          -0.001075499   -0.006845076   -0.000931223
     22       17          -0.000728579    0.007118953    0.001577059
 -------------------------------------------------------------------
 Cartesian Forces:  Max     0.023139350 RMS     0.008100235

 GradGradGradGradGradGradGradGradGradGradGradGradGradGradGradGradGradGrad
 Berny optimization.
 Using GEDIIS/GDIIS optimizer.
 FormGI is forming the generalized inverse of G from B-inverse, IUseBI=4.
 Internal  Forces:  Max     0.060658771 RMS     0.011902062
 Search for a local minimum.
 Step number   2 out of a maximum of  121
 All quantities printed in internal units (Hartrees-Bohrs-Radians)
 Mixed Optimization -- RFO/linear search
 Update second derivatives using D2CorX and points    1    2
 DE= -3.64D-02 DEPred=-1.45D-01 R= 2.51D-01
 Trust test= 2.51D-01 RLast= 3.00D-01 DXMaxT set to 3.00D-01
 ITU=  0  0
 Use linear search instead of GDIIS.
     Eigenvalues ---    0.00237   0.01479   0.01484   0.02070   0.02070
     Eigenvalues ---    0.02070   0.02070   0.02070   0.02070   0.02070
     Eigenvalues ---    0.02070   0.02070   0.02070   0.02070   0.02070
     Eigenvalues ---    0.02070   0.02070   0.02070   0.02070   0.15962
     Eigenvalues ---    0.16000   0.16000   0.16034   0.22377   0.23391
     Eigenvalues ---    0.23481   0.24572   0.24858   0.25000   0.25000
     Eigenvalues ---    0.25000   0.25000   0.25000   0.25000   0.25000
     Eigenvalues ---    0.25000   0.28454   0.29504   0.29539   0.29539
     Eigenvalues ---    0.29539   0.29539   0.29539   0.37093   0.37220
     Eigenvalues ---    0.37230   0.37230   0.40696   0.41328   0.41560
     Eigenvalues ---    0.41754   0.45035   0.45334   0.45389   0.45389
     Eigenvalues ---    0.45389   0.45389   0.45389   0.45389   2.10113
 RFO step:  Lambda=-1.17445965D-02 EMin= 2.36824243D-03
 Quartic linear search produced a step of -0.34687.
 Iteration  1 RMS(Cart)=  0.14198446 RMS(Int)=  0.00421059
 Iteration  2 RMS(Cart)=  0.00688532 RMS(Int)=  0.00003795
 Iteration  3 RMS(Cart)=  0.00001159 RMS(Int)=  0.00003778
 Iteration  4 RMS(Cart)=  0.00000000 RMS(Int)=  0.00003778
 Variable       Old X    -DE/DX   Delta X   Delta X   Delta X     New X
                                 (Linear)    (Quad)   (Total)
    R1        2.65588   0.00997  -0.00264   0.02148   0.01888   2.67476
    R2        2.65473  -0.00373  -0.00224   0.00093  -0.00124   2.65349
    R3        2.94599  -0.00708  -0.01242   0.01553   0.00311   2.94910
    R4        2.64138  -0.00894   0.00239  -0.01857  -0.01622   2.62517
    R5        2.02530  -0.00346  -0.00114  -0.00292  -0.00406   2.02124
    R6        2.63594  -0.00672   0.00427  -0.02096  -0.01677   2.61918
    R7        2.02621   0.00703  -0.00146   0.01573   0.01427   2.04049
    R8        2.64013  -0.00412   0.00282  -0.01376  -0.01098   2.62915
    R9        3.32306  -0.00606   0.00099  -0.01537  -0.01437   3.30868
   R10        2.64632  -0.00857   0.00067  -0.01408  -0.01338   2.63295
   R11        3.32300  -0.00574   0.00101  -0.01475  -0.01374   3.30926
   R12        2.00238   0.01345   0.00681   0.00519   0.01200   2.01438
   R13        2.65564   0.00448  -0.00256   0.01240   0.00990   2.66553
   R14        2.70212  -0.01860  -0.01868   0.02297   0.00434   2.70646
   R15        2.63599  -0.00926   0.00426  -0.02438  -0.02011   2.61587
   R16        2.02460  -0.00504  -0.00090  -0.00624  -0.00714   2.01746
   R17        2.63190  -0.00137   0.00568  -0.01648  -0.01085   2.62104
   R18        3.32136  -0.00639   0.00158  -0.01755  -0.01597   3.30539
   R19        2.63806  -0.00106   0.00354  -0.01025  -0.00677   2.63129
   R20        3.32060  -0.00841   0.00185  -0.02252  -0.02067   3.29993
   R21        2.65406   0.00584  -0.00201   0.01361   0.01160   2.66565
   R22        3.32033  -0.00710   0.00194  -0.01997  -0.01804   3.30229
   R23        3.32099  -0.00456   0.00171  -0.01399  -0.01228   3.30871
    A1        2.06016  -0.01256   0.01188  -0.05967  -0.04767   2.01249
    A2        2.01916   0.05774   0.02610   0.07973   0.10576   2.12492
    A3        2.20387  -0.04519  -0.03797  -0.02006  -0.05809   2.14578
    A4        2.11719   0.00297  -0.00791   0.02809   0.02021   2.13739
    A5        2.08641   0.01210   0.00277   0.04018   0.04294   2.12935
    A6        2.07959  -0.01507   0.00514  -0.06827  -0.06315   2.01644
    A7        2.09479   0.00395  -0.00014   0.01075   0.01051   2.10530
    A8        2.09517  -0.00104  -0.00027  -0.00108  -0.00129   2.09388
    A9        2.09322  -0.00291   0.00041  -0.00967  -0.00921   2.08401
   A10        2.08509  -0.00364   0.00323  -0.01904  -0.01594   2.06915
   A11        2.09436  -0.00399   0.00001  -0.00893  -0.00885   2.08551
   A12        2.10373   0.00762  -0.00324   0.02797   0.02479   2.12852
   A13        2.10182   0.00059  -0.00257   0.00561   0.00302   2.10483
   A14        2.09506   0.00640  -0.00023   0.01760   0.01738   2.11244
   A15        2.08631  -0.00699   0.00281  -0.02321  -0.02039   2.06591
   A16        2.10732   0.00868  -0.00448   0.03426   0.02988   2.13720
   A17        2.10640  -0.00343  -0.00416   0.00045  -0.00376   2.10263
   A18        2.06947  -0.00525   0.00865  -0.03471  -0.02611   2.04335
   A19        1.97622   0.06066   0.04099   0.05190   0.09284   2.06905
   A20        2.25276  -0.04894  -0.05493   0.01347  -0.04152   2.21124
   A21        2.05421  -0.01172   0.01394  -0.06537  -0.05132   2.00289
   A22        2.12926   0.00629  -0.01209   0.04503   0.03300   2.16225
   A23        2.07938   0.00830   0.00521   0.02280   0.02798   2.10736
   A24        2.07455  -0.01458   0.00688  -0.06783  -0.06098   2.01357
   A25        2.09393   0.00396   0.00016   0.00994   0.01006   2.10399
   A26        2.09097  -0.00794   0.00119  -0.02294  -0.02173   2.06924
   A27        2.09829   0.00398  -0.00135   0.01300   0.01167   2.10996
   A28        2.08536  -0.00695   0.00314  -0.02336  -0.02033   2.06503
   A29        2.09941   0.00323  -0.00174   0.01149   0.00981   2.10922
   A30        2.09842   0.00372  -0.00139   0.01186   0.01052   2.10894
   A31        2.11640  -0.00352  -0.00763   0.01088   0.00318   2.11958
   A32        2.08298  -0.00530   0.00396  -0.02339  -0.01940   2.06358
   A33        2.08381   0.00882   0.00367   0.01251   0.01621   2.10002
   A34        2.08722   0.01195   0.00249   0.02288   0.02541   2.11263
   A35        2.19797  -0.02911  -0.03593   0.01577  -0.02017   2.17780
   A36        1.99799   0.01717   0.03344  -0.03866  -0.00523   1.99275
    D1        0.00000  -0.00000  -0.00000  -0.00000  -0.00000   0.00000
    D2        3.14159  -0.00000  -0.00000  -0.00000  -0.00000   3.14159
    D3       -3.14159  -0.00000   0.00000  -0.00000  -0.00000  -3.14159
    D4       -0.00000  -0.00000   0.00000   0.00000   0.00000  -0.00000
    D5       -0.00000   0.00000   0.00000   0.00000   0.00000  -0.00000
    D6        3.14159   0.00000   0.00000   0.00000   0.00000   3.14159
    D7        3.14159  -0.00000  -0.00000   0.00000   0.00000   3.14159
    D8        0.00000  -0.00000   0.00000  -0.00000  -0.00000  -0.00000
    D9       -0.00000  -0.00000   0.00000  -0.00000  -0.00000  -0.00000
   D10        3.14159  -0.00000   0.00000  -0.00000  -0.00000   3.14159
   D11        3.14159  -0.00000   0.00000  -0.00000  -0.00000   3.14159
   D12       -0.00000   0.00000   0.00000  -0.00000   0.00000  -0.00000
   D13        0.00000  -0.00000   0.00000  -0.00000  -0.00000   0.00000
   D14        3.14159   0.00000   0.00000   0.00000   0.00000   3.14159
   D15       -3.14159  -0.00000   0.00000  -0.00000  -0.00000  -3.14159
   D16        0.00000  -0.00000   0.00000  -0.00000  -0.00000   0.00000
   D17       -0.00000   0.00000  -0.00000   0.00000   0.00000  -0.00000
   D18        3.14159  -0.00000  -0.00000  -0.00000  -0.00000   3.14159
   D19        3.14159   0.00000   0.00000   0.00000   0.00000   3.14159
   D20        0.00000  -0.00000   0.00000  -0.00000  -0.00000   0.00000
   D21        0.00000  -0.00000  -0.00000  -0.00000  -0.00000   0.00000
   D22       -3.14159  -0.00000  -0.00000  -0.00000  -0.00000  -3.14159
   D23       -3.14159   0.00000   0.00000   0.00000   0.00000  -3.14159
   D24        0.00000  -0.00000  -0.00000   0.00000   0.00000   0.00000
   D25       -0.00000   0.00000  -0.00000   0.00000   0.00000  -0.00000
   D26        3.14159   0.00000  -0.00000   0.00000   0.00000   3.14159
   D27        3.14159   0.00000   0.00000   0.00000   0.00000   3.14159
   D28       -0.00000   0.00000  -0.00000   0.00000   0.00000  -0.00000
   D29        3.14159  -0.00000  -0.00000   0.00000   0.00000  -3.14159
   D30        0.00000  -0.00000  -0.00000  -0.00000  -0.00000   0.00000
   D31        0.00000  -0.00000  -0.00000  -0.00000  -0.00000   0.00000
   D32       -3.14159  -0.00000   0.00000  -0.00000  -0.00000  -3.14159
   D33       -3.14159  -0.00000  -0.00000  -0.00000  -0.00000   3.14159
   D34        0.00000  -0.00000   0.00000  -0.00000  -0.00000  -0.00000
   D35       -0.00000   0.00000   0.00000   0.00000   0.00000  -0.00000
   D36        3.14159   0.00000   0.00000   0.00000   0.00000   3.14159
   D37       -0.00000  -0.00000   0.00000  -0.00000  -0.00000  -0.00000
   D38        3.14159  -0.00000   0.00000  -0.00000  -0.00000   3.14159
   D39        3.14159   0.00000  -0.00000   0.00000   0.00000   3.14159
   D40       -0.00000   0.00000  -0.00000   0.00000   0.00000  -0.00000
   D41       -0.00000   0.00000   0.00000   0.00000   0.00000   0.00000
   D42       -3.14159  -0.00000   0.00000  -0.00000  -0.00000  -3.14159
   D43        3.14159   0.00000  -0.00000   0.00000   0.00000  -3.14159
   D44        0.00000  -0.00000   0.00000  -0.00000  -0.00000   0.00000
   D45        0.00000   0.00000  -0.00000   0.00000   0.00000   0.00000
   D46       -3.14159  -0.00000   0.00000  -0.00000  -0.00000  -3.14159
   D47        3.14159   0.00000  -0.00000   0.00000   0.00000   3.14159
   D48        0.00000  -0.00000  -0.00000  -0.00000  -0.00000   0.00000
   D49        0.00000  -0.00000  -0.00000  -0.00000  -0.00000  -0.00000
   D50       -3.14159  -0.00000  -0.00000  -0.00000  -0.00000  -3.14159
   D51        3.14159   0.00000  -0.00000   0.00000   0.00000   3.14159
   D52       -0.00000   0.00000  -0.00000   0.00000   0.00000  -0.00000
         Item               Value     Threshold  Converged?
 Maximum Force            0.060659     0.000450     NO 
 RMS     Force            0.011902     0.000300     NO 
 Maximum Displacement     0.508859     0.001800     NO 
 RMS     Displacement     0.142596     0.001200     NO 
 Predicted change in Energy=-7.998966D-03
 GradGradGradGradGradGradGradGradGradGradGradGradGradGradGradGradGradGrad

                          Input orientation:                          
 ---------------------------------------------------------------------
 Center     Atomic      Atomic             Coordinates (Angstroms)
 Number     Number       Type             X           Y           Z
 ---------------------------------------------------------------------
[...]
                 (A) (A) (A) (A) (A) (A) (A) (A) (A) (A) (A) (A)
                 (A) (A) (A) (A) (A) (A) (A) (A) (A) (A) (A) (A)
                 (A) (A) (A) (A) (A) (A) (A) (A) (A) (A) (A) (A)
                 (A) (A) (A) (A) (A) (A) (A) (A) (A) (A) (A) (A)
                 (A) (A) (A) (A) (A) (A) (A) (A) (A) (A) (A) (A)
                 (A) (A) (A) (A) (A) (A) (A) (A) (A) (A) (A) (A)
                 (A) (A) (A) (A) (A) (A) (A) (A) (A) (A) (A) (A)
                 (A) (A) (A) (A) (A) (A) (A) (A) (A) (A) (A) (A)
                 (A) (A) (A) (A) (A) (A) (A) (A) (A) (A) (A) (A)
                 (A) (A) (A) (A) (A) (A) (A) (A) (A) (A) (A) (A)
                 (A) (A) (A) (A) (A) (A) (A) (A) (A) (A) (A) (A)
                 (A) (A) (A) (A) (A) (A) (A) (A) (A) (A) (A) (A)
                 (A) (A) (A) (A) (A) (A) (A) (A) (A) (A) (A) (A)
                 (A) (A) (A) (A) (A) (A) (A) (A) (A) (A) (A) (A)
                 (A) (A) (A) (A) (A) (A) (A) (A) (A) (A) (A) (A)
                 (A) (A) (A) (A) (A) (A) (A) (A) (A) (A) (A) (A)
                 (A) (A) (A) (A) (A) (A) (A) (A) (A) (A) (A) (A)
                 (A) (A) (A) (A) (A) (A) (A) (A) (A) (A) (A) (A)
                 (A) (A) (A) (A) (A) (A) (A) (A) (A) (A) (A) (A)
                 (A) (A) (A) (A) (A) (A) (A) (A) (A) (A) (A) (A)
                 (A) (A) (A) (A) (A) (A) (A) (A) (A) (A) (A) (A)
                 (A) (A) (A) (A) (A) (A) (A) (A) (A) (A) (A) (A)
                 (A) (A) (A) (A) (A) (A) (A) (A) (A) (A) (A) (A)
                 (A) (A) (A) (A) (A) (A) (A) (A) (A) (A) (A) (A)
                 (A) (A) (A) (A) (A) (A) (A) (A) (A) (A) (A) (A)
                 (A) (A) (A) (A) (A) (A) (A) (A) (A) (A) (A) (A)
                 (A) (A) (A)
 The electronic state is 1-A.
 Alpha  occ. eigenvalues -- -101.58207-101.58150-101.58069-101.57949-101.57294
 Alpha  occ. eigenvalues -- -101.57230 -10.28448 -10.28309 -10.27951 -10.27742
 Alpha  occ. eigenvalues --  -10.26799 -10.26743 -10.23847 -10.22620 -10.22357
 Alpha  occ. eigenvalues --  -10.21563 -10.21460 -10.21205  -9.49671  -9.49618
 Alpha  occ. eigenvalues --   -9.49524  -9.49428  -9.48751  -9.48688  -7.26175
 Alpha  occ. eigenvalues --   -7.26123  -7.26015  -7.25917  -7.25233  -7.25171
 Alpha  occ. eigenvalues --   -7.25152  -7.25101  -7.25065  -7.25011  -7.25002
 Alpha  occ. eigenvalues --   -7.24942  -7.24911  -7.24833  -7.24234  -7.24174
 Alpha  occ. eigenvalues --   -7.24169  -7.24111  -0.96434  -0.93714  -0.91865
 Alpha  occ. eigenvalues --   -0.90140  -0.87711  -0.87339  -0.86768  -0.84740
 Alpha  occ. eigenvalues --   -0.79309  -0.77246  -0.75559  -0.74069  -0.66197
 Alpha  occ. eigenvalues --   -0.65279  -0.63607  -0.61076  -0.55532  -0.54864
 Alpha  occ. eigenvalues --   -0.52716  -0.51601  -0.49939  -0.48521  -0.47186
 Alpha  occ. eigenvalues --   -0.46785  -0.46513  -0.46009  -0.44033  -0.43808
 Alpha  occ. eigenvalues --   -0.42516  -0.40620  -0.40309  -0.40108  -0.38271
 Alpha  occ. eigenvalues --   -0.36515  -0.36066  -0.35893  -0.35672  -0.35215
 Alpha  occ. eigenvalues --   -0.34414  -0.33800  -0.33757  -0.32440  -0.31963
 Alpha  occ. eigenvalues --   -0.28800  -0.27814  -0.27311  -0.26282
 Alpha virt. eigenvalues --   -0.07206  -0.06336  -0.05216  -0.04734  -0.03894
 Alpha virt. eigenvalues --   -0.02239  -0.00906  -0.00463   0.00707   0.01403
 Alpha virt. eigenvalues --    0.01955   0.02109   0.02295   0.02403   0.03637
 Alpha virt. eigenvalues --    0.03822   0.04548   0.04664   0.05322   0.05939
 Alpha virt. eigenvalues --    0.06320   0.06816   0.07218   0.07363   0.08088
 Alpha virt. eigenvalues --    0.08134   0.08325   0.08582   0.08992   0.09405
 Alpha virt. eigenvalues --    0.09883   0.10151   0.10591   0.10955   0.11247
 Alpha virt. eigenvalues --    0.11824   0.12005   0.12035   0.12533   0.12987
 Alpha virt. eigenvalues --    0.13558   0.13818   0.14278   0.14661   0.14775
 Alpha virt. eigenvalues --    0.14825   0.15206   0.15392   0.16288   0.16834
 Alpha virt. eigenvalues --    0.17139   0.17360   0.17693   0.17887   0.18318
 Alpha virt. eigenvalues --    0.18915   0.19243   0.19351   0.19654   0.20250
 Alpha virt. eigenvalues --    0.20429   0.20963   0.21328   0.21737   0.22163
 Alpha virt. eigenvalues --    0.22509   0.22795   0.23337   0.23545   0.23671
 Alpha virt. eigenvalues --    0.24600   0.24630   0.24952   0.25314   0.26071
 Alpha virt. eigenvalues --    0.26604   0.26806   0.27050   0.27267   0.27505
 Alpha virt. eigenvalues --    0.28282   0.28608   0.28751   0.29053   0.29215
 Alpha virt. eigenvalues --    0.29327   0.30251   0.31358   0.31423   0.32341
 Alpha virt. eigenvalues --    0.32936   0.33446   0.34627   0.39767   0.41203
 Alpha virt. eigenvalues --    0.42160   0.42642   0.43353   0.43760   0.44376
 Alpha virt. eigenvalues --    0.44669   0.44915   0.45180   0.45684   0.46382
 Alpha virt. eigenvalues --    0.46911   0.47275   0.47535   0.48009   0.48562
 Alpha virt. eigenvalues --    0.48880   0.49179   0.49453   0.50442   0.52108
 Alpha virt. eigenvalues --    0.53869   0.54805   0.55631   0.55728   0.56524
 Alpha virt. eigenvalues --    0.57395   0.57966   0.59089   0.59411   0.59780
 Alpha virt. eigenvalues --    0.60415   0.61253   0.61565   0.61971   0.62436
 Alpha virt. eigenvalues --    0.63649   0.64715   0.65151   0.66135   0.66577
 Alpha virt. eigenvalues --    0.67282   0.67768   0.68383   0.68977   0.69304
 Alpha virt. eigenvalues --    0.70068   0.70536   0.71791   0.73770   0.75881
 Alpha virt. eigenvalues --    0.78141   0.79406   0.80513   0.81179   0.82023
 Alpha virt. eigenvalues --    0.82812   0.83336   0.83801   0.83895   0.83974
 Alpha virt. eigenvalues --    0.84204   0.84539   0.84730   0.85026   0.85429
 Alpha virt. eigenvalues --    0.85662   0.85798   0.86076   0.86919   0.87565
 Alpha virt. eigenvalues --    0.88390   0.88892   0.89162   0.90032   0.90357
 Alpha virt. eigenvalues --    0.90478   0.91921   0.92219   0.92370   0.92776
 Alpha virt. eigenvalues --    0.93533   0.93956   0.94248   0.94956   0.95410
 Alpha virt. eigenvalues --    0.96214   0.97028   0.97532   0.98545   1.00142
 Alpha virt. eigenvalues --    1.00429   1.01865   1.02861   1.04118   1.05134
 Alpha virt. eigenvalues --    1.07331   1.09026   1.09393   1.12525   1.14355
 Alpha virt. eigenvalues --    1.15433   1.18210   1.19179   1.21507   1.22949
 Alpha virt. eigenvalues --    1.24980   1.25400   1.25759   1.26874   1.27435
 Alpha virt. eigenvalues --    1.27609   1.28137   1.28723   1.29845   1.30547
 Alpha virt. eigenvalues --    1.31583   1.35122   1.36499   1.39026   1.40900
 Alpha virt. eigenvalues --    1.43806   1.48006   1.50051   1.50711   1.52187
 Alpha virt. eigenvalues --    1.55346   1.56375   1.58265   1.60393   1.61277
 Alpha virt. eigenvalues --    1.63899   1.64673   1.66771   1.68771   1.68898
 Alpha virt. eigenvalues --    1.71442   1.73068   1.76374   1.78287   1.79241
 Alpha virt. eigenvalues --    1.81408   1.83144   1.83659   1.84259   1.86987
 Alpha virt. eigenvalues --    1.87320   1.88925   1.90603   1.91524   1.93662
 Alpha virt. eigenvalues --    1.94383   1.95309   1.97361   1.99187   2.01896
 Alpha virt. eigenvalues --    2.03513   2.08658   2.09380   2.11315   2.13276
 Alpha virt. eigenvalues --    2.14826   2.20539   2.22307   2.23436   2.23914
 Alpha virt. eigenvalues --    2.24235   2.25995   2.27078   2.27499   2.28201
 Alpha virt. eigenvalues --    2.28942   2.30296   2.31712   2.32493   2.34900
 Alpha virt. eigenvalues --    2.39056   2.39352   2.40343   2.42194   2.42683
 Alpha virt. eigenvalues --    2.43639   2.46220   2.48835   2.49499   2.50837
 Alpha virt. eigenvalues --    2.52619   2.54578   2.55819   2.59290   2.60746
 Alpha virt. eigenvalues --    2.61959   2.64654   2.65758   2.66313   2.68473
 Alpha virt. eigenvalues --    2.71174   2.73289   2.73558   2.75118   2.75537
 Alpha virt. eigenvalues --    2.77454   2.78637   2.79401   2.82264   2.82818
 Alpha virt. eigenvalues --    2.83945   2.87760   2.90935   2.96455   2.98467
 Alpha virt. eigenvalues --    3.04316   3.05861   3.07927   3.11065   3.11426
 Alpha virt. eigenvalues --    3.13752   3.14864   3.16943   3.19841   3.21886
 Alpha virt. eigenvalues --    3.24836   3.34078   3.36964   3.41602   3.49517
 Alpha virt. eigenvalues --    3.52029   3.63368   3.65143   3.70599   3.77993
 Alpha virt. eigenvalues --    3.85395   3.90590   4.02201   4.06548   4.11499
 Alpha virt. eigenvalues --    4.34018   4.79665   4.82213   9.72669   9.75789
 Alpha virt. eigenvalues --    9.78198   9.79863   9.80334   9.81653  23.31695
 Alpha virt. eigenvalues --   23.51989  23.79190  23.84400  23.88302  23.88819
 Alpha virt. eigenvalues --   23.93785  23.94585  24.00291  24.05137  24.08721
 Alpha virt. eigenvalues --   24.14410  25.76550  25.78245  25.80088  25.85835
 Alpha virt. eigenvalues --   25.86757  25.92156  26.07697  26.08401  26.10034
 Alpha virt. eigenvalues --   26.16339  26.18708  26.30083  26.44770  26.50073
 Alpha virt. eigenvalues --   26.59709  26.73482  26.76696  26.94569 215.71536
 Alpha virt. eigenvalues --  215.74758 215.77643 215.79427 215.80134 215.81804
          Condensed to atoms (all electrons):
               1          2          3          4          5          6
     1  C   40.066656  -1.761905  -3.617354  -4.713984 -10.402777   6.139931
     2  C   -1.761905  35.533930  -6.354277   2.340686  -4.312954 -16.394058
     3  C   -3.617354  -6.354277  27.037962  -4.918839  -4.848932  -6.139333
     4  C   -4.713984   2.340686  -4.918839  29.670238  -8.225216  -2.443284
     5  C  -10.402777  -4.312954  -4.848932  -8.225216  36.126980 -13.646040
     6  C    6.139931 -16.394058  -6.139333  -2.443284 -13.646040  55.026658
     7  C   -4.730044  -2.166445   4.004946  -3.923201   6.803461 -10.687757
     8  C    5.189484   2.916941  -0.824714   1.265648  -2.911054   2.639259
     9  C   -2.876159  -0.435436   0.280899  -0.184723   0.784088  -0.963483
    10  C   -3.123158  -0.595913   0.032096  -0.173643   0.680988  -0.277979
    11  C    3.695991   0.778670  -0.350423   0.347615  -1.363790   1.676599
    12  C  -16.233413  -3.312491   1.919049  -1.625057   6.296959  -6.591502
    13  H    0.032838   0.281969  -0.014328  -0.016700  -0.011911   0.018461
    14  H    0.007359  -0.015374   0.306962   0.044377   0.050245  -0.042774
    15  H    0.008614   0.050235   0.005345   0.009363   0.104201   0.041507
    16  H    0.059838   0.113891  -0.014860   0.014475  -0.025533  -0.027559
    17  Cl  -1.699883  -0.521664   0.257680  -0.321953   1.193927  -1.240212
    18  Cl   0.136581  -0.010159  -0.007593   0.003476  -0.010382   0.082782
    19  Cl  -0.530736   0.127349   0.582388  -0.131169  -0.779044  -0.122345
    20  Cl  -0.145099  -0.006306   0.005546  -0.003124   0.014121  -0.019873
    21  Cl  -0.080613   0.250758  -0.500751  -1.099383   0.213728   0.665988
    22  Cl  -0.265221   0.019908   0.041779  -0.006430   0.020873  -0.080894
               7          8          9         10         11         12
     1  C   -4.730044   5.189484  -2.876159  -3.123158   3.695991 -16.233413
     2  C   -2.166445   2.916941  -0.435436  -0.595913   0.778670  -3.312491
     3  C    4.004946  -0.824714   0.280899   0.032096  -0.350423   1.919049
     4  C   -3.923201   1.265648  -0.184723  -0.173643   0.347615  -1.625057
     5  C    6.803461  -2.911054   0.784088   0.680988  -1.363790   6.296959
     6  C  -10.687757   2.639259  -0.963483  -0.277979   1.676599  -6.591502
     7  C   28.789836  -4.947876  -6.553971   3.858776  -0.576652  -2.504291
     8  C   -4.947876  14.565066  -0.211979  -6.161626   5.354985  -9.587298
     9  C   -6.553971  -0.211979  19.276281  -6.788050  -3.616237   7.331872
    10  C    3.858776  -6.161626  -6.788050  23.065958  -2.161168  -1.588232
    11  C   -0.576652   5.354985  -3.616237  -2.161168  15.949969 -11.855874
    12  C   -2.504291  -9.587298   7.331872  -1.588232 -11.855874  41.499445
    13  H    0.025061   0.001771  -0.007679   0.005250  -0.000376   0.039967
    14  H    0.003705  -0.002592  -0.001075   0.000057   0.000017   0.000668
    15  H    0.069626  -0.046847  -0.007049   0.009230  -0.021960   0.122554
    16  H   -0.034245   0.490727  -0.118853  -0.031446   0.024238  -0.099375
    17  Cl  -0.546493  -0.629737   0.881772  -0.432910  -0.786253   2.059475
    18  Cl  -0.220909   0.217104  -0.005595  -0.392690  -0.408927   0.125178
    19  Cl   0.074460  -0.020126   0.007917   0.000177  -0.008925   0.012328
    20  Cl   0.142953  -0.335535  -0.918848   0.604903   0.287470  -0.316640
    21  Cl  -0.139590   0.041731   0.003577  -0.004877   0.004918  -0.072571
    22  Cl  -0.769380  -0.057695   0.409520  -0.473883  -0.439345   0.772582
              13         14         15         16         17         18
     1  C    0.032838   0.007359   0.008614   0.059838  -1.699883   0.136581
     2  C    0.281969  -0.015374   0.050235   0.113891  -0.521664  -0.010159
     3  C   -0.014328   0.306962   0.005345  -0.014860   0.257680  -0.007593
     4  C   -0.016700   0.044377   0.009363   0.014475  -0.321953   0.003476
     5  C   -0.011911   0.050245   0.104201  -0.025533   1.193927  -0.010382
     6  C    0.018461  -0.042774   0.041507  -0.027559  -1.240212   0.082782
     7  C    0.025061   0.003705   0.069626  -0.034245  -0.546493  -0.220909
     8  C    0.001771  -0.002592  -0.046847   0.490727  -0.629737   0.217104
     9  C   -0.007679  -0.001075  -0.007049  -0.118853   0.881772  -0.005595
    10  C    0.005250   0.000057   0.009230  -0.031446  -0.432910  -0.392690
    11  C   -0.000376   0.000017  -0.021960   0.024238  -0.786253  -0.408927
    12  C    0.039967   0.000668   0.122554  -0.099375   2.059475   0.125178
    13  H    0.521332  -0.007038  -0.000182  -0.000591  -0.002204  -0.000174
    14  H   -0.007038   0.506854   0.000050   0.000040  -0.000500   0.000001
    15  H   -0.000182   0.000050   0.498245   0.000006   0.003745   0.000125
    16  H   -0.000591   0.000040   0.000006   0.500547  -0.004007   0.001119
    17  Cl  -0.002204  -0.000500   0.003745  -0.004007  18.357553  -0.228533
    18  Cl  -0.000174   0.000001   0.000125   0.001119  -0.228533  17.388620
    19  Cl   0.000112   0.000169  -0.003342  -0.000143   0.015101   0.000446
    20  Cl   0.000105  -0.000001  -0.000034  -0.000269  -0.008652  -0.248304
    21  Cl  -0.000356  -0.008073  -0.001282  -0.000097   0.002180   0.000038
    22  Cl   0.000114  -0.000009  -0.000066  -0.004745   0.019592  -0.000400
              19         20         21         22
     1  C   -0.530736  -0.145099  -0.080613  -0.265221
     2  C    0.127349  -0.006306   0.250758   0.019908
     3  C    0.582388   0.005546  -0.500751   0.041779
     4  C   -0.131169  -0.003124  -1.099383  -0.006430
     5  C   -0.779044   0.014121   0.213728   0.020873
     6  C   -0.122345  -0.019873   0.665988  -0.080894
     7  C    0.074460   0.142953  -0.139590  -0.769380
     8  C   -0.020126  -0.335535   0.041731  -0.057695
     9  C    0.007917  -0.918848   0.003577   0.409520
    10  C    0.000177   0.604903  -0.004877  -0.473883
    11  C   -0.008925   0.287470   0.004918  -0.439345
    12  C    0.012328  -0.316640  -0.072571   0.772582
    13  H    0.000112   0.000105  -0.000356   0.000114
    14  H    0.000169  -0.000001  -0.008073  -0.000009
    15  H   -0.003342  -0.000034  -0.001282  -0.000066
    16  H   -0.000143  -0.000269  -0.000097  -0.004745
    17  Cl   0.015101  -0.008652   0.002180   0.019592
    18  Cl   0.000446  -0.248304   0.000038  -0.000400
    19  Cl  17.428257   0.000070  -0.174258   0.000033
    20  Cl   0.000070  17.486626   0.000004  -0.182672
    21  Cl  -0.174258   0.000004  17.418165   0.000128
    22  Cl   0.000033  -0.182672   0.000128  17.435233
 Mulliken charges:
               1
     1  C    0.843053
     2  C   -0.527355
     3  C   -0.883246
     4  C    0.090829
     5  C    0.248063
     6  C   -1.614093
     7  C    0.028029
     8  C   -0.945636
     9  C   -0.286787
    10  C   -0.051861
    11  C   -0.530544
    12  C   -0.393332
    13  H    0.134558
    14  H    0.156933
    15  H    0.157917
    16  H    0.156843
    17  Cl   0.631976
    18  Cl   0.578194
    19  Cl   0.521281
    20  Cl   0.643560
    21  Cl   0.480636
    22  Cl   0.560979
 Sum of Mulliken charges =  -0.00000
 Mulliken charges with hydrogens summed into heavy atoms:
               1
     1  C    0.843053
     2  C   -0.392796
     3  C   -0.726313
     4  C    0.090829
     5  C    0.248063
     6  C   -1.456176
     7  C    0.028029
     8  C   -0.788793
     9  C   -0.286787
    10  C   -0.051861
    11  C   -0.530544
    12  C   -0.393332
    17  Cl   0.631976
    18  Cl   0.578194
    19  Cl   0.521281
    20  Cl   0.643560
    21  Cl   0.480636
    22  Cl   0.560979
 Electronic spatial extent (au):  <R**2>=           9707.3112
 Charge=             -0.0000 electrons
 Dipole moment (field-independent basis, Debye):
    X=             -0.1553    Y=              1.3945    Z=              0.8465  Tot=              1.6386
 Quadrupole moment (field-independent basis, Debye-Ang):
   XX=           -157.3015   YY=           -143.4418   ZZ=           -142.7524
   XY=              2.4233   XZ=              2.8189   YZ=              3.5920
 Traceless Quadrupole moment (field-independent basis, Debye-Ang):
   XX=             -9.4696   YY=              4.3901   ZZ=              5.0795
   XY=              2.4233   XZ=              2.8189   YZ=              3.5920
 Octapole moment (field-independent basis, Debye-Ang**2):
  XXX=            -47.8070  YYY=            -10.3583  ZZZ=             -0.6842  XYY=              0.1792
  XXY=             -5.7141  XXZ=              7.7883  XZZ=              3.1682  YZZ=              0.8519
  YYZ=              2.9319  XYZ=              7.9985
 Hexadecapole moment (field-independent basis, Debye-Ang**3):
 XXXX=          -9920.6147 YYYY=          -2149.1270 ZZZZ=           -660.9434 XXXY=             16.2814
 XXXZ=             23.5065 YYYX=             -9.1756 YYYZ=            -12.2970 ZZZX=             -6.3718
 ZZZY=             18.0694 XXYY=          -1989.9126 XXZZ=          -1744.8201 YYZZ=           -468.5705
 XXYZ=             22.0404 YYXZ=              8.6785 ZZXY=              6.0012
 N-N= 1.966756601023D+03 E-N=-1.156230510294D+04  KE= 3.212688919668D+03
 1\1\GINC-LOCALHOST\FOpt\RB3LYP\6-311+G(d,p)\C12H4Cl6\GOUR\17-Mar-2022\
 0\\# opt b3lyp/6-311+g(d,p) scf=xqc\\Title Card Required\\0,1\C,0.4460
 652275,0.6954001619,-0.0354401726\C,1.4064937674,0.9085947074,-1.02966
 55638\C,2.1444223925,2.0857770238,-1.0589197472\C,1.9426966868,3.06729
 81729,-0.0915387385\C,0.9893855856,2.8595925295,0.9109382226\C,0.24800
 86707,1.6818074022,0.9330780326\C,-0.3073832919,-0.5896616933,0.013112
 002\C,0.4116960268,-1.7756238568,0.1696563451\C,-0.2233952908,-3.00865
 3034,0.2233978212\C,-1.6155092797,-3.0922994703,0.121539147\C,-2.35692
 77357,-1.9107456822,-0.0452871028\C,-1.703724041,-0.670377423,-0.10164
 41735\H,1.5689620734,0.1587099873,-1.7946890872\H,2.8806435932,2.25416
 75698,-1.8342979563\H,-0.4802135312,1.5399095879,1.7206292686\H,1.4880
 781618,-1.7343194662,0.270639278\Cl,-2.6368619684,0.7811930948,-0.3668
 894549\Cl,-4.0853655982,-1.9957059079,-0.193746504\Cl,0.7041298176,4.0
 499083456,2.1565759397\Cl,-2.412593666,-4.6316743289,0.1972001257\Cl,2
 .8912586994,4.5304568208,-0.1616593635\Cl,0.7558052601,-4.4373783513,0
 .431480282\\Version=EM64L-G16RevB.01\State=1-A\HF=-3221.1294951\RMSD=8
 .669e-09\RMSF=2.845e-05\Dipole=0.4577112,-0.2849107,-0.3534843\Quadrup
 ole=2.5297174,-6.248057,3.7183396,-2.9437865,-3.5008084,-1.207524\PG=C
 01 [X(C12H4Cl6)]\\@


  THE LARGE PRINT GIVETH,
  AND THE SMALL PRINT TAKETH AWAY.

                     -- TOM WAITS
 Job cpu time:       0 days 10 hours 27 minutes 31.5 seconds.
 Elapsed time:       0 days  2 hours 37 minutes 20.2 seconds.
 File lengths (MBytes):  RWF=    147 Int=      0 D2E=      0 Chk=     21 Scr=      1
 Normal termination of Gaussian 16 at Thu Mar 17 13:58:28 2022.
