 Entering Gaussian System, Link 0=g16
 Input=2,3,3prime,4,4prime,5,6-Heptachlorobiphenyl.gjf
 Output=2,3,3prime,4,4prime,5,6-Heptachlorobiphenyl.log
 Initial command:
 /home/apps/g16/l1.exe "./Gau-231956.inp" -scrdir="./"
 Entering Link 1 = /home/apps/g16/l1.exe PID=    231957.
  
 Copyright (c) 1988-2017, Gaussian, Inc.  All Rights Reserved.
  
 This is part of the Gaussian(R) 16 program.  It is based on
 the Gaussian(R) 09 system (copyright 2009, Gaussian, Inc.),
 the Gaussian(R) 03 system (copyright 2003, Gaussian, Inc.),
 the Gaussian(R) 98 system (copyright 1998, Gaussian, Inc.),
 the Gaussian(R) 94 system (copyright 1995, Gaussian, Inc.),
 the Gaussian 92(TM) system (copyright 1992, Gaussian, Inc.),
 the Gaussian 90(TM) system (copyright 1990, Gaussian, Inc.),
 the Gaussian 88(TM) system (copyright 1988, Gaussian, Inc.),
 the Gaussian 86(TM) system (copyright 1986, Carnegie Mellon
 University), and the Gaussian 82(TM) system (copyright 1983,
 Carnegie Mellon University). Gaussian is a federally registered
 trademark of Gaussian, Inc.
  
 This software contains proprietary and confidential information,
 including trade secrets, belonging to Gaussian, Inc.
  
 This software is provided under written license and may be
 used, copied, transmitted, or stored only in accord with that
 written license.
  
 The following legend is applicable only to US Government
 contracts under FAR:
  
                    RESTRICTED RIGHTS LEGEND
  
 Use, reproduction and disclosure by the US Government is
 subject to restrictions as set forth in subparagraphs (a)
 and (c) of the Commercial Computer Software - Restricted
 Rights clause in FAR 52.227-19.
  
 Gaussian, Inc.
 340 Quinnipiac St., Bldg. 40, Wallingford CT 06492
  
  
 ---------------------------------------------------------------
 Warning -- This program may not be used in any manner that
 competes with the business of Gaussian, Inc. or will provide
 assistance to any competitor of Gaussian, Inc.  The licensee
 of this program is prohibited from giving any competitor of
 Gaussian, Inc. access to this program.  By using this program,
 the user acknowledges that Gaussian, Inc. is engaged in the
 business of creating and licensing software in the field of
 computational chemistry and represents and warrants to the
 licensee that it is not a competitor of Gaussian, Inc. and that
 it will not use this program in any manner prohibited above.
 ---------------------------------------------------------------
  

 Cite this work as:
 Gaussian 16, Revision B.01,
 M. J. Frisch, G. W. Trucks, H. B. Schlegel, G. E. Scuseria, 
 M. A. Robb, J. R. Cheeseman, G. Scalmani, V. Barone, 
 G. A. Petersson, H. Nakatsuji, X. Li, M. Caricato, A. V. Marenich, 
 J. Bloino, B. G. Janesko, R. Gomperts, B. Mennucci, H. P. Hratchian, 
 J. V. Ortiz, A. F. Izmaylov, J. L. Sonnenberg, D. Williams-Young, 
 F. Ding, F. Lipparini, F. Egidi, J. Goings, B. Peng, A. Petrone, 
 T. Henderson, D. Ranasinghe, V. G. Zakrzewski, J. Gao, N. Rega, 
 G. Zheng, W. Liang, M. Hada, M. Ehara, K. Toyota, R. Fukuda, 
 J. Hasegawa, M. Ishida, T. Nakajima, Y. Honda, O. Kitao, H. Nakai, 
 T. Vreven, K. Throssell, J. A. Montgomery, Jr., J. E. Peralta, 
 F. Ogliaro, M. J. Bearpark, J. J. Heyd, E. N. Brothers, K. N. Kudin, 
 V. N. Staroverov, T. A. Keith, R. Kobayashi, J. Normand, 
 K. Raghavachari, A. P. Rendell, J. C. Burant, S. S. Iyengar, 
 J. Tomasi, M. Cossi, J. M. Millam, M. Klene, C. Adamo, R. Cammi, 
 J. W. Ochterski, R. L. Martin, K. Morokuma, O. Farkas, 
 J. B. Foresman, and D. J. Fox, Gaussian, Inc., Wallingford CT, 2016.
 
 ******************************************
 Gaussian 16:  EM64L-G16RevB.01 20-Dec-2017
                25-Mar-2022 
 ******************************************
 %mem=10GB
 %nprocshared=4
 Will use up to    4 processors via shared memory.
 --------------------------------
 # opt b3lyp/6-311+g(d,p) scf=xqc
 --------------------------------
 1/18=20,19=15,26=3,38=1/1,3;
 2/9=110,12=2,17=6,18=5,40=1/2;
 3/5=4,6=6,7=111,11=2,25=1,30=1,71=1,74=-5/1,2,3;
 4//1;
 5/5=2,8=3,13=1,38=5/2,8;
 6/7=2,8=2,9=2,10=2,28=1/1;
 7//1,2,3,16;
 1/18=20,19=15,26=3/3(2);
 2/9=110/2;
 99//99;
 2/9=110/2;
 3/5=4,6=6,7=111,11=2,25=1,30=1,71=1,74=-5/1,2,3;
 4/5=5,16=3,69=1/1;
 5/5=2,8=3,13=1,38=5/2,8;
 7//1,2,3,16;
 1/18=20,19=15,26=3/3(-5);
 2/9=110/2;
 6/7=2,8=2,9=2,10=2,19=2,28=1/1;
 99/9=1/99;
 -------------------
 Title Card Required
 -------------------
 Symbolic Z-matrix:
 Charge =  0 Multiplicity = 1
 C                     0.64076   0.06708   0.02408 
 C                     1.97314   0.09696  -0.40927 
 C                     2.68104   1.30642  -0.41534 
 C                     2.05655   2.48598   0.01194 
 C                     0.72417   2.4561    0.44528 
 C                     0.01627   1.24664   0.45135 
 C                    -0.13714  -1.26199   0.03075 
 C                     0.48734  -2.44155  -0.39652 
 C                    -0.22055  -3.651    -0.39045 
 C                    -1.55293  -3.68089   0.0429 
 C                    -2.17742  -2.50133   0.47018 
 C                    -1.46952  -1.29187   0.4641 
 H                     2.44995  -0.80366  -0.7355 
 H                     3.69834   1.32923  -0.74621 
 H                    -1.00103   1.22383   0.78222 
 Cl                   -2.25381   0.18953   1.00071 
 Cl                   -3.85073  -2.53886   1.01442 
 Cl                   -0.06012   3.9375    0.98189 
 Cl                   -2.44196  -5.19983   0.05053 
 Cl                    2.94558   4.00491   0.00431 
 Cl                    0.56374  -5.1324   -0.92706 
 Cl                    2.16066  -2.40402  -0.94076 
 

 GradGradGradGradGradGradGradGradGradGradGradGradGradGradGradGradGradGrad
 Berny optimization.
 Initialization pass.
                           ----------------------------
                           !    Initial Parameters    !
                           ! (Angstroms and Degrees)  !
 --------------------------                            --------------------------
 ! Name  Definition              Value          Derivative Info.                !
 --------------------------------------------------------------------------------
 ! R1    R(1,2)                  1.4014         estimate D2E/DX2                !
 ! R2    R(1,6)                  1.4014         estimate D2E/DX2                !
 ! R3    R(1,7)                  1.54           estimate D2E/DX2                !
 ! R4    R(2,3)                  1.4014         estimate D2E/DX2                !
 ! R5    R(2,13)                 1.07           estimate D2E/DX2                !
 ! R6    R(3,4)                  1.4014         estimate D2E/DX2                !
 ! R7    R(3,14)                 1.07           estimate D2E/DX2                !
 ! R8    R(4,5)                  1.4014         estimate D2E/DX2                !
 ! R9    R(4,20)                 1.76           estimate D2E/DX2                !
 ! R10   R(5,6)                  1.4014         estimate D2E/DX2                !
 ! R11   R(5,18)                 1.76           estimate D2E/DX2                !
 ! R12   R(6,15)                 1.07           estimate D2E/DX2                !
 ! R13   R(7,8)                  1.4014         estimate D2E/DX2                !
 ! R14   R(7,12)                 1.4014         estimate D2E/DX2                !
 ! R15   R(8,9)                  1.4014         estimate D2E/DX2                !
 ! R16   R(8,22)                 1.76           estimate D2E/DX2                !
 ! R17   R(9,10)                 1.4014         estimate D2E/DX2                !
 ! R18   R(9,21)                 1.76           estimate D2E/DX2                !
 ! R19   R(10,11)                1.4014         estimate D2E/DX2                !
 ! R20   R(10,19)                1.76           estimate D2E/DX2                !
 ! R21   R(11,12)                1.4014         estimate D2E/DX2                !
 ! R22   R(11,17)                1.76           estimate D2E/DX2                !
 ! R23   R(12,16)                1.76           estimate D2E/DX2                !
 ! A1    A(2,1,6)              120.0            estimate D2E/DX2                !
 ! A2    A(2,1,7)              120.0            estimate D2E/DX2                !
 ! A3    A(6,1,7)              120.0            estimate D2E/DX2                !
 ! A4    A(1,2,3)              120.0            estimate D2E/DX2                !
 ! A5    A(1,2,13)             120.0            estimate D2E/DX2                !
 ! A6    A(3,2,13)             120.0            estimate D2E/DX2                !
 ! A7    A(2,3,4)              120.0            estimate D2E/DX2                !
 ! A8    A(2,3,14)             120.0            estimate D2E/DX2                !
 ! A9    A(4,3,14)             120.0            estimate D2E/DX2                !
 ! A10   A(3,4,5)              120.0            estimate D2E/DX2                !
 ! A11   A(3,4,20)             120.0            estimate D2E/DX2                !
 ! A12   A(5,4,20)             120.0            estimate D2E/DX2                !
 ! A13   A(4,5,6)              120.0            estimate D2E/DX2                !
 ! A14   A(4,5,18)             120.0            estimate D2E/DX2                !
 ! A15   A(6,5,18)             120.0            estimate D2E/DX2                !
 ! A16   A(1,6,5)              120.0            estimate D2E/DX2                !
 ! A17   A(1,6,15)             120.0            estimate D2E/DX2                !
 ! A18   A(5,6,15)             120.0            estimate D2E/DX2                !
 ! A19   A(1,7,8)              120.0            estimate D2E/DX2                !
 ! A20   A(1,7,12)             120.0            estimate D2E/DX2                !
 ! A21   A(8,7,12)             120.0            estimate D2E/DX2                !
 ! A22   A(7,8,9)              120.0            estimate D2E/DX2                !
 ! A23   A(7,8,22)             120.0            estimate D2E/DX2                !
 ! A24   A(9,8,22)             120.0            estimate D2E/DX2                !
 ! A25   A(8,9,10)             120.0            estimate D2E/DX2                !
 ! A26   A(8,9,21)             120.0            estimate D2E/DX2                !
 ! A27   A(10,9,21)            120.0            estimate D2E/DX2                !
 ! A28   A(9,10,11)            120.0            estimate D2E/DX2                !
 ! A29   A(9,10,19)            120.0            estimate D2E/DX2                !
 ! A30   A(11,10,19)           120.0            estimate D2E/DX2                !
 ! A31   A(10,11,12)           120.0            estimate D2E/DX2                !
 ! A32   A(10,11,17)           120.0            estimate D2E/DX2                !
 ! A33   A(12,11,17)           120.0            estimate D2E/DX2                !
 ! A34   A(7,12,11)            120.0            estimate D2E/DX2                !
 ! A35   A(7,12,16)            120.0            estimate D2E/DX2                !
 ! A36   A(11,12,16)           120.0            estimate D2E/DX2                !
 ! D1    D(6,1,2,3)              0.0001         estimate D2E/DX2                !
 ! D2    D(6,1,2,13)           180.0            estimate D2E/DX2                !
 ! D3    D(7,1,2,3)           -180.0            estimate D2E/DX2                !
 ! D4    D(7,1,2,13)            -0.0001         estimate D2E/DX2                !
 ! D5    D(2,1,6,5)             -0.0001         estimate D2E/DX2                !
 ! D6    D(2,1,6,15)           180.0            estimate D2E/DX2                !
 ! D7    D(7,1,6,5)            180.0            estimate D2E/DX2                !
 ! D8    D(7,1,6,15)             0.0            estimate D2E/DX2                !
 ! D9    D(2,1,7,8)             -0.0001         estimate D2E/DX2                !
 ! D10   D(2,1,7,12)           179.9998         estimate D2E/DX2                !
 ! D11   D(6,1,7,8)            179.9999         estimate D2E/DX2                !
 ! D12   D(6,1,7,12)            -0.0002         estimate D2E/DX2                !
 ! D13   D(1,2,3,4)              0.0            estimate D2E/DX2                !
 ! D14   D(1,2,3,14)           180.0            estimate D2E/DX2                !
 ! D15   D(13,2,3,4)          -179.9999         estimate D2E/DX2                !
 ! D16   D(13,2,3,14)            0.0001         estimate D2E/DX2                !
 ! D17   D(2,3,4,5)             -0.0001         estimate D2E/DX2                !
 ! D18   D(2,3,4,20)           180.0            estimate D2E/DX2                !
 ! D19   D(14,3,4,5)           179.9999         estimate D2E/DX2                !
 ! D20   D(14,3,4,20)            0.0            estimate D2E/DX2                !
 ! D21   D(3,4,5,6)              0.0001         estimate D2E/DX2                !
 ! D22   D(3,4,5,18)          -179.9999         estimate D2E/DX2                !
 ! D23   D(20,4,5,6)          -180.0            estimate D2E/DX2                !
 ! D24   D(20,4,5,18)            0.0            estimate D2E/DX2                !
 ! D25   D(4,5,6,1)              0.0            estimate D2E/DX2                !
 ! D26   D(4,5,6,15)           179.9999         estimate D2E/DX2                !
 ! D27   D(18,5,6,1)           180.0            estimate D2E/DX2                !
 ! D28   D(18,5,6,15)           -0.0001         estimate D2E/DX2                !
 ! D29   D(1,7,8,9)            179.9999         estimate D2E/DX2                !
 ! D30   D(1,7,8,22)             0.0001         estimate D2E/DX2                !
 ! D31   D(12,7,8,9)             0.0001         estimate D2E/DX2                !
 ! D32   D(12,7,8,22)         -179.9998         estimate D2E/DX2                !
 ! D33   D(1,7,12,11)         -179.9999         estimate D2E/DX2                !
 ! D34   D(1,7,12,16)            0.0            estimate D2E/DX2                !
 ! D35   D(8,7,12,11)           -0.0001         estimate D2E/DX2                !
 ! D36   D(8,7,12,16)          179.9999         estimate D2E/DX2                !
 ! D37   D(7,8,9,10)             0.0            estimate D2E/DX2                !
 ! D38   D(7,8,9,21)           180.0            estimate D2E/DX2                !
 ! D39   D(22,8,9,10)          179.9998         estimate D2E/DX2                !
 ! D40   D(22,8,9,21)           -0.0002         estimate D2E/DX2                !
 ! D41   D(8,9,10,11)            0.0            estimate D2E/DX2                !
 ! D42   D(8,9,10,19)         -179.9999         estimate D2E/DX2                !
 ! D43   D(21,9,10,11)         180.0            estimate D2E/DX2                !
 ! D44   D(21,9,10,19)           0.0001         estimate D2E/DX2                !
 ! D45   D(9,10,11,12)           0.0            estimate D2E/DX2                !
 ! D46   D(9,10,11,17)        -179.9998         estimate D2E/DX2                !
 ! D47   D(19,10,11,12)        179.9999         estimate D2E/DX2                !
 ! D48   D(19,10,11,17)          0.0001         estimate D2E/DX2                !
 ! D49   D(10,11,12,7)           0.0            estimate D2E/DX2                !
 ! D50   D(10,11,12,16)       -179.9999         estimate D2E/DX2                !
 ! D51   D(17,11,12,7)         179.9999         estimate D2E/DX2                !
 ! D52   D(17,11,12,16)         -0.0001         estimate D2E/DX2                !
 --------------------------------------------------------------------------------
 Trust Radius=3.00D-01 FncErr=1.00D-07 GrdErr=1.00D-06 EigMax=2.50D+02 EigMin=1.00D-04
 Number of steps in this run=    121 maximum allowed number of steps=    132.
 GradGradGradGradGradGradGradGradGradGradGradGradGradGradGradGradGradGrad

                          Input orientation:                          
 ---------------------------------------------------------------------
 Center     Atomic      Atomic             Coordinates (Angstroms)
 Number     Number       Type             X           Y           Z
 ---------------------------------------------------------------------
      1          6           0        0.640762    0.067079    0.024079
      2          6           0        1.973143    0.096965   -0.409267
      3          6           0        2.681036    1.306416   -0.415340
      4          6           0        2.056549    2.485981    0.011935
      5          6           0        0.724167    2.456095    0.445280
      6          6           0        0.016274    1.246644    0.451352
      7          6           0       -0.137143   -1.261988    0.030753
      8          6           0        0.487344   -2.441553   -0.396522
      9          6           0       -0.220549   -3.651005   -0.390447
     10          6           0       -1.552929   -3.680891    0.042902
     11          6           0       -2.177416   -2.501326    0.470178
     12          6           0       -1.469523   -1.291875    0.464103
     13          1           0        2.449953   -0.803660   -0.735499
     14          1           0        3.698339    1.329234   -0.746209
     15          1           0       -1.001029    1.223826    0.782221
     16         17           0       -2.253808    0.189525    1.000715
     17         17           0       -3.850734   -2.538861    1.014420
     18         17           0       -0.060120    3.937496    0.981885
     19         17           0       -2.441962   -5.199826    0.050534
     20         17           0        2.945583    4.004915    0.004309
     21         17           0        0.563737   -5.132405   -0.927057
     22         17           0        2.160664   -2.404020   -0.940756
 ---------------------------------------------------------------------
                    Distance matrix (angstroms):
                    1          2          3          4          5
     1  C    0.000000
     2  C    1.401400   0.000000
     3  C    2.427296   1.401400   0.000000
     4  C    2.802800   2.427296   1.401400   0.000000
     5  C    2.427296   2.802800   2.427296   1.401400   0.000000
     6  C    1.401400   2.427296   2.802800   2.427296   1.401400
     7  C    1.540000   2.548270   3.838989   4.342800   3.838989
     8  C    2.548270   2.941400   4.342800   5.187469   4.975106
     9  C    3.838989   4.342800   5.744200   6.558176   6.235992
    10  C    4.342800   5.187469   6.558176   7.145600   6.558176
    11  C    3.838989   4.975106   6.235992   6.558176   5.744200
    12  C    2.548270   3.813607   4.975106   5.187469   4.342800
    13  H    2.146700   1.070000   2.146700   3.396345   3.872800
    14  H    3.396345   2.146700   1.070000   2.146700   3.396345
    15  H    2.146700   3.396345   3.872800   3.396345   2.146700
    16  Cl   3.057342   4.456874   5.254079   4.983028   3.783409
    17  Cl   5.286324   6.549198   7.713260   7.819846   6.797295
    18  Cl   4.048303   4.562800   4.048303   2.743718   1.760000
    19  Cl   6.102800   6.910901   8.294174   8.905600   8.294174
    20  Cl   4.562800   4.048303   2.743718   1.760000   2.743718
    21  Cl   5.286324   5.440665   6.797295   7.819846   7.713260
    22  Cl   3.057342   2.563702   3.783409   4.983028   5.254079
                    6          7          8          9         10
     6  C    0.000000
     7  C    2.548270   0.000000
     8  C    3.813607   1.401400   0.000000
     9  C    4.975106   2.427296   1.401400   0.000000
    10  C    5.187469   2.802800   2.427296   1.401400   0.000000
    11  C    4.342800   2.427296   2.802800   2.427296   1.401400
    12  C    2.941400   1.401400   2.427296   2.802800   2.427296
    13  H    3.396345   2.736837   2.578650   3.918930   4.990735
    14  H    3.872800   4.693509   4.965039   6.347206   7.300676
    15  H    1.070000   2.736837   4.127917   5.074276   4.990735
    16  Cl   2.563702   2.743718   4.048303   4.562800   4.048303
    17  Cl   5.440665   4.048303   4.562800   4.048303   2.743718
    18  Cl   2.743718   5.286324   6.549198   7.713260   7.819846
    19  Cl   6.910901   4.562800   4.048303   2.743718   1.760000
    20  Cl   4.048303   6.102800   6.910901   8.294174   8.905600
    21  Cl   6.549198   4.048303   2.743718   1.760000   2.743718
    22  Cl   4.456874   2.743718   1.760000   2.743718   4.048303
                   11         12         13         14         15
    11  C    0.000000
    12  C    1.401400   0.000000
    13  H    5.074276   4.127917   0.000000
    14  H    7.118798   5.919617   2.471400   0.000000
    15  H    3.918930   2.578650   4.280590   4.942800   0.000000
    16  Cl   2.743718   1.760000   5.111382   6.307038   1.639199
    17  Cl   1.760000   2.743718   6.765486   8.663168   4.725732
    18  Cl   6.797295   5.440665   5.632800   4.890332   2.879094
    19  Cl   2.743718   4.048303   6.623817   8.998151   6.623817
    20  Cl   8.294174   6.910901   4.890332   2.879094   4.890332
    21  Cl   4.048303   4.562800   4.725732   7.184095   6.765486
    22  Cl   4.562800   4.048303   1.639199   4.042212   5.111382
                   16         17         18         19         20
    16  Cl   0.000000
    17  Cl   3.161400   0.000000
    18  Cl   4.342800   7.504200   0.000000
    19  Cl   5.475705   3.161400   9.488480   0.000000
    20  Cl   6.525618   9.488480   3.161400  10.665600   0.000000
    21  Cl   6.322800   5.475705   9.289584   3.161400   9.488480
    22  Cl   5.475705   6.322800   6.988795   5.475705   6.525618
                   21         22
    21  Cl   0.000000
    22  Cl   3.161400   0.000000
 Stoichiometry    C12H3Cl7
 Framework group  C1[X(C12H3Cl7)]
 Deg. of freedom    60
 Full point group                 C1      NOp   1
 Largest Abelian subgroup         C1      NOp   1
 Largest concise Abelian subgroup C1      NOp   1
                         Standard orientation:                         
 ---------------------------------------------------------------------
 Center     Atomic      Atomic             Coordinates (Angstroms)
 Number     Number       Type             X           Y           Z
 ---------------------------------------------------------------------
      1          6           0       -1.134963   -0.380955    0.000002
      2          6           0       -1.670516   -1.675985   -0.000001
      3          6           0       -3.059822   -1.859697   -0.000003
      4          6           0       -3.913575   -0.748379   -0.000002
      5          6           0       -3.378021    0.546652    0.000002
      6          6           0       -1.988715    0.730364    0.000004
      7          6           0        0.391747   -0.179073    0.000003
      8          6           0        1.245500   -1.290391    0.000003
      9          6           0        2.634806   -1.106679    0.000002
     10          6           0        3.170360    0.188352    0.000002
     11          6           0        2.316607    1.299670    0.000001
     12          6           0        0.927301    1.115958    0.000001
     13          1           0       -1.018657   -2.524501   -0.000003
     14          1           0       -3.468730   -2.848482   -0.000005
     15          1           0       -1.579808    1.719148    0.000006
     16         17           0       -0.144916    2.511648   -0.000001
     17         17           0        2.989202    2.926082   -0.000004
     18         17           0       -4.450238    1.942342    0.000006
     19         17           0        4.915171    0.419073   -0.000002
     20         17           0       -5.658387   -0.979101   -0.000005
     21         17           0        3.707023   -2.502369    0.000003
     22         17           0        0.572905   -2.916803   -0.000001
 ---------------------------------------------------------------------
 Rotational constants (GHZ):           0.3636132           0.1173569           0.0887218
 Standard basis: 6-311+G(d,p) (5D, 7F)
 There are   511 symmetry adapted cartesian basis functions of A   symmetry.
 There are   492 symmetry adapted basis functions of A   symmetry.
   492 basis functions,   827 primitive gaussians,   511 cartesian basis functions
    97 alpha electrons       97 beta electrons
       nuclear repulsion energy      2325.6232387725 Hartrees.
 NAtoms=   22 NActive=   22 NUniq=   22 SFac= 1.00D+00 NAtFMM=   60 NAOKFM=F Big=F
 Integral buffers will be    131072 words long.
 Raffenetti 2 integral format.
 Two-electron integral symmetry is turned on.
 One-electron integrals computed using PRISM.
 NBasis=   492 RedAO= T EigKep=  1.22D-06  NBF=   492
 NBsUse=   485 1.00D-06 EigRej=  6.76D-07 NBFU=   485
 ExpMin= 4.38D-02 ExpMax= 1.06D+05 ExpMxC= 3.62D+03 IAcc=3 IRadAn=         5 AccDes= 0.00D+00
 Harris functional with IExCor=  402 and IRadAn=       5 diagonalized for initial guess.
 HarFok:  IExCor=  402 AccDes= 0.00D+00 IRadAn=         5 IDoV= 1 UseB2=F ITyADJ=14
 ICtDFT=  3500011 ScaDFX=  1.000000  1.000000  1.000000  1.000000
 FoFCou: FMM=F IPFlag=           0 FMFlag=      100000 FMFlg1=           0
         NFxFlg=           0 DoJE=T BraDBF=F KetDBF=T FulRan=T
         wScrn=  0.000000 ICntrl=       500 IOpCl=  0 I1Cent=   200000004 NGrid=           0
         NMat0=    1 NMatS0=      1 NMatT0=    0 NMatD0=    1 NMtDS0=    0 NMtDT0=    0
 Petite list used in FoFCou.
 Requested convergence on RMS density matrix=1.00D-08 within  32 cycles.
 Requested convergence on MAX density matrix=1.00D-06.
 Requested convergence on             energy=1.00D-06.
 No special actions if energy rises.
 SCF Done:  E(RB3LYP) =  -3680.62462835     A.U. after   16 cycles
            NFock= 16  Conv=0.76D-08     -V/T= 2.0025
 QCSCF skips out because SCF is already converged.

 **********************************************************************

            Population analysis using the SCF Density.

 **********************************************************************

 Orbital symmetries:
       Occupied  (A) (A) (A) (A) (A) (A) (A) (A) (A) (A) (A) (A)
                 (A) (A) (A) (A) (A) (A) (A) (A) (A) (A) (A) (A)
                 (A) (A) (A) (A) (A) (A) (A) (A) (A) (A) (A) (A)
                 (A) (A) (A) (A) (A) (A) (A) (A) (A) (A) (A) (A)
                 (A) (A) (A) (A) (A) (A) (A) (A) (A) (A) (A) (A)
                 (A) (A) (A) (A) (A) (A) (A) (A) (A) (A) (A) (A)
                 (A) (A) (A) (A) (A) (A) (A) (A) (A) (A) (A) (A)
                 (A) (A) (A) (A) (A) (A) (A) (A) (A) (A) (A) (A)
                 (A)
       Virtual   (A) (A) (A) (A) (A) (A) (A) (A) (A) (A) (A) (A)
                 (A) (A) (A) (A) (A) (A) (A) (A) (A) (A) (A) (A)
                 (A) (A) (A) (A) (A) (A) (A) (A) (A) (A) (A) (A)
                 (A) (A) (A) (A) (A) (A) (A) (A) (A) (A) (A) (A)
                 (A) (A) (A) (A) (A) (A) (A) (A) (A) (A) (A) (A)
                 (A) (A) (A) (A) (A) (A) (A) (A) (A) (A) (A) (A)
                 (A) (A) (A) (A) (A) (A) (A) (A) (A) (A) (A) (A)
                 (A) (A) (A) (A) (A) (A) (A) (A) (A) (A) (A) (A)
                 (A) (A) (A) (A) (A) (A) (A) (A) (A) (A) (A) (A)
                 (A) (A) (A) (A) (A) (A) (A) (A) (A) (A) (A) (A)
                 (A) (A) (A) (A) (A) (A) (A) (A) (A) (A) (A) (A)
                 (A) (A) (A) (A) (A) (A) (A) (A) (A) (A) (A) (A)
                 (A) (A) (A) (A) (A) (A) (A) (A) (A) (A) (A) (A)
                 (A) (A) (A) (A) (A) (A) (A) (A) (A) (A) (A) (A)
                 (A) (A) (A) (A) (A) (A) (A) (A) (A) (A) (A) (A)
                 (A) (A) (A) (A) (A) (A) (A) (A) (A) (A) (A) (A)
                 (A) (A) (A) (A) (A) (A) (A) (A) (A) (A) (A) (A)
                 (A) (A) (A) (A) (A) (A) (A) (A) (A) (A) (A) (A)
                 (A) (A) (A) (A) (A) (A) (A) (A) (A) (A) (A) (A)
                 (A) (A) (A) (A) (A) (A) (A) (A) (A) (A) (A) (A)
                 (A) (A) (A) (A) (A) (A) (A) (A) (A) (A) (A) (A)
                 (A) (A) (A) (A) (A) (A) (A) (A) (A) (A) (A) (A)
                 (A) (A) (A) (A) (A) (A) (A) (A) (A) (A) (A) (A)
                 (A) (A) (A) (A) (A) (A) (A) (A) (A) (A) (A) (A)
                 (A) (A) (A) (A) (A) (A) (A) (A) (A) (A) (A) (A)
                 (A) (A) (A) (A) (A) (A) (A) (A) (A) (A) (A) (A)
                 (A) (A) (A) (A) (A) (A) (A) (A) (A) (A) (A) (A)
                 (A) (A) (A) (A) (A) (A) (A) (A) (A) (A) (A) (A)
                 (A) (A) (A) (A) (A) (A) (A) (A) (A) (A) (A) (A)
                 (A) (A) (A) (A) (A) (A) (A) (A) (A) (A) (A) (A)
                 (A) (A) (A) (A) (A) (A) (A) (A) (A) (A) (A) (A)
                 (A) (A) (A) (A) (A) (A) (A) (A) (A) (A) (A) (A)
                 (A) (A) (A) (A)
 The electronic state is 1-A.
 Alpha  occ. eigenvalues -- -101.59385-101.59377-101.58989-101.58969-101.58957
 Alpha  occ. eigenvalues -- -101.56514-101.56480 -10.29775 -10.29756 -10.29617
 Alpha  occ. eigenvalues --  -10.29589 -10.29554 -10.26139 -10.25889 -10.25886
 Alpha  occ. eigenvalues --  -10.22734 -10.20513 -10.19055 -10.18530  -9.51158
 Alpha  occ. eigenvalues --   -9.51142  -9.50400  -9.50376  -9.50369  -9.47956
 Alpha  occ. eigenvalues --   -9.47921  -7.27596  -7.27580  -7.26924  -7.26906
 Alpha  occ. eigenvalues --   -7.26892  -7.26603  -7.26585  -7.26562  -7.26549
 Alpha  occ. eigenvalues --   -7.25879  -7.25848  -7.25847  -7.25791  -7.25766
 Alpha  occ. eigenvalues --   -7.25760  -7.24433  -7.24395  -7.23439  -7.23414
 Alpha  occ. eigenvalues --   -7.23387  -7.23347  -0.98054  -0.94073  -0.93303
 Alpha  occ. eigenvalues --   -0.91933  -0.89624  -0.87581  -0.86397  -0.86130
 Alpha  occ. eigenvalues --   -0.85200  -0.79110  -0.77058  -0.75830  -0.74440
 Alpha  occ. eigenvalues --   -0.65954  -0.65190  -0.64660  -0.61921  -0.56672
 Alpha  occ. eigenvalues --   -0.54982  -0.54613  -0.50491  -0.49912  -0.49750
 Alpha  occ. eigenvalues --   -0.49469  -0.48312  -0.47172  -0.46915  -0.44237
 Alpha  occ. eigenvalues --   -0.43850  -0.43157  -0.42427  -0.41596  -0.41021
 Alpha  occ. eigenvalues --   -0.41011  -0.37770  -0.36726  -0.36422  -0.35674
 Alpha  occ. eigenvalues --   -0.35571  -0.35416  -0.34246  -0.34204  -0.33261
 Alpha  occ. eigenvalues --   -0.31702  -0.30877  -0.29830  -0.28993  -0.28483
 Alpha  occ. eigenvalues --   -0.26934  -0.25624
 Alpha virt. eigenvalues --   -0.08587  -0.07951  -0.07564  -0.04248  -0.03117
 Alpha virt. eigenvalues --   -0.02220  -0.01800  -0.01519  -0.00754   0.00922
 Alpha virt. eigenvalues --    0.01144   0.01348   0.02114   0.02689   0.03039
 Alpha virt. eigenvalues --    0.03755   0.04627   0.04918   0.05488   0.05943
 Alpha virt. eigenvalues --    0.05999   0.06442   0.06879   0.06883   0.07421
 Alpha virt. eigenvalues --    0.07547   0.07930   0.08102   0.08498   0.08994
 Alpha virt. eigenvalues --    0.09158   0.09415   0.10246   0.10811   0.10892
 Alpha virt. eigenvalues --    0.11203   0.12098   0.12401   0.12740   0.13091
 Alpha virt. eigenvalues --    0.13119   0.13643   0.13749   0.13846   0.14332
 Alpha virt. eigenvalues --    0.14756   0.14912   0.15101   0.15936   0.16258
 Alpha virt. eigenvalues --    0.16409   0.17058   0.17474   0.17706   0.17890
 Alpha virt. eigenvalues --    0.18447   0.18651   0.18967   0.19216   0.19717
 Alpha virt. eigenvalues --    0.20369   0.20607   0.21359   0.21449   0.21532
 Alpha virt. eigenvalues --    0.21803   0.22106   0.23474   0.23809   0.23869
 Alpha virt. eigenvalues --    0.24467   0.24526   0.24945   0.25232   0.25852
 Alpha virt. eigenvalues --    0.26382   0.26954   0.26990   0.27196   0.28003
 Alpha virt. eigenvalues --    0.28306   0.28657   0.29702   0.30259   0.30620
 Alpha virt. eigenvalues --    0.31084   0.31585   0.32609   0.32835   0.33465
 Alpha virt. eigenvalues --    0.34514   0.35310   0.36514   0.37617   0.38307
 Alpha virt. eigenvalues --    0.40240   0.40627   0.40719   0.42389   0.42497
 Alpha virt. eigenvalues --    0.43176   0.43714   0.43720   0.44030   0.44245
 Alpha virt. eigenvalues --    0.44715   0.45085   0.46077   0.46528   0.46637
 Alpha virt. eigenvalues --    0.47475   0.47657   0.48148   0.48698   0.48873
 Alpha virt. eigenvalues --    0.50118   0.50278   0.50453   0.51291   0.52843
 Alpha virt. eigenvalues --    0.54050   0.55352   0.55634   0.56845   0.57453
 Alpha virt. eigenvalues --    0.57940   0.57996   0.58431   0.58881   0.59559
 Alpha virt. eigenvalues --    0.60132   0.60715   0.61115   0.61260   0.62354
 Alpha virt. eigenvalues --    0.62757   0.64015   0.65206   0.66009   0.66361
 Alpha virt. eigenvalues --    0.66878   0.67771   0.69519   0.71705   0.72662
 Alpha virt. eigenvalues --    0.77111   0.78093   0.78260   0.78797   0.81126
 Alpha virt. eigenvalues --    0.81369   0.81599   0.81751   0.82486   0.82571
 Alpha virt. eigenvalues --    0.82933   0.83337   0.83737   0.84393   0.84824
 Alpha virt. eigenvalues --    0.85040   0.85450   0.85520   0.86117   0.86435
 Alpha virt. eigenvalues --    0.86529   0.86574   0.87343   0.87678   0.88031
 Alpha virt. eigenvalues --    0.88551   0.88750   0.90257   0.90982   0.92018
 Alpha virt. eigenvalues --    0.92344   0.92459   0.92769   0.93056   0.93501
 Alpha virt. eigenvalues --    0.94273   0.94750   0.94874   0.95301   0.96006
 Alpha virt. eigenvalues --    0.96414   0.97003   0.97874   0.98057   0.98406
 Alpha virt. eigenvalues --    0.98883   1.00866   1.02603   1.05670   1.06248
 Alpha virt. eigenvalues --    1.07455   1.09458   1.10398   1.10513   1.10780
 Alpha virt. eigenvalues --    1.11453   1.15076   1.15928   1.17200   1.21666
 Alpha virt. eigenvalues --    1.22045   1.22553   1.24870   1.25567   1.25642
 Alpha virt. eigenvalues --    1.25939   1.26177   1.26531   1.27238   1.27419
 Alpha virt. eigenvalues --    1.28044   1.29319   1.30837   1.32157   1.35190
 Alpha virt. eigenvalues --    1.37296   1.38395   1.43143   1.43454   1.45732
 Alpha virt. eigenvalues --    1.48063   1.49124   1.54136   1.55001   1.55472
 Alpha virt. eigenvalues --    1.56709   1.58655   1.62958   1.63772   1.65559
 Alpha virt. eigenvalues --    1.67731   1.69181   1.70197   1.72874   1.74589
 Alpha virt. eigenvalues --    1.77041   1.77098   1.79087   1.80390   1.81377
 Alpha virt. eigenvalues --    1.83402   1.84255   1.85502   1.86577   1.86731
 Alpha virt. eigenvalues --    1.88936   1.91411   1.94938   1.95007   1.96478
 Alpha virt. eigenvalues --    2.01319   2.03275   2.04719   2.06580   2.11487
 Alpha virt. eigenvalues --    2.15324   2.16696   2.18964   2.19846   2.21239
 Alpha virt. eigenvalues --    2.21601   2.22300   2.22636   2.24414   2.24872
 Alpha virt. eigenvalues --    2.26463   2.26980   2.27082   2.28102   2.29794
 Alpha virt. eigenvalues --    2.32779   2.33447   2.33661   2.34797   2.36339
 Alpha virt. eigenvalues --    2.39500   2.41209   2.42694   2.43393   2.44815
 Alpha virt. eigenvalues --    2.45105   2.47847   2.49871   2.50284   2.52142
 Alpha virt. eigenvalues --    2.54798   2.57192   2.57302   2.60651   2.61464
 Alpha virt. eigenvalues --    2.62515   2.64327   2.65027   2.69650   2.71260
 Alpha virt. eigenvalues --    2.71968   2.73117   2.77679   2.78009   2.79555
 Alpha virt. eigenvalues --    2.79707   2.82439   2.84040   2.84863   2.90025
 Alpha virt. eigenvalues --    2.91954   2.97320   2.98684   3.04562   3.06678
 Alpha virt. eigenvalues --    3.08889   3.09645   3.10173   3.11945   3.14631
 Alpha virt. eigenvalues --    3.16291   3.19042   3.21419   3.23723   3.25105
 Alpha virt. eigenvalues --    3.37115   3.40113   3.46106   3.49972   3.55358
 Alpha virt. eigenvalues --    3.61066   3.69205   3.72007   3.86498   3.87409
 Alpha virt. eigenvalues --    3.89566   4.11869   4.20107   4.41239   4.78904
 Alpha virt. eigenvalues --    4.83119   9.71919   9.75617   9.77731   9.79021
 Alpha virt. eigenvalues --    9.80408   9.85823   9.86911  23.23555  23.51702
 Alpha virt. eigenvalues --   23.76289  23.77603  23.85717  23.90291  23.91520
 Alpha virt. eigenvalues --   23.92613  23.97613  24.00748  24.05734  24.13138
 Alpha virt. eigenvalues --   25.73763  25.77400  25.78376  25.80978  25.85093
 Alpha virt. eigenvalues --   25.87482  25.91477  26.09729  26.10063  26.12965
 Alpha virt. eigenvalues --   26.16403  26.20100  26.42189  26.51146  26.53100
 Alpha virt. eigenvalues --   26.58466  26.74810  26.78117  26.80911  26.81923
 Alpha virt. eigenvalues --   27.05606 215.70921 215.74560 215.77372 215.78785
 Alpha virt. eigenvalues --  215.80052 215.88251 215.89429
          Condensed to atoms (all electrons):
               1          2          3          4          5          6
     1  C   26.798140  -2.262191  -2.460417  -0.533831  -2.474420   4.990836
     2  C   -2.262191  19.868961   1.447033  -1.191594  -2.521486  -3.326353
     3  C   -2.460417   1.447033  15.364596   2.556070  -5.251040  -1.886527
     4  C   -0.533831  -1.191594   2.556070  25.729069  -9.302880 -10.289114
     5  C   -2.474420  -2.521486  -5.251040  -9.302880  28.566854   4.398356
     6  C    4.990836  -3.326353  -1.886527 -10.289114   4.398356  19.950617
     7  C    8.944298  -0.393570  -1.623627  -0.440936  -2.667978   0.220913
     8  C   -4.981452  -0.472064  -0.766474   0.553060  -2.516111  -2.863585
     9  C   -8.103661  -0.587160   0.313386  -0.061732  -1.208954  -1.980350
    10  C   -1.457138  -0.136722  -0.206351   0.012966  -0.606629  -0.704101
    11  C   -5.357723  -1.135358  -0.762319   0.052615   0.410031  -0.396921
    12  C   -4.202076  -2.413773  -0.980204  -0.746991  -0.769953  -0.293664
    13  H   -0.210560   0.531538   0.171072   0.026277  -0.058280  -0.015007
    14  H    0.116112  -0.009327   0.232241   0.019793  -0.026802  -0.010470
    15  H   -0.152394  -0.022293  -0.068941   0.134036  -0.003209   0.306498
    16  Cl  -0.043303   0.118843   0.171757   0.146505  -0.797579  -1.190531
    17  Cl  -0.131205  -0.030726  -0.011978   0.015905   0.098076   0.011609
    18  Cl  -0.966984   0.411720   0.430001  -0.370674  -0.264105   0.575463
    19  Cl  -0.164887  -0.021611  -0.005100   0.000080  -0.005080  -0.040786
    20  Cl  -0.125175  -0.267647   0.188778  -0.784459   0.364176  -0.040009
    21  Cl  -0.066140  -0.028956   0.041818  -0.014483   0.004164  -0.035997
    22  Cl   0.121815  -0.872708  -0.830126  -0.180566   0.321489   0.199230
               7          8          9         10         11         12
     1  C    8.944298  -4.981452  -8.103661  -1.457138  -5.357723  -4.202076
     2  C   -0.393570  -0.472064  -0.587160  -0.136722  -1.135358  -2.413773
     3  C   -1.623627  -0.766474   0.313386  -0.206351  -0.762319  -0.980204
     4  C   -0.440936   0.553060  -0.061732   0.012966   0.052615  -0.746991
     5  C   -2.667978  -2.516111  -1.208954  -0.606629   0.410031  -0.769953
     6  C    0.220913  -2.863585  -1.980350  -0.704101  -0.396921  -0.293664
     7  C   29.649709  -3.754527 -11.112388   4.488546  -9.266767  -3.996677
     8  C   -3.754527  18.048880  -0.514461  -5.988075   6.810437   3.490133
     9  C  -11.112388  -0.514461  24.133552  -2.069847  -0.425989   6.767012
    10  C    4.488546  -5.988075  -2.069847  25.247183  -5.852516  -6.243686
    11  C   -9.266767   6.810437  -0.425989  -5.852516  21.695747  -0.454604
    12  C   -3.996677   3.490133   6.767012  -6.243686  -0.454604  17.006921
    13  H   -0.081716   0.153354  -0.000251   0.015451  -0.031034  -0.020661
    14  H    0.024537   0.005289   0.001175   0.000376   0.000471   0.005990
    15  H    0.022814   0.048100  -0.022922   0.022540   0.027258   0.167200
    16  Cl  -0.258503   0.146974   0.802814  -0.085773   0.355291  -0.985253
    17  Cl  -0.967328   0.540105  -0.222689  -0.571728  -0.069194   0.585993
    18  Cl  -0.353605  -0.176557  -0.025468  -0.015916  -0.035304  -0.066375
    19  Cl   0.111601  -0.752055   0.184867   0.707926  -0.002966  -0.776721
    20  Cl  -0.044757  -0.016888   0.000135  -0.003399  -0.001747  -0.039060
    21  Cl  -1.030700   0.680517  -0.301549  -0.514888  -0.036474   0.545924
    22  Cl  -0.306476  -1.024101   0.415130  -0.280414   0.664498   0.088038
              13         14         15         16         17         18
     1  C   -0.210560   0.116112  -0.152394  -0.043303  -0.131205  -0.966984
     2  C    0.531538  -0.009327  -0.022293   0.118843  -0.030726   0.411720
     3  C    0.171072   0.232241  -0.068941   0.171757  -0.011978   0.430001
     4  C    0.026277   0.019793   0.134036   0.146505   0.015905  -0.370674
     5  C   -0.058280  -0.026802  -0.003209  -0.797579   0.098076  -0.264105
     6  C   -0.015007  -0.010470   0.306498  -1.190531   0.011609   0.575463
     7  C   -0.081716   0.024537   0.022814  -0.258503  -0.967328  -0.353605
     8  C    0.153354   0.005289   0.048100   0.146974   0.540105  -0.176557
     9  C   -0.000251   0.001175  -0.022922   0.802814  -0.222689  -0.025468
    10  C    0.015451   0.000376   0.022540  -0.085773  -0.571728  -0.015916
    11  C   -0.031034   0.000471   0.027258   0.355291  -0.069194  -0.035304
    12  C   -0.020661   0.005990   0.167200  -0.985253   0.585993  -0.066375
    13  H    0.724324  -0.014325  -0.000352   0.003931  -0.000320   0.000368
    14  H   -0.014325   0.521973   0.000125  -0.000279   0.000001  -0.000997
    15  H   -0.000352   0.000125   0.699159  -0.271727   0.004841  -0.040149
    16  Cl   0.003931  -0.000279  -0.271727  18.655878  -0.392336  -0.083338
    17  Cl  -0.000320   0.000001   0.004841  -0.392336  17.713529   0.001208
    18  Cl   0.000368  -0.000997  -0.040149  -0.083338   0.001208  17.668379
    19  Cl   0.000619  -0.000001   0.000726  -0.004175  -0.297571  -0.000103
    20  Cl   0.000313  -0.010362   0.001374   0.003507   0.000040  -0.200009
    21  Cl   0.005269  -0.000034  -0.000367   0.020024  -0.008441   0.000185
    22  Cl  -0.326297   0.001835   0.002453  -0.064120   0.020030   0.007200
              19         20         21         22
     1  C   -0.164887  -0.125175  -0.066140   0.121815
     2  C   -0.021611  -0.267647  -0.028956  -0.872708
     3  C   -0.005100   0.188778   0.041818  -0.830126
     4  C    0.000080  -0.784459  -0.014483  -0.180566
     5  C   -0.005080   0.364176   0.004164   0.321489
     6  C   -0.040786  -0.040009  -0.035997   0.199230
     7  C    0.111601  -0.044757  -1.030700  -0.306476
     8  C   -0.752055  -0.016888   0.680517  -1.024101
     9  C    0.184867   0.000135  -0.301549   0.415130
    10  C    0.707926  -0.003399  -0.514888  -0.280414
    11  C   -0.002966  -0.001747  -0.036474   0.664498
    12  C   -0.776721  -0.039060   0.545924   0.088038
    13  H    0.000619   0.000313   0.005269  -0.326297
    14  H   -0.000001  -0.010362  -0.000034   0.001835
    15  H    0.000726   0.001374  -0.000367   0.002453
    16  Cl  -0.004175   0.003507   0.020024  -0.064120
    17  Cl  -0.297571   0.000040  -0.008441   0.020030
    18  Cl  -0.000103  -0.200009   0.000185   0.007200
    19  Cl  17.679574  -0.000009  -0.300468  -0.004891
    20  Cl  -0.000009  17.449749   0.000016  -0.004003
    21  Cl  -0.300468   0.000016  17.680799  -0.337085
    22  Cl  -0.004891  -0.004003  -0.337085  18.658762
 Mulliken charges:
               1
     1  C   -1.277644
     2  C   -0.684556
     3  C   -0.063647
     4  C    0.670886
     5  C    0.311360
     6  C   -1.580106
     7  C   -1.162861
     8  C   -0.650501
     9  C    0.019353
    10  C    0.242198
    11  C   -0.187433
    12  C   -0.667511
    13  H    0.126287
    14  H    0.142679
    15  H    0.145230
    16  Cl   0.751393
    17  Cl   0.712179
    18  Cl   0.505057
    19  Cl   0.691029
    20  Cl   0.529437
    21  Cl   0.696864
    22  Cl   0.730307
 Sum of Mulliken charges =  -0.00000
 Mulliken charges with hydrogens summed into heavy atoms:
               1
     1  C   -1.277644
     2  C   -0.558269
     3  C    0.079032
     4  C    0.670886
     5  C    0.311360
     6  C   -1.434876
     7  C   -1.162861
     8  C   -0.650501
     9  C    0.019353
    10  C    0.242198
    11  C   -0.187433
    12  C   -0.667511
    16  Cl   0.751393
    17  Cl   0.712179
    18  Cl   0.505057
    19  Cl   0.691029
    20  Cl   0.529437
    21  Cl   0.696864
    22  Cl   0.730307
 Electronic spatial extent (au):  <R**2>=          10356.2023
 Charge=             -0.0000 electrons
 Dipole moment (field-independent basis, Debye):
    X=              1.8125    Y=             -1.0749    Z=             -0.0000  Tot=              2.1072
 Quadrupole moment (field-independent basis, Debye-Ang):
   XX=           -170.9590   YY=           -151.1260   ZZ=           -158.8688
   XY=              3.0260   XZ=              0.0000   YZ=              0.0000
 Traceless Quadrupole moment (field-independent basis, Debye-Ang):
   XX=            -10.6411   YY=              9.1919   ZZ=              1.4491
   XY=              3.0260   XZ=              0.0000   YZ=              0.0000
 Octapole moment (field-independent basis, Debye-Ang**2):
  XXX=             83.3798  YYY=             -5.4703  ZZZ=             -0.0000  XYY=             -6.4751
  XXY=             -3.5886  XXZ=             -0.0001  XZZ=              8.2555  YZZ=              4.0552
  YYZ=             -0.0001  XYZ=             -0.0000
 Hexadecapole moment (field-independent basis, Debye-Ang**3):
 XXXX=         -10205.6351 YYYY=          -3130.3681 ZZZZ=           -183.8403 XXXY=             -8.8685
 XXXZ=             -0.0003 YYYX=              7.8210 YYYZ=              0.0000 ZZZX=             -0.0001
 ZZZY=             -0.0000 XXYY=          -2164.7935 XXZZ=          -1738.6520 YYZZ=           -594.9394
 XXYZ=             -0.0000 YYXZ=             -0.0001 ZZXY=            -10.4073
 N-N= 2.325623238772D+03 E-N=-1.337216402139D+04  KE= 3.671575427269D+03
 Calling FoFJK, ICntrl=      2127 FMM=F ISym2X=0 I1Cent= 0 IOpClX= 0 NMat=1 NMatS=1 NMatT=0.
 ***** Axes restored to original set *****
 -------------------------------------------------------------------
 Center     Atomic                   Forces (Hartrees/Bohr)
 Number     Number              X              Y              Z
 -------------------------------------------------------------------
      1        6          -0.013350906   -0.022637544    0.000146888
      2        6           0.007041492    0.054934982    0.007997610
      3        6          -0.021257035    0.000547337    0.007106131
      4        6           0.002555054    0.002376459   -0.000395664
      5        6           0.004519736   -0.008471245   -0.003079984
      6        6           0.043958790    0.032702680   -0.008340762
      7        6           0.023148521    0.041298971    0.000130025
      8        6          -0.006595548   -0.002645790    0.001676156
      9        6           0.008825489   -0.008581179   -0.004519314
     10        6          -0.004342012   -0.007384261    0.000043752
     11        6          -0.011871364    0.003455769    0.004560335
     12        6           0.000490565   -0.007274422   -0.001527910
     13        1           0.004512515    0.051389455    0.008164720
     14        1           0.008435715    0.001543505   -0.002489291
     15        1           0.040131409    0.028665429   -0.007838228
     16       17          -0.081761634   -0.062176028    0.015260061
     17       17           0.010207667   -0.000237743   -0.003407751
     18       17          -0.001875716   -0.006255664   -0.000556880
     19       17           0.005681597    0.009680331   -0.000053862
     20       17           0.001171546   -0.005769438   -0.001469506
     21       17          -0.005187268    0.008734383    0.003349392
     22       17          -0.014438614   -0.103895987   -0.014755918
 -------------------------------------------------------------------
 Cartesian Forces:  Max     0.103895987 RMS     0.024001619

 GradGradGradGradGradGradGradGradGradGradGradGradGradGradGradGradGradGrad
 Berny optimization.
 FormGI is forming the generalized inverse of G from B-inverse, IUseBI=4.
 Internal  Forces:  Max     0.193392381 RMS     0.049001725
 Search for a local minimum.
 Step number   1 out of a maximum of  121
 All quantities printed in internal units (Hartrees-Bohrs-Radians)
 Mixed Optimization -- RFO/linear search
 Second derivative matrix not updated -- first step.
 ITU=  0
     Eigenvalues ---    0.00237   0.01506   0.01506   0.02070   0.02070
     Eigenvalues ---    0.02070   0.02070   0.02070   0.02070   0.02070
     Eigenvalues ---    0.02070   0.02070   0.02070   0.02070   0.02070
     Eigenvalues ---    0.02070   0.02070   0.02070   0.02070   0.16000
     Eigenvalues ---    0.16000   0.16000   0.22375   0.23491   0.24610
     Eigenvalues ---    0.25000   0.25000   0.25000   0.25000   0.25000
     Eigenvalues ---    0.25000   0.25000   0.25000   0.25000   0.25000
     Eigenvalues ---    0.25000   0.25000   0.28519   0.29539   0.29539
     Eigenvalues ---    0.29539   0.29539   0.29539   0.29539   0.29539
     Eigenvalues ---    0.37230   0.37230   0.37230   0.41393   0.41697
     Eigenvalues ---    0.41797   0.41797   0.45389   0.45389   0.45389
     Eigenvalues ---    0.45389   0.45389   0.45389   0.45389   0.45389
 RFO step:  Lambda=-3.93683970D-01 EMin= 2.36824176D-03
 Linear search not attempted -- first point.
 Maximum step size (   0.300) exceeded in Quadratic search.
    -- Step size scaled by   0.392
 Iteration  1 RMS(Cart)=  0.09802604 RMS(Int)=  0.00385985
 Iteration  2 RMS(Cart)=  0.00437768 RMS(Int)=  0.00015855
 Iteration  3 RMS(Cart)=  0.00000723 RMS(Int)=  0.00015852
 Iteration  4 RMS(Cart)=  0.00000000 RMS(Int)=  0.00015852
 Variable       Old X    -DE/DX   Delta X   Delta X   Delta X     New X
                                 (Linear)    (Quad)   (Total)
    R1        2.64826   0.03350   0.00000   0.01602   0.01618   2.66444
    R2        2.64826   0.03112   0.00000   0.01496   0.01512   2.66338
    R3        2.91018   0.14967   0.00000   0.08633   0.08633   2.99651
    R4        2.64826  -0.00751   0.00000  -0.00351  -0.00351   2.64475
    R5        2.02201  -0.04373   0.00000  -0.02236  -0.02236   1.99965
    R6        2.64826  -0.04164   0.00000  -0.01982  -0.01998   2.62829
    R7        2.02201   0.00882   0.00000   0.00451   0.00451   2.02652
    R8        2.64826  -0.03477   0.00000  -0.01661  -0.01677   2.63150
    R9        3.32592  -0.00438   0.00000  -0.00249  -0.00249   3.32343
   R10        2.64826  -0.00957   0.00000  -0.00439  -0.00439   2.64388
   R11        3.32592  -0.00460   0.00000  -0.00261  -0.00261   3.32330
   R12        2.02201  -0.04119   0.00000  -0.02106  -0.02106   2.00095
   R13        2.64826   0.13913   0.00000   0.06626   0.06656   2.71482
   R14        2.64826   0.13758   0.00000   0.06553   0.06583   2.71409
   R15        2.64826  -0.00302   0.00000  -0.00139  -0.00139   2.64687
   R16        3.32592  -0.01138   0.00000  -0.00647  -0.00647   3.31945
   R17        2.64826  -0.05404   0.00000  -0.02693  -0.02724   2.62102
   R18        3.32592  -0.01068   0.00000  -0.00607  -0.00607   3.31985
   R19        2.64826  -0.05433   0.00000  -0.02707  -0.02738   2.62088
   R20        3.32592  -0.01122   0.00000  -0.00638  -0.00638   3.31954
   R21        2.64826  -0.00354   0.00000  -0.00165  -0.00165   2.64661
   R22        3.32592  -0.01075   0.00000  -0.00611  -0.00611   3.31981
   R23        3.32592  -0.01125   0.00000  -0.00639  -0.00639   3.31953
    A1        2.09440  -0.11144   0.00000  -0.06687  -0.06655   2.02785
    A2        2.09440   0.06085   0.00000   0.03656   0.03640   2.13079
    A3        2.09440   0.05059   0.00000   0.03031   0.03015   2.12455
    A4        2.09440   0.05375   0.00000   0.03439   0.03454   2.12894
    A5        2.09440   0.00199   0.00000   0.00322   0.00314   2.09754
    A6        2.09440  -0.05574   0.00000  -0.03761  -0.03769   2.05671
    A7        2.09440   0.01481   0.00000   0.00794   0.00778   2.10218
    A8        2.09440  -0.00601   0.00000  -0.00299  -0.00291   2.09149
    A9        2.09440  -0.00880   0.00000  -0.00495  -0.00488   2.08952
   A10        2.09440  -0.02560   0.00000  -0.01770  -0.01802   2.07638
   A11        2.09440   0.00582   0.00000   0.00460   0.00476   2.09916
   A12        2.09440   0.01978   0.00000   0.01310   0.01326   2.10765
   A13        2.09440   0.01399   0.00000   0.00723   0.00707   2.10146
   A14        2.09440   0.00077   0.00000   0.00111   0.00119   2.09559
   A15        2.09440  -0.01476   0.00000  -0.00834  -0.00826   2.08614
   A16        2.09440   0.05448   0.00000   0.03502   0.03517   2.12957
   A17        2.09440   0.00130   0.00000   0.00268   0.00260   2.09700
   A18        2.09440  -0.05579   0.00000  -0.03770  -0.03777   2.05662
   A19        2.09440   0.07376   0.00000   0.04223   0.04190   2.13629
   A20        2.09440   0.06436   0.00000   0.03651   0.03618   2.13058
   A21        2.09440  -0.13812   0.00000  -0.07874  -0.07808   2.01631
   A22        2.09440   0.03652   0.00000   0.02488   0.02519   2.11959
   A23        2.09440   0.15687   0.00000   0.09411   0.09395   2.18835
   A24        2.09440  -0.19339   0.00000  -0.11899  -0.11914   1.97525
   A25        2.09440   0.03895   0.00000   0.02107   0.02075   2.11515
   A26        2.09440  -0.01863   0.00000  -0.01002  -0.00986   2.08453
   A27        2.09440  -0.02032   0.00000  -0.01105  -0.01089   2.08351
   A28        2.09440  -0.01345   0.00000  -0.01347  -0.01411   2.08029
   A29        2.09440   0.00670   0.00000   0.00672   0.00704   2.10143
   A30        2.09440   0.00675   0.00000   0.00675   0.00707   2.10146
   A31        2.09440   0.03809   0.00000   0.02051   0.02019   2.11459
   A32        2.09440  -0.01984   0.00000  -0.01074  -0.01058   2.08382
   A33        2.09440  -0.01826   0.00000  -0.00978  -0.00962   2.08478
   A34        2.09440   0.03801   0.00000   0.02574   0.02606   2.12045
   A35        2.09440   0.15267   0.00000   0.09157   0.09141   2.18581
   A36        2.09440  -0.19068   0.00000  -0.11731  -0.11747   1.97693
    D1        0.00000   0.00000   0.00000   0.00000   0.00000   0.00000
    D2        3.14159  -0.00000   0.00000   0.00000   0.00000   3.14159
    D3       -3.14159  -0.00000   0.00000  -0.00000  -0.00000  -3.14159
    D4       -0.00000  -0.00000   0.00000  -0.00000  -0.00000  -0.00000
    D5       -0.00000  -0.00000   0.00000  -0.00000  -0.00000  -0.00000
    D6        3.14159  -0.00000   0.00000  -0.00000  -0.00000   3.14159
    D7        3.14159   0.00000   0.00000   0.00000   0.00000   3.14159
    D8        0.00000  -0.00000   0.00000  -0.00000  -0.00000  -0.00000
    D9       -0.00000  -0.00000   0.00000  -0.00000  -0.00000  -0.00000
   D10        3.14159  -0.00000   0.00000  -0.00000  -0.00000   3.14159
   D11        3.14159  -0.00000   0.00000  -0.00000  -0.00000   3.14159
   D12       -0.00000  -0.00000   0.00000  -0.00000  -0.00000  -0.00000
   D13        0.00000  -0.00000   0.00000  -0.00000  -0.00000   0.00000
   D14        3.14159  -0.00000   0.00000  -0.00000  -0.00000   3.14159
   D15       -3.14159  -0.00000   0.00000  -0.00000  -0.00000  -3.14159
   D16        0.00000  -0.00000   0.00000  -0.00000  -0.00000   0.00000
   D17       -0.00000  -0.00000   0.00000   0.00000   0.00000  -0.00000
   D18        3.14159   0.00000   0.00000   0.00000   0.00000   3.14159
   D19        3.14159  -0.00000   0.00000  -0.00000  -0.00000   3.14159
   D20        0.00000  -0.00000   0.00000  -0.00000  -0.00000   0.00000
   D21        0.00000   0.00000   0.00000   0.00000   0.00000   0.00000
   D22       -3.14159   0.00000   0.00000   0.00000   0.00000  -3.14159
   D23       -3.14159  -0.00000   0.00000  -0.00000  -0.00000  -3.14159
   D24        0.00000   0.00000   0.00000   0.00000   0.00000   0.00000
   D25       -0.00000   0.00000   0.00000   0.00000   0.00000  -0.00000
   D26        3.14159   0.00000   0.00000   0.00000   0.00000   3.14159
   D27        3.14159   0.00000   0.00000  -0.00000  -0.00000   3.14159
   D28       -0.00000   0.00000   0.00000   0.00000   0.00000  -0.00000
   D29        3.14159   0.00000   0.00000   0.00000   0.00000   3.14159
   D30        0.00000   0.00000   0.00000   0.00000   0.00000   0.00000
   D31        0.00000   0.00000   0.00000   0.00000   0.00000   0.00000
   D32       -3.14159  -0.00000   0.00000  -0.00000  -0.00000  -3.14159
   D33       -3.14159  -0.00000   0.00000  -0.00000  -0.00000  -3.14159
   D34        0.00000  -0.00000   0.00000  -0.00000  -0.00000  -0.00000
   D35       -0.00000   0.00000   0.00000   0.00000   0.00000  -0.00000
   D36        3.14159  -0.00000   0.00000  -0.00000  -0.00000   3.14159
   D37       -0.00000  -0.00000   0.00000  -0.00000  -0.00000  -0.00000
   D38        3.14159  -0.00000   0.00000  -0.00000  -0.00000   3.14159
   D39        3.14159   0.00000   0.00000   0.00000   0.00000   3.14159
   D40       -0.00000   0.00000   0.00000   0.00000   0.00000  -0.00000
   D41       -0.00000   0.00000   0.00000   0.00000   0.00000  -0.00000
   D42       -3.14159  -0.00000   0.00000  -0.00000  -0.00000  -3.14159
   D43        3.14159   0.00000   0.00000   0.00000   0.00000   3.14159
   D44        0.00000   0.00000   0.00000   0.00000   0.00000   0.00000
   D45        0.00000   0.00000   0.00000   0.00000   0.00000   0.00000
   D46       -3.14159  -0.00000   0.00000  -0.00000  -0.00000  -3.14159
   D47        3.14159   0.00000   0.00000   0.00000   0.00000   3.14159
   D48        0.00000   0.00000   0.00000   0.00000   0.00000   0.00000
   D49        0.00000  -0.00000   0.00000  -0.00000  -0.00000   0.00000
   D50       -3.14159   0.00000   0.00000   0.00000   0.00000  -3.14159
   D51        3.14159   0.00000   0.00000   0.00000   0.00000   3.14159
   D52       -0.00000   0.00000   0.00000   0.00000   0.00000  -0.00000
         Item               Value     Threshold  Converged?
 Maximum Force            0.193392     0.000450     NO 
 RMS     Force            0.049002     0.000300     NO 
 Maximum Displacement     0.553218     0.001800     NO 
 RMS     Displacement     0.099286     0.001200     NO 
 Predicted change in Energy=-1.416739D-01
 GradGradGradGradGradGradGradGradGradGradGradGradGradGradGradGradGradGrad

                          Input orientation:                          
 ---------------------------------------------------------------------
 Center     Atomic      Atomic             Coordinates (Angstroms)
 Number     Number       Type             X           Y           Z
 ---------------------------------------------------------------------
      1          6           0        0.669445    0.107074    0.022141
      2          6           0        2.010839    0.188086   -0.404573
      3          6           0        2.715324    1.397381   -0.409552
      4          6           0        2.102096    2.572002    0.013085
      5          6           0        0.777657    2.525278    0.440650
      6          6           0        0.076988    1.314297    0.444055
      7          6           0       -0.131106   -1.261674    0.028823
      8          6           0        0.458350   -2.500319   -0.398006
      9          6           0       -0.267563   -3.698112   -0.383806
     10          6           0       -1.586433   -3.733672    0.044028
     11          6           0       -2.193095   -2.559471    0.464423
     12          6           0       -1.497498   -1.343898    0.463550
     13          1           0        2.517462   -0.680333   -0.734578
     14          1           0        3.734870    1.419493   -0.741292
     15          1           0       -0.928013    1.325506    0.777261
     16         17           0       -2.462263    0.008139    1.035327
     17         17           0       -3.863389   -2.598406    1.007407
     18         17           0       -0.026068    3.993152    0.981118
     19         17           0       -2.477522   -5.247477    0.053299
     20         17           0        2.991643    4.089106    0.004947
     21         17           0        0.505664   -5.182614   -0.917355
     22         17           0        2.104951   -2.696770   -0.977383
 ---------------------------------------------------------------------
                    Distance matrix (angstroms):
                    1          2          3          4          5
     1  C    0.000000
     2  C    1.409960   0.000000
     3  C    2.457005   1.399543   0.000000
     4  C    2.851042   2.421947   1.390829   0.000000
     5  C    2.456536   2.774457   2.397822   1.392528   0.000000
     6  C    1.409399   2.393388   2.774233   2.422524   1.399079
     7  C    1.585686   2.622511   3.919811   4.436723   3.916179
     8  C    2.649450   3.104479   4.504014   5.347835   5.105089
     9  C    3.939825   4.504895   5.904433   6.714696   6.364181
    10  C    4.454301   5.340580   6.711078   7.305322   6.702290
    11  C    3.937031   5.096792   6.364990   6.707041   5.889025
    12  C    2.644959   3.925436   5.101450   5.338003   4.488584
    13  H    2.146579   1.058169   2.112271   3.362917   3.831974
    14  H    3.420834   2.145233   1.072387   2.136191   3.371180
    15  H    2.146311   3.365606   3.832440   3.364413   2.112361
    16  Cl   3.293012   4.702588   5.552034   5.334018   4.145686
    17  Cl   5.370005   6.653178   7.826465   7.956683   6.936329
    18  Cl   4.062632   4.532953   4.023334   2.736026   1.758617
    19  Cl   6.210925   7.064019   8.445947   9.061941   8.435754
    20  Cl   4.609715   4.043222   2.737434   1.758682   2.745383
    21  Cl   5.374968   5.601153   6.959655   7.971724   7.831332
    22  Cl   3.304735   2.942679   4.178166   5.361063   5.571563
                    6          7          8          9         10
     6  C    0.000000
     7  C    2.617508   0.000000
     8  C    3.925023   1.436622   0.000000
     9  C    5.091986   2.474897   1.400664   0.000000
    10  C    5.330008   2.868620   2.428516   1.386985   0.000000
    11  C    4.489964   2.475040   2.788807   2.392420   1.386910
    12  C    3.089562   1.436237   2.430006   2.788024   2.427947
    13  H    3.365062   2.817029   2.768677   4.121456   5.174076
    14  H    3.846585   4.767337   5.120386   6.506700   7.449034
    15  H    1.058857   2.808686   4.235586   5.198174   5.154263
    16  Cl   2.916067   2.838973   4.108137   4.535080   3.968741
    17  Cl   5.581503   4.083431   4.545572   4.009338   2.720561
    18  Cl   2.734103   5.341451   6.655961   7.815170   7.938305
    19  Cl   7.052311   4.625245   4.045972   2.734138   1.756624
    20  Cl   4.048159   6.195400   7.071101   8.450700   9.064004
    21  Cl   6.651846   4.083442   2.732520   1.756787   2.720398
    22  Cl   4.713999   2.841109   1.756578   2.642695   3.967967
                   11         12         13         14         15
    11  C    0.000000
    12  C    1.400526   0.000000
    13  H    5.211345   4.242138   0.000000
    14  H    7.240627   6.038680   2.427220   0.000000
    15  H    4.097725   2.747444   4.263841   4.904825   0.000000
    16  Cl   2.644051   1.756618   5.329561   6.599451   2.038621
    17  Cl   1.756766   2.732582   6.886855   8.771259   4.905760
    18  Cl   6.920972   5.560314   5.590583   4.871865   2.823367
    19  Cl   2.734099   4.045575   6.813914   9.147331   6.791848
    20  Cl   8.443708   7.062595   4.849670   2.869859   4.857742
    21  Cl   4.009176   4.544810   4.934701   7.351638   6.876247
    22  Cl   4.535510   4.109037   2.072472   4.433509   5.334449
                   16         17         18         19         20
    16  Cl   0.000000
    17  Cl   2.959394   0.000000
    18  Cl   4.671008   7.627212   0.000000
    19  Cl   5.346598   3.138236   9.605191   0.000000
    20  Cl   6.889199   9.629081   3.173121  10.820623   0.000000
    21  Cl   6.290110   5.428763   9.385181   3.137798   9.643419
    22  Cl   5.676881   6.290480   7.289172   5.344854   6.913705
                   21         22
    21  Cl   0.000000
    22  Cl   2.956474   0.000000
 Stoichiometry    C12H3Cl7
 Framework group  C1[X(C12H3Cl7)]
 Deg. of freedom    60
 Full point group                 C1      NOp   1
 Largest Abelian subgroup         C1      NOp   1
 Largest concise Abelian subgroup C1      NOp   1
                         Standard orientation:                         
 ---------------------------------------------------------------------
 Center     Atomic      Atomic             Coordinates (Angstroms)
 Number     Number       Type             X           Y           Z
 ---------------------------------------------------------------------
      1          6           0       -1.225265   -0.394513    0.000001
      2          6           0       -1.814835   -1.675291   -0.000002
      3          6           0       -3.203153   -1.852192   -0.000003
      4          6           0       -4.053825   -0.751846   -0.000003
      5          6           0       -3.502459    0.526876    0.000002
      6          6           0       -2.114047    0.699320    0.000004
      7          6           0        0.347329   -0.191172    0.000002
      8          6           0        1.266314   -1.295414    0.000002
      9          6           0        2.652218   -1.092615    0.000002
     10          6           0        3.191126    0.185393    0.000002
     11          6           0        2.338323    1.279123    0.000001
     12          6           0        0.947613    1.113602    0.000001
     13          1           0       -1.206350   -2.541008   -0.000004
     14          1           0       -3.614781   -2.842433   -0.000006
     15          1           0       -1.738805    1.689457    0.000007
     16         17           0        0.067795    2.634006   -0.000002
     17         17           0        3.015187    2.900259   -0.000005
     18         17           0       -4.551158    1.938600    0.000007
     19         17           0        4.932565    0.415871   -0.000001
     20         17           0       -5.797723   -0.979408   -0.000005
     21         17           0        3.727992   -2.481504    0.000003
     22         17           0        0.816159   -2.993332   -0.000001
 ---------------------------------------------------------------------
 Rotational constants (GHZ):           0.3568200           0.1128620           0.0857419
 Standard basis: 6-311+G(d,p) (5D, 7F)
 There are   511 symmetry adapted cartesian basis functions of A   symmetry.
 There are   492 symmetry adapted basis functions of A   symmetry.
   492 basis functions,   827 primitive gaussians,   511 cartesian basis functions
    97 alpha electrons       97 beta electrons
       nuclear repulsion energy      2300.6915389314 Hartrees.
 NAtoms=   22 NActive=   22 NUniq=   22 SFac= 1.00D+00 NAtFMM=   60 NAOKFM=F Big=F
 Integral buffers will be    131072 words long.
 Raffenetti 2 integral format.
 Two-electron integral symmetry is turned on.
 One-electron integrals computed using PRISM.
 NBasis=   492 RedAO= T EigKep=  1.29D-06  NBF=   492
 NBsUse=   485 1.00D-06 EigRej=  8.37D-07 NBFU=   485
 Initial guess from the checkpoint file:  "./Gau-231957.chk"
 B after Tr=    -0.000000   -0.000000    0.000000
         Rot=    1.000000   -0.000000    0.000000    0.000093 Ang=   0.01 deg.
 ExpMin= 4.38D-02 ExpMax= 1.06D+05 ExpMxC= 3.62D+03 IAcc=3 IRadAn=         5 AccDes= 0.00D+00
 Harris functional with IExCor=  402 and IRadAn=       5 diagonalized for initial guess.
 HarFok:  IExCor=  402 AccDes= 0.00D+00 IRadAn=         5 IDoV= 1 UseB2=F ITyADJ=14
 ICtDFT=  3500011 ScaDFX=  1.000000  1.000000  1.000000  1.000000
 FoFCou: FMM=F IPFlag=           0 FMFlag=      100000 FMFlg1=           0
         NFxFlg=           0 DoJE=T BraDBF=F KetDBF=T FulRan=T
         wScrn=  0.000000 ICntrl=       500 IOpCl=  0 I1Cent=   200000004 NGrid=           0
         NMat0=    1 NMatS0=      1 NMatT0=    0 NMatD0=    1 NMtDS0=    0 NMtDT0=    0
 Petite list used in FoFCou.
 Requested convergence on RMS density matrix=1.00D-08 within  32 cycles.
 Requested convergence on MAX density matrix=1.00D-06.
 Requested convergence on             energy=1.00D-06.
 No special actions if energy rises.
 SCF Done:  E(RB3LYP) =  -3680.69642419     A.U. after   16 cycles
            NFock= 16  Conv=0.48D-08     -V/T= 2.0026
 QCSCF skips out because SCF is already converged.
 Calling FoFJK, ICntrl=      2127 FMM=F ISym2X=0 I1Cent= 0 IOpClX= 0 NMat=1 NMatS=1 NMatT=0.
 ***** Axes restored to original set *****
 -------------------------------------------------------------------
 Center     Atomic                   Forces (Hartrees/Bohr)
 Number     Number              X              Y              Z
 -------------------------------------------------------------------
      1        6          -0.011798607   -0.020622247    0.000013968
      2        6          -0.003410896    0.018000372    0.004504523
      3        6          -0.013533614   -0.005644958    0.003398640
      4        6           0.003759836    0.005442925   -0.000216671
      5        6          -0.003230901   -0.004036244    0.000306425
      6        6           0.016277722    0.004914327   -0.004439844
      7        6           0.013780136    0.024873883    0.000131751
      8        6          -0.007690674    0.008422634    0.004115694
      9        6           0.009230374   -0.008336615   -0.004606799
     10        6          -0.007912051   -0.013446856    0.000081310
     11        6          -0.011923945    0.004057701    0.004690687
     12        6           0.010663024   -0.002799564   -0.004038854
     13        1           0.006662566    0.000832983   -0.002038618
     14        1           0.006529005    0.000139015   -0.002124892
     15        1          -0.001215512    0.007319344    0.001774983
     16       17          -0.004795949   -0.006510405    0.000357392
     17       17           0.005970666   -0.005421027   -0.002985301
     18       17          -0.001414955   -0.006100718   -0.000679574
     19       17           0.004730784    0.008032023   -0.000050171
     20       17          -0.000199236   -0.006745595   -0.001201228
     21       17          -0.007679741    0.002457398    0.002991671
     22       17          -0.002798031   -0.004828376    0.000014906
 -------------------------------------------------------------------
 Cartesian Forces:  Max     0.024873883 RMS     0.007580565

 GradGradGradGradGradGradGradGradGradGradGradGradGradGradGradGradGradGrad
 Berny optimization.
 Using GEDIIS/GDIIS optimizer.
 FormGI is forming the generalized inverse of G from B-inverse, IUseBI=4.
 Internal  Forces:  Max     0.016502131 RMS     0.005353606
 Search for a local minimum.
 Step number   2 out of a maximum of  121
 All quantities printed in internal units (Hartrees-Bohrs-Radians)
 Mixed Optimization -- RFO/linear search
 Update second derivatives using D2CorX and points    1    2
 DE= -7.18D-02 DEPred=-1.42D-01 R= 5.07D-01
 TightC=F SS=  1.41D+00  RLast= 3.00D-01 DXNew= 5.0454D-01 8.9996D-01
 Trust test= 5.07D-01 RLast= 3.00D-01 DXMaxT set to 5.05D-01
 ITU=  1  0
 Use linear search instead of GDIIS.
     Eigenvalues ---    0.00237   0.01461   0.01467   0.02070   0.02070
     Eigenvalues ---    0.02070   0.02070   0.02070   0.02070   0.02070
     Eigenvalues ---    0.02070   0.02070   0.02070   0.02070   0.02070
     Eigenvalues ---    0.02070   0.02070   0.02070   0.02070   0.16000
     Eigenvalues ---    0.16000   0.16083   0.22374   0.23614   0.24616
     Eigenvalues ---    0.24897   0.25000   0.25000   0.25000   0.25000
     Eigenvalues ---    0.25000   0.25000   0.25000   0.25000   0.25000
     Eigenvalues ---    0.25000   0.27946   0.29505   0.29536   0.29539
     Eigenvalues ---    0.29539   0.29539   0.29539   0.29539   0.36417
     Eigenvalues ---    0.37221   0.37230   0.38466   0.41234   0.41677
     Eigenvalues ---    0.41847   0.45071   0.45323   0.45389   0.45389
     Eigenvalues ---    0.45389   0.45389   0.45389   0.45389   1.63384
 RFO step:  Lambda=-8.94223485D-03 EMin= 2.36824176D-03
 Quartic linear search produced a step of  0.14366.
 Iteration  1 RMS(Cart)=  0.05386031 RMS(Int)=  0.00100949
 Iteration  2 RMS(Cart)=  0.00132636 RMS(Int)=  0.00004534
 Iteration  3 RMS(Cart)=  0.00000033 RMS(Int)=  0.00004534
 Variable       Old X    -DE/DX   Delta X   Delta X   Delta X     New X
                                 (Linear)    (Quad)   (Total)
    R1        2.66444   0.00215   0.00232  -0.00116   0.00123   2.66567
    R2        2.66338   0.00108   0.00217  -0.00305  -0.00082   2.66256
    R3        2.99651  -0.00640   0.01240  -0.06404  -0.05163   2.94488
    R4        2.64475  -0.00972  -0.00050  -0.02287  -0.02336   2.62139
    R5        1.99965   0.00314  -0.00321   0.01896   0.01575   2.01540
    R6        2.62829  -0.00768  -0.00287  -0.01125  -0.01418   2.61410
    R7        2.02652   0.00687   0.00065   0.01867   0.01932   2.04584
    R8        2.63150  -0.00244  -0.00241   0.00068  -0.00180   2.62970
    R9        3.32343  -0.00591  -0.00036  -0.02110  -0.02146   3.30197
   R10        2.64388  -0.00898  -0.00063  -0.02009  -0.02073   2.62315
   R11        3.32330  -0.00465  -0.00038  -0.01631  -0.01669   3.30662
   R12        2.00095   0.00179  -0.00303   0.01435   0.01132   2.01227
   R13        2.71482   0.00477   0.00956  -0.01488  -0.00524   2.70958
   R14        2.71409   0.00755   0.00946  -0.00757   0.00195   2.71605
   R15        2.64687   0.00702  -0.00020   0.01779   0.01761   2.66448
   R16        3.31945  -0.00209  -0.00093  -0.00494  -0.00587   3.31359
   R17        2.62102  -0.00430  -0.00391  -0.00023  -0.00421   2.61681
   R18        3.31985  -0.00637  -0.00087  -0.02118  -0.02206   3.29779
   R19        2.62088  -0.00406  -0.00393   0.00056  -0.00346   2.61742
   R20        3.31954  -0.00932  -0.00092  -0.03215  -0.03307   3.28647
   R21        2.64661   0.00742  -0.00024   0.01917   0.01891   2.66552
   R22        3.31981  -0.00648  -0.00088  -0.02159  -0.02247   3.29733
   R23        3.31953  -0.00226  -0.00092  -0.00562  -0.00654   3.31299
    A1        2.02785  -0.01387  -0.00956  -0.03021  -0.03964   1.98821
    A2        2.13079   0.00388   0.00523   0.00017   0.00533   2.13612
    A3        2.12455   0.00999   0.00433   0.03004   0.03430   2.15885
    A4        2.12894   0.00710   0.00496   0.01683   0.02187   2.15081
    A5        2.09754   0.00272   0.00045   0.02300   0.02341   2.12095
    A6        2.05671  -0.00982  -0.00541  -0.03983  -0.04528   2.01142
    A7        2.10218   0.00325   0.00112   0.00936   0.01042   2.11260
    A8        2.09149  -0.00163  -0.00042  -0.00523  -0.00562   2.08587
    A9        2.08952  -0.00162  -0.00070  -0.00413  -0.00480   2.08472
   A10        2.07638  -0.00559  -0.00259  -0.01871  -0.02143   2.05495
   A11        2.09916  -0.00297   0.00068  -0.01408  -0.01333   2.08583
   A12        2.10765   0.00855   0.00190   0.03278   0.03476   2.14241
   A13        2.10146   0.00209   0.00102   0.00478   0.00572   2.10718
   A14        2.09559   0.00601   0.00017   0.02654   0.02675   2.12233
   A15        2.08614  -0.00810  -0.00119  -0.03132  -0.03246   2.05367
   A16        2.12957   0.00702   0.00505   0.01795   0.02305   2.15262
   A17        2.09700   0.00391   0.00037   0.03032   0.03067   2.12767
   A18        2.05662  -0.01093  -0.00543  -0.04827  -0.05372   2.00290
   A19        2.13629   0.00169   0.00602  -0.01336  -0.00742   2.12887
   A20        2.13058   0.01396   0.00520   0.04347   0.04859   2.17917
   A21        2.01631  -0.01565  -0.01122  -0.03011  -0.04117   1.97514
   A22        2.11959   0.00889   0.00362   0.02826   0.03198   2.15157
   A23        2.18835   0.00414   0.01350  -0.02622  -0.01278   2.17557
   A24        1.97525  -0.01303  -0.01712  -0.00204  -0.01921   1.95605
   A25        2.11515   0.00088   0.00298  -0.00744  -0.00451   2.11064
   A26        2.08453   0.00916  -0.00142   0.04587   0.04447   2.12901
   A27        2.08351  -0.01004  -0.00156  -0.03843  -0.03997   2.04354
   A28        2.08029  -0.00303  -0.00203  -0.00916  -0.01134   2.06895
   A29        2.10143   0.00151   0.00101   0.00457   0.00565   2.10709
   A30        2.10146   0.00152   0.00102   0.00459   0.00568   2.10715
   A31        2.11459   0.00171   0.00290  -0.00276   0.00004   2.11463
   A32        2.08382  -0.01024  -0.00152  -0.03983  -0.04130   2.04252
   A33        2.08478   0.00853  -0.00138   0.04259   0.04126   2.12604
   A34        2.12045   0.00720   0.00374   0.02119   0.02498   2.14544
   A35        2.18581   0.00930   0.01313  -0.00267   0.01044   2.19625
   A36        1.97693  -0.01650  -0.01688  -0.01852  -0.03542   1.94150
    D1        0.00000  -0.00000   0.00000  -0.00000  -0.00000   0.00000
    D2        3.14159   0.00000   0.00000   0.00000   0.00000  -3.14159
    D3       -3.14159  -0.00000  -0.00000  -0.00000  -0.00000   3.14159
    D4       -0.00000  -0.00000  -0.00000  -0.00000  -0.00000  -0.00000
    D5       -0.00000   0.00000  -0.00000   0.00000   0.00000  -0.00000
    D6        3.14159  -0.00000  -0.00000  -0.00000  -0.00000   3.14159
    D7        3.14159   0.00000   0.00000   0.00000   0.00000  -3.14159
    D8       -0.00000  -0.00000  -0.00000  -0.00000  -0.00000  -0.00000
    D9       -0.00000  -0.00000  -0.00000  -0.00002  -0.00002  -0.00002
   D10        3.14159  -0.00000  -0.00000  -0.00001  -0.00001   3.14158
   D11        3.14159  -0.00000  -0.00000  -0.00002  -0.00002   3.14157
   D12       -0.00000  -0.00000  -0.00000  -0.00001  -0.00001  -0.00002
   D13        0.00000  -0.00000  -0.00000  -0.00000  -0.00000  -0.00000
   D14        3.14159   0.00000  -0.00000   0.00000   0.00000   3.14159
   D15       -3.14159  -0.00000  -0.00000  -0.00000  -0.00000  -3.14159
   D16        0.00000  -0.00000  -0.00000  -0.00000  -0.00000   0.00000
   D17       -0.00000   0.00000   0.00000   0.00000   0.00000  -0.00000
   D18        3.14159  -0.00000   0.00000  -0.00000  -0.00000   3.14159
   D19        3.14159   0.00000  -0.00000   0.00000   0.00000   3.14159
   D20        0.00000  -0.00000  -0.00000  -0.00000  -0.00000  -0.00000
   D21        0.00000  -0.00000   0.00000  -0.00000  -0.00000   0.00000
   D22       -3.14159  -0.00000   0.00000  -0.00000  -0.00000  -3.14159
   D23       -3.14159  -0.00000  -0.00000   0.00000   0.00000  -3.14159
   D24        0.00000   0.00000   0.00000   0.00000   0.00000   0.00000
   D25       -0.00000   0.00000   0.00000   0.00000   0.00000  -0.00000
   D26        3.14159   0.00000   0.00000   0.00000   0.00000  -3.14159
   D27        3.14159   0.00000  -0.00000   0.00000   0.00000   3.14159
   D28       -0.00000   0.00000   0.00000   0.00000   0.00000   0.00000
   D29        3.14159   0.00000   0.00000   0.00000   0.00000  -3.14159
   D30        0.00000  -0.00000   0.00000  -0.00000  -0.00000   0.00000
   D31        0.00000   0.00000   0.00000   0.00000   0.00000   0.00000
   D32       -3.14159  -0.00000  -0.00000  -0.00000  -0.00000   3.14159
   D33       -3.14159  -0.00000  -0.00000  -0.00000  -0.00000   3.14159
   D34       -0.00000  -0.00000  -0.00000  -0.00000  -0.00000  -0.00000
   D35       -0.00000   0.00000   0.00000   0.00000   0.00000  -0.00000
   D36        3.14159  -0.00000  -0.00000   0.00000   0.00000   3.14159
   D37       -0.00000  -0.00000  -0.00000  -0.00000  -0.00000  -0.00000
   D38        3.14159  -0.00000  -0.00000  -0.00000  -0.00000   3.14159
   D39        3.14159   0.00000   0.00000   0.00000   0.00000  -3.14159
   D40       -0.00000   0.00000   0.00000   0.00000   0.00000  -0.00000
   D41       -0.00000   0.00000   0.00000   0.00000   0.00000   0.00000
   D42       -3.14159  -0.00000  -0.00000  -0.00000  -0.00000   3.14159
   D43        3.14159   0.00000   0.00000   0.00000   0.00000  -3.14159
   D44        0.00000  -0.00000   0.00000  -0.00000  -0.00000   0.00000
   D45        0.00000   0.00000   0.00000   0.00000   0.00000   0.00000
   D46       -3.14159  -0.00000  -0.00000  -0.00000  -0.00000  -3.14159
   D47        3.14159   0.00000   0.00000   0.00000   0.00000  -3.14159
   D48        0.00000  -0.00000   0.00000  -0.00000  -0.00000   0.00000
   D49        0.00000  -0.00000  -0.00000  -0.00000  -0.00000  -0.00000
   D50       -3.14159  -0.00000   0.00000  -0.00000  -0.00000  -3.14159
   D51        3.14159   0.00000   0.00000   0.00000   0.00000  -3.14159
   D52       -0.00000   0.00000   0.00000   0.00000   0.00000   0.00000
         Item               Value     Threshold  Converged?
 Maximum Force            0.016502     0.000450     NO 
 RMS     Force            0.005354     0.000300     NO 
 Maximum Displacement     0.251672     0.001800     NO 
[...]
                 (A) (A) (A) (A) (A) (A) (A) (A) (A) (A) (A) (A)
                 (A) (A) (A) (A) (A) (A) (A) (A) (A) (A) (A) (A)
                 (A) (A) (A) (A) (A) (A) (A) (A) (A) (A) (A) (A)
                 (A) (A) (A) (A) (A) (A) (A) (A) (A) (A) (A) (A)
                 (A) (A) (A) (A) (A) (A) (A) (A) (A) (A) (A) (A)
                 (A) (A) (A) (A) (A) (A) (A) (A) (A) (A) (A) (A)
                 (A) (A) (A) (A) (A) (A) (A) (A) (A) (A) (A) (A)
                 (A) (A) (A) (A) (A) (A) (A) (A) (A) (A) (A) (A)
                 (A) (A) (A) (A) (A) (A) (A) (A) (A) (A) (A) (A)
                 (A) (A) (A) (A) (A) (A) (A) (A) (A) (A) (A) (A)
                 (A) (A) (A) (A) (A) (A) (A) (A) (A) (A) (A) (A)
                 (A) (A) (A) (A) (A) (A) (A) (A) (A) (A) (A) (A)
                 (A) (A) (A) (A) (A) (A) (A) (A) (A) (A) (A) (A)
                 (A) (A) (A) (A) (A) (A) (A) (A) (A) (A) (A) (A)
                 (A) (A) (A) (A) (A) (A) (A) (A) (A) (A) (A) (A)
                 (A) (A) (A) (A) (A) (A) (A) (A) (A) (A) (A) (A)
                 (A) (A) (A) (A) (A) (A) (A) (A) (A) (A) (A) (A)
                 (A) (A) (A) (A) (A) (A) (A) (A) (A) (A) (A) (A)
                 (A) (A) (A) (A) (A) (A) (A)
 The electronic state is 1-A.
 Alpha  occ. eigenvalues -- -101.58635-101.58530-101.58530-101.58346-101.58346
 Alpha  occ. eigenvalues -- -101.57201-101.57192 -10.29026 -10.28733 -10.28727
 Alpha  occ. eigenvalues --  -10.28577 -10.28577 -10.26737 -10.26672 -10.24645
 Alpha  occ. eigenvalues --  -10.22666 -10.21547 -10.21367 -10.21109  -9.50101
 Alpha  occ. eigenvalues --   -9.49996  -9.49995  -9.49820  -9.49819  -9.48659
 Alpha  occ. eigenvalues --   -9.48650  -7.26610  -7.26504  -7.26504  -7.26316
 Alpha  occ. eigenvalues --   -7.26315  -7.25582  -7.25490  -7.25475  -7.25475
 Alpha  occ. eigenvalues --   -7.25387  -7.25387  -7.25303  -7.25303  -7.25219
 Alpha  occ. eigenvalues --   -7.25218  -7.25141  -7.25133  -7.24141  -7.24130
 Alpha  occ. eigenvalues --   -7.24082  -7.24074  -0.97538  -0.93714  -0.92994
 Alpha  occ. eigenvalues --   -0.91938  -0.88441  -0.87777  -0.87577  -0.86393
 Alpha  occ. eigenvalues --   -0.84330  -0.79427  -0.77073  -0.75039  -0.74284
 Alpha  occ. eigenvalues --   -0.66400  -0.64795  -0.63700  -0.61364  -0.56584
 Alpha  occ. eigenvalues --   -0.55332  -0.52760  -0.52036  -0.49916  -0.48791
 Alpha  occ. eigenvalues --   -0.47770  -0.47321  -0.46940  -0.46120  -0.44672
 Alpha  occ. eigenvalues --   -0.44483  -0.43238  -0.41646  -0.40657  -0.40552
 Alpha  occ. eigenvalues --   -0.39421  -0.36823  -0.36411  -0.36372  -0.36263
 Alpha  occ. eigenvalues --   -0.36112  -0.35985  -0.34445  -0.34378  -0.33747
 Alpha  occ. eigenvalues --   -0.33224  -0.32380  -0.31799  -0.28215  -0.28005
 Alpha  occ. eigenvalues --   -0.27220  -0.26776
 Alpha virt. eigenvalues --   -0.06803  -0.06763  -0.06286  -0.05244  -0.04733
 Alpha virt. eigenvalues --   -0.02271  -0.01247  -0.00775  -0.00079   0.00940
 Alpha virt. eigenvalues --    0.01647   0.01998   0.02320   0.02406   0.02611
 Alpha virt. eigenvalues --    0.03367   0.04072   0.04593   0.05294   0.05734
 Alpha virt. eigenvalues --    0.06178   0.06219   0.06633   0.07082   0.07324
 Alpha virt. eigenvalues --    0.07714   0.08011   0.08040   0.08511   0.08707
 Alpha virt. eigenvalues --    0.08989   0.09487   0.10128   0.10300   0.10950
 Alpha virt. eigenvalues --    0.11197   0.11491   0.11730   0.11803   0.12401
 Alpha virt. eigenvalues --    0.12628   0.13205   0.13321   0.14053   0.14156
 Alpha virt. eigenvalues --    0.14373   0.14483   0.14946   0.15374   0.15700
 Alpha virt. eigenvalues --    0.16484   0.16971   0.17193   0.17510   0.17608
 Alpha virt. eigenvalues --    0.17901   0.17968   0.18698   0.18866   0.19205
 Alpha virt. eigenvalues --    0.19702   0.19888   0.20111   0.20748   0.21124
 Alpha virt. eigenvalues --    0.21745   0.21852   0.22504   0.22811   0.23072
 Alpha virt. eigenvalues --    0.23101   0.23800   0.24291   0.24295   0.24818
 Alpha virt. eigenvalues --    0.24929   0.25285   0.25603   0.26261   0.26923
 Alpha virt. eigenvalues --    0.27034   0.27325   0.27632   0.28067   0.28591
 Alpha virt. eigenvalues --    0.28706   0.29036   0.29121   0.29769   0.29951
 Alpha virt. eigenvalues --    0.30420   0.30614   0.31346   0.32577   0.33186
 Alpha virt. eigenvalues --    0.35363   0.36604   0.38187   0.42199   0.42473
 Alpha virt. eigenvalues --    0.42510   0.42885   0.43364   0.43899   0.43983
 Alpha virt. eigenvalues --    0.44944   0.45326   0.45363   0.46087   0.46248
 Alpha virt. eigenvalues --    0.46632   0.46865   0.47267   0.47703   0.48043
 Alpha virt. eigenvalues --    0.48429   0.48867   0.49235   0.50705   0.51415
 Alpha virt. eigenvalues --    0.51656   0.52858   0.54654   0.55885   0.56758
 Alpha virt. eigenvalues --    0.57243   0.57316   0.57590   0.59193   0.59198
 Alpha virt. eigenvalues --    0.59263   0.60485   0.60622   0.60991   0.61691
 Alpha virt. eigenvalues --    0.62124   0.63286   0.63996   0.65238   0.65388
 Alpha virt. eigenvalues --    0.65908   0.66192   0.66698   0.68197   0.68632
 Alpha virt. eigenvalues --    0.69289   0.69662   0.70906   0.73236   0.75198
 Alpha virt. eigenvalues --    0.77934   0.78707   0.78772   0.78806   0.80834
 Alpha virt. eigenvalues --    0.82145   0.82735   0.82784   0.83059   0.83453
 Alpha virt. eigenvalues --    0.83540   0.83711   0.84337   0.84509   0.84790
 Alpha virt. eigenvalues --    0.85042   0.85122   0.85375   0.85523   0.85725
 Alpha virt. eigenvalues --    0.86341   0.86564   0.87626   0.88192   0.88645
 Alpha virt. eigenvalues --    0.89230   0.89868   0.90919   0.91184   0.91628
 Alpha virt. eigenvalues --    0.92172   0.93048   0.93553   0.93728   0.93928
 Alpha virt. eigenvalues --    0.94511   0.94560   0.95714   0.95739   0.96169
 Alpha virt. eigenvalues --    0.98087   0.98677   0.99628   1.00047   1.02036
 Alpha virt. eigenvalues --    1.02253   1.03430   1.05033   1.06755   1.06940
 Alpha virt. eigenvalues --    1.08943   1.09010   1.09890   1.14802   1.14860
 Alpha virt. eigenvalues --    1.17157   1.18088   1.19698   1.22918   1.24426
 Alpha virt. eigenvalues --    1.24523   1.25489   1.26015   1.27011   1.27884
 Alpha virt. eigenvalues --    1.27921   1.28256   1.28762   1.29308   1.29651
 Alpha virt. eigenvalues --    1.30753   1.32476   1.34276   1.37971   1.38735
 Alpha virt. eigenvalues --    1.39456   1.43364   1.46349   1.49532   1.52135
 Alpha virt. eigenvalues --    1.52200   1.55071   1.56018   1.57055   1.61588
 Alpha virt. eigenvalues --    1.63025   1.64673   1.66628   1.67326   1.67556
 Alpha virt. eigenvalues --    1.69314   1.73574   1.73815   1.75183   1.77746
 Alpha virt. eigenvalues --    1.79200   1.80337   1.80909   1.82528   1.84029
 Alpha virt. eigenvalues --    1.84364   1.87675   1.87925   1.91355   1.91494
 Alpha virt. eigenvalues --    1.94791   1.95008   1.97081   1.98123   2.00547
 Alpha virt. eigenvalues --    2.08231   2.10135   2.10552   2.11469   2.12229
 Alpha virt. eigenvalues --    2.13818   2.21921   2.22316   2.22787   2.23126
 Alpha virt. eigenvalues --    2.24097   2.25000   2.25534   2.26455   2.27647
 Alpha virt. eigenvalues --    2.27651   2.29310   2.31616   2.33203   2.34103
 Alpha virt. eigenvalues --    2.34262   2.37702   2.39667   2.40561   2.40923
 Alpha virt. eigenvalues --    2.42164   2.42238   2.44718   2.45112   2.46536
 Alpha virt. eigenvalues --    2.49468   2.52011   2.52150   2.54489   2.56919
 Alpha virt. eigenvalues --    2.57369   2.60346   2.62006   2.63261   2.65110
 Alpha virt. eigenvalues --    2.65670   2.69033   2.69467   2.70681   2.72879
 Alpha virt. eigenvalues --    2.73678   2.75215   2.77570   2.81787   2.82435
 Alpha virt. eigenvalues --    2.83135   2.83988   2.87125   2.89510   2.95772
 Alpha virt. eigenvalues --    2.98758   3.04905   3.06193   3.09477   3.11061
 Alpha virt. eigenvalues --    3.11915   3.12887   3.13704   3.15028   3.18709
 Alpha virt. eigenvalues --    3.22268   3.22966   3.27191   3.32987   3.42284
 Alpha virt. eigenvalues --    3.49738   3.50211   3.52726   3.64173   3.69706
 Alpha virt. eigenvalues --    3.76403   3.85619   3.87856   3.91223   4.06625
 Alpha virt. eigenvalues --    4.11912   4.29396   4.79721   4.81645   9.72785
 Alpha virt. eigenvalues --    9.76462   9.77943   9.79821   9.80424   9.81040
 Alpha virt. eigenvalues --    9.84121  23.27020  23.51877  23.76393  23.80643
 Alpha virt. eigenvalues --   23.88493  23.89183  23.91505  23.93384  23.97083
 Alpha virt. eigenvalues --   24.02655  24.07676  24.15399  25.76171  25.78380
 Alpha virt. eigenvalues --   25.78638  25.85105  25.86181  25.87346  25.95045
 Alpha virt. eigenvalues --   26.07571  26.08484  26.10281  26.18699  26.19551
 Alpha virt. eigenvalues --   26.27217  26.35137  26.44301  26.52573  26.53497
 Alpha virt. eigenvalues --   26.74762  26.75304  26.78692  27.09086 215.71792
 Alpha virt. eigenvalues --  215.75566 215.77413 215.79365 215.80313 215.81081
 Alpha virt. eigenvalues --  215.84913
          Condensed to atoms (all electrons):
               1          2          3          4          5          6
     1  C   42.878300   3.971585  -3.977292  -3.975292 -12.715882  10.854788
     2  C    3.971585  30.999734  -5.417345   1.816896  -6.007092  -5.149323
     3  C   -3.977292  -5.417345  36.680932  -8.890372  -2.366979 -19.989483
     4  C   -3.975292   1.816896  -8.890372  35.934408  -5.525659  -5.053062
     5  C  -12.715882  -6.007092  -2.366979  -5.525659  47.553677 -32.227025
     6  C   10.854788  -5.149323 -19.989483  -5.053062 -32.227025  88.189822
     7  C   -2.620123  -5.481552   6.908718  -4.965449  12.371585 -20.183256
     8  C   -6.897509  -3.354723   1.219654  -1.041289   2.051067  -3.673325
     9  C   -5.042713  -0.883130   0.482192  -0.148223   0.124539  -0.628873
    10  C   -2.921823  -0.661167   0.029937  -0.133582   0.030380  -0.127322
    11  C   -5.036790  -0.884161   0.481910  -0.147859   0.122223  -0.623413
    12  C   -6.928295  -3.366693   1.223501  -1.044316   2.064055  -3.686762
    13  H    0.015596   0.158986   0.010386  -0.076152   0.006349  -0.038434
    14  H    0.034793  -0.033091   0.246061   0.076134   0.051223  -0.022471
    15  H    0.009817  -0.015244   0.030979  -0.016923   0.191391  -0.189525
    16  Cl  -0.501458   0.331677   0.188322   0.000206   0.471498  -0.342428
    17  Cl  -0.234673  -0.031677   0.012461  -0.006989   0.032348  -0.043645
    18  Cl  -0.308581   0.253408   0.831429   0.025471  -1.385188  -0.060073
    19  Cl  -0.299742  -0.036066   0.005425  -0.004157   0.013044  -0.027805
    20  Cl  -0.332515   0.362398  -0.756709  -1.264705   0.230024   1.260444
    21  Cl  -0.234700  -0.031561   0.012471  -0.006988   0.032304  -0.043731
    22  Cl  -0.500364   0.330029   0.189255   0.000178   0.470368  -0.339856
               7          8          9         10         11         12
     1  C   -2.620123  -6.897509  -5.042713  -2.921823  -5.036790  -6.928295
     2  C   -5.481552  -3.354723  -0.883130  -0.661167  -0.884161  -3.366693
     3  C    6.908718   1.219654   0.482192   0.029937   0.481910   1.223501
     4  C   -4.965449  -1.041289  -0.148223  -0.133582  -0.147859  -1.044316
     5  C   12.371585   2.051067   0.124539   0.030380   0.122223   2.064055
     6  C  -20.183256  -3.673325  -0.628873  -0.127322  -0.623413  -3.686762
     7  C   34.644796  -1.476579  -7.271567   4.755225  -7.275194  -1.474602
     8  C   -1.476579  19.069312  -5.184020  -5.923380  10.062137   3.522135
     9  C   -7.271567  -5.184020  29.799040  -3.174252 -12.210776  10.066226
    10  C    4.755225  -5.923380  -3.174252  24.040514  -3.178429  -5.917550
    11  C   -7.275194  10.062137 -12.210776  -3.178429  29.795015  -5.177307
    12  C   -1.474602   3.522135  10.066226  -5.917550  -5.177307  19.089353
    13  H    0.108925   0.073827   0.008733   0.014846   0.008724   0.073932
    14  H   -0.004039   0.002959  -0.000226   0.000313  -0.000226   0.002949
    15  H    0.189074   0.075300   0.003434   0.019925   0.003380   0.075485
    16  Cl  -0.039981  -0.902501   1.626347  -0.439945  -1.614463  -0.692834
    17  Cl  -0.944951   0.718239  -0.693220  -0.583743   0.997487   0.178564
    18  Cl  -0.029274  -0.055547  -0.018136  -0.002563  -0.018129  -0.055595
    19  Cl   0.077554  -0.667848  -0.077085   1.029229  -0.076472  -0.667070
    20  Cl  -0.196128  -0.048069  -0.000192  -0.005874  -0.000181  -0.048155
    21  Cl  -0.944782   0.177674   0.997593  -0.583322  -0.693293   0.718541
    22  Cl  -0.040110  -0.693624  -1.614873  -0.440582   1.626309  -0.902675
              13         14         15         16         17         18
     1  C    0.015596   0.034793   0.009817  -0.501458  -0.234673  -0.308581
     2  C    0.158986  -0.033091  -0.015244   0.331677  -0.031677   0.253408
     3  C    0.010386   0.246061   0.030979   0.188322   0.012461   0.831429
     4  C   -0.076152   0.076134  -0.016923   0.000206  -0.006989   0.025471
     5  C    0.006349   0.051223   0.191391   0.471498   0.032348  -1.385188
     6  C   -0.038434  -0.022471  -0.189525  -0.342428  -0.043645  -0.060073
     7  C    0.108925  -0.004039   0.189074  -0.039981  -0.944951  -0.029274
     8  C    0.073827   0.002959   0.075300  -0.902501   0.718239  -0.055547
     9  C    0.008733  -0.000226   0.003434   1.626347  -0.693220  -0.018136
    10  C    0.014846   0.000313   0.019925  -0.439945  -0.583743  -0.002563
    11  C    0.008724  -0.000226   0.003380  -1.614463   0.997487  -0.018129
    12  C    0.073932   0.002949   0.075485  -0.692834   0.178564  -0.055595
    13  H    0.533919  -0.006875   0.000045  -0.010806   0.000175  -0.000169
    14  H   -0.006875   0.507764   0.000054  -0.001506  -0.000002  -0.000232
    15  H    0.000045   0.000054   0.518037  -0.011865   0.000175  -0.014830
    16  Cl  -0.010806  -0.001506  -0.011865  18.811682  -0.357577   0.001841
    17  Cl   0.000175  -0.000002   0.000175  -0.357577  17.542610   0.000060
    18  Cl  -0.000169  -0.000232  -0.014830   0.001841   0.000060  17.521007
    19  Cl   0.000290  -0.000000   0.000267  -0.022067  -0.226495   0.000091
    20  Cl  -0.002113  -0.010083  -0.002640   0.009074   0.000041  -0.199532
    21  Cl   0.000175  -0.000002   0.000175   0.034473  -0.013262   0.000060
    22  Cl  -0.010809  -0.001510  -0.011882  -0.172677   0.034472   0.001839
              19         20         21         22
     1  C   -0.299742  -0.332515  -0.234700  -0.500364
     2  C   -0.036066   0.362398  -0.031561   0.330029
     3  C    0.005425  -0.756709   0.012471   0.189255
     4  C   -0.004157  -1.264705  -0.006988   0.000178
     5  C    0.013044   0.230024   0.032304   0.470368
     6  C   -0.027805   1.260444  -0.043731  -0.339856
     7  C    0.077554  -0.196128  -0.944782  -0.040110
     8  C   -0.667848  -0.048069   0.177674  -0.693624
     9  C   -0.077085  -0.000192   0.997593  -1.614873
    10  C    1.029229  -0.005874  -0.583322  -0.440582
    11  C   -0.076472  -0.000181  -0.693293   1.626309
    12  C   -0.667070  -0.048155   0.718541  -0.902675
    13  H    0.000290  -0.002113   0.000175  -0.010809
    14  H   -0.000000  -0.010083  -0.000002  -0.001510
    15  H    0.000267  -0.002640   0.000175  -0.011882
    16  Cl  -0.022067   0.009074   0.034473  -0.172677
    17  Cl  -0.226495   0.000041  -0.013262   0.034472
    18  Cl   0.000091  -0.199532   0.000060   0.001839
    19  Cl  17.543705  -0.000005  -0.226422  -0.022092
    20  Cl  -0.000005  17.511739   0.000041   0.009077
    21  Cl  -0.226422   0.000041  17.542611  -0.357646
    22  Cl  -0.022092   0.009077  -0.357646  18.812155
 Mulliken charges:
               1
     1  C    0.762873
     2  C   -0.871890
     3  C   -1.155451
     4  C    0.447721
     5  C    0.411750
     6  C   -1.855243
     7  C   -0.108290
     8  C   -1.053888
     9  C   -0.160819
    10  C    0.173162
    11  C   -0.160491
    12  C   -1.052887
    13  H    0.130447
    14  H    0.158012
    15  H    0.145370
    16  Cl   0.634988
    17  Cl   0.619602
    18  Cl   0.512641
    19  Cl   0.683719
    20  Cl   0.484063
    21  Cl   0.619592
    22  Cl   0.635019
 Sum of Mulliken charges =  -0.00000
 Mulliken charges with hydrogens summed into heavy atoms:
               1
     1  C    0.762873
     2  C   -0.741443
     3  C   -0.997439
     4  C    0.447721
     5  C    0.411750
     6  C   -1.709873
     7  C   -0.108290
     8  C   -1.053888
     9  C   -0.160819
    10  C    0.173162
    11  C   -0.160491
    12  C   -1.052887
    16  Cl   0.634988
    17  Cl   0.619602
    18  Cl   0.512641
    19  Cl   0.683719
    20  Cl   0.484063
    21  Cl   0.619592
    22  Cl   0.635019
 Electronic spatial extent (au):  <R**2>=          10196.6093
 Charge=              0.0000 electrons
 Dipole moment (field-independent basis, Debye):
    X=              0.7573    Y=             -0.0005    Z=             -1.1784  Tot=              1.4007
 Quadrupole moment (field-independent basis, Debye-Ang):
   XX=           -166.1894   YY=           -159.3955   ZZ=           -151.5774
   XY=              0.0017   XZ=              3.8701   YZ=              0.0037
 Traceless Quadrupole moment (field-independent basis, Debye-Ang):
   XX=             -7.1353   YY=             -0.3414   ZZ=              7.4767
   XY=              0.0017   XZ=              3.8701   YZ=              0.0037
 Octapole moment (field-independent basis, Debye-Ang**2):
  XXX=             58.3989  YYY=              0.0045  ZZZ=             -3.9661  XYY=              8.2931
  XXY=             -0.0067  XXZ=             -8.6763  XZZ=             -8.3745  YZZ=             -0.0056
  YYZ=              4.0428  XYZ=             -0.0081
 Hexadecapole moment (field-independent basis, Debye-Ang**3):
 XXXX=          -9894.7375 YYYY=          -2497.7986 ZZZZ=           -825.2270 XXXY=              0.0206
 XXXZ=             33.5210 YYYX=             -0.0123 YYYZ=             -0.0408 ZZZX=              4.4640
 ZZZY=              0.0386 XXYY=          -2056.7164 XXZZ=          -1759.4703 YYZZ=           -595.3951
 XXYZ=              0.0249 YYXZ=             -3.0745 ZZXY=              0.0092
 N-N= 2.319895812428D+03 E-N=-1.336093250461D+04  KE= 3.671253910879D+03
 1\1\GINC-CN211\FOpt\RB3LYP\6-311+G(d,p)\C12H3Cl7\20CY91R06\25-Mar-2022
 \0\\# opt b3lyp/6-311+g(d,p) scf=xqc\\Title Card Required\\0,1\C,0.636
 6527335,0.053284499,0.0640771286\C,1.8887723424,0.1265550222,0.6778728
 776\C,2.5899469968,1.3252990128,0.6969307144\C,2.0520099736,2.46628626
 02,0.1044322649\C,0.7988425826,2.3981313975,-0.5112548849\C,0.09845764
 64,1.1941259303,-0.5284349359\C,-0.1248470882,-1.2323866193,0.03874185
 37\C,0.0367558382,-2.1438334592,-1.0129841186\C,-0.6699238801,-3.35275
 03034,-1.0461887365\C,-1.5584329868,-3.6608553535,-0.0068751205\C,-1.7
 354784612,-2.7631785938,1.0549046114\C,-1.0181229956,-1.5601770633,1.0
 671545023\H,2.3190475716,-0.7524486971,1.1424218764\H,3.5607984412,1.3
 868130023,1.1715189928\H,-0.8706891135,1.1584779714,-1.0093906388\Cl,-
 1.2335490101,-0.4392323904,2.3848594327\Cl,-2.8353245111,-3.1430924923
 ,2.3425077093\Cl,0.0772071958,3.7960475804,-1.2687873796\Cl,-2.4403416
 462,-5.1550688654,-0.0348335873\Cl,2.9668677356,3.9520889949,0.1511937
 302\Cl,-0.4495433083,-4.4630868932,-2.3616498079\Cl,1.1432329134,-1.75
 42319301,-2.3026480742\\Version=EM64L-G16RevB.01\State=1-A\HF=-3680.74
 09823\RMSD=3.741e-09\RMSF=7.720e-06\Dipole=0.2343046,-0.4366274,0.2411
 721\Quadrupole=4.3463215,-5.4521876,1.1058661,-2.0670284,2.9105937,0.4
 104012\PG=C01 [X(C12H3Cl7)]\\@


 THE DIFFICULTY IN SCIENCE IS OFTEN NOT SO MUCH HOW
 TO MAKE A DISCOVERY BUT RATHER TO KNOW ONE HAS MADE IT.

                                                   -- J. D. BERNAL
 Job cpu time:       0 days 13 hours 21 minutes 28.0 seconds.
 Elapsed time:       0 days 13 hours 21 minutes 28.8 seconds.
 File lengths (MBytes):  RWF=    163 Int=      0 D2E=      0 Chk=     25 Scr=      1
 Normal termination of Gaussian 16 at Fri Mar 25 14:16:29 2022.
