 Entering Gaussian System, Link 0=g16
 Input=2,3,4,4prime,6-Pentachlorobiphenyl.gjf
 Output=2,3,4,4prime,6-Pentachlorobiphenyl.log
 Initial command:
 /usr/local/g16/l1.exe "/scratch/pkc/Gau-80780.inp" -scrdir="/scratch/pkc/"
 Entering Link 1 = /usr/local/g16/l1.exe PID=     80781.
  
 Copyright (c) 1988-2017, Gaussian, Inc.  All Rights Reserved.
  
 This is part of the Gaussian(R) 16 program.  It is based on
 the Gaussian(R) 09 system (copyright 2009, Gaussian, Inc.),
 the Gaussian(R) 03 system (copyright 2003, Gaussian, Inc.),
 the Gaussian(R) 98 system (copyright 1998, Gaussian, Inc.),
 the Gaussian(R) 94 system (copyright 1995, Gaussian, Inc.),
 the Gaussian 92(TM) system (copyright 1992, Gaussian, Inc.),
 the Gaussian 90(TM) system (copyright 1990, Gaussian, Inc.),
 the Gaussian 88(TM) system (copyright 1988, Gaussian, Inc.),
 the Gaussian 86(TM) system (copyright 1986, Carnegie Mellon
 University), and the Gaussian 82(TM) system (copyright 1983,
 Carnegie Mellon University). Gaussian is a federally registered
 trademark of Gaussian, Inc.
  
 This software contains proprietary and confidential information,
 including trade secrets, belonging to Gaussian, Inc.
  
 This software is provided under written license and may be
 used, copied, transmitted, or stored only in accord with that
 written license.
  
 The following legend is applicable only to US Government
 contracts under FAR:
  
                    RESTRICTED RIGHTS LEGEND
  
 Use, reproduction and disclosure by the US Government is
 subject to restrictions as set forth in subparagraphs (a)
 and (c) of the Commercial Computer Software - Restricted
 Rights clause in FAR 52.227-19.
  
 Gaussian, Inc.
 340 Quinnipiac St., Bldg. 40, Wallingford CT 06492
  
  
 ---------------------------------------------------------------
 Warning -- This program may not be used in any manner that
 competes with the business of Gaussian, Inc. or will provide
 assistance to any competitor of Gaussian, Inc.  The licensee
 of this program is prohibited from giving any competitor of
 Gaussian, Inc. access to this program.  By using this program,
 the user acknowledges that Gaussian, Inc. is engaged in the
 business of creating and licensing software in the field of
 computational chemistry and represents and warrants to the
 licensee that it is not a competitor of Gaussian, Inc. and that
 it will not use this program in any manner prohibited above.
 ---------------------------------------------------------------
  

 Cite this work as:
 Gaussian 16, Revision B.01,
 M. J. Frisch, G. W. Trucks, H. B. Schlegel, G. E. Scuseria, 
 M. A. Robb, J. R. Cheeseman, G. Scalmani, V. Barone, 
 G. A. Petersson, H. Nakatsuji, X. Li, M. Caricato, A. V. Marenich, 
 J. Bloino, B. G. Janesko, R. Gomperts, B. Mennucci, H. P. Hratchian, 
 J. V. Ortiz, A. F. Izmaylov, J. L. Sonnenberg, D. Williams-Young, 
 F. Ding, F. Lipparini, F. Egidi, J. Goings, B. Peng, A. Petrone, 
 T. Henderson, D. Ranasinghe, V. G. Zakrzewski, J. Gao, N. Rega, 
 G. Zheng, W. Liang, M. Hada, M. Ehara, K. Toyota, R. Fukuda, 
 J. Hasegawa, M. Ishida, T. Nakajima, Y. Honda, O. Kitao, H. Nakai, 
 T. Vreven, K. Throssell, J. A. Montgomery, Jr., J. E. Peralta, 
 F. Ogliaro, M. J. Bearpark, J. J. Heyd, E. N. Brothers, K. N. Kudin, 
 V. N. Staroverov, T. A. Keith, R. Kobayashi, J. Normand, 
 K. Raghavachari, A. P. Rendell, J. C. Burant, S. S. Iyengar, 
 J. Tomasi, M. Cossi, J. M. Millam, M. Klene, C. Adamo, R. Cammi, 
 J. W. Ochterski, R. L. Martin, K. Morokuma, O. Farkas, 
 J. B. Foresman, and D. J. Fox, Gaussian, Inc., Wallingford CT, 2016.
 
 ******************************************
 Gaussian 16:  EM64L-G16RevB.01 20-Dec-2017
                16-Mar-2022 
 ******************************************
 %mem=10GB
 %nprocshared=4
 Will use up to    4 processors via shared memory.
 --------------------------------
 # opt b3lyp/6-311+g(d,p) scf=xqc
 --------------------------------
 1/18=20,19=15,26=3,38=1/1,3;
 2/9=110,12=2,17=6,18=5,40=1/2;
 3/5=4,6=6,7=111,11=2,25=1,30=1,71=1,74=-5/1,2,3;
 4//1;
 5/5=2,8=3,13=1,38=5/2,8;
 6/7=2,8=2,9=2,10=2,28=1/1;
 7//1,2,3,16;
 1/18=20,19=15,26=3/3(2);
 2/9=110/2;
 99//99;
 2/9=110/2;
 3/5=4,6=6,7=111,11=2,25=1,30=1,71=1,74=-5/1,2,3;
 4/5=5,16=3,69=1/1;
 5/5=2,8=3,13=1,38=5/2,8;
 7//1,2,3,16;
 1/18=20,19=15,26=3/3(-5);
 2/9=110/2;
 6/7=2,8=2,9=2,10=2,19=2,28=1/1;
 99/9=1/99;
 -------------------
 Title Card Required
 -------------------
 Symbolic Z-matrix:
 Charge =  0 Multiplicity = 1
 C                     0.9531   -0.64314   0.04715 
 C                     2.28548  -0.61325  -0.3862 
 C                     2.99337   0.5962   -0.39227 
 C                     2.36889   1.77577   0.03501 
 C                     1.0365    1.74588   0.46835 
 C                     0.32861   0.53643   0.47442 
 C                     0.17519  -1.9722    0.05383 
 C                     0.79968  -3.15177  -0.37345 
 C                     0.09179  -4.36122  -0.36738 
 C                    -1.24059  -4.39111   0.06597 
 C                    -1.86508  -3.21154   0.49325 
 C                    -1.15719  -2.00209   0.48718 
 H                     2.76229  -1.51387  -0.71243 
 H                     4.01068   0.61902  -0.72314 
 H                     0.55969   2.64651   0.79458 
 H                    -0.68869   0.51361   0.80529 
 H                     0.5686   -5.26184  -0.69361 
 Cl                   -1.94147  -0.52069   1.02379 
 Cl                   -3.5384   -3.24908   1.03749 
 Cl                   -2.12962  -5.91004   0.07361 
 Cl                    3.25792   3.2947    0.02738 
 Cl                    2.473    -3.11423  -0.91768 
 

 GradGradGradGradGradGradGradGradGradGradGradGradGradGradGradGradGradGrad
 Berny optimization.
 Initialization pass.
                           ----------------------------
                           !    Initial Parameters    !
                           ! (Angstroms and Degrees)  !
 --------------------------                            --------------------------
 ! Name  Definition              Value          Derivative Info.                !
 --------------------------------------------------------------------------------
 ! R1    R(1,2)                  1.4014         estimate D2E/DX2                !
 ! R2    R(1,6)                  1.4014         estimate D2E/DX2                !
 ! R3    R(1,7)                  1.54           estimate D2E/DX2                !
 ! R4    R(2,3)                  1.4014         estimate D2E/DX2                !
 ! R5    R(2,13)                 1.07           estimate D2E/DX2                !
 ! R6    R(3,4)                  1.4014         estimate D2E/DX2                !
 ! R7    R(3,14)                 1.07           estimate D2E/DX2                !
 ! R8    R(4,5)                  1.4014         estimate D2E/DX2                !
 ! R9    R(4,21)                 1.76           estimate D2E/DX2                !
 ! R10   R(5,6)                  1.4014         estimate D2E/DX2                !
 ! R11   R(5,15)                 1.07           estimate D2E/DX2                !
 ! R12   R(6,16)                 1.07           estimate D2E/DX2                !
 ! R13   R(7,8)                  1.4014         estimate D2E/DX2                !
 ! R14   R(7,12)                 1.4014         estimate D2E/DX2                !
 ! R15   R(8,9)                  1.4014         estimate D2E/DX2                !
 ! R16   R(8,22)                 1.76           estimate D2E/DX2                !
 ! R17   R(9,10)                 1.4014         estimate D2E/DX2                !
 ! R18   R(9,17)                 1.07           estimate D2E/DX2                !
 ! R19   R(10,11)                1.4014         estimate D2E/DX2                !
 ! R20   R(10,20)                1.76           estimate D2E/DX2                !
 ! R21   R(11,12)                1.4014         estimate D2E/DX2                !
 ! R22   R(11,19)                1.76           estimate D2E/DX2                !
 ! R23   R(12,18)                1.76           estimate D2E/DX2                !
 ! A1    A(2,1,6)              120.0            estimate D2E/DX2                !
 ! A2    A(2,1,7)              120.0            estimate D2E/DX2                !
 ! A3    A(6,1,7)              120.0            estimate D2E/DX2                !
 ! A4    A(1,2,3)              120.0            estimate D2E/DX2                !
 ! A5    A(1,2,13)             120.0            estimate D2E/DX2                !
 ! A6    A(3,2,13)             120.0            estimate D2E/DX2                !
 ! A7    A(2,3,4)              120.0            estimate D2E/DX2                !
 ! A8    A(2,3,14)             120.0            estimate D2E/DX2                !
 ! A9    A(4,3,14)             120.0            estimate D2E/DX2                !
 ! A10   A(3,4,5)              120.0            estimate D2E/DX2                !
 ! A11   A(3,4,21)             120.0            estimate D2E/DX2                !
 ! A12   A(5,4,21)             120.0            estimate D2E/DX2                !
 ! A13   A(4,5,6)              120.0            estimate D2E/DX2                !
 ! A14   A(4,5,15)             120.0            estimate D2E/DX2                !
 ! A15   A(6,5,15)             120.0            estimate D2E/DX2                !
 ! A16   A(1,6,5)              120.0            estimate D2E/DX2                !
 ! A17   A(1,6,16)             120.0            estimate D2E/DX2                !
 ! A18   A(5,6,16)             120.0            estimate D2E/DX2                !
 ! A19   A(1,7,8)              120.0            estimate D2E/DX2                !
 ! A20   A(1,7,12)             120.0            estimate D2E/DX2                !
 ! A21   A(8,7,12)             120.0            estimate D2E/DX2                !
 ! A22   A(7,8,9)              120.0            estimate D2E/DX2                !
 ! A23   A(7,8,22)             120.0            estimate D2E/DX2                !
 ! A24   A(9,8,22)             120.0            estimate D2E/DX2                !
 ! A25   A(8,9,10)             120.0            estimate D2E/DX2                !
 ! A26   A(8,9,17)             120.0            estimate D2E/DX2                !
 ! A27   A(10,9,17)            120.0            estimate D2E/DX2                !
 ! A28   A(9,10,11)            120.0            estimate D2E/DX2                !
 ! A29   A(9,10,20)            120.0            estimate D2E/DX2                !
 ! A30   A(11,10,20)           120.0            estimate D2E/DX2                !
 ! A31   A(10,11,12)           120.0            estimate D2E/DX2                !
 ! A32   A(10,11,19)           120.0            estimate D2E/DX2                !
 ! A33   A(12,11,19)           120.0            estimate D2E/DX2                !
 ! A34   A(7,12,11)            120.0            estimate D2E/DX2                !
 ! A35   A(7,12,18)            120.0            estimate D2E/DX2                !
 ! A36   A(11,12,18)           120.0            estimate D2E/DX2                !
 ! D1    D(6,1,2,3)              0.0001         estimate D2E/DX2                !
 ! D2    D(6,1,2,13)           180.0            estimate D2E/DX2                !
 ! D3    D(7,1,2,3)           -180.0            estimate D2E/DX2                !
 ! D4    D(7,1,2,13)            -0.0001         estimate D2E/DX2                !
 ! D5    D(2,1,6,5)             -0.0001         estimate D2E/DX2                !
 ! D6    D(2,1,6,16)           180.0            estimate D2E/DX2                !
 ! D7    D(7,1,6,5)            180.0            estimate D2E/DX2                !
 ! D8    D(7,1,6,16)             0.0            estimate D2E/DX2                !
 ! D9    D(2,1,7,8)             -0.0001         estimate D2E/DX2                !
 ! D10   D(2,1,7,12)           179.9998         estimate D2E/DX2                !
 ! D11   D(6,1,7,8)            179.9999         estimate D2E/DX2                !
 ! D12   D(6,1,7,12)            -0.0002         estimate D2E/DX2                !
 ! D13   D(1,2,3,4)              0.0            estimate D2E/DX2                !
 ! D14   D(1,2,3,14)           180.0            estimate D2E/DX2                !
 ! D15   D(13,2,3,4)          -179.9999         estimate D2E/DX2                !
 ! D16   D(13,2,3,14)            0.0001         estimate D2E/DX2                !
 ! D17   D(2,3,4,5)             -0.0001         estimate D2E/DX2                !
 ! D18   D(2,3,4,21)           180.0            estimate D2E/DX2                !
 ! D19   D(14,3,4,5)           179.9999         estimate D2E/DX2                !
 ! D20   D(14,3,4,21)            0.0            estimate D2E/DX2                !
 ! D21   D(3,4,5,6)              0.0001         estimate D2E/DX2                !
 ! D22   D(3,4,5,15)          -179.9999         estimate D2E/DX2                !
 ! D23   D(21,4,5,6)          -180.0            estimate D2E/DX2                !
 ! D24   D(21,4,5,15)            0.0            estimate D2E/DX2                !
 ! D25   D(4,5,6,1)              0.0            estimate D2E/DX2                !
 ! D26   D(4,5,6,16)           179.9999         estimate D2E/DX2                !
 ! D27   D(15,5,6,1)           180.0            estimate D2E/DX2                !
 ! D28   D(15,5,6,16)           -0.0001         estimate D2E/DX2                !
 ! D29   D(1,7,8,9)            179.9999         estimate D2E/DX2                !
 ! D30   D(1,7,8,22)             0.0001         estimate D2E/DX2                !
 ! D31   D(12,7,8,9)             0.0001         estimate D2E/DX2                !
 ! D32   D(12,7,8,22)         -179.9998         estimate D2E/DX2                !
 ! D33   D(1,7,12,11)         -179.9999         estimate D2E/DX2                !
 ! D34   D(1,7,12,18)            0.0            estimate D2E/DX2                !
 ! D35   D(8,7,12,11)           -0.0001         estimate D2E/DX2                !
 ! D36   D(8,7,12,18)          179.9999         estimate D2E/DX2                !
 ! D37   D(7,8,9,10)             0.0            estimate D2E/DX2                !
 ! D38   D(7,8,9,17)           180.0            estimate D2E/DX2                !
 ! D39   D(22,8,9,10)          179.9998         estimate D2E/DX2                !
 ! D40   D(22,8,9,17)           -0.0002         estimate D2E/DX2                !
 ! D41   D(8,9,10,11)            0.0            estimate D2E/DX2                !
 ! D42   D(8,9,10,20)         -179.9999         estimate D2E/DX2                !
 ! D43   D(17,9,10,11)         180.0            estimate D2E/DX2                !
 ! D44   D(17,9,10,20)           0.0001         estimate D2E/DX2                !
 ! D45   D(9,10,11,12)           0.0            estimate D2E/DX2                !
 ! D46   D(9,10,11,19)        -179.9998         estimate D2E/DX2                !
 ! D47   D(20,10,11,12)        179.9999         estimate D2E/DX2                !
 ! D48   D(20,10,11,19)          0.0001         estimate D2E/DX2                !
 ! D49   D(10,11,12,7)           0.0            estimate D2E/DX2                !
 ! D50   D(10,11,12,18)       -179.9999         estimate D2E/DX2                !
 ! D51   D(19,11,12,7)         179.9999         estimate D2E/DX2                !
 ! D52   D(19,11,12,18)         -0.0001         estimate D2E/DX2                !
 --------------------------------------------------------------------------------
 Trust Radius=3.00D-01 FncErr=1.00D-07 GrdErr=1.00D-06 EigMax=2.50D+02 EigMin=1.00D-04
 Number of steps in this run=    121 maximum allowed number of steps=    132.
 GradGradGradGradGradGradGradGradGradGradGradGradGradGradGradGradGradGrad

                          Input orientation:                          
 ---------------------------------------------------------------------
 Center     Atomic      Atomic             Coordinates (Angstroms)
 Number     Number       Type             X           Y           Z
 ---------------------------------------------------------------------
      1          6           0        0.953099   -0.643136    0.047151
      2          6           0        2.285480   -0.613250   -0.386195
      3          6           0        2.993374    0.596201   -0.392268
      4          6           0        2.368886    1.775766    0.035007
      5          6           0        1.036505    1.745881    0.468352
      6          6           0        0.328611    0.536430    0.474424
      7          6           0        0.175194   -1.972203    0.053825
      8          6           0        0.799682   -3.151768   -0.373450
      9          6           0        0.091789   -4.361219   -0.367375
     10          6           0       -1.240591   -4.391106    0.065974
     11          6           0       -1.865079   -3.211541    0.493250
     12          6           0       -1.157186   -2.002089    0.487176
     13          1           0        2.762291   -1.513874   -0.712427
     14          1           0        4.010676    0.619020   -0.723137
     15          1           0        0.559694    2.646505    0.794584
     16          1           0       -0.688692    0.513611    0.805294
     17          1           0        0.568599   -5.261843   -0.693609
     18         17           0       -1.941470   -0.520689    1.023787
     19         17           0       -3.538396   -3.249075    1.037492
     20         17           0       -2.129624   -5.910040    0.073606
     21         17           0        3.257921    3.294700    0.027382
     22         17           0        2.473002   -3.114235   -0.917684
 ---------------------------------------------------------------------
                    Distance matrix (angstroms):
                    1          2          3          4          5
     1  C    0.000000
     2  C    1.401400   0.000000
     3  C    2.427296   1.401400   0.000000
     4  C    2.802800   2.427296   1.401400   0.000000
     5  C    2.427296   2.802800   2.427296   1.401400   0.000000
     6  C    1.401400   2.427296   2.802800   2.427296   1.401400
     7  C    1.540000   2.548270   3.838989   4.342800   3.838989
     8  C    2.548270   2.941400   4.342800   5.187469   4.975106
     9  C    3.838989   4.342800   5.744200   6.558176   6.235992
    10  C    4.342800   5.187469   6.558176   7.145600   6.558176
    11  C    3.838989   4.975106   6.235992   6.558176   5.744200
    12  C    2.548270   3.813607   4.975106   5.187469   4.342800
    13  H    2.146700   1.070000   2.146700   3.396345   3.872800
    14  H    3.396345   2.146700   1.070000   2.146700   3.396345
    15  H    3.396345   3.872800   3.396345   2.146700   1.070000
    16  H    2.146700   3.396345   3.872800   3.396345   2.146700
    17  H    4.693509   4.965039   6.347206   7.300676   7.118798
    18  Cl   3.057342   4.456874   5.254079   4.983028   3.783409
    19  Cl   5.286324   6.549198   7.713260   7.819846   6.797295
    20  Cl   6.102800   6.910901   8.294174   8.905600   8.294174
    21  Cl   4.562800   4.048303   2.743718   1.760000   2.743718
    22  Cl   3.057342   2.563702   3.783409   4.983028   5.254079
                    6          7          8          9         10
     6  C    0.000000
     7  C    2.548270   0.000000
     8  C    3.813607   1.401400   0.000000
     9  C    4.975106   2.427296   1.401400   0.000000
    10  C    5.187469   2.802800   2.427296   1.401400   0.000000
    11  C    4.342800   2.427296   2.802800   2.427296   1.401400
    12  C    2.941400   1.401400   2.427296   2.802800   2.427296
    13  H    3.396345   2.736837   2.578650   3.918930   4.990735
    14  H    3.872800   4.693509   4.965039   6.347206   7.300676
    15  H    2.146700   4.693509   5.919617   7.118798   7.300676
    16  H    1.070000   2.736837   4.127917   5.074276   4.990735
    17  H    5.919617   3.396345   2.146700   1.070000   2.146700
    18  Cl   2.563702   2.743718   4.048303   4.562800   4.048303
    19  Cl   5.440665   4.048303   4.562800   4.048303   2.743718
    20  Cl   6.910901   4.562800   4.048303   2.743718   1.760000
    21  Cl   4.048303   6.102800   6.910901   8.294174   8.905600
    22  Cl   4.456874   2.743718   1.760000   2.743718   4.048303
                   11         12         13         14         15
    11  C    0.000000
    12  C    1.401400   0.000000
    13  H    5.074276   4.127917   0.000000
    14  H    7.118798   5.919617   2.471400   0.000000
    15  H    6.347206   4.965039   4.942800   4.280590   0.000000
    16  H    3.918930   2.578650   4.280590   4.942800   2.471400
    17  H    3.396345   3.872800   4.342800   6.814200   8.047159
    18  Cl   2.743718   1.760000   5.111382   6.307038   4.042212
    19  Cl   1.760000   2.743718   6.765486   8.663168   7.184095
    20  Cl   2.743718   4.048303   6.623817   8.998151   8.998151
    21  Cl   8.294174   6.910901   4.890332   2.879094   2.879094
    22  Cl   4.562800   4.048303   1.639199   4.042212   6.307038
                   16         17         18         19         20
    16  H    0.000000
    17  H    6.097816   0.000000
    18  Cl   1.639199   5.632800   0.000000
    19  Cl   4.725732   4.890332   3.161400   0.000000
    20  Cl   6.623817   2.879094   5.475705   3.161400   0.000000
    21  Cl   4.890332   8.998151   6.525618   9.488480  10.665600
    22  Cl   5.111382   2.879094   5.475705   6.322800   5.475705
                   21         22
    21  Cl   0.000000
    22  Cl   6.525618   0.000000
 Stoichiometry    C12H5Cl5
 Framework group  C1[X(C12H5Cl5)]
 Deg. of freedom    60
 Full point group                 C1      NOp   1
 Largest Abelian subgroup         C1      NOp   1
 Largest concise Abelian subgroup C1      NOp   1
                         Standard orientation:                         
 ---------------------------------------------------------------------
 Center     Atomic      Atomic             Coordinates (Angstroms)
 Number     Number       Type             X           Y           Z
 ---------------------------------------------------------------------
      1          6           0        1.279256    0.118244    0.000003
      2          6           0        2.123378    1.236895    0.000000
      3          6           0        3.514220    1.065189   -0.000002
      4          6           0        4.060938   -0.225168   -0.000001
      5          6           0        3.216816   -1.343818    0.000004
      6          6           0        1.825975   -1.172112    0.000005
      7          6           0       -0.249141    0.306932    0.000004
      8          6           0       -0.795860    1.597289    0.000003
      9          6           0       -2.186701    1.768995    0.000002
     10          6           0       -3.030823    0.650344    0.000002
     11          6           0       -2.484104   -0.640012    0.000002
     12          6           0       -1.093263   -0.811718    0.000002
     13          1           0        1.705947    2.222111   -0.000003
     14          1           0        4.158726    1.919304   -0.000004
     15          1           0        3.634248   -2.329034    0.000007
     16          1           0        1.181469   -2.026227    0.000008
     17          1           0       -2.604133    2.754211    0.000002
     18         17           0       -0.406646   -2.432261    0.000000
     19         17           0       -3.544226   -2.044911   -0.000003
     20         17           0       -4.777562    0.865988   -0.000002
     21         17           0        5.807678   -0.440811   -0.000003
     22         17           0        0.264263    3.002188   -0.000001
 ---------------------------------------------------------------------
 Rotational constants (GHZ):           0.5708741           0.1524481           0.1203180
 Standard basis: 6-311+G(d,p) (5D, 7F)
 There are   461 symmetry adapted cartesian basis functions of A   symmetry.
 There are   444 symmetry adapted basis functions of A   symmetry.
   444 basis functions,   737 primitive gaussians,   461 cartesian basis functions
    81 alpha electrons       81 beta electrons
       nuclear repulsion energy      1717.9215073055 Hartrees.
 NAtoms=   22 NActive=   22 NUniq=   22 SFac= 1.00D+00 NAtFMM=   60 NAOKFM=F Big=F
 Integral buffers will be    131072 words long.
 Raffenetti 2 integral format.
 Two-electron integral symmetry is turned on.
 One-electron integrals computed using PRISM.
 NBasis=   444 RedAO= T EigKep=  1.21D-06  NBF=   444
 NBsUse=   438 1.00D-06 EigRej=  6.18D-07 NBFU=   438
 ExpMin= 4.38D-02 ExpMax= 1.06D+05 ExpMxC= 3.62D+03 IAcc=3 IRadAn=         5 AccDes= 0.00D+00
 Harris functional with IExCor=  402 and IRadAn=       5 diagonalized for initial guess.
 HarFok:  IExCor=  402 AccDes= 0.00D+00 IRadAn=         5 IDoV= 1 UseB2=F ITyADJ=14
 ICtDFT=  3500011 ScaDFX=  1.000000  1.000000  1.000000  1.000000
 FoFCou: FMM=F IPFlag=           0 FMFlag=      100000 FMFlg1=           0
         NFxFlg=           0 DoJE=T BraDBF=F KetDBF=T FulRan=T
         wScrn=  0.000000 ICntrl=       500 IOpCl=  0 I1Cent=   200000004 NGrid=           0
         NMat0=    1 NMatS0=      1 NMatT0=    0 NMatD0=    1 NMtDS0=    0 NMtDT0=    0
 Petite list used in FoFCou.
 Requested convergence on RMS density matrix=1.00D-08 within  32 cycles.
 Requested convergence on MAX density matrix=1.00D-06.
 Requested convergence on             energy=1.00D-06.
 No special actions if energy rises.
 SCF Done:  E(RB3LYP) =  -2761.39576779     A.U. after   16 cycles
            NFock= 16  Conv=0.66D-08     -V/T= 2.0025
 QCSCF skips out because SCF is already converged.

 **********************************************************************

            Population analysis using the SCF Density.

 **********************************************************************

 Orbital symmetries:
       Occupied  (A) (A) (A) (A) (A) (A) (A) (A) (A) (A) (A) (A)
                 (A) (A) (A) (A) (A) (A) (A) (A) (A) (A) (A) (A)
                 (A) (A) (A) (A) (A) (A) (A) (A) (A) (A) (A) (A)
                 (A) (A) (A) (A) (A) (A) (A) (A) (A) (A) (A) (A)
                 (A) (A) (A) (A) (A) (A) (A) (A) (A) (A) (A) (A)
                 (A) (A) (A) (A) (A) (A) (A) (A) (A) (A) (A) (A)
                 (A) (A) (A) (A) (A) (A) (A) (A) (A)
       Virtual   (A) (A) (A) (A) (A) (A) (A) (A) (A) (A) (A) (A)
                 (A) (A) (A) (A) (A) (A) (A) (A) (A) (A) (A) (A)
                 (A) (A) (A) (A) (A) (A) (A) (A) (A) (A) (A) (A)
                 (A) (A) (A) (A) (A) (A) (A) (A) (A) (A) (A) (A)
                 (A) (A) (A) (A) (A) (A) (A) (A) (A) (A) (A) (A)
                 (A) (A) (A) (A) (A) (A) (A) (A) (A) (A) (A) (A)
                 (A) (A) (A) (A) (A) (A) (A) (A) (A) (A) (A) (A)
                 (A) (A) (A) (A) (A) (A) (A) (A) (A) (A) (A) (A)
                 (A) (A) (A) (A) (A) (A) (A) (A) (A) (A) (A) (A)
                 (A) (A) (A) (A) (A) (A) (A) (A) (A) (A) (A) (A)
                 (A) (A) (A) (A) (A) (A) (A) (A) (A) (A) (A) (A)
                 (A) (A) (A) (A) (A) (A) (A) (A) (A) (A) (A) (A)
                 (A) (A) (A) (A) (A) (A) (A) (A) (A) (A) (A) (A)
                 (A) (A) (A) (A) (A) (A) (A) (A) (A) (A) (A) (A)
                 (A) (A) (A) (A) (A) (A) (A) (A) (A) (A) (A) (A)
                 (A) (A) (A) (A) (A) (A) (A) (A) (A) (A) (A) (A)
                 (A) (A) (A) (A) (A) (A) (A) (A) (A) (A) (A) (A)
                 (A) (A) (A) (A) (A) (A) (A) (A) (A) (A) (A) (A)
                 (A) (A) (A) (A) (A) (A) (A) (A) (A) (A) (A) (A)
                 (A) (A) (A) (A) (A) (A) (A) (A) (A) (A) (A) (A)
                 (A) (A) (A) (A) (A) (A) (A) (A) (A) (A) (A) (A)
                 (A) (A) (A) (A) (A) (A) (A) (A) (A) (A) (A) (A)
                 (A) (A) (A) (A) (A) (A) (A) (A) (A) (A) (A) (A)
                 (A) (A) (A) (A) (A) (A) (A) (A) (A) (A) (A) (A)
                 (A) (A) (A) (A) (A) (A) (A) (A) (A) (A) (A) (A)
                 (A) (A) (A) (A) (A) (A) (A) (A) (A) (A) (A) (A)
                 (A) (A) (A) (A) (A) (A) (A) (A) (A) (A) (A) (A)
                 (A) (A) (A) (A) (A) (A) (A) (A) (A) (A) (A) (A)
                 (A) (A) (A) (A) (A) (A) (A) (A) (A) (A) (A) (A)
                 (A) (A) (A) (A) (A) (A) (A) (A) (A)
 The electronic state is 1-A.
 Alpha  occ. eigenvalues -- -101.58717-101.58637-101.58339-101.58140-101.55782
 Alpha  occ. eigenvalues --  -10.28765 -10.28651 -10.28413 -10.28323 -10.24712
 Alpha  occ. eigenvalues --  -10.24617 -10.23324 -10.21335 -10.19263 -10.19234
 Alpha  occ. eigenvalues --  -10.17648 -10.17566  -9.50486  -9.50412  -9.49749
 Alpha  occ. eigenvalues --   -9.49563  -9.47229  -7.26904  -7.26846  -7.26259
 Alpha  occ. eigenvalues --   -7.26076  -7.25931  -7.25916  -7.25861  -7.25816
 Alpha  occ. eigenvalues --   -7.25220  -7.25165  -7.25045  -7.24960  -7.23681
 Alpha  occ. eigenvalues --   -7.22722  -7.22680  -0.96486  -0.92762  -0.91731
 Alpha  occ. eigenvalues --   -0.89506  -0.87654  -0.85320  -0.84669  -0.78941
 Alpha  occ. eigenvalues --   -0.77200  -0.75924  -0.73651  -0.65528  -0.64464
 Alpha  occ. eigenvalues --   -0.63736  -0.61301  -0.54799  -0.54689  -0.53790
 Alpha  occ. eigenvalues --   -0.49690  -0.49516  -0.49046  -0.47641  -0.46754
 Alpha  occ. eigenvalues --   -0.46187  -0.45945  -0.42897  -0.42563  -0.41489
 Alpha  occ. eigenvalues --   -0.40557  -0.39676  -0.39387  -0.39350  -0.36305
 Alpha  occ. eigenvalues --   -0.35647  -0.34877  -0.33941  -0.33327  -0.32435
 Alpha  occ. eigenvalues --   -0.30119  -0.29519  -0.28219  -0.28171  -0.26906
 Alpha  occ. eigenvalues --   -0.24770
 Alpha virt. eigenvalues --   -0.07514  -0.06743  -0.06156  -0.03119  -0.01881
 Alpha virt. eigenvalues --   -0.01332  -0.00776  -0.00218   0.01199   0.01369
 Alpha virt. eigenvalues --    0.01590   0.01925   0.03016   0.03876   0.04045
 Alpha virt. eigenvalues --    0.04924   0.05813   0.05953   0.05977   0.06227
 Alpha virt. eigenvalues --    0.06517   0.07250   0.07818   0.07983   0.08487
 Alpha virt. eigenvalues --    0.08934   0.09149   0.09182   0.09774   0.10658
 Alpha virt. eigenvalues --    0.10747   0.10941   0.12104   0.12430   0.12643
 Alpha virt. eigenvalues --    0.13101   0.13134   0.13544   0.13976   0.14165
 Alpha virt. eigenvalues --    0.14541   0.15109   0.15510   0.15738   0.16294
 Alpha virt. eigenvalues --    0.16765   0.16792   0.17508   0.17722   0.18251
 Alpha virt. eigenvalues --    0.18631   0.19179   0.19266   0.19759   0.19844
 Alpha virt. eigenvalues --    0.20672   0.21022   0.21361   0.21605   0.21826
 Alpha virt. eigenvalues --    0.22094   0.22423   0.23443   0.23614   0.23670
 Alpha virt. eigenvalues --    0.24378   0.24706   0.25216   0.25669   0.25879
 Alpha virt. eigenvalues --    0.26854   0.27151   0.27667   0.28431   0.28702
 Alpha virt. eigenvalues --    0.29421   0.30408   0.30724   0.30978   0.32195
 Alpha virt. eigenvalues --    0.32439   0.33790   0.33800   0.34333   0.36178
 Alpha virt. eigenvalues --    0.36460   0.37830   0.39030   0.40784   0.41875
 Alpha virt. eigenvalues --    0.42080   0.42949   0.43620   0.43669   0.44662
 Alpha virt. eigenvalues --    0.44804   0.45309   0.45818   0.46344   0.47516
 Alpha virt. eigenvalues --    0.47757   0.47771   0.48116   0.49732   0.50521
 Alpha virt. eigenvalues --    0.50955   0.51992   0.53291   0.53796   0.54979
 Alpha virt. eigenvalues --    0.56026   0.56432   0.56865   0.57927   0.58294
 Alpha virt. eigenvalues --    0.58965   0.59024   0.59416   0.60204   0.61553
 Alpha virt. eigenvalues --    0.61575   0.63238   0.63251   0.63454   0.64207
 Alpha virt. eigenvalues --    0.64955   0.66762   0.67459   0.67965   0.68342
 Alpha virt. eigenvalues --    0.69235   0.71301   0.72288   0.75329   0.77580
 Alpha virt. eigenvalues --    0.78992   0.80614   0.81078   0.81799   0.82249
 Alpha virt. eigenvalues --    0.82562   0.82942   0.82971   0.83689   0.83927
 Alpha virt. eigenvalues --    0.84676   0.84839   0.84878   0.85722   0.85926
 Alpha virt. eigenvalues --    0.86392   0.86406   0.87326   0.87978   0.88666
 Alpha virt. eigenvalues --    0.88912   0.91015   0.91691   0.92267   0.92483
 Alpha virt. eigenvalues --    0.92782   0.93281   0.93713   0.94259   0.94347
 Alpha virt. eigenvalues --    0.94842   0.95652   0.96359   0.96618   0.98030
 Alpha virt. eigenvalues --    0.99192   0.99768   1.00703   1.01980   1.02649
 Alpha virt. eigenvalues --    1.07335   1.07774   1.07960   1.08492   1.09683
 Alpha virt. eigenvalues --    1.10708   1.12408   1.12747   1.15113   1.16788
 Alpha virt. eigenvalues --    1.18148   1.21456   1.23335   1.23899   1.24989
 Alpha virt. eigenvalues --    1.25091   1.27115   1.27267   1.27659   1.28598
 Alpha virt. eigenvalues --    1.29906   1.32577   1.33543   1.36011   1.40828
 Alpha virt. eigenvalues --    1.44104   1.44481   1.45654   1.49352   1.50028
 Alpha virt. eigenvalues --    1.54641   1.54649   1.55797   1.56451   1.58214
 Alpha virt. eigenvalues --    1.58694   1.59117   1.62350   1.63532   1.66321
 Alpha virt. eigenvalues --    1.68411   1.70461   1.74019   1.75570   1.76746
 Alpha virt. eigenvalues --    1.77653   1.79159   1.81894   1.83238   1.83501
 Alpha virt. eigenvalues --    1.84616   1.85110   1.86381   1.90734   1.92816
 Alpha virt. eigenvalues --    1.94271   1.94867   1.95308   1.97060   1.98049
 Alpha virt. eigenvalues --    1.98604   2.03765   2.05234   2.06801   2.06934
 Alpha virt. eigenvalues --    2.07614   2.09627   2.17380   2.18938   2.20462
 Alpha virt. eigenvalues --    2.22401   2.22503   2.24209   2.25802   2.26083
 Alpha virt. eigenvalues --    2.26830   2.27540   2.28778   2.29682   2.34627
 Alpha virt. eigenvalues --    2.34717   2.35006   2.39852   2.41295   2.42480
 Alpha virt. eigenvalues --    2.42961   2.45033   2.46953   2.49931   2.52495
 Alpha virt. eigenvalues --    2.53634   2.55658   2.56323   2.58939   2.59655
 Alpha virt. eigenvalues --    2.60753   2.63519   2.64277   2.65958   2.68930
 Alpha virt. eigenvalues --    2.71171   2.72560   2.72689   2.73320   2.73858
 Alpha virt. eigenvalues --    2.75535   2.79148   2.79361   2.79844   2.80776
 Alpha virt. eigenvalues --    2.83151   2.86014   2.91085   2.92538   2.93759
 Alpha virt. eigenvalues --    2.99486   3.00670   3.04550   3.07341   3.10292
 Alpha virt. eigenvalues --    3.10836   3.12021   3.15412   3.19231   3.20884
 Alpha virt. eigenvalues --    3.22562   3.25141   3.35873   3.36783   3.40283
 Alpha virt. eigenvalues --    3.46922   3.52893   3.60435   3.61776   3.67609
 Alpha virt. eigenvalues --    3.73994   3.79866   3.88970   4.01132   4.02736
 Alpha virt. eigenvalues --    4.16541   4.21956   4.43715   4.78846   4.83666
 Alpha virt. eigenvalues --    9.74055   9.77650   9.79098   9.85138   9.86387
 Alpha virt. eigenvalues --   23.31363  23.59746  23.78397  23.82060  23.87063
 Alpha virt. eigenvalues --   23.93026  23.96347  23.97423  24.02102  24.04078
 Alpha virt. eigenvalues --   24.08274  24.15604  25.75815  25.81273  25.82599
 Alpha virt. eigenvalues --   25.82991  25.89050  26.10014  26.12867  26.16700
 Alpha virt. eigenvalues --   26.46178  26.55118  26.62735  26.68258  26.75905
 Alpha virt. eigenvalues --   26.79143  26.95861 215.73127 215.76724 215.78764
 Alpha virt. eigenvalues --  215.87321 215.88680
          Condensed to atoms (all electrons):
               1          2          3          4          5          6
     1  C   18.153614  -1.064432  -0.114444  -1.251026  -1.901924   2.642394
     2  C   -1.064432  15.792396  -3.054777  -1.369090   1.166882  -4.880112
     3  C   -0.114444  -3.054777  21.014379  -0.143780  -9.177041   1.141086
     4  C   -1.251026  -1.369090  -0.143780  12.374817   0.326418  -1.793497
     5  C   -1.901924   1.166882  -9.177041   0.326418  17.210251  -0.334483
     6  C    2.642394  -4.880112   1.141086  -1.793497  -0.334483  13.953288
     7  C    6.993842  -0.781314  -1.052659  -0.826996  -0.741654   1.174281
     8  C   -5.861397   3.536633  -1.307722  -0.216380  -0.498092  -3.773079
     9  C   -4.031577  -0.440010   0.842445  -0.222640  -0.680713  -0.661684
    10  C    0.504443   0.360448  -0.047212  -0.071861  -0.083844  -0.837311
    11  C   -3.849204  -0.657516  -0.881158  -0.214724   0.600615  -0.829212
    12  C   -3.366063  -1.930582  -0.840789  -0.322033   0.150463   1.760012
    13  H   -0.165430   0.316127   0.299830  -0.051234  -0.137808   0.065502
    14  H    0.088785   0.048772   0.074783   0.057748   0.086537  -0.019919
    15  H    0.099560  -0.024675   0.087187   0.037209   0.132874   0.009450
    16  H   -0.232867  -0.025250  -0.086750  -0.009331   0.172192   0.575691
    17  H    0.021871  -0.000175  -0.001224   0.000014   0.000440   0.003088
    18  Cl   0.199404   0.429129   0.089505  -0.025880  -0.696995  -1.356242
    19  Cl  -0.223850  -0.069645  -0.005091  -0.002931   0.024639   0.027847
    20  Cl  -0.059957  -0.026612  -0.003222  -0.001288   0.000342  -0.009747
    21  Cl  -0.219607  -0.040249   0.323629  -1.117065   0.422748  -0.082223
    22  Cl   0.376610  -0.576554  -0.887930   0.000826   0.241300   0.005043
               7          8          9         10         11         12
     1  C    6.993842  -5.861397  -4.031577   0.504443  -3.849204  -3.366063
     2  C   -0.781314   3.536633  -0.440010   0.360448  -0.657516  -1.930582
     3  C   -1.052659  -1.307722   0.842445  -0.047212  -0.881158  -0.840789
     4  C   -0.826996  -0.216380  -0.222640  -0.071861  -0.214724  -0.322033
     5  C   -0.741654  -0.498092  -0.680713  -0.083844   0.600615   0.150463
     6  C    1.174281  -3.773079  -0.661684  -0.837311  -0.829212   1.760012
     7  C   24.424164  -9.933010  -8.003401   1.677857  -5.131935   0.791296
     8  C   -9.933010  31.972415   1.507341  -5.818397  -1.127208  -2.959650
     9  C   -8.003401   1.507341  18.526531  -0.164846  -2.447937   1.193098
    10  C    1.677857  -5.818397  -0.164846  26.352239  -6.707068  -8.185777
    11  C   -5.131935  -1.127208  -2.447937  -6.707068  24.594172   1.807735
    12  C    0.791296  -2.959650   1.193098  -8.185777   1.807735  19.678016
    13  H   -0.040101  -0.043069   0.205460   0.050737  -0.024407  -0.009302
    14  H    0.018203   0.001300  -0.005054  -0.000057   0.000952   0.006859
    15  H    0.020425   0.004320   0.001103  -0.000710  -0.004309  -0.002429
    16  H   -0.050043  -0.033941  -0.024399   0.011572   0.024336   0.162455
    17  H    0.117855  -0.020021   0.264528   0.028412  -0.035890  -0.008483
    18  Cl  -0.471579   0.701544   0.456324   0.721661   0.545290  -2.271858
    19  Cl  -1.071580   0.494148   0.602679  -0.747332  -0.795444   1.021555
    20  Cl   0.045104  -0.462177  -0.379254  -0.295451   0.717370  -0.257386
    21  Cl  -0.061497  -0.027397  -0.002736  -0.001281   0.002015  -0.023283
    22  Cl  -0.129759  -0.158785  -0.243276  -0.698631   0.386193   0.142179
              13         14         15         16         17         18
     1  C   -0.165430   0.088785   0.099560  -0.232867   0.021871   0.199404
     2  C    0.316127   0.048772  -0.024675  -0.025250  -0.000175   0.429129
     3  C    0.299830   0.074783   0.087187  -0.086750  -0.001224   0.089505
     4  C   -0.051234   0.057748   0.037209  -0.009331   0.000014  -0.025880
     5  C   -0.137808   0.086537   0.132874   0.172192   0.000440  -0.696995
     6  C    0.065502  -0.019919   0.009450   0.575691   0.003088  -1.356242
     7  C   -0.040101   0.018203   0.020425  -0.050043   0.117855  -0.471579
     8  C   -0.043069   0.001300   0.004320  -0.033941  -0.020021   0.701544
     9  C    0.205460  -0.005054   0.001103  -0.024399   0.264528   0.456324
    10  C    0.050737  -0.000057  -0.000710   0.011572   0.028412   0.721661
    11  C   -0.024407   0.000952  -0.004309   0.024336  -0.035890   0.545290
    12  C   -0.009302   0.006859  -0.002429   0.162455  -0.008483  -2.271858
    13  H    0.727784  -0.016014   0.000163  -0.000502   0.000019   0.002583
    14  H   -0.016014   0.532340  -0.000422   0.000146   0.000000  -0.000275
    15  H    0.000163  -0.000422   0.531390  -0.015717   0.000000   0.004019
    16  H   -0.000502   0.000146  -0.015717   0.730418  -0.000001  -0.330670
    17  H    0.000019   0.000000   0.000000  -0.000001   0.486469   0.001012
    18  Cl   0.002583  -0.000275   0.004019  -0.330670   0.001012  18.673185
    19  Cl  -0.000109  -0.000001   0.000020   0.004833  -0.000736  -0.346475
    20  Cl   0.000361  -0.000000  -0.000001   0.000454  -0.005193  -0.002213
    21  Cl   0.001202  -0.016576  -0.015809   0.001060  -0.000000  -0.001609
    22  Cl  -0.307400   0.004424  -0.000306   0.002815  -0.022147  -0.032811
              19         20         21         22
     1  C   -0.223850  -0.059957  -0.219607   0.376610
     2  C   -0.069645  -0.026612  -0.040249  -0.576554
     3  C   -0.005091  -0.003222   0.323629  -0.887930
     4  C   -0.002931  -0.001288  -1.117065   0.000826
     5  C    0.024639   0.000342   0.422748   0.241300
     6  C    0.027847  -0.009747  -0.082223   0.005043
     7  C   -1.071580   0.045104  -0.061497  -0.129759
     8  C    0.494148  -0.462177  -0.027397  -0.158785
     9  C    0.602679  -0.379254  -0.002736  -0.243276
    10  C   -0.747332  -0.295451  -0.001281  -0.698631
    11  C   -0.795444   0.717370   0.002015   0.386193
    12  C    1.021555  -0.257386  -0.023283   0.142179
    13  H   -0.000109   0.000361   0.001202  -0.307400
    14  H   -0.000001  -0.000000  -0.016576   0.004424
    15  H    0.000020  -0.000001  -0.015809  -0.000306
    16  H    0.004833   0.000454   0.001060   0.002815
    17  H   -0.000736  -0.005193  -0.000000  -0.022147
    18  Cl  -0.346475  -0.002213  -0.001609  -0.032811
    19  Cl  17.662613  -0.261729   0.000010   0.005685
    20  Cl  -0.261729  17.471898  -0.000002  -0.025741
    21  Cl   0.000010  -0.000002  17.444772  -0.002204
    22  Cl   0.005685  -0.025741  -0.002204  18.247337
 Mulliken charges:
               1
     1  C   -0.738744
     2  C   -0.709392
     3  C   -0.269047
     4  C    0.842723
     5  C   -0.283146
     6  C   -0.780172
     7  C   -0.967498
     8  C    0.022623
     9  C   -0.291982
    10  C   -0.047591
    11  C    0.027335
    12  C   -0.536031
    13  H    0.125607
    14  H    0.137469
    15  H    0.136660
    16  H    0.123501
    17  H    0.170161
    18  Cl   0.712952
    19  Cl   0.680895
    20  Cl   0.554444
    21  Cl   0.416103
    22  Cl   0.673131
 Sum of Mulliken charges =  -0.00000
 Mulliken charges with hydrogens summed into heavy atoms:
               1
     1  C   -0.738744
     2  C   -0.583785
     3  C   -0.131578
     4  C    0.842723
     5  C   -0.146486
     6  C   -0.656671
     7  C   -0.967498
     8  C    0.022623
     9  C   -0.121821
    10  C   -0.047591
    11  C    0.027335
    12  C   -0.536031
    18  Cl   0.712952
    19  Cl   0.680895
    20  Cl   0.554444
    21  Cl   0.416103
    22  Cl   0.673131
 Electronic spatial extent (au):  <R**2>=           7766.2915
 Charge=             -0.0000 electrons
 Dipole moment (field-independent basis, Debye):
    X=             -1.2155    Y=              1.0401    Z=              0.0000  Tot=              1.5998
 Quadrupole moment (field-independent basis, Debye-Ang):
   XX=           -145.2261   YY=           -124.0862   ZZ=           -135.6949
   XY=             -1.1474   XZ=              0.0000   YZ=             -0.0000
 Traceless Quadrupole moment (field-independent basis, Debye-Ang):
   XX=            -10.2237   YY=             10.9162   ZZ=             -0.6925
   XY=             -1.1474   XZ=              0.0000   YZ=             -0.0000
 Octapole moment (field-independent basis, Debye-Ang**2):
  XXX=            -75.3682  YYY=             -6.8353  ZZZ=             -0.0001  XYY=              8.1613
  XXY=             13.9701  XXZ=             -0.0000  XZZ=            -10.3421  YZZ=             -2.8041
  YYZ=             -0.0000  XYZ=             -0.0001
 Hexadecapole moment (field-independent basis, Debye-Ang**3):
 XXXX=          -8227.4637 YYYY=          -2087.4169 ZZZZ=           -158.1408 XXXY=             54.8470
 XXXZ=              0.0004 YYYX=             17.0640 YYYZ=             -0.0001 ZZZX=              0.0000
 ZZZY=              0.0000 XXYY=          -1597.4002 XXZZ=          -1388.4568 YYZZ=           -404.2603
 XXYZ=             -0.0001 YYXZ=              0.0001 ZZXY=              7.4466
 N-N= 1.717921507306D+03 E-N=-9.972387844972D+03  KE= 2.754523955242D+03
 Calling FoFJK, ICntrl=      2127 FMM=F ISym2X=0 I1Cent= 0 IOpClX= 0 NMat=1 NMatS=1 NMatT=0.
 ***** Axes restored to original set *****
 -------------------------------------------------------------------
 Center     Atomic                   Forces (Hartrees/Bohr)
 Number     Number              X              Y              Z
 -------------------------------------------------------------------
      1        6          -0.016165074   -0.025347622    0.000565061
      2        6           0.004934272    0.054713361    0.008650221
      3        6          -0.016253590    0.003655967    0.006041563
      4        6          -0.005498230   -0.009292837    0.000065901
      5        6           0.011317258   -0.012458020   -0.006068193
      6        6           0.045918235    0.031959021   -0.009125987
      7        6           0.027309679    0.044663591   -0.000608989
      8        6          -0.019325171   -0.006921874    0.005066919
      9        6          -0.000037029    0.009566768    0.001808854
     10        6           0.004248556    0.001451259   -0.001127093
     11        6          -0.014115179    0.002048437    0.005035262
     12        6           0.001876608   -0.009366060   -0.002377383
     13        1           0.004860059    0.051614593    0.008092505
     14        1           0.008898658    0.000544016   -0.002829525
     15        1          -0.003859438    0.008064823    0.002786190
     16        1           0.042853366    0.029245187   -0.008626122
     17        1           0.003071226   -0.007365946   -0.002395193
     18       17          -0.083572830   -0.063254740    0.015654196
     19       17           0.008649277    0.000054051   -0.002839521
     20       17           0.008002125    0.005576218   -0.001589166
     21       17          -0.000726043   -0.001298544   -0.000004665
     22       17          -0.012386736   -0.107851649   -0.016174832
 -------------------------------------------------------------------
 Cartesian Forces:  Max     0.107851649 RMS     0.024867842

 GradGradGradGradGradGradGradGradGradGradGradGradGradGradGradGradGradGrad
 Berny optimization.
 FormGI is forming the generalized inverse of G from B-inverse, IUseBI=4.
 Internal  Forces:  Max     0.202882344 RMS     0.050366145
 Search for a local minimum.
 Step number   1 out of a maximum of  121
 All quantities printed in internal units (Hartrees-Bohrs-Radians)
 Mixed Optimization -- RFO/linear search
 Second derivative matrix not updated -- first step.
 ITU=  0
     Eigenvalues ---    0.00237   0.01506   0.01506   0.02070   0.02070
     Eigenvalues ---    0.02070   0.02070   0.02070   0.02070   0.02070
     Eigenvalues ---    0.02070   0.02070   0.02070   0.02070   0.02070
     Eigenvalues ---    0.02070   0.02070   0.02070   0.02070   0.16000
     Eigenvalues ---    0.16000   0.16000   0.16000   0.16000   0.22000
     Eigenvalues ---    0.22981   0.23485   0.24000   0.25000   0.25000
     Eigenvalues ---    0.25000   0.25000   0.25000   0.25000   0.25000
     Eigenvalues ---    0.25000   0.25000   0.28519   0.29539   0.29539
     Eigenvalues ---    0.29539   0.29539   0.29539   0.37230   0.37230
     Eigenvalues ---    0.37230   0.37230   0.37230   0.41268   0.41635
     Eigenvalues ---    0.41640   0.41797   0.45389   0.45389   0.45389
     Eigenvalues ---    0.45389   0.45389   0.45389   0.45389   0.45389
 RFO step:  Lambda=-4.07384773D-01 EMin= 2.36824176D-03
 Linear search not attempted -- first point.
 Maximum step size (   0.300) exceeded in Quadratic search.
    -- Step size scaled by   0.389
 Iteration  1 RMS(Cart)=  0.09809255 RMS(Int)=  0.00386952
 Iteration  2 RMS(Cart)=  0.00441374 RMS(Int)=  0.00016112
 Iteration  3 RMS(Cart)=  0.00000754 RMS(Int)=  0.00016109
 Iteration  4 RMS(Cart)=  0.00000000 RMS(Int)=  0.00016109
 Variable       Old X    -DE/DX   Delta X   Delta X   Delta X     New X
                                 (Linear)    (Quad)   (Total)
    R1        2.64826   0.03473   0.00000   0.01630   0.01645   2.66472
    R2        2.64826   0.03480   0.00000   0.01634   0.01649   2.66475
    R3        2.91018   0.15194   0.00000   0.08534   0.08534   2.99552
    R4        2.64826  -0.00628   0.00000  -0.00284  -0.00284   2.64542
    R5        2.02201  -0.04375   0.00000  -0.02183  -0.02183   2.00018
    R6        2.64826  -0.04240   0.00000  -0.01977  -0.01992   2.62834
    R7        2.02201   0.00935   0.00000   0.00466   0.00466   2.02667
    R8        2.64826  -0.04239   0.00000  -0.01976  -0.01992   2.62835
    R9        3.32592  -0.00149   0.00000  -0.00082  -0.00082   3.32509
   R10        2.64826  -0.00612   0.00000  -0.00276  -0.00276   2.64550
   R11        2.02201   0.00936   0.00000   0.00467   0.00467   2.02668
   R12        2.02201  -0.04403   0.00000  -0.02197  -0.02197   2.00004
   R13        2.64826   0.14016   0.00000   0.06521   0.06553   2.71379
   R14        2.64826   0.14127   0.00000   0.06594   0.06624   2.71450
   R15        2.64826  -0.01356   0.00000  -0.00635  -0.00635   2.64192
   R16        3.32592  -0.00908   0.00000  -0.00502  -0.00502   3.32089
   R17        2.64826  -0.06475   0.00000  -0.03137  -0.03169   2.61658
   R18        2.02201   0.00830   0.00000   0.00414   0.00414   2.02615
   R19        2.64826  -0.05425   0.00000  -0.02641  -0.02673   2.62153
   R20        3.32592  -0.00886   0.00000  -0.00491  -0.00491   3.32101
   R21        2.64826  -0.00118   0.00000  -0.00031  -0.00032   2.64794
   R22        3.32592  -0.00910   0.00000  -0.00504  -0.00504   3.32088
   R23        3.32592  -0.01123   0.00000  -0.00621  -0.00621   3.31970
    A1        2.09440  -0.11404   0.00000  -0.06645  -0.06612   2.02827
    A2        2.09440   0.05515   0.00000   0.03212   0.03195   2.12635
    A3        2.09440   0.05889   0.00000   0.03433   0.03417   2.12856
    A4        2.09440   0.05554   0.00000   0.03466   0.03482   2.12921
    A5        2.09440   0.00152   0.00000   0.00275   0.00267   2.09707
    A6        2.09440  -0.05706   0.00000  -0.03741  -0.03749   2.05690
    A7        2.09440   0.01115   0.00000   0.00541   0.00525   2.09965
    A8        2.09440  -0.00522   0.00000  -0.00246  -0.00238   2.09201
    A9        2.09440  -0.00593   0.00000  -0.00295  -0.00287   2.09153
   A10        2.09440  -0.01927   0.00000  -0.01366  -0.01398   2.08042
   A11        2.09440   0.00958   0.00000   0.00680   0.00696   2.10135
   A12        2.09440   0.00969   0.00000   0.00686   0.00702   2.10141
   A13        2.09440   0.01120   0.00000   0.00545   0.00529   2.09968
   A14        2.09440  -0.00597   0.00000  -0.00298  -0.00290   2.09150
   A15        2.09440  -0.00523   0.00000  -0.00247  -0.00239   2.09201
   A16        2.09440   0.05541   0.00000   0.03458   0.03474   2.12914
   A17        2.09440   0.00137   0.00000   0.00264   0.00257   2.09696
   A18        2.09440  -0.05678   0.00000  -0.03723  -0.03731   2.05709
   A19        2.09440   0.07095   0.00000   0.03937   0.03904   2.13343
   A20        2.09440   0.07301   0.00000   0.04059   0.04025   2.13465
   A21        2.09440  -0.14396   0.00000  -0.07996  -0.07929   2.01511
   A22        2.09440   0.04197   0.00000   0.02693   0.02726   2.12165
   A23        2.09440   0.16092   0.00000   0.09418   0.09401   2.18841
   A24        2.09440  -0.20288   0.00000  -0.12111  -0.12127   1.97312
   A25        2.09440   0.03922   0.00000   0.02086   0.02055   2.11494
   A26        2.09440  -0.01886   0.00000  -0.00991  -0.00976   2.08464
   A27        2.09440  -0.02036   0.00000  -0.01095  -0.01079   2.08361
   A28        2.09440  -0.01048   0.00000  -0.01175  -0.01240   2.08199
   A29        2.09440  -0.00204   0.00000   0.00157   0.00190   2.09629
   A30        2.09440   0.01251   0.00000   0.01018   0.01050   2.10490
   A31        2.09440   0.03546   0.00000   0.01857   0.01823   2.11263
   A32        2.09440  -0.01797   0.00000  -0.00943  -0.00926   2.08514
   A33        2.09440  -0.01749   0.00000  -0.00915  -0.00898   2.08542
   A34        2.09440   0.03780   0.00000   0.02535   0.02565   2.12005
   A35        2.09440   0.15634   0.00000   0.09103   0.09087   2.18527
   A36        2.09440  -0.19414   0.00000  -0.11638  -0.11653   1.97787
    D1        0.00000   0.00000   0.00000   0.00000   0.00000   0.00000
    D2        3.14159  -0.00000   0.00000   0.00000   0.00000   3.14159
    D3       -3.14159  -0.00000   0.00000  -0.00000  -0.00000  -3.14159
    D4       -0.00000  -0.00000   0.00000  -0.00000  -0.00000  -0.00000
    D5       -0.00000  -0.00000   0.00000  -0.00000  -0.00000  -0.00000
    D6        3.14159  -0.00000   0.00000  -0.00000  -0.00000   3.14159
    D7        3.14159   0.00000   0.00000   0.00000   0.00000   3.14159
    D8        0.00000  -0.00000   0.00000  -0.00000  -0.00000  -0.00000
    D9       -0.00000  -0.00000   0.00000  -0.00000  -0.00000  -0.00000
   D10        3.14159  -0.00000   0.00000  -0.00000  -0.00000   3.14159
   D11        3.14159  -0.00000   0.00000  -0.00000  -0.00000   3.14159
   D12       -0.00000  -0.00000   0.00000  -0.00000  -0.00000  -0.00000
   D13        0.00000  -0.00000   0.00000  -0.00000  -0.00000   0.00000
   D14        3.14159  -0.00000   0.00000  -0.00000  -0.00000   3.14159
   D15       -3.14159  -0.00000   0.00000  -0.00000  -0.00000  -3.14159
   D16        0.00000  -0.00000   0.00000  -0.00000  -0.00000   0.00000
   D17       -0.00000  -0.00000   0.00000   0.00000   0.00000  -0.00000
   D18        3.14159   0.00000   0.00000   0.00000   0.00000   3.14159
   D19        3.14159  -0.00000   0.00000  -0.00000  -0.00000   3.14159
   D20        0.00000  -0.00000   0.00000  -0.00000  -0.00000   0.00000
   D21        0.00000   0.00000   0.00000   0.00000   0.00000   0.00000
   D22       -3.14159   0.00000   0.00000   0.00000   0.00000  -3.14159
   D23       -3.14159  -0.00000   0.00000  -0.00000  -0.00000  -3.14159
   D24        0.00000   0.00000   0.00000   0.00000   0.00000   0.00000
   D25       -0.00000   0.00000   0.00000   0.00000   0.00000  -0.00000
   D26        3.14159   0.00000   0.00000   0.00000   0.00000   3.14159
   D27        3.14159   0.00000   0.00000  -0.00000  -0.00000   3.14159
   D28       -0.00000   0.00000   0.00000   0.00000   0.00000  -0.00000
   D29        3.14159   0.00000   0.00000   0.00000   0.00000   3.14159
   D30        0.00000   0.00000   0.00000   0.00000   0.00000   0.00000
   D31        0.00000   0.00000   0.00000   0.00000   0.00000   0.00000
   D32       -3.14159  -0.00000   0.00000  -0.00000  -0.00000  -3.14159
   D33       -3.14159  -0.00000   0.00000  -0.00000  -0.00000  -3.14159
   D34        0.00000  -0.00000   0.00000  -0.00000  -0.00000  -0.00000
   D35       -0.00000   0.00000   0.00000   0.00000   0.00000  -0.00000
   D36        3.14159  -0.00000   0.00000  -0.00000  -0.00000   3.14159
   D37       -0.00000  -0.00000   0.00000  -0.00000  -0.00000  -0.00000
   D38        3.14159  -0.00000   0.00000  -0.00000  -0.00000   3.14159
   D39        3.14159   0.00000   0.00000   0.00000   0.00000   3.14159
   D40       -0.00000   0.00000   0.00000   0.00000   0.00000  -0.00000
   D41       -0.00000   0.00000   0.00000   0.00000   0.00000  -0.00000
   D42       -3.14159  -0.00000   0.00000  -0.00000  -0.00000  -3.14159
   D43        3.14159   0.00000   0.00000   0.00000   0.00000   3.14159
   D44        0.00000   0.00000   0.00000   0.00000   0.00000   0.00000
   D45        0.00000   0.00000   0.00000   0.00000   0.00000   0.00000
   D46       -3.14159  -0.00000   0.00000  -0.00000  -0.00000  -3.14159
   D47        3.14159   0.00000   0.00000   0.00000   0.00000   3.14159
   D48        0.00000   0.00000   0.00000   0.00000   0.00000   0.00000
   D49        0.00000  -0.00000   0.00000  -0.00000  -0.00000   0.00000
   D50       -3.14159   0.00000   0.00000   0.00000   0.00000  -3.14159
   D51        3.14159   0.00000   0.00000   0.00000   0.00000   3.14159
   D52       -0.00000   0.00000   0.00000   0.00000   0.00000  -0.00000
         Item               Value     Threshold  Converged?
 Maximum Force            0.202882     0.000450     NO 
 RMS     Force            0.050366     0.000300     NO 
 Maximum Displacement     0.536558     0.001800     NO 
 RMS     Displacement     0.099424     0.001200     NO 
 Predicted change in Energy=-1.459634D-01
 GradGradGradGradGradGradGradGradGradGradGradGradGradGradGradGradGradGrad

                          Input orientation:                          
 ---------------------------------------------------------------------
 Center     Atomic      Atomic             Coordinates (Angstroms)
 Number     Number       Type             X           Y           Z
 ---------------------------------------------------------------------
      1          6           0        0.975457   -0.600389    0.047814
      2          6           0        2.316977   -0.526820   -0.380339
      3          6           0        3.028014    0.679033   -0.388123
      4          6           0        2.418436    1.855868    0.033727
      5          6           0        1.095840    1.819002    0.462536
      6          6           0        0.388658    0.610828    0.468614
      7          6           0        0.173978   -1.967984    0.055018
      8          6           0        0.765587   -3.204839   -0.372184
      9          6           0        0.045495   -4.403105   -0.359990
     10          6           0       -1.271288   -4.443766    0.066197
     11          6           0       -1.884534   -3.273120    0.488094
     12          6           0       -1.192613   -2.054643    0.488978
     13          1           0        2.818640   -1.398818   -0.709382
     14          1           0        4.047430    0.695734   -0.720837
     15          1           0        0.615799    2.720410    0.789978
     16          1           0       -0.615533    0.627150    0.802514
     17          1           0        0.520918   -5.307004   -0.686383
     18         17           0       -2.160967   -0.705336    1.061425
     19         17           0       -3.555598   -3.319290    1.029973
     20         17           0       -2.150104   -5.965652    0.069908
     21         17           0        3.309740    3.372959    0.025007
     22         17           0        2.413434   -3.398169   -0.951385
 ---------------------------------------------------------------------
                    Distance matrix (angstroms):
                    1          2          3          4          5
     1  C    0.000000
     2  C    1.410107   0.000000
     3  C    2.457631   1.399898   0.000000
     4  C    2.848786   2.420526   1.390857   0.000000
     5  C    2.457629   2.775697   2.399259   1.390861   0.000000
     6  C    1.410126   2.394448   2.775761   2.420588   1.399939
     7  C    1.585161   2.618957   3.917728   4.433947   3.918822
     8  C    2.646432   3.094942   4.494807   5.339234   5.103411
     9  C    3.935960   4.492842   5.892736   6.705266   6.363520
    10  C    4.451938   5.330808   6.703243   7.300719   6.706911
    11  C    3.939148   5.094020   6.365563   6.710329   5.900254
    12  C    2.647642   3.925198   5.104505   5.342192   4.499205
    13  H    2.146662   1.058450   2.112939   3.362344   3.833510
    14  H    3.421663   2.145937   1.072468   2.137498   3.372534
    15  H    3.421676   3.848136   3.372524   2.137486   1.072471
    16  H    2.146550   3.366066   3.833502   3.362402   2.113030
    17  H    4.785173   5.115629   6.496702   7.444855   7.240892
    18  Cl   3.297814   4.707710   5.562660   5.346668   4.163862
    19  Cl   5.374711   6.653872   7.832083   7.966420   6.954129
    20  Cl   6.209321   7.052548   8.436501   9.058093   8.443410
    21  Cl   4.608351   4.044522   2.739943   1.759564   2.739994
    22  Cl   3.300567   2.929171   4.161556   5.345594   5.563641
                    6          7          8          9         10
     6  C    0.000000
     7  C    2.620577   0.000000
     8  C    3.925345   1.436075   0.000000
     9  C    5.093513   2.473571   1.398042   0.000000
    10  C    5.335380   2.866778   2.424042   1.384633   0.000000
    11  C    4.500315   2.475562   2.787091   2.391887   1.387255
    12  C    3.099285   1.436454   2.428805   2.787280   2.427517
    13  H    3.366180   2.811137   2.755075   4.103431   5.157591
    14  H    3.848196   4.764554   5.109454   6.491829   7.437920
    15  H    2.145973   4.766173   6.040002   7.238241   7.443814
    16  H    1.058374   2.813681   4.239286   5.204982   5.165885
    17  H    6.030941   3.437892   2.139552   1.072191   2.126866
    18  Cl   2.929898   2.838855   4.107001   4.534576   3.969617
    19  Cl   5.596259   4.084887   4.544423   4.009305   2.722385
    20  Cl   7.060763   4.624168   4.039652   2.728924   1.757404
    21  Cl   4.044611   6.193511   7.063845   8.442197   9.060282
    22  Cl   4.710432   2.841380   1.757342   2.639466   3.963070
                   11         12         13         14         15
    11  C    0.000000
    12  C    1.401229   0.000000
    13  H    5.202576   4.237490   0.000000
    14  H    7.238889   6.040387   2.428416   0.000000
    15  H    6.501169   5.114889   4.905979   4.261217   0.000000
    16  H    4.113555   2.761040   4.264261   4.905968   2.428594
    17  H    3.361886   3.859470   4.533649   6.962064   8.162599
    18  Cl   2.645494   1.756711   5.330399   6.609360   4.418127
    19  Cl   1.757334   2.734174   6.880732   8.774496   7.344122
    20  Cl   2.737725   4.048259   6.793503   9.132841   9.144200
    21  Cl   8.447799   7.067200   4.852872   2.875414   2.875469
    22  Cl   4.534342   4.108926   2.054303   4.413970   6.610661
                   16         17         18         19         20
    16  H    0.000000
    17  H    6.222743   0.000000
    18  Cl   2.056920   5.605594   0.000000
    19  Cl   4.926471   4.849213   2.962894   0.000000
    20  Cl   6.808573   2.853095   5.352957   3.146486   0.000000
    21  Cl   4.853015   9.144691   6.901832   9.639970  10.817652
    22  Cl   5.334229   2.701018   5.676961   6.289781   5.334875
                   21         22
    21  Cl   0.000000
    22  Cl   6.899629   0.000000
 Stoichiometry    C12H5Cl5
 Framework group  C1[X(C12H5Cl5)]
 Deg. of freedom    60
 Full point group                 C1      NOp   1
 Largest Abelian subgroup         C1      NOp   1
 Largest concise Abelian subgroup C1      NOp   1
                         Standard orientation:                         
 ---------------------------------------------------------------------
 Center     Atomic      Atomic             Coordinates (Angstroms)
 Number     Number       Type             X           Y           Z
 ---------------------------------------------------------------------
      1          6           0        1.376394    0.108518    0.000003
      2          6           0        2.254429    1.211902   -0.000001
      3          6           0        3.645282    1.053026   -0.000002
      4          6           0        4.206209   -0.219705   -0.000001
      5          6           0        3.368849   -1.330255    0.000005
      6          6           0        1.978509   -1.166595    0.000006
      7          6           0       -0.198004    0.292930    0.000003
      8          6           0       -0.817514    1.588507    0.000003
      9          6           0       -2.207883    1.734783    0.000002
     10          6           0       -3.044703    0.631634    0.000002
     11          6           0       -2.490926   -0.640297    0.000002
     12          6           0       -1.101739   -0.823610    0.000002
     13          1           0        1.869340    2.197814   -0.000004
     14          1           0        4.281404    1.916471   -0.000005
     15          1           0        3.790473   -2.316372    0.000008
     16          1           0        1.377882   -2.038031    0.000009
     17          1           0       -2.634306    2.718530    0.000002
     18         17           0       -0.623236   -2.513896   -0.000000
     19         17           0       -3.548585   -2.043714   -0.000003
     20         17           0       -4.788728    0.848070   -0.000001
     21         17           0        5.954062   -0.422379   -0.000003
     22         17           0        0.036004    3.124658   -0.000001
 ---------------------------------------------------------------------
 Rotational constants (GHZ):           0.5493905           0.1466373           0.1157441
 Standard basis: 6-311+G(d,p) (5D, 7F)
 There are   461 symmetry adapted cartesian basis functions of A   symmetry.
 There are   444 symmetry adapted basis functions of A   symmetry.
   444 basis functions,   737 primitive gaussians,   461 cartesian basis functions
    81 alpha electrons       81 beta electrons
       nuclear repulsion energy      1694.3091537025 Hartrees.
 NAtoms=   22 NActive=   22 NUniq=   22 SFac= 1.00D+00 NAtFMM=   60 NAOKFM=F Big=F
 Integral buffers will be    131072 words long.
 Raffenetti 2 integral format.
 Two-electron integral symmetry is turned on.
 One-electron integrals computed using PRISM.
 NBasis=   444 RedAO= T EigKep=  1.35D-06  NBF=   444
 NBsUse=   438 1.00D-06 EigRej=  7.21D-07 NBFU=   438
 Initial guess from the checkpoint file:  "/scratch/pkc/Gau-80781.chk"
 B after Tr=     0.000000    0.000000   -0.000000
         Rot=    0.999997   -0.000000   -0.000000   -0.002375 Ang=  -0.27 deg.
 ExpMin= 4.38D-02 ExpMax= 1.06D+05 ExpMxC= 3.62D+03 IAcc=3 IRadAn=         5 AccDes= 0.00D+00
 Harris functional with IExCor=  402 and IRadAn=       5 diagonalized for initial guess.
 HarFok:  IExCor=  402 AccDes= 0.00D+00 IRadAn=         5 IDoV= 1 UseB2=F ITyADJ=14
 ICtDFT=  3500011 ScaDFX=  1.000000  1.000000  1.000000  1.000000
 FoFCou: FMM=F IPFlag=           0 FMFlag=      100000 FMFlg1=           0
         NFxFlg=           0 DoJE=T BraDBF=F KetDBF=T FulRan=T
         wScrn=  0.000000 ICntrl=       500 IOpCl=  0 I1Cent=   200000004 NGrid=           0
         NMat0=    1 NMatS0=      1 NMatT0=    0 NMatD0=    1 NMtDS0=    0 NMtDT0=    0
 Petite list used in FoFCou.
 Requested convergence on RMS density matrix=1.00D-08 within  32 cycles.
 Requested convergence on MAX density matrix=1.00D-06.
 Requested convergence on             energy=1.00D-06.
 No special actions if energy rises.
 SCF Done:  E(RB3LYP) =  -2761.47262467     A.U. after   15 cycles
            NFock= 15  Conv=0.47D-08     -V/T= 2.0027
 QCSCF skips out because SCF is already converged.
 Calling FoFJK, ICntrl=      2127 FMM=F ISym2X=0 I1Cent= 0 IOpClX= 0 NMat=1 NMatS=1 NMatT=0.
 ***** Axes restored to original set *****
 -------------------------------------------------------------------
 Center     Atomic                   Forces (Hartrees/Bohr)
 Number     Number              X              Y              Z
 -------------------------------------------------------------------
      1        6          -0.014328737   -0.022562842    0.000483081
      2        6          -0.005107341    0.019172732    0.005283603
      3        6          -0.008901494   -0.002684498    0.002428579
      4        6          -0.002980900   -0.005001502    0.000042511
      5        6           0.002101936   -0.009154791   -0.002411793
      6        6           0.019592584    0.005354275   -0.005449318
      7        6           0.017852381    0.027572052   -0.000703136
      8        6          -0.019629630    0.005547612    0.007509098
      9        6           0.001153698    0.006698957    0.000877938
     10        6          -0.001059244   -0.005043173   -0.000598117
     11        6          -0.014171491    0.003142852    0.005259338
     12        6           0.011566086   -0.005127810   -0.004773642
     13        1           0.006825009    0.001975155   -0.001877624
     14        1           0.006886511   -0.000797459   -0.002418554
     15        1          -0.004031413    0.005655931    0.002390441
     16        1          -0.001642220    0.006681379    0.001795746
     17        1           0.003072425   -0.005129738   -0.001975610
     18       17          -0.004572567   -0.006077231    0.000365152
     19       17           0.004820999   -0.005120261   -0.002550044
     20       17           0.007130539    0.004264968   -0.001548277
     21       17          -0.001537836   -0.002653849    0.000008243
     22       17          -0.003039294   -0.016712759   -0.002137613
 -------------------------------------------------------------------
 Cartesian Forces:  Max     0.027572052 RMS     0.008335537

 GradGradGradGradGradGradGradGradGradGradGradGradGradGradGradGradGradGrad
 Berny optimization.
 Using GEDIIS/GDIIS optimizer.
 FormGI is forming the generalized inverse of G from B-inverse, IUseBI=4.
 Internal  Forces:  Max     0.035125404 RMS     0.006872698
 Search for a local minimum.
 Step number   2 out of a maximum of  121
 All quantities printed in internal units (Hartrees-Bohrs-Radians)
 Mixed Optimization -- RFO/linear search
 Update second derivatives using D2CorX and points    1    2
 DE= -7.69D-02 DEPred=-1.46D-01 R= 5.27D-01
 TightC=F SS=  1.41D+00  RLast= 3.00D-01 DXNew= 5.0454D-01 8.9996D-01
 Trust test= 5.27D-01 RLast= 3.00D-01 DXMaxT set to 5.05D-01
 ITU=  1  0
 Use linear search instead of GDIIS.
     Eigenvalues ---    0.00237   0.01460   0.01467   0.02070   0.02070
     Eigenvalues ---    0.02070   0.02070   0.02070   0.02070   0.02070
     Eigenvalues ---    0.02070   0.02070   0.02070   0.02070   0.02070
     Eigenvalues ---    0.02070   0.02070   0.02070   0.02070   0.16000
     Eigenvalues ---    0.16000   0.16000   0.16000   0.16088   0.22000
     Eigenvalues ---    0.23023   0.23478   0.24108   0.24907   0.25000
     Eigenvalues ---    0.25000   0.25000   0.25000   0.25000   0.25000
     Eigenvalues ---    0.25000   0.27897   0.29526   0.29536   0.29539
     Eigenvalues ---    0.29539   0.29539   0.36318   0.37203   0.37230
     Eigenvalues ---    0.37230   0.37230   0.38388   0.41101   0.41501
     Eigenvalues ---    0.41793   0.45072   0.45352   0.45389   0.45389
     Eigenvalues ---    0.45389   0.45389   0.45389   0.45389   1.61564
 RFO step:  Lambda=-1.11574902D-02 EMin= 2.36824176D-03
 Quartic linear search produced a step of  0.25027.
 Iteration  1 RMS(Cart)=  0.03825067 RMS(Int)=  0.00127313
 Iteration  2 RMS(Cart)=  0.00136308 RMS(Int)=  0.00008621
 Iteration  3 RMS(Cart)=  0.00000020 RMS(Int)=  0.00008621
 Variable       Old X    -DE/DX   Delta X   Delta X   Delta X     New X
                                 (Linear)    (Quad)   (Total)
    R1        2.66472   0.00319   0.00412  -0.00270   0.00150   2.66622
    R2        2.66475   0.00319   0.00413  -0.00272   0.00149   2.66624
    R3        2.99552  -0.00505   0.02136  -0.08876  -0.06740   2.92812
    R4        2.64542  -0.00847  -0.00071  -0.02070  -0.02141   2.62401
    R5        2.00018   0.00219  -0.00546   0.02352   0.01805   2.01823
    R6        2.62834  -0.00829  -0.00499  -0.00850  -0.01358   2.61476
    R7        2.02667   0.00728   0.00117   0.02024   0.02141   2.04808
    R8        2.62835  -0.00830  -0.00498  -0.00851  -0.01359   2.61476
    R9        3.32509  -0.00307  -0.00021  -0.01186  -0.01206   3.31303
   R10        2.64550  -0.00841  -0.00069  -0.02060  -0.02129   2.62421
   R11        2.02668   0.00729   0.00117   0.02025   0.02142   2.04809
   R12        2.00004   0.00223  -0.00550   0.02374   0.01825   2.01828
   R13        2.71379   0.00689   0.01640  -0.02867  -0.01208   2.70171
   R14        2.71450   0.00993   0.01658  -0.01887  -0.00218   2.71233
   R15        2.64192  -0.00957  -0.00159  -0.02315  -0.02466   2.61725
   R16        3.32089  -0.00031  -0.00126   0.00269   0.00144   3.32233
   R17        2.61658  -0.01383  -0.00793  -0.01664  -0.02469   2.59189
   R18        2.02615   0.00629   0.00104   0.01739   0.01842   2.04457
   R19        2.62153  -0.00391  -0.00669   0.00848   0.00159   2.62313
   R20        3.32101  -0.00726  -0.00123  -0.02576  -0.02698   3.29403
   R21        2.64794   0.00972  -0.00008   0.02843   0.02827   2.67621
   R22        3.32088  -0.00524  -0.00126  -0.01739  -0.01865   3.30223
   R23        3.31970  -0.00203  -0.00156  -0.00339  -0.00495   3.31476
    A1        2.02827  -0.01559  -0.01655  -0.01961  -0.03597   1.99230
    A2        2.12635   0.00719   0.00800   0.00779   0.01570   2.14204
    A3        2.12856   0.00840   0.00855   0.01182   0.02028   2.14884
    A4        2.12921   0.00816   0.00871   0.01479   0.02359   2.15280
    A5        2.09707   0.00293   0.00067   0.02533   0.02595   2.12302
    A6        2.05690  -0.01110  -0.00938  -0.04011  -0.04954   2.00736
    A7        2.09965  -0.00020   0.00131  -0.00816  -0.00693   2.09272
    A8        2.09201  -0.00084  -0.00060  -0.00299  -0.00354   2.08847
    A9        2.09153   0.00104  -0.00072   0.01115   0.01047   2.10200
   A10        2.08042  -0.00031  -0.00350   0.00638   0.00271   2.08312
   A11        2.10135   0.00012   0.00174  -0.00332  -0.00149   2.09986
   A12        2.10141   0.00019   0.00176  -0.00307  -0.00122   2.10020
   A13        2.09968  -0.00019   0.00132  -0.00809  -0.00686   2.09282
   A14        2.09150   0.00102  -0.00073   0.01107   0.01039   2.10188
   A15        2.09201  -0.00083  -0.00060  -0.00297  -0.00352   2.08848
   A16        2.12914   0.00813   0.00869   0.01469   0.02347   2.15261
   A17        2.09696   0.00269   0.00064   0.02360   0.02419   2.12115
   A18        2.05709  -0.01082  -0.00934  -0.03828  -0.04766   2.00943
   A19        2.13343   0.01169   0.00977   0.02187   0.03147   2.16490
   A20        2.13465   0.01077   0.01007   0.01648   0.02639   2.16103
   A21        2.01511  -0.02246  -0.01984  -0.03835  -0.05786   1.95725
   A22        2.12165   0.01340   0.00682   0.03861   0.04570   2.16735
   A23        2.18841   0.02172   0.02353   0.02900   0.05240   2.24081
   A24        1.97312  -0.03513  -0.03035  -0.06761  -0.09810   1.87503
   A25        2.11494   0.00479   0.00514  -0.00059   0.00450   2.11944
   A26        2.08464  -0.00274  -0.00244  -0.00268  -0.00510   2.07954
   A27        2.08361  -0.00205  -0.00270   0.00327   0.00060   2.08420
   A28        2.08199  -0.00250  -0.00310  -0.00702  -0.01044   2.07155
   A29        2.09629  -0.00593   0.00047  -0.02734  -0.02670   2.06959
   A30        2.10490   0.00843   0.00263   0.03436   0.03715   2.14205
   A31        2.11263  -0.00218   0.00456  -0.02244  -0.01815   2.09448
   A32        2.08514  -0.00778  -0.00232  -0.03112  -0.03330   2.05184
   A33        2.08542   0.00996  -0.00225   0.05356   0.05145   2.13687
   A34        2.12005   0.00895   0.00642   0.02979   0.03625   2.15630
   A35        2.18527   0.00771   0.02274  -0.04110  -0.01837   2.16690
   A36        1.97787  -0.01666  -0.02916   0.01131  -0.01788   1.95999
    D1        0.00000  -0.00000   0.00000  -0.00000  -0.00000   0.00000
    D2        3.14159   0.00000   0.00000   0.00000   0.00000  -3.14159
    D3       -3.14159  -0.00000  -0.00000  -0.00000  -0.00000   3.14159
    D4       -0.00000  -0.00000  -0.00000   0.00000   0.00000  -0.00000
    D5       -0.00000   0.00000  -0.00000   0.00000   0.00000  -0.00000
    D6        3.14159  -0.00000  -0.00000  -0.00000  -0.00000   3.14159
    D7        3.14159   0.00000   0.00000   0.00000   0.00000  -3.14159
    D8       -0.00000  -0.00000  -0.00000  -0.00000  -0.00000  -0.00000
    D9       -0.00000  -0.00000  -0.00000  -0.00001  -0.00001  -0.00002
   D10        3.14159  -0.00000  -0.00000  -0.00001  -0.00001   3.14158
   D11        3.14159  -0.00000  -0.00000  -0.00001  -0.00001   3.14158
   D12       -0.00000  -0.00000  -0.00000  -0.00001  -0.00001  -0.00002
   D13        0.00000  -0.00000  -0.00000  -0.00000  -0.00000  -0.00000
   D14        3.14159   0.00000  -0.00000   0.00000   0.00000   3.14159
   D15       -3.14159  -0.00000  -0.00000  -0.00000  -0.00000  -3.14159
   D16        0.00000  -0.00000  -0.00000  -0.00000  -0.00000   0.00000
   D17       -0.00000   0.00000   0.00000   0.00000   0.00000  -0.00000
   D18        3.14159   0.00000   0.00000   0.00000   0.00000   3.14159
   D19        3.14159   0.00000  -0.00000   0.00000   0.00000   3.14159
   D20        0.00000  -0.00000  -0.00000  -0.00000  -0.00000  -0.00000
   D21        0.00000  -0.00000   0.00000  -0.00000  -0.00000   0.00000
   D22       -3.14159  -0.00000   0.00000  -0.00000  -0.00000  -3.14159
   D23       -3.14159   0.00000  -0.00000   0.00000   0.00000  -3.14159
   D24        0.00000   0.00000   0.00000   0.00000   0.00000   0.00000
   D25       -0.00000   0.00000   0.00000   0.00000   0.00000   0.00000
   D26        3.14159   0.00000   0.00000   0.00000   0.00000  -3.14159
   D27        3.14159   0.00000  -0.00000   0.00000   0.00000   3.14159
   D28       -0.00000   0.00000   0.00000   0.00000   0.00000   0.00000
   D29        3.14159   0.00000   0.00000   0.00000   0.00000  -3.14159
   D30        0.00000  -0.00000   0.00000  -0.00000  -0.00000   0.00000
   D31        0.00000   0.00000   0.00000   0.00000   0.00000   0.00000
   D32       -3.14159  -0.00000  -0.00000  -0.00000  -0.00000   3.14159
   D33       -3.14159  -0.00000  -0.00000  -0.00000  -0.00000   3.14159
   D34       -0.00000  -0.00000  -0.00000  -0.00000  -0.00000  -0.00000
   D35       -0.00000   0.00000   0.00000   0.00000   0.00000  -0.00000
   D36        3.14159  -0.00000  -0.00000   0.00000   0.00000   3.14159
   D37       -0.00000  -0.00000  -0.00000  -0.00000  -0.00000  -0.00000
   D38        3.14159  -0.00000  -0.00000  -0.00000  -0.00000   3.14159
   D39        3.14159   0.00000   0.00000   0.00000   0.00000  -3.14159
   D40       -0.00000   0.00000   0.00000   0.00000   0.00000   0.00000
   D41       -0.00000   0.00000   0.00000   0.00000   0.00000   0.00000
   D42       -3.14159  -0.00000  -0.00000  -0.00000  -0.00000   3.14159
   D43        3.14159   0.00000   0.00000   0.00000   0.00000  -3.14159
   D44        0.00000  -0.00000   0.00000  -0.00000  -0.00000   0.00000
   D45        0.00000   0.00000   0.00000   0.00000   0.00000   0.00000
   D46       -3.14159  -0.00000  -0.00000  -0.00000  -0.00000  -3.14159
   D47        3.14159   0.00000   0.00000   0.00000   0.00000  -3.14159
   D48        0.00000  -0.00000   0.00000  -0.00000  -0.00000   0.00000
   D49        0.00000  -0.00000  -0.00000  -0.00000  -0.00000  -0.00000
   D50       -3.14159  -0.00000   0.00000  -0.00000  -0.00000  -3.14159
   D51        3.14159   0.00000   0.00000   0.00000   0.00000  -3.14159
   D52       -0.00000   0.00000   0.00000   0.00000   0.00000   0.00000
         Item               Value     Threshold  Converged?
 Maximum Force            0.035125     0.000450     NO 
 RMS     Force            0.006873     0.000300     NO 
 Maximum Displacement     0.245248     0.001800     NO 
 RMS     Displacement     0.038425     0.001200     NO 
 Predicted change in Energy=-4.197982D-03
 GradGradGradGradGradGradGradGradGradGradGradGradGradGradGradGradGradGrad

                          Input orientation:                          
 ---------------------------------------------------------------------
 Center     Atomic      Atomic             Coordinates (Angstroms)
 Number     Number       Type             X           Y           Z
 ---------------------------------------------------------------------
      1          6           0        0.966050   -0.598820    0.051211
      2          6           0        2.308290   -0.506309   -0.373614
      3          6           0        3.024657    0.683135   -0.386238
      4          6           0        2.421762    1.855995    0.032652
      5          6           0        1.106256    1.827128    0.460620
      6          6           0        0.406030    0.627935    0.466096
      7          6           0        0.180031   -1.934124    0.059389
[...]
                 (A) (A) (A) (A) (A) (A) (A) (A) (A) (A) (A) (A)
                 (A) (A) (A) (A) (A) (A) (A) (A) (A) (A) (A) (A)
                 (A) (A) (A) (A) (A) (A) (A) (A) (A)
       Virtual   (A) (A) (A) (A) (A) (A) (A) (A) (A) (A) (A) (A)
                 (A) (A) (A) (A) (A) (A) (A) (A) (A) (A) (A) (A)
                 (A) (A) (A) (A) (A) (A) (A) (A) (A) (A) (A) (A)
                 (A) (A) (A) (A) (A) (A) (A) (A) (A) (A) (A) (A)
                 (A) (A) (A) (A) (A) (A) (A) (A) (A) (A) (A) (A)
                 (A) (A) (A) (A) (A) (A) (A) (A) (A) (A) (A) (A)
                 (A) (A) (A) (A) (A) (A) (A) (A) (A) (A) (A) (A)
                 (A) (A) (A) (A) (A) (A) (A) (A) (A) (A) (A) (A)
                 (A) (A) (A) (A) (A) (A) (A) (A) (A) (A) (A) (A)
                 (A) (A) (A) (A) (A) (A) (A) (A) (A) (A) (A) (A)
                 (A) (A) (A) (A) (A) (A) (A) (A) (A) (A) (A) (A)
                 (A) (A) (A) (A) (A) (A) (A) (A) (A) (A) (A) (A)
                 (A) (A) (A) (A) (A) (A) (A) (A) (A) (A) (A) (A)
                 (A) (A) (A) (A) (A) (A) (A) (A) (A) (A) (A) (A)
                 (A) (A) (A) (A) (A) (A) (A) (A) (A) (A) (A) (A)
                 (A) (A) (A) (A) (A) (A) (A) (A) (A) (A) (A) (A)
                 (A) (A) (A) (A) (A) (A) (A) (A) (A) (A) (A) (A)
                 (A) (A) (A) (A) (A) (A) (A) (A) (A) (A) (A) (A)
                 (A) (A) (A) (A) (A) (A) (A) (A) (A) (A) (A) (A)
                 (A) (A) (A) (A) (A) (A) (A) (A) (A) (A) (A) (A)
                 (A) (A) (A) (A) (A) (A) (A) (A) (A) (A) (A) (A)
                 (A) (A) (A) (A) (A) (A) (A) (A) (A) (A) (A) (A)
                 (A) (A) (A) (A) (A) (A) (A) (A) (A) (A) (A) (A)
                 (A) (A) (A) (A) (A) (A) (A) (A) (A) (A) (A) (A)
                 (A) (A) (A) (A) (A) (A) (A) (A) (A) (A) (A) (A)
                 (A) (A) (A) (A) (A) (A) (A) (A) (A) (A) (A) (A)
                 (A) (A) (A) (A) (A) (A) (A) (A) (A) (A) (A) (A)
                 (A) (A) (A) (A) (A) (A) (A) (A) (A) (A) (A) (A)
                 (A) (A) (A) (A) (A) (A) (A) (A) (A) (A) (A) (A)
                 (A) (A) (A) (A) (A) (A) (A) (A) (A) (A) (A) (A)
 The electronic state is 1-A.
 Alpha  occ. eigenvalues -- -101.57995-101.57922-101.57734-101.57601-101.56286
 Alpha  occ. eigenvalues --  -10.28049 -10.27875 -10.27824 -10.27369 -10.25333
 Alpha  occ. eigenvalues --  -10.23664 -10.22276 -10.21482 -10.20382 -10.20380
 Alpha  occ. eigenvalues --  -10.20278 -10.20278  -9.49452  -9.49386  -9.49209
 Alpha  occ. eigenvalues --   -9.49067  -9.47743  -7.25945  -7.25889  -7.25700
 Alpha  occ. eigenvalues --   -7.25545  -7.24930  -7.24868  -7.24866  -7.24783
 Alpha  occ. eigenvalues --   -7.24696  -7.24608  -7.24549  -7.24491  -7.24202
 Alpha  occ. eigenvalues --   -7.23227  -7.23191  -0.95971  -0.91573  -0.90736
 Alpha  occ. eigenvalues --   -0.90360  -0.87353  -0.85781  -0.83690  -0.79142
 Alpha  occ. eigenvalues --   -0.77910  -0.75496  -0.73501  -0.65140  -0.64279
 Alpha  occ. eigenvalues --   -0.63573  -0.60796  -0.55468  -0.54734  -0.51992
 Alpha  occ. eigenvalues --   -0.49967  -0.49220  -0.48229  -0.46977  -0.45880
 Alpha  occ. eigenvalues --   -0.45806  -0.45167  -0.43160  -0.42812  -0.41015
 Alpha  occ. eigenvalues --   -0.39853  -0.39181  -0.38726  -0.38078  -0.35836
 Alpha  occ. eigenvalues --   -0.35585  -0.35318  -0.34303  -0.33684  -0.32827
 Alpha  occ. eigenvalues --   -0.32610  -0.32011  -0.28385  -0.27808  -0.26849
 Alpha  occ. eigenvalues --   -0.26354
 Alpha virt. eigenvalues --   -0.06113  -0.05770  -0.04711  -0.04143  -0.03812
 Alpha virt. eigenvalues --   -0.01068  -0.00102   0.00547   0.00858   0.01383
 Alpha virt. eigenvalues --    0.01518   0.02156   0.02733   0.03341   0.04019
 Alpha virt. eigenvalues --    0.04392   0.05007   0.05610   0.06168   0.06290
 Alpha virt. eigenvalues --    0.06504   0.06969   0.07690   0.08018   0.08173
 Alpha virt. eigenvalues --    0.08822   0.08929   0.09422   0.09714   0.10483
 Alpha virt. eigenvalues --    0.10609   0.11332   0.11689   0.11748   0.11837
 Alpha virt. eigenvalues --    0.12274   0.12814   0.12986   0.13089   0.14284
 Alpha virt. eigenvalues --    0.14426   0.14725   0.14783   0.14886   0.15763
 Alpha virt. eigenvalues --    0.15828   0.16019   0.16787   0.17312   0.18071
 Alpha virt. eigenvalues --    0.18371   0.18731   0.18801   0.19074   0.19180
 Alpha virt. eigenvalues --    0.19868   0.20570   0.20716   0.20849   0.21307
 Alpha virt. eigenvalues --    0.21891   0.22029   0.22548   0.22599   0.22926
 Alpha virt. eigenvalues --    0.23573   0.24072   0.24269   0.24617   0.25135
 Alpha virt. eigenvalues --    0.25655   0.25882   0.25967   0.26217   0.26791
 Alpha virt. eigenvalues --    0.27219   0.27648   0.28080   0.28740   0.28886
 Alpha virt. eigenvalues --    0.29745   0.29902   0.31407   0.31408   0.31531
 Alpha virt. eigenvalues --    0.32476   0.32926   0.33561   0.35059   0.36596
 Alpha virt. eigenvalues --    0.39434   0.41279   0.43228   0.43963   0.44205
 Alpha virt. eigenvalues --    0.44508   0.44759   0.45395   0.45612   0.46180
 Alpha virt. eigenvalues --    0.47046   0.47372   0.47506   0.47983   0.48769
 Alpha virt. eigenvalues --    0.50337   0.50582   0.51486   0.51534   0.52775
 Alpha virt. eigenvalues --    0.53982   0.55094   0.56432   0.56540   0.57082
 Alpha virt. eigenvalues --    0.57769   0.58563   0.59549   0.59664   0.60473
 Alpha virt. eigenvalues --    0.61189   0.61692   0.62386   0.63224   0.64149
 Alpha virt. eigenvalues --    0.64697   0.64784   0.65569   0.66471   0.68007
 Alpha virt. eigenvalues --    0.68918   0.69051   0.69213   0.70196   0.70672
 Alpha virt. eigenvalues --    0.70944   0.72881   0.73445   0.75710   0.78866
 Alpha virt. eigenvalues --    0.80325   0.80750   0.80924   0.82208   0.82432
 Alpha virt. eigenvalues --    0.83278   0.84012   0.84028   0.84253   0.84498
 Alpha virt. eigenvalues --    0.84517   0.85146   0.85178   0.85442   0.85905
 Alpha virt. eigenvalues --    0.85975   0.86325   0.87132   0.87468   0.88592
 Alpha virt. eigenvalues --    0.88662   0.90161   0.91597   0.91785   0.92664
 Alpha virt. eigenvalues --    0.93830   0.94554   0.94711   0.95074   0.95438
 Alpha virt. eigenvalues --    0.96121   0.96215   0.97073   0.98484   0.99430
 Alpha virt. eigenvalues --    0.99476   1.00849   1.02525   1.02591   1.04696
 Alpha virt. eigenvalues --    1.05786   1.05863   1.08489   1.11706   1.11869
 Alpha virt. eigenvalues --    1.16080   1.17604   1.18674   1.18763   1.21043
 Alpha virt. eigenvalues --    1.23126   1.24520   1.26344   1.26638   1.27527
 Alpha virt. eigenvalues --    1.28663   1.29347   1.29850   1.30110   1.31482
 Alpha virt. eigenvalues --    1.35887   1.37569   1.40025   1.43170   1.44167
 Alpha virt. eigenvalues --    1.47490   1.48883   1.49843   1.54147   1.54310
 Alpha virt. eigenvalues --    1.54688   1.56383   1.58821   1.60564   1.61047
 Alpha virt. eigenvalues --    1.62065   1.67146   1.67422   1.67972   1.69028
 Alpha virt. eigenvalues --    1.71106   1.74600   1.75441   1.78116   1.78190
 Alpha virt. eigenvalues --    1.79807   1.81942   1.82322   1.84468   1.85982
 Alpha virt. eigenvalues --    1.86048   1.90697   1.93009   1.93246   1.93571
 Alpha virt. eigenvalues --    1.94155   1.96608   1.97893   1.99860   2.03072
 Alpha virt. eigenvalues --    2.03167   2.05168   2.06036   2.11073   2.11580
 Alpha virt. eigenvalues --    2.13074   2.15939   2.20657   2.22687   2.25108
 Alpha virt. eigenvalues --    2.25612   2.26281   2.26376   2.27521   2.28296
 Alpha virt. eigenvalues --    2.29550   2.30051   2.35528   2.35899   2.38725
 Alpha virt. eigenvalues --    2.39895   2.41226   2.41630   2.42127   2.44380
 Alpha virt. eigenvalues --    2.47071   2.49063   2.49946   2.52032   2.54309
 Alpha virt. eigenvalues --    2.54790   2.57765   2.61128   2.62199   2.64689
 Alpha virt. eigenvalues --    2.66189   2.66384   2.69153   2.70079   2.71355
 Alpha virt. eigenvalues --    2.72153   2.74309   2.74360   2.74828   2.75511
 Alpha virt. eigenvalues --    2.75873   2.78423   2.82897   2.83526   2.84831
 Alpha virt. eigenvalues --    2.87263   2.90315   2.92065   2.96835   2.99738
 Alpha virt. eigenvalues --    3.05688   3.09007   3.09922   3.11661   3.13392
 Alpha virt. eigenvalues --    3.14802   3.14923   3.20222   3.23319   3.27384
 Alpha virt. eigenvalues --    3.31872   3.38544   3.42922   3.47416   3.51177
 Alpha virt. eigenvalues --    3.59792   3.62832   3.69770   3.75640   3.80857
 Alpha virt. eigenvalues --    3.91683   3.96471   4.01229   4.12431   4.13907
 Alpha virt. eigenvalues --    4.32836   4.79931   4.82534   9.74666   9.77417
 Alpha virt. eigenvalues --    9.78985   9.80778   9.83636  23.34008  23.59078
 Alpha virt. eigenvalues --   23.81063  23.83256  23.89694  23.93658  23.93784
 Alpha virt. eigenvalues --   23.96425  24.06392  24.07734  24.09190  24.16892
 Alpha virt. eigenvalues --   25.77337  25.82787  25.83017  25.86392  25.92859
 Alpha virt. eigenvalues --   26.09454  26.11804  26.14820  26.24012  26.35746
 Alpha virt. eigenvalues --   26.47704  26.60064  26.62266  26.72155  26.95512
 Alpha virt. eigenvalues --  215.73732 215.76495 215.78471 215.80681 215.84183
          Condensed to atoms (all electrons):
               1          2          3          4          5          6
     1  C   26.275716  -0.822252  -0.693281  -6.695634  -0.694089  -0.828390
     2  C   -0.822252  27.477118  -6.073642   3.675260  -3.882032  -4.733059
     3  C   -0.693281  -6.073642  23.797230  -4.927045  -6.787420  -3.880873
     4  C   -6.695634   3.675260  -4.927045  20.223402  -4.932220   3.678696
     5  C   -0.694089  -3.882032  -6.787420  -4.932220  23.814210  -6.094910
     6  C   -0.828390  -4.733059  -3.880873   3.678696  -6.094910  27.500430
     7  C    5.980276  -2.716369   1.892327  -2.163929   1.890450  -2.709512
     8  C   -5.716985  -2.927595   1.551121  -1.313406   1.557461  -2.927696
     9  C   -4.496696  -1.047783   0.353371  -0.312068   0.355633  -1.049870
    10  C   -1.138260  -0.305313   0.058838  -0.081279   0.059592  -0.302988
    11  C   -2.779990  -0.739119   0.354331  -0.134452   0.354957  -0.739909
    12  C   -2.390558  -2.183207   0.904392  -1.060511   0.905843  -2.185054
    13  H    0.069521   0.162103   0.010665  -0.072272   0.000623  -0.010748
    14  H    0.019400  -0.027442   0.256300   0.068166   0.063734  -0.024137
    15  H    0.019271  -0.024221   0.063825   0.068244   0.256116  -0.027239
    16  H    0.069487  -0.010730   0.000597  -0.072268   0.010669   0.162126
    17  H    0.029668   0.000595  -0.000396   0.000008  -0.000401   0.000564
    18  Cl  -0.747159   0.419979  -0.031486   0.113144  -0.030308   0.417880
    19  Cl  -0.125012  -0.039553   0.013255  -0.005847   0.013244  -0.039471
    20  Cl  -0.079430  -0.022917   0.005178  -0.002258   0.005211  -0.022861
    21  Cl  -0.355861   0.414341  -0.004538  -1.119616  -0.003697   0.413402
    22  Cl   0.333600   0.405747  -0.048504   0.127008  -0.049035   0.406502
               7          8          9         10         11         12
     1  C    5.980276  -5.716985  -4.496696  -1.138260  -2.779990  -2.390558
     2  C   -2.716369  -2.927595  -1.047783  -0.305313  -0.739119  -2.183207
     3  C    1.892327   1.551121   0.353371   0.058838   0.354331   0.904392
     4  C   -2.163929  -1.313406  -0.312068  -0.081279  -0.134452  -1.060511
     5  C    1.890450   1.557461   0.355633   0.059592   0.354957   0.905843
     6  C   -2.709512  -2.927696  -1.049870  -0.302988  -0.739909  -2.185054
     7  C   26.270866 -10.530157  -8.495125   1.633320  -4.519046   0.870691
     8  C  -10.530157  32.571602  -3.169816  -6.189168   8.153053  -5.060042
     9  C   -8.495125  -3.169816  29.294150   3.232784 -13.338453   5.726599
    10  C    1.633320  -6.189168   3.232784  20.275071  -8.451270  -1.757798
    11  C   -4.519046   8.153053 -13.338453  -8.451270  30.364568  -3.482417
    12  C    0.870691  -5.060042   5.726599  -1.757798  -3.482417  18.857195
    13  H    0.050774   0.057835   0.017711   0.006028   0.004810   0.065009
    14  H   -0.000738  -0.000199   0.000087   0.000111  -0.000567   0.001734
    15  H   -0.000702  -0.000206   0.000084   0.000111  -0.000567   0.001734
    16  H    0.050629   0.057871   0.017763   0.006036   0.004792   0.065090
    17  H    0.160073   0.039276   0.090946  -0.005564   0.054590  -0.020532
    18  Cl  -0.771366  -0.068669   1.160063   0.643116  -0.972691  -1.719223
    19  Cl  -0.866984   0.637812  -0.010771  -0.654991   0.024404   0.485953
    20  Cl   0.087512  -0.520715  -0.020779  -0.341237   0.334910  -0.072304
    21  Cl  -0.069131  -0.029254  -0.004036  -0.002026   0.005043  -0.031773
    22  Cl  -0.276278  -0.049142  -1.512474  -0.671908   0.835206  -0.653972
              13         14         15         16         17         18
     1  C    0.069521   0.019400   0.019271   0.069487   0.029668  -0.747159
     2  C    0.162103  -0.027442  -0.024221  -0.010730   0.000595   0.419979
     3  C    0.010665   0.256300   0.063825   0.000597  -0.000396  -0.031486
     4  C   -0.072272   0.068166   0.068244  -0.072268   0.000008   0.113144
     5  C    0.000623   0.063734   0.256116   0.010669  -0.000401  -0.030308
     6  C   -0.010748  -0.024137  -0.027239   0.162126   0.000564   0.417880
     7  C    0.050774  -0.000738  -0.000702   0.050629   0.160073  -0.771366
     8  C    0.057835  -0.000199  -0.000206   0.057871   0.039276  -0.068669
     9  C    0.017711   0.000087   0.000084   0.017763   0.090946   1.160063
    10  C    0.006028   0.000111   0.000111   0.006036  -0.005564   0.643116
    11  C    0.004810  -0.000567  -0.000567   0.004792   0.054590  -0.972691
    12  C    0.065009   0.001734   0.001734   0.065090  -0.020532  -1.719223
    13  H    0.537748  -0.007567   0.000063  -0.000021  -0.000000  -0.010254
    14  H   -0.007567   0.512347  -0.000301   0.000063   0.000000  -0.000874
    15  H    0.000063  -0.000301   0.512348  -0.007567   0.000000  -0.000876
    16  H   -0.000021   0.000063  -0.007567   0.537748  -0.000000  -0.010251
    17  H   -0.000000   0.000000   0.000000  -0.000000   0.489555   0.000622
    18  Cl  -0.010254  -0.000874  -0.000876  -0.010251   0.000622  18.445674
    19  Cl   0.000445  -0.000003  -0.000003   0.000447  -0.000719  -0.352958
    20  Cl   0.000149  -0.000001  -0.000001   0.000150  -0.007306  -0.013788
    21  Cl  -0.001141  -0.012450  -0.012449  -0.001140  -0.000001   0.006297
    22  Cl  -0.009350  -0.000839  -0.000837  -0.009364  -0.005817  -0.081849
              19         20         21         22
     1  C   -0.125012  -0.079430  -0.355861   0.333600
     2  C   -0.039553  -0.022917   0.414341   0.405747
     3  C    0.013255   0.005178  -0.004538  -0.048504
     4  C   -0.005847  -0.002258  -1.119616   0.127008
     5  C    0.013244   0.005211  -0.003697  -0.049035
     6  C   -0.039471  -0.022861   0.413402   0.406502
     7  C   -0.866984   0.087512  -0.069131  -0.276278
     8  C    0.637812  -0.520715  -0.029254  -0.049142
     9  C   -0.010771  -0.020779  -0.004036  -1.512474
    10  C   -0.654991  -0.341237  -0.002026  -0.671908
    11  C    0.024404   0.334910   0.005043   0.835206
    12  C    0.485953  -0.072304  -0.031773  -0.653972
    13  H    0.000445   0.000149  -0.001141  -0.009350
    14  H   -0.000003  -0.000001  -0.012450  -0.000839
    15  H   -0.000003  -0.000001  -0.012449  -0.000837
    16  H    0.000447   0.000150  -0.001140  -0.009364
    17  H   -0.000719  -0.007306  -0.000001  -0.005817
    18  Cl  -0.352958  -0.013788   0.006297  -0.081849
    19  Cl  17.528758  -0.195140   0.000047   0.003089
    20  Cl  -0.195140  17.391835   0.000009  -0.046212
    21  Cl   0.000047   0.000009  17.419742   0.007075
    22  Cl   0.003089  -0.046212   0.007075  17.905169
 Mulliken charges:
               1
     1  C    0.766660
     2  C   -0.999909
     3  C   -0.814246
     4  C    0.938878
     5  C   -0.813629
     6  C   -1.002883
     7  C    0.232419
     8  C   -0.122982
     9  C   -0.791319
    10  C   -0.013207
    11  C    0.667818
    12  C   -1.266846
    13  H    0.127871
    14  H    0.153177
    15  H    0.153173
    16  H    0.127875
    17  H    0.174840
    18  Cl   0.604977
    19  Cl   0.583999
    20  Cl   0.519993
    21  Cl   0.381157
    22  Cl   0.392186
 Sum of Mulliken charges =  -0.00000
 Mulliken charges with hydrogens summed into heavy atoms:
               1
     1  C    0.766660
     2  C   -0.872038
     3  C   -0.661070
     4  C    0.938878
     5  C   -0.660456
     6  C   -0.875008
     7  C    0.232419
     8  C   -0.122982
     9  C   -0.616479
    10  C   -0.013207
    11  C    0.667818
    12  C   -1.266846
    18  Cl   0.604977
    19  Cl   0.583999
    20  Cl   0.519993
    21  Cl   0.381157
    22  Cl   0.392186
 Electronic spatial extent (au):  <R**2>=           7687.2645
 Charge=              0.0000 electrons
 Dipole moment (field-independent basis, Debye):
    X=             -0.4066    Y=              0.8257    Z=             -0.0002  Tot=              0.9204
 Quadrupole moment (field-independent basis, Debye-Ang):
   XX=           -141.8359   YY=           -134.4145   ZZ=           -126.3116
   XY=             -2.6347   XZ=             -0.0042   YZ=             -0.0032
 Traceless Quadrupole moment (field-independent basis, Debye-Ang):
   XX=             -7.6486   YY=             -0.2272   ZZ=              7.8757
   XY=             -2.6347   XZ=             -0.0042   YZ=             -0.0032
 Octapole moment (field-independent basis, Debye-Ang**2):
  XXX=            -56.9948  YYY=             -5.8128  ZZZ=             -0.0005  XYY=            -17.9449
  XXY=              5.9791  XXZ=             -0.0171  XZZ=             15.5355  YZZ=             -3.2772
  YYZ=              0.0033  XYZ=             -0.0139
 Hexadecapole moment (field-independent basis, Debye-Ang**3):
 XXXX=          -8063.7215 YYYY=          -1868.3660 ZZZZ=           -372.9881 XXXY=             15.0001
 XXXZ=             -0.1062 YYYX=             15.7444 YYYZ=              0.0203 ZZZX=             -0.0058
 ZZZY=             -0.0245 XXYY=          -1612.4624 XXZZ=          -1327.6196 YYZZ=           -404.7203
 XXYZ=             -0.0184 YYXZ=             -0.0018 ZZXY=              3.6046
 N-N= 1.710670634879D+03 E-N=-9.958016354746D+03  KE= 2.754119087873D+03
 1\1\GINC-DAMODAR\FOpt\RB3LYP\6-311+G(d,p)\C12H5Cl5\PKC\16-Mar-2022\0\\
 # opt b3lyp/6-311+g(d,p) scf=xqc\\Title Card Required\\0,1\C,0.9383172
 085,-0.645348755,0.0464357371\C,2.1865450017,-0.5630611654,0.668147489
 4\C,2.9047336096,0.6293647455,0.6676468244\C,2.3639230697,1.7452182581
 ,0.0374297246\C,1.1233142422,1.6870421704,-0.5888873173\C,0.4158561876
 ,0.4882508963,-0.5808317564\C,0.1762959373,-1.9295849681,0.0447535342\
 C,0.3350881587,-2.874899147,-0.9759042123\C,-0.3664271757,-4.072862633
 ,-0.9912387772\C,-1.2587265868,-4.355764133,0.0341723593\C,-1.45624783
 71,-3.4463127223,1.0797662269\C,-0.7331099323,-2.2432410711,1.06851427
 76\H,2.6040678078,-1.4351332371,1.1580468716\H,3.8716917677,0.69161093
 13,1.1499852294\H,0.7170548735,2.564550089,-1.0751638451\H,-0.55135717
 92,0.4381902217,-1.0675313071\H,-0.2222093287,-4.7827326301,-1.7932659
 259\Cl,-0.9640318333,-1.0948751328,2.3618355708\Cl,-2.5729403788,-3.80
 47198998,2.3599713265\Cl,-2.1208393503,-5.8707535273,-0.0208050719\Cl,
 3.2641111213,3.2548065852,0.0319314045\Cl,1.4486541865,-2.5676974355,-
 2.293849723\\Version=EM64L-G16RevB.01\State=1-A\HF=-2761.5138431\RMSD=
 3.380e-09\RMSF=2.168e-05\Dipole=0.0362268,-0.2488755,-0.2605048\Quadru
 pole=0.528967,-1.609582,1.080615,-4.6998561,3.5933342,0.3778657\PG=C01
  [X(C12H5Cl5)]\\@


 MICRO CREDO - NEVER TRUST A COMPUTER BIGGER
               BIGGER THAN YOU CAN LIFT.
 Job cpu time:       0 days 14 hours 55 minutes 24.5 seconds.
 Elapsed time:       0 days  3 hours 44 minutes 30.8 seconds.
 File lengths (MBytes):  RWF=    133 Int=      0 D2E=      0 Chk=     21 Scr=      1
 Normal termination of Gaussian 16 at Wed Mar 16 20:42:16 2022.
