 Entering Gaussian System, Link 0=g16
 Input=2,3,3prime,4,4prime,6-Hexachlorobiphenyl.gjf
 Output=2,3,3prime,4,4prime,6-Hexachlorobiphenyl.log
 Initial command:
 /opt/g16/l1.exe "/scratch/gour/Gau-105178.inp" -scrdir="/scratch/gour/"
 Entering Link 1 = /opt/g16/l1.exe PID=    105179.
  
 Copyright (c) 1988-2017, Gaussian, Inc.  All Rights Reserved.
  
 This is part of the Gaussian(R) 16 program.  It is based on
 the Gaussian(R) 09 system (copyright 2009, Gaussian, Inc.),
 the Gaussian(R) 03 system (copyright 2003, Gaussian, Inc.),
 the Gaussian(R) 98 system (copyright 1998, Gaussian, Inc.),
 the Gaussian(R) 94 system (copyright 1995, Gaussian, Inc.),
 the Gaussian 92(TM) system (copyright 1992, Gaussian, Inc.),
 the Gaussian 90(TM) system (copyright 1990, Gaussian, Inc.),
 the Gaussian 88(TM) system (copyright 1988, Gaussian, Inc.),
 the Gaussian 86(TM) system (copyright 1986, Carnegie Mellon
 University), and the Gaussian 82(TM) system (copyright 1983,
 Carnegie Mellon University). Gaussian is a federally registered
 trademark of Gaussian, Inc.
  
 This software contains proprietary and confidential information,
 including trade secrets, belonging to Gaussian, Inc.
  
 This software is provided under written license and may be
 used, copied, transmitted, or stored only in accord with that
 written license.
  
 The following legend is applicable only to US Government
 contracts under FAR:
  
                    RESTRICTED RIGHTS LEGEND
  
 Use, reproduction and disclosure by the US Government is
 subject to restrictions as set forth in subparagraphs (a)
 and (c) of the Commercial Computer Software - Restricted
 Rights clause in FAR 52.227-19.
  
 Gaussian, Inc.
 340 Quinnipiac St., Bldg. 40, Wallingford CT 06492
  
  
 ---------------------------------------------------------------
 Warning -- This program may not be used in any manner that
 competes with the business of Gaussian, Inc. or will provide
 assistance to any competitor of Gaussian, Inc.  The licensee
 of this program is prohibited from giving any competitor of
 Gaussian, Inc. access to this program.  By using this program,
 the user acknowledges that Gaussian, Inc. is engaged in the
 business of creating and licensing software in the field of
 computational chemistry and represents and warrants to the
 licensee that it is not a competitor of Gaussian, Inc. and that
 it will not use this program in any manner prohibited above.
 ---------------------------------------------------------------
  

 Cite this work as:
 Gaussian 16, Revision B.01,
 M. J. Frisch, G. W. Trucks, H. B. Schlegel, G. E. Scuseria, 
 M. A. Robb, J. R. Cheeseman, G. Scalmani, V. Barone, 
 G. A. Petersson, H. Nakatsuji, X. Li, M. Caricato, A. V. Marenich, 
 J. Bloino, B. G. Janesko, R. Gomperts, B. Mennucci, H. P. Hratchian, 
 J. V. Ortiz, A. F. Izmaylov, J. L. Sonnenberg, D. Williams-Young, 
 F. Ding, F. Lipparini, F. Egidi, J. Goings, B. Peng, A. Petrone, 
 T. Henderson, D. Ranasinghe, V. G. Zakrzewski, J. Gao, N. Rega, 
 G. Zheng, W. Liang, M. Hada, M. Ehara, K. Toyota, R. Fukuda, 
 J. Hasegawa, M. Ishida, T. Nakajima, Y. Honda, O. Kitao, H. Nakai, 
 T. Vreven, K. Throssell, J. A. Montgomery, Jr., J. E. Peralta, 
 F. Ogliaro, M. J. Bearpark, J. J. Heyd, E. N. Brothers, K. N. Kudin, 
 V. N. Staroverov, T. A. Keith, R. Kobayashi, J. Normand, 
 K. Raghavachari, A. P. Rendell, J. C. Burant, S. S. Iyengar, 
 J. Tomasi, M. Cossi, J. M. Millam, M. Klene, C. Adamo, R. Cammi, 
 J. W. Ochterski, R. L. Martin, K. Morokuma, O. Farkas, 
 J. B. Foresman, and D. J. Fox, Gaussian, Inc., Wallingford CT, 2016.
 
 ******************************************
 Gaussian 16:  EM64L-G16RevB.01 20-Dec-2017
                17-Mar-2022 
 ******************************************
 %mem=10GB
 %nprocshared=4
 Will use up to    4 processors via shared memory.
 --------------------------------
 # opt b3lyp/6-311+g(d,p) scf=xqc
 --------------------------------
 1/18=20,19=15,26=3,38=1/1,3;
 2/9=110,12=2,17=6,18=5,40=1/2;
 3/5=4,6=6,7=111,11=2,25=1,30=1,71=1,74=-5/1,2,3;
 4//1;
 5/5=2,8=3,13=1,38=5/2,8;
 6/7=2,8=2,9=2,10=2,28=1/1;
 7//1,2,3,16;
 1/18=20,19=15,26=3/3(2);
 2/9=110/2;
 99//99;
 2/9=110/2;
 3/5=4,6=6,7=111,11=2,25=1,30=1,71=1,74=-5/1,2,3;
 4/5=5,16=3,69=1/1;
 5/5=2,8=3,13=1,38=5/2,8;
 7//1,2,3,16;
 1/18=20,19=15,26=3/3(-5);
 2/9=110/2;
 6/7=2,8=2,9=2,10=2,19=2,28=1/1;
 99/9=1/99;
 -------------------
 Title Card Required
 -------------------
 Symbolic Z-matrix:
 Charge =  0 Multiplicity = 1
 C                     0.62455  -0.34275  -0.00285 
 C                     1.95693  -0.31287  -0.4362 
 C                     2.66482   0.89658  -0.44227 
 C                     2.04033   2.07615  -0.015 
 C                     0.70795   2.04626   0.41835 
 C                     0.00006   0.83681   0.42442 
 C                    -0.15336  -1.67182   0.00382 
 C                     0.47113  -2.85139  -0.42345 
 C                    -0.23676  -4.06084  -0.41738 
 C                    -1.56914  -4.09072   0.01597 
 C                    -2.19363  -2.91116   0.44325 
 C                    -1.48574  -1.70171   0.43717 
 H                     2.43374  -1.21349  -0.76243 
 H                     3.68212   0.9194   -0.77314 
 H                    -1.01724   0.81399   0.75529 
 H                     0.24005  -4.96146  -0.74361 
 Cl                   -2.27002  -0.22031   0.97378 
 Cl                   -3.86695  -2.94869   0.98749 
 Cl                   -0.07633   3.52766   0.95496 
 Cl                   -2.45818  -5.60966   0.0236 
 Cl                    2.92937   3.59508  -0.02262 
 Cl                    2.14445  -2.81385  -0.96769 
 

 GradGradGradGradGradGradGradGradGradGradGradGradGradGradGradGradGradGrad
 Berny optimization.
 Initialization pass.
                           ----------------------------
                           !    Initial Parameters    !
                           ! (Angstroms and Degrees)  !
 --------------------------                            --------------------------
 ! Name  Definition              Value          Derivative Info.                !
 --------------------------------------------------------------------------------
 ! R1    R(1,2)                  1.4014         estimate D2E/DX2                !
 ! R2    R(1,6)                  1.4014         estimate D2E/DX2                !
 ! R3    R(1,7)                  1.54           estimate D2E/DX2                !
 ! R4    R(2,3)                  1.4014         estimate D2E/DX2                !
 ! R5    R(2,13)                 1.07           estimate D2E/DX2                !
 ! R6    R(3,4)                  1.4014         estimate D2E/DX2                !
 ! R7    R(3,14)                 1.07           estimate D2E/DX2                !
 ! R8    R(4,5)                  1.4014         estimate D2E/DX2                !
 ! R9    R(4,21)                 1.76           estimate D2E/DX2                !
 ! R10   R(5,6)                  1.4014         estimate D2E/DX2                !
 ! R11   R(5,19)                 1.76           estimate D2E/DX2                !
 ! R12   R(6,15)                 1.07           estimate D2E/DX2                !
 ! R13   R(7,8)                  1.4014         estimate D2E/DX2                !
 ! R14   R(7,12)                 1.4014         estimate D2E/DX2                !
 ! R15   R(8,9)                  1.4014         estimate D2E/DX2                !
 ! R16   R(8,22)                 1.76           estimate D2E/DX2                !
 ! R17   R(9,10)                 1.4014         estimate D2E/DX2                !
 ! R18   R(9,16)                 1.07           estimate D2E/DX2                !
 ! R19   R(10,11)                1.4014         estimate D2E/DX2                !
 ! R20   R(10,20)                1.76           estimate D2E/DX2                !
 ! R21   R(11,12)                1.4014         estimate D2E/DX2                !
 ! R22   R(11,18)                1.76           estimate D2E/DX2                !
 ! R23   R(12,17)                1.76           estimate D2E/DX2                !
 ! A1    A(2,1,6)              120.0            estimate D2E/DX2                !
 ! A2    A(2,1,7)              120.0            estimate D2E/DX2                !
 ! A3    A(6,1,7)              120.0            estimate D2E/DX2                !
 ! A4    A(1,2,3)              120.0            estimate D2E/DX2                !
 ! A5    A(1,2,13)             120.0            estimate D2E/DX2                !
 ! A6    A(3,2,13)             120.0            estimate D2E/DX2                !
 ! A7    A(2,3,4)              120.0            estimate D2E/DX2                !
 ! A8    A(2,3,14)             120.0            estimate D2E/DX2                !
 ! A9    A(4,3,14)             120.0            estimate D2E/DX2                !
 ! A10   A(3,4,5)              120.0            estimate D2E/DX2                !
 ! A11   A(3,4,21)             120.0            estimate D2E/DX2                !
 ! A12   A(5,4,21)             120.0            estimate D2E/DX2                !
 ! A13   A(4,5,6)              120.0            estimate D2E/DX2                !
 ! A14   A(4,5,19)             120.0            estimate D2E/DX2                !
 ! A15   A(6,5,19)             120.0            estimate D2E/DX2                !
 ! A16   A(1,6,5)              120.0            estimate D2E/DX2                !
 ! A17   A(1,6,15)             120.0            estimate D2E/DX2                !
 ! A18   A(5,6,15)             120.0            estimate D2E/DX2                !
 ! A19   A(1,7,8)              120.0            estimate D2E/DX2                !
 ! A20   A(1,7,12)             120.0            estimate D2E/DX2                !
 ! A21   A(8,7,12)             120.0            estimate D2E/DX2                !
 ! A22   A(7,8,9)              120.0            estimate D2E/DX2                !
 ! A23   A(7,8,22)             120.0            estimate D2E/DX2                !
 ! A24   A(9,8,22)             120.0            estimate D2E/DX2                !
 ! A25   A(8,9,10)             120.0            estimate D2E/DX2                !
 ! A26   A(8,9,16)             120.0            estimate D2E/DX2                !
 ! A27   A(10,9,16)            120.0            estimate D2E/DX2                !
 ! A28   A(9,10,11)            120.0            estimate D2E/DX2                !
 ! A29   A(9,10,20)            120.0            estimate D2E/DX2                !
 ! A30   A(11,10,20)           120.0            estimate D2E/DX2                !
 ! A31   A(10,11,12)           120.0            estimate D2E/DX2                !
 ! A32   A(10,11,18)           120.0            estimate D2E/DX2                !
 ! A33   A(12,11,18)           120.0            estimate D2E/DX2                !
 ! A34   A(7,12,11)            120.0            estimate D2E/DX2                !
 ! A35   A(7,12,17)            120.0            estimate D2E/DX2                !
 ! A36   A(11,12,17)           120.0            estimate D2E/DX2                !
 ! D1    D(6,1,2,3)              0.0001         estimate D2E/DX2                !
 ! D2    D(6,1,2,13)           180.0            estimate D2E/DX2                !
 ! D3    D(7,1,2,3)           -180.0            estimate D2E/DX2                !
 ! D4    D(7,1,2,13)            -0.0001         estimate D2E/DX2                !
 ! D5    D(2,1,6,5)             -0.0001         estimate D2E/DX2                !
 ! D6    D(2,1,6,15)           180.0            estimate D2E/DX2                !
 ! D7    D(7,1,6,5)            180.0            estimate D2E/DX2                !
 ! D8    D(7,1,6,15)             0.0            estimate D2E/DX2                !
 ! D9    D(2,1,7,8)             -0.0001         estimate D2E/DX2                !
 ! D10   D(2,1,7,12)           179.9998         estimate D2E/DX2                !
 ! D11   D(6,1,7,8)            179.9999         estimate D2E/DX2                !
 ! D12   D(6,1,7,12)            -0.0002         estimate D2E/DX2                !
 ! D13   D(1,2,3,4)              0.0            estimate D2E/DX2                !
 ! D14   D(1,2,3,14)           180.0            estimate D2E/DX2                !
 ! D15   D(13,2,3,4)          -179.9999         estimate D2E/DX2                !
 ! D16   D(13,2,3,14)            0.0001         estimate D2E/DX2                !
 ! D17   D(2,3,4,5)             -0.0001         estimate D2E/DX2                !
 ! D18   D(2,3,4,21)           180.0            estimate D2E/DX2                !
 ! D19   D(14,3,4,5)           179.9999         estimate D2E/DX2                !
 ! D20   D(14,3,4,21)            0.0            estimate D2E/DX2                !
 ! D21   D(3,4,5,6)              0.0001         estimate D2E/DX2                !
 ! D22   D(3,4,5,19)          -179.9999         estimate D2E/DX2                !
 ! D23   D(21,4,5,6)          -180.0            estimate D2E/DX2                !
 ! D24   D(21,4,5,19)            0.0            estimate D2E/DX2                !
 ! D25   D(4,5,6,1)              0.0            estimate D2E/DX2                !
 ! D26   D(4,5,6,15)           179.9999         estimate D2E/DX2                !
 ! D27   D(19,5,6,1)           180.0            estimate D2E/DX2                !
 ! D28   D(19,5,6,15)           -0.0001         estimate D2E/DX2                !
 ! D29   D(1,7,8,9)            179.9999         estimate D2E/DX2                !
 ! D30   D(1,7,8,22)             0.0001         estimate D2E/DX2                !
 ! D31   D(12,7,8,9)             0.0001         estimate D2E/DX2                !
 ! D32   D(12,7,8,22)         -179.9998         estimate D2E/DX2                !
 ! D33   D(1,7,12,11)         -179.9999         estimate D2E/DX2                !
 ! D34   D(1,7,12,17)            0.0            estimate D2E/DX2                !
 ! D35   D(8,7,12,11)           -0.0001         estimate D2E/DX2                !
 ! D36   D(8,7,12,17)          179.9999         estimate D2E/DX2                !
 ! D37   D(7,8,9,10)             0.0            estimate D2E/DX2                !
 ! D38   D(7,8,9,16)           180.0            estimate D2E/DX2                !
 ! D39   D(22,8,9,10)          179.9998         estimate D2E/DX2                !
 ! D40   D(22,8,9,16)           -0.0002         estimate D2E/DX2                !
 ! D41   D(8,9,10,11)            0.0            estimate D2E/DX2                !
 ! D42   D(8,9,10,20)         -179.9999         estimate D2E/DX2                !
 ! D43   D(16,9,10,11)         180.0            estimate D2E/DX2                !
 ! D44   D(16,9,10,20)           0.0001         estimate D2E/DX2                !
 ! D45   D(9,10,11,12)           0.0            estimate D2E/DX2                !
 ! D46   D(9,10,11,18)        -179.9998         estimate D2E/DX2                !
 ! D47   D(20,10,11,12)        179.9999         estimate D2E/DX2                !
 ! D48   D(20,10,11,18)          0.0001         estimate D2E/DX2                !
 ! D49   D(10,11,12,7)           0.0            estimate D2E/DX2                !
 ! D50   D(10,11,12,17)       -179.9999         estimate D2E/DX2                !
 ! D51   D(18,11,12,7)         179.9999         estimate D2E/DX2                !
 ! D52   D(18,11,12,17)         -0.0001         estimate D2E/DX2                !
 --------------------------------------------------------------------------------
 Trust Radius=3.00D-01 FncErr=1.00D-07 GrdErr=1.00D-06 EigMax=2.50D+02 EigMin=1.00D-04
 Number of steps in this run=    121 maximum allowed number of steps=    132.
 GradGradGradGradGradGradGradGradGradGradGradGradGradGradGradGradGradGrad

                          Input orientation:                          
 ---------------------------------------------------------------------
 Center     Atomic      Atomic             Coordinates (Angstroms)
 Number     Number       Type             X           Y           Z
 ---------------------------------------------------------------------
      1          6           0        0.624547   -0.342754   -0.002851
      2          6           0        1.956928   -0.312868   -0.436198
      3          6           0        2.664822    0.896583   -0.442270
      4          6           0        2.040335    2.076148   -0.014995
      5          6           0        0.707953    2.046262    0.418350
      6          6           0        0.000059    0.836811    0.424422
      7          6           0       -0.153358   -1.671821    0.003823
      8          6           0        0.471130   -2.851387   -0.423452
      9          6           0       -0.236763   -4.060838   -0.417378
     10          6           0       -1.569143   -4.090724    0.015972
     11          6           0       -2.193630   -2.911159    0.443247
     12          6           0       -1.485737   -1.701708    0.437173
     13          1           0        2.433739   -1.213493   -0.762430
     14          1           0        3.682125    0.919401   -0.773139
     15          1           0       -1.017243    0.813993    0.755291
     16          1           0        0.240047   -4.961462   -0.743612
     17         17           0       -2.270022   -0.220308    0.973785
     18         17           0       -3.866948   -2.948694    0.987490
     19         17           0       -0.076334    3.527663    0.954955
     20         17           0       -2.458176   -5.609659    0.023603
     21         17           0        2.929369    3.595081   -0.022621
     22         17           0        2.144450   -2.813853   -0.967686
 ---------------------------------------------------------------------
                    Distance matrix (angstroms):
                    1          2          3          4          5
     1  C    0.000000
     2  C    1.401400   0.000000
     3  C    2.427296   1.401400   0.000000
     4  C    2.802800   2.427296   1.401400   0.000000
     5  C    2.427296   2.802800   2.427296   1.401400   0.000000
     6  C    1.401400   2.427296   2.802800   2.427296   1.401400
     7  C    1.540000   2.548270   3.838989   4.342800   3.838989
     8  C    2.548270   2.941400   4.342800   5.187469   4.975106
     9  C    3.838989   4.342800   5.744200   6.558176   6.235992
    10  C    4.342800   5.187469   6.558176   7.145600   6.558176
    11  C    3.838989   4.975106   6.235992   6.558176   5.744200
    12  C    2.548270   3.813607   4.975106   5.187469   4.342800
    13  H    2.146700   1.070000   2.146700   3.396345   3.872800
    14  H    3.396345   2.146700   1.070000   2.146700   3.396345
    15  H    2.146700   3.396345   3.872800   3.396345   2.146700
    16  H    4.693509   4.965039   6.347206   7.300676   7.118798
    17  Cl   3.057342   4.456874   5.254079   4.983028   3.783409
    18  Cl   5.286324   6.549198   7.713260   7.819846   6.797295
    19  Cl   4.048303   4.562800   4.048303   2.743718   1.760000
    20  Cl   6.102800   6.910901   8.294174   8.905600   8.294174
    21  Cl   4.562800   4.048303   2.743718   1.760000   2.743718
    22  Cl   3.057342   2.563702   3.783409   4.983028   5.254079
                    6          7          8          9         10
     6  C    0.000000
     7  C    2.548270   0.000000
     8  C    3.813607   1.401400   0.000000
     9  C    4.975106   2.427296   1.401400   0.000000
    10  C    5.187469   2.802800   2.427296   1.401400   0.000000
    11  C    4.342800   2.427296   2.802800   2.427296   1.401400
    12  C    2.941400   1.401400   2.427296   2.802800   2.427296
    13  H    3.396345   2.736837   2.578650   3.918930   4.990735
    14  H    3.872800   4.693509   4.965039   6.347206   7.300676
    15  H    1.070000   2.736837   4.127917   5.074276   4.990735
    16  H    5.919617   3.396345   2.146700   1.070000   2.146700
    17  Cl   2.563702   2.743718   4.048303   4.562800   4.048303
    18  Cl   5.440665   4.048303   4.562800   4.048303   2.743718
    19  Cl   2.743718   5.286324   6.549198   7.713260   7.819846
    20  Cl   6.910901   4.562800   4.048303   2.743718   1.760000
    21  Cl   4.048303   6.102800   6.910901   8.294174   8.905600
    22  Cl   4.456874   2.743718   1.760000   2.743718   4.048303
                   11         12         13         14         15
    11  C    0.000000
    12  C    1.401400   0.000000
    13  H    5.074276   4.127917   0.000000
    14  H    7.118798   5.919617   2.471400   0.000000
    15  H    3.918930   2.578650   4.280590   4.942800   0.000000
    16  H    3.396345   3.872800   4.342800   6.814200   6.097816
    17  Cl   2.743718   1.760000   5.111382   6.307038   1.639199
    18  Cl   1.760000   2.743718   6.765486   8.663168   4.725732
    19  Cl   6.797295   5.440665   5.632800   4.890332   2.879094
    20  Cl   2.743718   4.048303   6.623817   8.998151   6.623817
    21  Cl   8.294174   6.910901   4.890332   2.879094   4.890332
    22  Cl   4.562800   4.048303   1.639199   4.042212   5.111382
                   16         17         18         19         20
    16  H    0.000000
    17  Cl   5.632800   0.000000
    18  Cl   4.890332   3.161400   0.000000
    19  Cl   8.663168   4.342800   7.504200   0.000000
    20  Cl   2.879094   5.475705   3.161400   9.488480   0.000000
    21  Cl   8.998151   6.525618   9.488480   3.161400  10.665600
    22  Cl   2.879094   5.475705   6.322800   6.988795   5.475705
                   21         22
    21  Cl   0.000000
    22  Cl   6.525618   0.000000
 Stoichiometry    C12H4Cl6
 Framework group  C1[X(C12H4Cl6)]
 Deg. of freedom    60
 Full point group                 C1      NOp   1
 Largest Abelian subgroup         C1      NOp   1
 Largest concise Abelian subgroup C1      NOp   1
                         Standard orientation:                         
 ---------------------------------------------------------------------
 Center     Atomic      Atomic             Coordinates (Angstroms)
 Number     Number       Type             X           Y           Z
 ---------------------------------------------------------------------
      1          6           0        0.868904    0.504832    0.000002
      2          6           0        1.561336    1.723216   -0.000000
      3          6           0        2.962704    1.732745   -0.000002
      4          6           0        3.671640    0.523889   -0.000002
      5          6           0        2.979208   -0.694495    0.000002
      6          6           0        1.577840   -0.704024    0.000004
      7          6           0       -0.671060    0.494361    0.000003
      8          6           0       -1.379996    1.703217    0.000003
      9          6           0       -2.781363    1.693688    0.000003
     10          6           0       -3.473795    0.475304    0.000002
     11          6           0       -2.764859   -0.733552    0.000001
     12          6           0       -1.363492   -0.724023    0.000002
     13          1           0        1.020048    2.646204   -0.000002
     14          1           0        3.491391    2.663008   -0.000005
     15          1           0        1.049153   -1.634287    0.000006
     16          1           0       -3.322651    2.616677    0.000004
     17         17           0       -0.473149   -2.242209   -0.000002
     18         17           0       -3.634476   -2.263704   -0.000004
     19         17           0        3.869551   -2.212681    0.000005
     20         17           0       -5.233754    0.463338   -0.000001
     21         17           0        5.431599    0.535855   -0.000005
     22         17           0       -0.510379    3.233370    0.000000
 ---------------------------------------------------------------------
 Rotational constants (GHZ):           0.4551722           0.1316338           0.1021054
 Standard basis: 6-311+G(d,p) (5D, 7F)
 There are   486 symmetry adapted cartesian basis functions of A   symmetry.
 There are   468 symmetry adapted basis functions of A   symmetry.
   468 basis functions,   782 primitive gaussians,   486 cartesian basis functions
    89 alpha electrons       89 beta electrons
       nuclear repulsion energy      2004.8265351756 Hartrees.
 NAtoms=   22 NActive=   22 NUniq=   22 SFac= 1.00D+00 NAtFMM=   60 NAOKFM=F Big=F
 Integral buffers will be    131072 words long.
 Raffenetti 2 integral format.
 Two-electron integral symmetry is turned on.
 One-electron integrals computed using PRISM.
 NBasis=   468 RedAO= T EigKep=  1.04D-06  NBF=   468
 NBsUse=   462 1.00D-06 EigRej=  4.74D-07 NBFU=   462
 ExpMin= 4.38D-02 ExpMax= 1.06D+05 ExpMxC= 3.62D+03 IAcc=3 IRadAn=         5 AccDes= 0.00D+00
 Harris functional with IExCor=  402 and IRadAn=       5 diagonalized for initial guess.
 HarFok:  IExCor=  402 AccDes= 0.00D+00 IRadAn=         5 IDoV= 1 UseB2=F ITyADJ=14
 ICtDFT=  3500011 ScaDFX=  1.000000  1.000000  1.000000  1.000000
 FoFCou: FMM=F IPFlag=           0 FMFlag=      100000 FMFlg1=           0
         NFxFlg=           0 DoJE=T BraDBF=F KetDBF=T FulRan=T
         wScrn=  0.000000 ICntrl=       500 IOpCl=  0 I1Cent=   200000004 NGrid=           0
         NMat0=    1 NMatS0=      1 NMatT0=    0 NMatD0=    1 NMtDS0=    0 NMtDT0=    0
 Petite list used in FoFCou.
 Requested convergence on RMS density matrix=1.00D-08 within  32 cycles.
 Requested convergence on MAX density matrix=1.00D-06.
 Requested convergence on             energy=1.00D-06.
 No special actions if energy rises.
 SCF Done:  E(RB3LYP) =  -3221.01431565     A.U. after   17 cycles
            NFock= 17  Conv=0.43D-08     -V/T= 2.0025
 QCSCF skips out because SCF is already converged.

 **********************************************************************

            Population analysis using the SCF Density.

 **********************************************************************

 Orbital symmetries:
       Occupied  (A) (A) (A) (A) (A) (A) (A) (A) (A) (A) (A) (A)
                 (A) (A) (A) (A) (A) (A) (A) (A) (A) (A) (A) (A)
                 (A) (A) (A) (A) (A) (A) (A) (A) (A) (A) (A) (A)
                 (A) (A) (A) (A) (A) (A) (A) (A) (A) (A) (A) (A)
                 (A) (A) (A) (A) (A) (A) (A) (A) (A) (A) (A) (A)
                 (A) (A) (A) (A) (A) (A) (A) (A) (A) (A) (A) (A)
                 (A) (A) (A) (A) (A) (A) (A) (A) (A) (A) (A) (A)
                 (A) (A) (A) (A) (A)
       Virtual   (A) (A) (A) (A) (A) (A) (A) (A) (A) (A) (A) (A)
                 (A) (A) (A) (A) (A) (A) (A) (A) (A) (A) (A) (A)
                 (A) (A) (A) (A) (A) (A) (A) (A) (A) (A) (A) (A)
                 (A) (A) (A) (A) (A) (A) (A) (A) (A) (A) (A) (A)
                 (A) (A) (A) (A) (A) (A) (A) (A) (A) (A) (A) (A)
                 (A) (A) (A) (A) (A) (A) (A) (A) (A) (A) (A) (A)
                 (A) (A) (A) (A) (A) (A) (A) (A) (A) (A) (A) (A)
                 (A) (A) (A) (A) (A) (A) (A) (A) (A) (A) (A) (A)
                 (A) (A) (A) (A) (A) (A) (A) (A) (A) (A) (A) (A)
                 (A) (A) (A) (A) (A) (A) (A) (A) (A) (A) (A) (A)
                 (A) (A) (A) (A) (A) (A) (A) (A) (A) (A) (A) (A)
                 (A) (A) (A) (A) (A) (A) (A) (A) (A) (A) (A) (A)
                 (A) (A) (A) (A) (A) (A) (A) (A) (A) (A) (A) (A)
                 (A) (A) (A) (A) (A) (A) (A) (A) (A) (A) (A) (A)
                 (A) (A) (A) (A) (A) (A) (A) (A) (A) (A) (A) (A)
                 (A) (A) (A) (A) (A) (A) (A) (A) (A) (A) (A) (A)
                 (A) (A) (A) (A) (A) (A) (A) (A) (A) (A) (A) (A)
                 (A) (A) (A) (A) (A) (A) (A) (A) (A) (A) (A) (A)
                 (A) (A) (A) (A) (A) (A) (A) (A) (A) (A) (A) (A)
                 (A) (A) (A) (A) (A) (A) (A) (A) (A) (A) (A) (A)
                 (A) (A) (A) (A) (A) (A) (A) (A) (A) (A) (A) (A)
                 (A) (A) (A) (A) (A) (A) (A) (A) (A) (A) (A) (A)
                 (A) (A) (A) (A) (A) (A) (A) (A) (A) (A) (A) (A)
                 (A) (A) (A) (A) (A) (A) (A) (A) (A) (A) (A) (A)
                 (A) (A) (A) (A) (A) (A) (A) (A) (A) (A) (A) (A)
                 (A) (A) (A) (A) (A) (A) (A) (A) (A) (A) (A) (A)
                 (A) (A) (A) (A) (A) (A) (A) (A) (A) (A) (A) (A)
                 (A) (A) (A) (A) (A) (A) (A) (A) (A) (A) (A) (A)
                 (A) (A) (A) (A) (A) (A) (A) (A) (A) (A) (A) (A)
                 (A) (A) (A) (A) (A) (A) (A) (A) (A) (A) (A) (A)
                 (A) (A) (A) (A) (A) (A) (A) (A) (A) (A) (A) (A)
                 (A)
 The electronic state is 1-A.
 Alpha  occ. eigenvalues -- -101.59148-101.59064-101.58664-101.58450-101.56298
 Alpha  occ. eigenvalues -- -101.56273 -10.29207 -10.29031 -10.28827 -10.28801
 Alpha  occ. eigenvalues --  -10.25877 -10.25630 -10.25173 -10.23724 -10.22349
 Alpha  occ. eigenvalues --  -10.20281 -10.18732 -10.18287  -9.50917  -9.50831
 Alpha  occ. eigenvalues --   -9.50072  -9.49871  -9.47742  -9.47716  -7.27336
 Alpha  occ. eigenvalues --   -7.27267  -7.26584  -7.26385  -7.26360  -7.26346
 Alpha  occ. eigenvalues --   -7.26277  -7.26238  -7.25543  -7.25487  -7.25351
 Alpha  occ. eigenvalues --   -7.25266  -7.24218  -7.24189  -7.23226  -7.23209
 Alpha  occ. eigenvalues --   -7.23174  -7.23142  -0.96925  -0.93216  -0.92526
 Alpha  occ. eigenvalues --   -0.91500  -0.87997  -0.86179  -0.85740  -0.85228
 Alpha  occ. eigenvalues --   -0.79274  -0.77517  -0.75546  -0.74065  -0.65985
 Alpha  occ. eigenvalues --   -0.64766  -0.64549  -0.61593  -0.55394  -0.54797
 Alpha  occ. eigenvalues --   -0.54536  -0.50177  -0.49856  -0.49579  -0.49021
 Alpha  occ. eigenvalues --   -0.47193  -0.46721  -0.46464  -0.43528  -0.43008
 Alpha  occ. eigenvalues --   -0.42764  -0.41366  -0.41214  -0.40592  -0.40265
 Alpha  occ. eigenvalues --   -0.36632  -0.35981  -0.35418  -0.35204  -0.34316
 Alpha  occ. eigenvalues --   -0.34126  -0.33491  -0.31596  -0.30648  -0.29813
 Alpha  occ. eigenvalues --   -0.28949  -0.28553  -0.26649  -0.25297
 Alpha virt. eigenvalues --   -0.08098  -0.07140  -0.06481  -0.03992  -0.02278
 Alpha virt. eigenvalues --   -0.01901  -0.01320  -0.00930  -0.00395   0.01146
 Alpha virt. eigenvalues --    0.01549   0.01680   0.02760   0.02994   0.03667
 Alpha virt. eigenvalues --    0.04418   0.04986   0.05699   0.05773   0.05835
 Alpha virt. eigenvalues --    0.06181   0.06566   0.07427   0.07632   0.07726
 Alpha virt. eigenvalues --    0.08301   0.08451   0.08727   0.08828   0.09418
 Alpha virt. eigenvalues --    0.09825   0.10647   0.10976   0.11572   0.11982
 Alpha virt. eigenvalues --    0.12329   0.12720   0.13010   0.13056   0.13277
 Alpha virt. eigenvalues --    0.13316   0.14048   0.14552   0.14879   0.15197
 Alpha virt. eigenvalues --    0.15681   0.16136   0.16171   0.17058   0.17099
 Alpha virt. eigenvalues --    0.17201   0.17913   0.17934   0.18279   0.18623
 Alpha virt. eigenvalues --    0.19081   0.20121   0.20242   0.20543   0.21217
 Alpha virt. eigenvalues --    0.21229   0.21861   0.21892   0.22110   0.22449
 Alpha virt. eigenvalues --    0.23089   0.23157   0.23944   0.24409   0.24520
 Alpha virt. eigenvalues --    0.25039   0.25251   0.25560   0.26887   0.27198
 Alpha virt. eigenvalues --    0.27688   0.28171   0.28492   0.29042   0.30052
 Alpha virt. eigenvalues --    0.30399   0.30653   0.31060   0.31181   0.32223
 Alpha virt. eigenvalues --    0.33195   0.34367   0.35022   0.35772   0.36291
 Alpha virt. eigenvalues --    0.38099   0.38456   0.40839   0.41482   0.41957
 Alpha virt. eigenvalues --    0.42486   0.43254   0.43508   0.44136   0.44156
 Alpha virt. eigenvalues --    0.44666   0.45036   0.45206   0.46209   0.47147
 Alpha virt. eigenvalues --    0.47258   0.48004   0.48199   0.48870   0.49361
 Alpha virt. eigenvalues --    0.49920   0.50648   0.51005   0.51939   0.53113
 Alpha virt. eigenvalues --    0.54905   0.55756   0.56051   0.56517   0.57972
 Alpha virt. eigenvalues --    0.58207   0.58675   0.58700   0.59191   0.59762
 Alpha virt. eigenvalues --    0.61224   0.61288   0.61536   0.62734   0.62893
 Alpha virt. eigenvalues --    0.63246   0.64128   0.66501   0.66832   0.67248
 Alpha virt. eigenvalues --    0.67816   0.67911   0.70322   0.71684   0.74522
 Alpha virt. eigenvalues --    0.76794   0.78353   0.78475   0.80797   0.80913
 Alpha virt. eigenvalues --    0.81619   0.82039   0.82309   0.83211   0.83386
 Alpha virt. eigenvalues --    0.83746   0.83868   0.84438   0.85070   0.85380
 Alpha virt. eigenvalues --    0.85600   0.85754   0.86065   0.86694   0.87228
 Alpha virt. eigenvalues --    0.87754   0.88019   0.88370   0.88922   0.90495
 Alpha virt. eigenvalues --    0.90927   0.91723   0.92161   0.92723   0.92749
 Alpha virt. eigenvalues --    0.93094   0.93643   0.93903   0.94341   0.95015
 Alpha virt. eigenvalues --    0.95079   0.96164   0.96999   0.97394   0.98133
 Alpha virt. eigenvalues --    0.98642   0.99348   1.00593   1.01819   1.02192
 Alpha virt. eigenvalues --    1.06548   1.07056   1.08017   1.09523   1.10715
 Alpha virt. eigenvalues --    1.10731   1.12139   1.14658   1.16299   1.17297
 Alpha virt. eigenvalues --    1.19578   1.22621   1.23294   1.24691   1.25055
 Alpha virt. eigenvalues --    1.25847   1.26039   1.27064   1.27088   1.27320
 Alpha virt. eigenvalues --    1.28298   1.30273   1.31497   1.34400   1.36101
 Alpha virt. eigenvalues --    1.37162   1.41729   1.43563   1.44432   1.46115
 Alpha virt. eigenvalues --    1.49330   1.49768   1.54536   1.55216   1.55540
 Alpha virt. eigenvalues --    1.57826   1.58007   1.59044   1.62665   1.65414
 Alpha virt. eigenvalues --    1.67468   1.68452   1.69422   1.74230   1.75751
 Alpha virt. eigenvalues --    1.76296   1.78194   1.78983   1.81091   1.82425
 Alpha virt. eigenvalues --    1.84639   1.84996   1.85394   1.86392   1.89180
 Alpha virt. eigenvalues --    1.91350   1.92100   1.94292   1.95280   1.96725
 Alpha virt. eigenvalues --    2.00485   2.01563   2.02960   2.05214   2.05708
 Alpha virt. eigenvalues --    2.07604   2.14029   2.16929   2.17776   2.20009
 Alpha virt. eigenvalues --    2.21551   2.22003   2.23417   2.24571   2.25373
 Alpha virt. eigenvalues --    2.25723   2.26981   2.27430   2.28303   2.29680
 Alpha virt. eigenvalues --    2.31268   2.33599   2.33947   2.36208   2.39782
 Alpha virt. eigenvalues --    2.42072   2.42857   2.44054   2.44627   2.47011
 Alpha virt. eigenvalues --    2.49858   2.51590   2.52330   2.54313   2.56727
 Alpha virt. eigenvalues --    2.58521   2.58525   2.60142   2.62803   2.63293
 Alpha virt. eigenvalues --    2.63793   2.65947   2.70701   2.71819   2.72898
 Alpha virt. eigenvalues --    2.73398   2.73417   2.78277   2.78815   2.79544
 Alpha virt. eigenvalues --    2.80024   2.82760   2.84265   2.85309   2.90314
 Alpha virt. eigenvalues --    2.92103   2.97703   2.99744   3.04116   3.06904
 Alpha virt. eigenvalues --    3.09662   3.10025   3.11557   3.14970   3.16676
 Alpha virt. eigenvalues --    3.19211   3.20922   3.24326   3.25280   3.36234
 Alpha virt. eigenvalues --    3.37435   3.40894   3.47452   3.55398   3.59854
 Alpha virt. eigenvalues --    3.67394   3.71310   3.74517   3.88286   3.88691
 Alpha virt. eigenvalues --    4.01261   4.12036   4.20274   4.42646   4.78422
 Alpha virt. eigenvalues --    4.83375   9.73615   9.75770   9.78843   9.80604
 Alpha virt. eigenvalues --    9.85578   9.87343  23.30356  23.52357  23.77970
 Alpha virt. eigenvalues --   23.81682  23.85896  23.90579  23.92667  23.95992
 Alpha virt. eigenvalues --   24.00178  24.03422  24.05984  24.13391  25.75394
 Alpha virt. eigenvalues --   25.78465  25.81083  25.82396  25.86946  25.89221
 Alpha virt. eigenvalues --   26.09619  26.12462  26.13310  26.20608  26.45962
 Alpha virt. eigenvalues --   26.51339  26.56503  26.68112  26.75624  26.77428
 Alpha virt. eigenvalues --   26.80273  26.96262 215.72715 215.74705 215.78520
 Alpha virt. eigenvalues --  215.80252 215.87870 215.89899
          Condensed to atoms (all electrons):
               1          2          3          4          5          6
     1  C   23.755141  -4.444805  -1.379524  -1.327561  -3.576825   5.123753
     2  C   -4.444805  22.786806  -3.162140  -1.568712   0.945394  -5.042630
     3  C   -1.379524  -3.162140  22.121571   1.944825 -10.340978   0.369576
     4  C   -1.327561  -1.568712   1.944825  23.995462  -8.016782  -8.714299
     5  C   -3.576825   0.945394 -10.340978  -8.016782  29.798946   2.506544
     6  C    5.123753  -5.042630   0.369576  -8.714299   2.506544  19.792287
     7  C    8.541038  -1.423149  -1.381983  -0.367028  -2.374369   0.490790
     8  C   -5.355420   2.102614  -1.534988   0.724605  -1.949967  -4.159256
     9  C   -5.686998  -1.038655   1.236216  -0.081883  -1.366881  -1.351828
    10  C    0.298685   0.118308  -0.047744  -0.134764  -0.203728  -0.569648
    11  C   -3.658007  -0.495731  -0.984990   0.006692   1.154301  -0.732327
    12  C   -4.079134  -2.389241  -0.615197  -0.164930  -0.727572   0.453440
    13  H   -0.182351   0.259941   0.359031  -0.013969  -0.121433   0.048368
    14  H    0.102677   0.054966   0.130494   0.044523   0.024584  -0.025957
    15  H   -0.176664  -0.044451  -0.065064   0.096014   0.016372   0.380003
    16  H    0.020656   0.002556  -0.001117   0.000150   0.000398   0.003960
    17  Cl   0.068589   0.334097   0.086115   0.183598  -0.698355  -1.552425
    18  Cl  -0.141583  -0.048697  -0.006207   0.008197   0.072060   0.001711
    19  Cl  -0.956977   0.415262   0.396733  -0.257722  -0.416804   0.569281
    20  Cl  -0.070043  -0.033588  -0.004523  -0.001278   0.002226  -0.015144
    21  Cl  -0.122977  -0.210413   0.060709  -0.874399   0.557692  -0.085486
    22  Cl   0.423386  -0.414276  -1.032118  -0.165066   0.352549   0.102096
               7          8          9         10         11         12
     1  C    8.541038  -5.355420  -5.686998   0.298685  -3.658007  -4.079134
     2  C   -1.423149   2.102614  -1.038655   0.118308  -0.495731  -2.389241
     3  C   -1.381983  -1.534988   1.236216  -0.047744  -0.984990  -0.615197
     4  C   -0.367028   0.724605  -0.081883  -0.134764   0.006692  -0.164930
     5  C   -2.374369  -1.949967  -1.366881  -0.203728   1.154301  -0.727572
     6  C    0.490790  -4.159256  -1.351828  -0.569648  -0.732327   0.453440
     7  C   25.100991  -7.924529  -8.801172   1.894781  -5.299691   0.316173
     8  C   -7.924529  32.908527   0.973958  -7.205781  -0.433226  -2.421268
     9  C   -8.801172   0.973958  24.787915   1.250694  -7.305737   2.724323
    10  C    1.894781  -7.205781   1.250694  28.226671  -8.964182  -7.462716
    11  C   -5.299691  -0.433226  -7.305737  -8.964182  30.435089   1.442756
    12  C    0.316173  -2.421268   2.724323  -7.462716   1.442756  20.518236
    13  H   -0.086017  -0.025638   0.203997   0.053604  -0.023522  -0.007195
    14  H    0.020505   0.004219  -0.004027  -0.000109   0.000697   0.005744
    15  H    0.029986   0.019899  -0.014333   0.005040   0.017918   0.190944
    16  H    0.122995  -0.027807   0.250324   0.031034  -0.021424  -0.010073
    17  Cl  -0.404639   0.687027   0.538686   0.736245   0.465846  -2.057752
    18  Cl  -1.030967   0.582966   0.484427  -0.761173  -0.813059   0.884049
    19  Cl  -0.334804  -0.160040  -0.025242   0.000529   0.000731  -0.062676
    20  Cl   0.020352  -0.466989  -0.365344  -0.403827   0.832515  -0.238345
    21  Cl  -0.046154  -0.016328  -0.002916  -0.002072   0.002638  -0.035189
    22  Cl  -0.096602  -0.322185  -0.208499  -0.704362   0.345199   0.141391
              13         14         15         16         17         18
     1  C   -0.182351   0.102677  -0.176664   0.020656   0.068589  -0.141583
     2  C    0.259941   0.054966  -0.044451   0.002556   0.334097  -0.048697
     3  C    0.359031   0.130494  -0.065064  -0.001117   0.086115  -0.006207
     4  C   -0.013969   0.044523   0.096014   0.000150   0.183598   0.008197
     5  C   -0.121433   0.024584   0.016372   0.000398  -0.698355   0.072060
     6  C    0.048368  -0.025957   0.380003   0.003960  -1.552425   0.001711
     7  C   -0.086017   0.020505   0.029986   0.122995  -0.404639  -1.030967
     8  C   -0.025638   0.004219   0.019899  -0.027807   0.687027   0.582966
     9  C    0.203997  -0.004027  -0.014333   0.250324   0.538686   0.484427
    10  C    0.053604  -0.000109   0.005040   0.031034   0.736245  -0.761173
    11  C   -0.023522   0.000697   0.017918  -0.021424   0.465846  -0.813059
    12  C   -0.007195   0.005744   0.190944  -0.010073  -2.057752   0.884049
    13  H    0.720314  -0.014616  -0.000294   0.000029   0.002282  -0.000159
    14  H   -0.014616   0.524167   0.000116   0.000000  -0.000183  -0.000000
    15  H   -0.000294   0.000116   0.695477  -0.000001  -0.266794   0.004785
    16  H    0.000029   0.000000  -0.000001   0.485280   0.000837  -0.000416
    17  Cl   0.002282  -0.000183  -0.266794   0.000837  18.649570  -0.390179
    18  Cl  -0.000159  -0.000000   0.004785  -0.000416  -0.390179  17.723191
    19  Cl   0.000362  -0.000812  -0.037754   0.000001  -0.084265   0.000758
    20  Cl   0.000341  -0.000000   0.000523  -0.006060   0.000852  -0.271347
    21  Cl   0.000635  -0.011676   0.001284   0.000000   0.004055   0.000028
    22  Cl  -0.302465   0.002268   0.001164  -0.022368  -0.031320   0.004754
              19         20         21         22
     1  C   -0.956977  -0.070043  -0.122977   0.423386
     2  C    0.415262  -0.033588  -0.210413  -0.414276
     3  C    0.396733  -0.004523   0.060709  -1.032118
     4  C   -0.257722  -0.001278  -0.874399  -0.165066
     5  C   -0.416804   0.002226   0.557692   0.352549
     6  C    0.569281  -0.015144  -0.085486   0.102096
     7  C   -0.334804   0.020352  -0.046154  -0.096602
     8  C   -0.160040  -0.466989  -0.016328  -0.322185
     9  C   -0.025242  -0.365344  -0.002916  -0.208499
    10  C    0.000529  -0.403827  -0.002072  -0.704362
    11  C    0.000731   0.832515   0.002638   0.345199
    12  C   -0.062676  -0.238345  -0.035189   0.141391
    13  H    0.000362   0.000341   0.000635  -0.302465
    14  H   -0.000812  -0.000000  -0.011676   0.002268
    15  H   -0.037754   0.000523   0.001284   0.001164
    16  H    0.000001  -0.006060   0.000000  -0.022368
    17  Cl  -0.084265   0.000852   0.004055  -0.031320
    18  Cl   0.000758  -0.271347   0.000028   0.004754
    19  Cl  17.648506  -0.000047  -0.204838   0.006312
    20  Cl  -0.000047  17.483020  -0.000008  -0.023755
    21  Cl  -0.204838  -0.000008  17.465817  -0.004405
    22  Cl   0.006312  -0.023755  -0.004405  18.278597
 Mulliken charges:
               1
     1  C   -1.175056
     2  C   -0.703454
     3  C   -0.148697
     4  C    0.684327
     5  C    0.362629
     6  C   -1.592810
     7  C   -0.966507
     8  C   -0.000390
     9  C   -0.197024
    10  C   -0.155485
    11  C    0.027516
    12  C   -0.405768
    13  H    0.128757
    14  H    0.142421
    15  H    0.145832
    16  H    0.171046
    17  Cl   0.728113
    18  Cl   0.696865
    19  Cl   0.503506
    20  Cl   0.560469
    21  Cl   0.524005
    22  Cl   0.669705
 Sum of Mulliken charges =  -0.00000
 Mulliken charges with hydrogens summed into heavy atoms:
               1
     1  C   -1.175056
     2  C   -0.574697
     3  C   -0.006276
     4  C    0.684327
     5  C    0.362629
     6  C   -1.446978
     7  C   -0.966507
     8  C   -0.000390
     9  C   -0.025978
    10  C   -0.155485
    11  C    0.027516
    12  C   -0.405768
    17  Cl   0.728113
    18  Cl   0.696865
    19  Cl   0.503506
    20  Cl   0.560469
    21  Cl   0.524005
    22  Cl   0.669705
 Electronic spatial extent (au):  <R**2>=           9060.3027
 Charge=             -0.0000 electrons
 Dipole moment (field-independent basis, Debye):
    X=             -2.2668    Y=              2.1649    Z=              0.0000  Tot=              3.1345
 Quadrupole moment (field-independent basis, Debye-Ang):
   XX=           -156.6046   YY=           -137.9394   ZZ=           -147.2665
   XY=              0.7222   XZ=             -0.0000   YZ=             -0.0000
 Traceless Quadrupole moment (field-independent basis, Debye-Ang):
   XX=             -9.3345   YY=              9.3308   ZZ=              0.0037
   XY=              0.7222   XZ=             -0.0000   YZ=             -0.0000
 Octapole moment (field-independent basis, Debye-Ang**2):
  XXX=            -57.9374  YYY=             -0.7356  ZZZ=             -0.0001  XYY=              2.1342
  XXY=             17.0327  XXZ=             -0.0000  XZZ=             -3.8400  YZZ=             -6.9365
  YYZ=             -0.0001  XYZ=             -0.0001
 Hexadecapole moment (field-independent basis, Debye-Ang**3):
 XXXX=          -9177.2209 YYYY=          -2570.8915 ZZZZ=           -170.8043 XXXY=              1.7424
 XXXZ=              0.0003 YYYX=             33.1343 YYYZ=             -0.0001 ZZZX=              0.0001
 ZZZY=             -0.0000 XXYY=          -1888.8809 XXZZ=          -1568.7444 YYZZ=           -493.0050
 XXYZ=              0.0001 YYXZ=              0.0000 ZZXY=             -1.0652
 N-N= 2.004826535176D+03 E-N=-1.163847275758D+04  KE= 3.213041119028D+03
 Calling FoFJK, ICntrl=      2127 FMM=F ISym2X=0 I1Cent= 0 IOpClX= 0 NMat=1 NMatS=1 NMatT=0.
 ***** Axes restored to original set *****
 -------------------------------------------------------------------
 Center     Atomic                   Forces (Hartrees/Bohr)
 Number     Number              X              Y              Z
 -------------------------------------------------------------------
      1        6          -0.014509074   -0.022364250    0.000579781
      2        6           0.006565731    0.054434783    0.008060410
      3        6          -0.021064208    0.000483431    0.007030603
      4        6           0.002334658    0.002186308   -0.000358769
      5        6           0.004706211   -0.008552956   -0.003156762
      6        6           0.044395354    0.032993539   -0.008429968
      7        6           0.026286793    0.044673817   -0.000270074
      8        6          -0.018732486   -0.006497640    0.004951333
      9        6          -0.000115499    0.009638109    0.001848103
     10        6           0.004166481    0.001205073   -0.001146286
     11        6          -0.014451377    0.001968736    0.005131055
     12        6           0.001570967   -0.008915268   -0.002192021
     13        1           0.004776996    0.051229702    0.008047585
     14        1           0.008460139    0.001581847   -0.002490136
     15        1           0.040108228    0.028596643   -0.007843510
     16        1           0.003098900   -0.007327428   -0.002397077
     17       17          -0.081821903   -0.062024162    0.015308441
     18       17           0.008978065    0.000156402   -0.002928621
     19       17          -0.001929370   -0.006080564   -0.000506319
     20       17           0.008196918    0.005904639   -0.001591663
     21       17           0.001345778   -0.005540264   -0.001483867
     22       17          -0.012367301   -0.107750495   -0.016162239
 -------------------------------------------------------------------
 Cartesian Forces:  Max     0.107750495 RMS     0.024460178

 GradGradGradGradGradGradGradGradGradGradGradGradGradGradGradGradGradGrad
 Berny optimization.
 FormGI is forming the generalized inverse of G from B-inverse, IUseBI=4.
 Internal  Forces:  Max     0.201959222 RMS     0.049698413
 Search for a local minimum.
 Step number   1 out of a maximum of  121
 All quantities printed in internal units (Hartrees-Bohrs-Radians)
 Mixed Optimization -- RFO/linear search
 Second derivative matrix not updated -- first step.
 ITU=  0
     Eigenvalues ---    0.00237   0.01506   0.01506   0.02070   0.02070
     Eigenvalues ---    0.02070   0.02070   0.02070   0.02070   0.02070
     Eigenvalues ---    0.02070   0.02070   0.02070   0.02070   0.02070
     Eigenvalues ---    0.02070   0.02070   0.02070   0.02070   0.16000
     Eigenvalues ---    0.16000   0.16000   0.16000   0.22375   0.23485
     Eigenvalues ---    0.23491   0.24610   0.25000   0.25000   0.25000
     Eigenvalues ---    0.25000   0.25000   0.25000   0.25000   0.25000
     Eigenvalues ---    0.25000   0.25000   0.28519   0.29539   0.29539
     Eigenvalues ---    0.29539   0.29539   0.29539   0.29539   0.37230
     Eigenvalues ---    0.37230   0.37230   0.37230   0.41393   0.41635
     Eigenvalues ---    0.41697   0.41797   0.45389   0.45389   0.45389
     Eigenvalues ---    0.45389   0.45389   0.45389   0.45389   0.45389
 RFO step:  Lambda=-4.00796786D-01 EMin= 2.36824177D-03
 Linear search not attempted -- first point.
 Maximum step size (   0.300) exceeded in Quadratic search.
    -- Step size scaled by   0.390
 Iteration  1 RMS(Cart)=  0.09749166 RMS(Int)=  0.00389716
 Iteration  2 RMS(Cart)=  0.00444124 RMS(Int)=  0.00015929
 Iteration  3 RMS(Cart)=  0.00000786 RMS(Int)=  0.00015925
 Iteration  4 RMS(Cart)=  0.00000000 RMS(Int)=  0.00015925
 Variable       Old X    -DE/DX   Delta X   Delta X   Delta X     New X
                                 (Linear)    (Quad)   (Total)
    R1        2.64826   0.03347   0.00000   0.01581   0.01596   2.66422
    R2        2.64826   0.03114   0.00000   0.01479   0.01494   2.66320
    R3        2.91018   0.14929   0.00000   0.08491   0.08491   2.99509
    R4        2.64826  -0.00746   0.00000  -0.00344  -0.00344   2.64482
    R5        2.02201  -0.04345   0.00000  -0.02193  -0.02193   2.00008
    R6        2.64826  -0.04161   0.00000  -0.01957  -0.01972   2.62854
    R7        2.02201   0.00885   0.00000   0.00446   0.00446   2.02647
    R8        2.64826  -0.03476   0.00000  -0.01640  -0.01655   2.63171
    R9        3.32592  -0.00410   0.00000  -0.00230  -0.00230   3.32362
   R10        2.64826  -0.00938   0.00000  -0.00424  -0.00424   2.64402
   R11        3.32592  -0.00441   0.00000  -0.00247  -0.00247   3.32345
   R12        2.02201  -0.04117   0.00000  -0.02078  -0.02078   2.00123
   R13        2.64826   0.13930   0.00000   0.06552   0.06583   2.71409
   R14        2.64826   0.13887   0.00000   0.06553   0.06584   2.71410
   R15        2.64826  -0.01339   0.00000  -0.00633  -0.00633   2.64194
   R16        3.32592  -0.00906   0.00000  -0.00508  -0.00508   3.32084
   R17        2.64826  -0.06391   0.00000  -0.03132  -0.03163   2.61663
   R18        2.02201   0.00828   0.00000   0.00418   0.00418   2.02619
   R19        2.64826  -0.05367   0.00000  -0.02643  -0.02674   2.62152
   R20        3.32592  -0.00924   0.00000  -0.00518  -0.00518   3.32074
   R21        2.64826  -0.00157   0.00000  -0.00050  -0.00051   2.64775
   R22        3.32592  -0.00944   0.00000  -0.00529  -0.00529   3.32062
   R23        3.32592  -0.01108   0.00000  -0.00621  -0.00621   3.31971
    A1        2.09440  -0.11143   0.00000  -0.06590  -0.06559   2.02881
    A2        2.09440   0.05902   0.00000   0.03493   0.03477   2.12917
    A3        2.09440   0.05242   0.00000   0.03097   0.03082   2.12521
    A4        2.09440   0.05384   0.00000   0.03393   0.03408   2.12847
    A5        2.09440   0.00211   0.00000   0.00324   0.00316   2.09755
    A6        2.09440  -0.05595   0.00000  -0.03716  -0.03724   2.05716
    A7        2.09440   0.01474   0.00000   0.00779   0.00764   2.10203
    A8        2.09440  -0.00594   0.00000  -0.00290  -0.00282   2.09157
    A9        2.09440  -0.00880   0.00000  -0.00489  -0.00481   2.08958
   A10        2.09440  -0.02559   0.00000  -0.01741  -0.01772   2.07667
   A11        2.09440   0.00575   0.00000   0.00448   0.00464   2.09903
   A12        2.09440   0.01984   0.00000   0.01293   0.01308   2.10748
   A13        2.09440   0.01402   0.00000   0.00715   0.00700   2.10139
   A14        2.09440   0.00070   0.00000   0.00105   0.00112   2.09552
   A15        2.09440  -0.01472   0.00000  -0.00820  -0.00812   2.08628
   A16        2.09440   0.05441   0.00000   0.03445   0.03460   2.12899
   A17        2.09440   0.00127   0.00000   0.00259   0.00251   2.09691
   A18        2.09440  -0.05568   0.00000  -0.03703  -0.03711   2.05729
   A19        2.09440   0.07463   0.00000   0.04210   0.04177   2.13616
   A20        2.09440   0.06724   0.00000   0.03767   0.03734   2.13173
   A21        2.09440  -0.14187   0.00000  -0.07977  -0.07910   2.01529
   A22        2.09440   0.04046   0.00000   0.02638   0.02671   2.12110
   A23        2.09440   0.16150   0.00000   0.09576   0.09559   2.18999
   A24        2.09440  -0.20196   0.00000  -0.12214  -0.12230   1.97209
   A25        2.09440   0.03921   0.00000   0.02116   0.02085   2.11524
   A26        2.09440  -0.01889   0.00000  -0.01009  -0.00993   2.08447
   A27        2.09440  -0.02031   0.00000  -0.01107  -0.01092   2.08348
   A28        2.09440  -0.01017   0.00000  -0.01170  -0.01235   2.08205
   A29        2.09440  -0.00219   0.00000   0.00149   0.00181   2.09621
   A30        2.09440   0.01236   0.00000   0.01021   0.01054   2.10493
   A31        2.09440   0.03453   0.00000   0.01825   0.01791   2.11231
   A32        2.09440  -0.01734   0.00000  -0.00917  -0.00900   2.08539
   A33        2.09440  -0.01719   0.00000  -0.00908  -0.00891   2.08549
   A34        2.09440   0.03785   0.00000   0.02568   0.02599   2.12038
   A35        2.09440   0.15272   0.00000   0.09006   0.08991   2.18430
   A36        2.09440  -0.19057   0.00000  -0.11574  -0.11590   1.97850
    D1        0.00000   0.00000   0.00000   0.00000   0.00000   0.00000
    D2        3.14159  -0.00000   0.00000   0.00000   0.00000   3.14159
    D3       -3.14159  -0.00000   0.00000  -0.00000  -0.00000  -3.14159
    D4       -0.00000  -0.00000   0.00000  -0.00000  -0.00000  -0.00000
    D5       -0.00000  -0.00000   0.00000  -0.00000  -0.00000  -0.00000
    D6        3.14159  -0.00000   0.00000  -0.00000  -0.00000   3.14159
    D7        3.14159   0.00000   0.00000   0.00000   0.00000   3.14159
    D8        0.00000  -0.00000   0.00000  -0.00000  -0.00000  -0.00000
    D9       -0.00000  -0.00000   0.00000  -0.00000  -0.00000  -0.00000
   D10        3.14159  -0.00000   0.00000  -0.00000  -0.00000   3.14159
   D11        3.14159  -0.00000   0.00000  -0.00000  -0.00000   3.14159
   D12       -0.00000  -0.00000   0.00000  -0.00000  -0.00000  -0.00000
   D13        0.00000  -0.00000   0.00000  -0.00000  -0.00000   0.00000
   D14        3.14159  -0.00000   0.00000  -0.00000  -0.00000   3.14159
   D15       -3.14159  -0.00000   0.00000  -0.00000  -0.00000  -3.14159
   D16        0.00000  -0.00000   0.00000  -0.00000  -0.00000   0.00000
   D17       -0.00000  -0.00000   0.00000   0.00000   0.00000  -0.00000
   D18        3.14159   0.00000   0.00000   0.00000   0.00000   3.14159
   D19        3.14159  -0.00000   0.00000  -0.00000  -0.00000   3.14159
   D20        0.00000  -0.00000   0.00000  -0.00000  -0.00000   0.00000
   D21        0.00000   0.00000   0.00000   0.00000   0.00000   0.00000
   D22       -3.14159   0.00000   0.00000   0.00000   0.00000  -3.14159
   D23       -3.14159  -0.00000   0.00000  -0.00000  -0.00000  -3.14159
   D24        0.00000   0.00000   0.00000   0.00000   0.00000   0.00000
   D25       -0.00000   0.00000   0.00000   0.00000   0.00000  -0.00000
   D26        3.14159   0.00000   0.00000   0.00000   0.00000   3.14159
   D27        3.14159   0.00000   0.00000  -0.00000  -0.00000   3.14159
   D28       -0.00000   0.00000   0.00000   0.00000   0.00000  -0.00000
   D29        3.14159   0.00000   0.00000   0.00000   0.00000   3.14159
   D30        0.00000   0.00000   0.00000   0.00000   0.00000   0.00000
   D31        0.00000   0.00000   0.00000   0.00000   0.00000   0.00000
   D32       -3.14159  -0.00000   0.00000  -0.00000  -0.00000  -3.14159
   D33       -3.14159  -0.00000   0.00000  -0.00000  -0.00000  -3.14159
   D34        0.00000  -0.00000   0.00000  -0.00000  -0.00000  -0.00000
   D35       -0.00000   0.00000   0.00000   0.00000   0.00000  -0.00000
   D36        3.14159  -0.00000   0.00000  -0.00000  -0.00000   3.14159
   D37       -0.00000  -0.00000   0.00000  -0.00000  -0.00000  -0.00000
   D38        3.14159  -0.00000   0.00000  -0.00000  -0.00000   3.14159
   D39        3.14159   0.00000   0.00000   0.00000   0.00000   3.14159
   D40       -0.00000   0.00000   0.00000   0.00000   0.00000  -0.00000
   D41       -0.00000   0.00000   0.00000   0.00000   0.00000  -0.00000
   D42       -3.14159  -0.00000   0.00000  -0.00000  -0.00000  -3.14159
   D43        3.14159   0.00000   0.00000   0.00000   0.00000   3.14159
   D44        0.00000   0.00000   0.00000   0.00000   0.00000   0.00000
   D45        0.00000   0.00000   0.00000   0.00000   0.00000   0.00000
   D46       -3.14159  -0.00000   0.00000  -0.00000  -0.00000  -3.14159
   D47        3.14159   0.00000   0.00000   0.00000   0.00000   3.14159
   D48        0.00000   0.00000   0.00000   0.00000   0.00000   0.00000
   D49        0.00000  -0.00000   0.00000  -0.00000  -0.00000   0.00000
   D50       -3.14159   0.00000   0.00000   0.00000   0.00000  -3.14159
   D51        3.14159   0.00000   0.00000   0.00000   0.00000   3.14159
   D52       -0.00000   0.00000   0.00000   0.00000   0.00000  -0.00000
         Item               Value     Threshold  Converged?
 Maximum Force            0.201959     0.000450     NO 
 RMS     Force            0.049698     0.000300     NO 
 Maximum Displacement     0.556181     0.001800     NO 
 RMS     Displacement     0.098834     0.001200     NO 
 Predicted change in Energy=-1.438820D-01
 GradGradGradGradGradGradGradGradGradGradGradGradGradGradGradGradGradGrad

                          Input orientation:                          
 ---------------------------------------------------------------------
 Center     Atomic      Atomic             Coordinates (Angstroms)
 Number     Number       Type             X           Y           Z
 ---------------------------------------------------------------------
      1          6           0        0.651051   -0.301704   -0.003873
      2          6           0        1.992335   -0.223801   -0.431135
      3          6           0        2.698836    0.984354   -0.436992
      4          6           0        2.087455    2.160232   -0.014727
      5          6           0        0.762971    2.116139    0.413347
      6          6           0        0.060170    0.906311    0.417671
      7          6           0       -0.149905   -1.669340    0.003151
      8          6           0        0.438796   -2.907981   -0.423429
      9          6           0       -0.284609   -4.104246   -0.409767
     10          6           0       -1.601319   -4.141283    0.017077
     11          6           0       -2.211509   -2.968812    0.438310
     12          6           0       -1.516300   -1.752322    0.437737
     13          1           0        2.497132   -1.093684   -0.760813
     14          1           0        3.718294    1.004685   -0.769038
     15          1           0       -0.944889    0.918757    0.751129
     16          1           0        0.188305   -5.009678   -0.735621
     17         17           0       -2.479796   -0.399166    1.009306
     18         17           0       -3.882290   -3.010024    0.981027
     19         17           0       -0.037864    3.585901    0.953217
     20         17           0       -2.483723   -5.660919    0.022392
     21         17           0        2.979531    3.675963   -0.023957
     22         17           0        2.085475   -3.108172   -1.003533
 ---------------------------------------------------------------------
                    Distance matrix (angstroms):
                    1          2          3          4          5
     1  C    0.000000
     2  C    1.409846   0.000000
     3  C    2.456616   1.399577   0.000000
     4  C    2.850352   2.421994   1.390965   0.000000
     5  C    2.456128   2.774852   2.398247   1.392641   0.000000
     6  C    1.409304   2.393927   2.774725   2.422637   1.399155
     7  C    1.584931   2.620569   3.918054   4.435282   3.915541
     8  C    2.648351   3.101350   4.500916   5.345269   5.103633
     9  C    3.936945   4.499199   5.898775   6.710174   6.361457
    10  C    4.451514   5.334971   6.705943   7.301860   6.700913
    11  C    3.937415   5.095422   6.364367   6.707714   5.891085
    12  C    2.645131   3.924517   5.101168   5.338525   4.490063
    13  H    2.146674   1.058397   2.112768   3.363399   3.832615
    14  H    3.420542   2.145294   1.072363   2.136331   3.371542
    15  H    2.146294   3.366077   3.833102   3.364953   2.112962
    16  H    4.786921   5.123658   6.505411   7.452119   7.240694
    17  Cl   3.292147   4.701657   5.551949   5.334692   4.146982
    18  Cl   5.371796   6.653455   7.827966   7.959957   6.941056
    19  Cl   4.062523   4.533427   4.023711   2.736134   1.758691
    20  Cl   6.208758   7.057127   8.439764   9.059108   8.436617
    21  Cl   4.609128   4.043329   2.737544   1.758786   2.745437
    22  Cl   3.306532   2.942093   4.176835   5.360393   5.572252
                    6          7          8          9         10
     6  C    0.000000
     7  C    2.617238   0.000000
     8  C    3.924236   1.436235   0.000000
     9  C    5.090108   2.473340   1.398052   0.000000
    10  C    5.329092   2.866583   2.424282   1.384663   0.000000
    11  C    4.491940   2.475520   2.787545   2.391942   1.387248
    12  C    3.090952   1.436240   2.428899   2.786911   2.427204
    13  H    3.365648   2.814574   2.764463   4.113976   5.166263
    14  H    3.847054   4.765464   5.116983   6.500268   7.442933
    15  H    1.059006   2.808864   4.235339   5.197520   5.154972
    16  H    6.028717   3.437736   2.139472   1.072211   2.126833
    17  Cl   2.916458   2.837971   4.106709   4.534339   3.969847
    18  Cl   5.585520   4.084650   4.544743   4.009356   2.722458
    19  Cl   2.734342   5.341604   6.655288   7.813896   7.939151
    20  Cl   7.053803   4.623827   4.039621   2.728753   1.757259
    21  Cl   4.048294   6.194060   7.068468   8.446012   9.060641
    22  Cl   4.715692   2.842635   1.757314   2.638565   3.962501
                   11         12         13         14         15
    11  C    0.000000
    12  C    1.401130   0.000000
    13  H    5.208196   4.240043   0.000000
    14  H    7.239401   6.038076   2.427850   0.000000
    15  H    4.100655   2.749434   4.264200   4.905463   0.000000
    16  H    3.361898   3.859121   4.546024   6.973845   6.216181
    17  Cl   2.645958   1.756715   5.327803   6.599213   2.039489
    18  Cl   1.757199   2.734024   6.885012   8.772085   4.910854
    19  Cl   6.924891   5.563103   5.591299   4.872120   2.824392
    20  Cl   2.737614   4.047907   6.803085   9.139018   6.796411
    21  Cl   8.444740   7.063422   4.850279   2.869955   4.858397
    22  Cl   4.534579   4.109546   2.070395   4.431329   5.336488
                   16         17         18         19         20
    16  H    0.000000
    17  Cl   5.605387   0.000000
    18  Cl   4.849251   2.963843   0.000000
    19  Cl   8.762837   4.674070   7.634566   0.000000
    20  Cl   2.852793   5.353509   3.146779   9.610012   0.000000
    21  Cl   9.150835   6.890469   9.633120   3.172957  10.817886
    22  Cl   2.699400   5.677317   6.289859   7.290271   5.333537
                   21         22
    21  Cl   0.000000
    22  Cl   6.912553   0.000000
 Stoichiometry    C12H4Cl6
 Framework group  C1[X(C12H4Cl6)]
 Deg. of freedom    60
 Full point group                 C1      NOp   1
 Largest Abelian subgroup         C1      NOp   1
 Largest concise Abelian subgroup C1      NOp   1
                         Standard orientation:                         
 ---------------------------------------------------------------------
 Center     Atomic      Atomic             Coordinates (Angstroms)
 Number     Number       Type             X           Y           Z
 ---------------------------------------------------------------------
      1          6           0        0.954514    0.508285    0.000002
      2          6           0        1.688282    1.712133   -0.000001
      3          6           0        3.087785    1.726529   -0.000003
      4          6           0        3.804745    0.534577   -0.000003
      5          6           0        3.108668   -0.671626    0.000002
      6          6           0        1.709549   -0.681699    0.000004
      7          6           0       -0.630321    0.490880    0.000003
      8          6           0       -1.413021    1.695102    0.000003
      9          6           0       -2.810600    1.658698    0.000003
     10          6           0       -3.496692    0.455965    0.000002
     11          6           0       -2.782097   -0.733074    0.000001
     12          6           0       -1.380968   -0.733586    0.000001
     13          1           0        1.183975    2.642660   -0.000003
     14          1           0        3.611747    2.662172   -0.000006
     15          1           0        1.221188   -1.621378    0.000007
     16          1           0       -3.361596    2.578502    0.000004
     17         17           0       -0.685017   -2.346565   -0.000003
     18         17           0       -3.647663   -2.262304   -0.000005
     19         17           0        3.986611   -2.195506    0.000007
     20         17           0       -5.253907    0.443651   -0.000000
     21         17           0        5.563375    0.557941   -0.000006
     22         17           0       -0.768950    3.330132    0.000001
 ---------------------------------------------------------------------
 Rotational constants (GHZ):           0.4420651           0.1262361           0.0981954
 Standard basis: 6-311+G(d,p) (5D, 7F)
 There are   486 symmetry adapted cartesian basis functions of A   symmetry.
 There are   468 symmetry adapted basis functions of A   symmetry.
   468 basis functions,   782 primitive gaussians,   486 cartesian basis functions
    89 alpha electrons       89 beta electrons
       nuclear repulsion energy      1977.0502347356 Hartrees.
 NAtoms=   22 NActive=   22 NUniq=   22 SFac= 1.00D+00 NAtFMM=   60 NAOKFM=F Big=F
 Integral buffers will be    131072 words long.
 Raffenetti 2 integral format.
 Two-electron integral symmetry is turned on.
 One-electron integrals computed using PRISM.
 NBasis=   468 RedAO= T EigKep=  1.16D-06  NBF=   468
 NBsUse=   462 1.00D-06 EigRej=  5.58D-07 NBFU=   462
 Initial guess from the checkpoint file:  "/scratch/gour/Gau-105179.chk"
 B after Tr=     0.000000    0.000000   -0.000000
         Rot=    0.999996    0.000000   -0.000000   -0.002732 Ang=  -0.31 deg.
 ExpMin= 4.38D-02 ExpMax= 1.06D+05 ExpMxC= 3.62D+03 IAcc=3 IRadAn=         5 AccDes= 0.00D+00
 Harris functional with IExCor=  402 and IRadAn=       5 diagonalized for initial guess.
 HarFok:  IExCor=  402 AccDes= 0.00D+00 IRadAn=         5 IDoV= 1 UseB2=F ITyADJ=14
 ICtDFT=  3500011 ScaDFX=  1.000000  1.000000  1.000000  1.000000
 FoFCou: FMM=F IPFlag=           0 FMFlag=      100000 FMFlg1=           0
         NFxFlg=           0 DoJE=T BraDBF=F KetDBF=T FulRan=T
         wScrn=  0.000000 ICntrl=       500 IOpCl=  0 I1Cent=   200000004 NGrid=           0
         NMat0=    1 NMatS0=      1 NMatT0=    0 NMatD0=    1 NMtDS0=    0 NMtDT0=    0
 Petite list used in FoFCou.
 Requested convergence on RMS density matrix=1.00D-08 within  32 cycles.
 Requested convergence on MAX density matrix=1.00D-06.
 Requested convergence on             energy=1.00D-06.
 No special actions if energy rises.
 SCF Done:  E(RB3LYP) =  -3221.08978442     A.U. after   15 cycles
            NFock= 15  Conv=0.42D-08     -V/T= 2.0027
 QCSCF skips out because SCF is already converged.
 Calling FoFJK, ICntrl=      2127 FMM=F ISym2X=0 I1Cent= 0 IOpClX= 0 NMat=1 NMatS=1 NMatT=0.
 ***** Axes restored to original set *****
 -------------------------------------------------------------------
 Center     Atomic                   Forces (Hartrees/Bohr)
 Number     Number              X              Y              Z
 -------------------------------------------------------------------
      1        6          -0.012859893   -0.020553696    0.000376491
      2        6          -0.003603811    0.018009699    0.004569830
      3        6          -0.013455511   -0.005605704    0.003380283
      4        6           0.003582195    0.005227445   -0.000198620
      5        6          -0.003061878   -0.004119144    0.000235175
      6        6           0.016723111    0.005229331   -0.004527422
      7        6           0.016962649    0.027378702   -0.000446323
      8        6          -0.019008926    0.005858771    0.007363045
      9        6           0.001029621    0.006782777    0.000934557
     10        6          -0.001140141   -0.005266089   -0.000613328
     11        6          -0.014444445    0.003129493    0.005346755
     12        6           0.011108871   -0.004689432   -0.004540676
     13        1           0.006790791    0.001059143   -0.002038388
     14        1           0.006565601    0.000180769   -0.002129107
     15        1          -0.001139397    0.007280553    0.001742623
     16        1           0.003071990   -0.005091241   -0.001968237
     17       17          -0.005053119   -0.006739282    0.000399133
     18       17           0.005081707   -0.005027444   -0.002618505
     19       17          -0.001458514   -0.005995299   -0.000645426
     20       17           0.007280824    0.004507004   -0.001552334
     21       17          -0.000062763   -0.006561803   -0.001211672
     22       17          -0.002908963   -0.014994553   -0.001857855
 -------------------------------------------------------------------
 Cartesian Forces:  Max     0.027378702 RMS     0.008036083

 GradGradGradGradGradGradGradGradGradGradGradGradGradGradGradGradGradGrad
 Berny optimization.
 Using GEDIIS/GDIIS optimizer.
 FormGI is forming the generalized inverse of G from B-inverse, IUseBI=4.
 Internal  Forces:  Max     0.032429774 RMS     0.006760078
 Search for a local minimum.
 Step number   2 out of a maximum of  121
 All quantities printed in internal units (Hartrees-Bohrs-Radians)
 Mixed Optimization -- RFO/linear search
 Update second derivatives using D2CorX and points    1    2
 DE= -7.55D-02 DEPred=-1.44D-01 R= 5.25D-01
 TightC=F SS=  1.41D+00  RLast= 3.00D-01 DXNew= 5.0454D-01 8.9996D-01
 Trust test= 5.25D-01 RLast= 3.00D-01 DXMaxT set to 5.05D-01
 ITU=  1  0
 Use linear search instead of GDIIS.
     Eigenvalues ---    0.00237   0.01460   0.01467   0.02070   0.02070
     Eigenvalues ---    0.02070   0.02070   0.02070   0.02070   0.02070
     Eigenvalues ---    0.02070   0.02070   0.02070   0.02070   0.02070
     Eigenvalues ---    0.02070   0.02070   0.02070   0.02070   0.16000
     Eigenvalues ---    0.16000   0.16000   0.16086   0.22374   0.23470
     Eigenvalues ---    0.23629   0.24623   0.24894   0.25000   0.25000
     Eigenvalues ---    0.25000   0.25000   0.25000   0.25000   0.25000
     Eigenvalues ---    0.25000   0.27898   0.29519   0.29536   0.29539
     Eigenvalues ---    0.29539   0.29539   0.29539   0.36359   0.37213
     Eigenvalues ---    0.37230   0.37230   0.38394   0.41237   0.41488
     Eigenvalues ---    0.41842   0.45072   0.45347   0.45389   0.45389
     Eigenvalues ---    0.45389   0.45389   0.45389   0.45389   1.60361
 RFO step:  Lambda=-1.17177950D-02 EMin= 2.36824177D-03
 Quartic linear search produced a step of  0.24010.
 Iteration  1 RMS(Cart)=  0.06366135 RMS(Int)=  0.00142203
 Iteration  2 RMS(Cart)=  0.00196838 RMS(Int)=  0.00008413
 Iteration  3 RMS(Cart)=  0.00000048 RMS(Int)=  0.00008413
 Variable       Old X    -DE/DX   Delta X   Delta X   Delta X     New X
                                 (Linear)    (Quad)   (Total)
    R1        2.66422   0.00230   0.00383  -0.00459  -0.00069   2.66354
    R2        2.66320   0.00122   0.00359  -0.00644  -0.00280   2.66040
    R3        2.99509  -0.00605   0.02039  -0.08829  -0.06791   2.92718
    R4        2.64482  -0.00965  -0.00083  -0.02366  -0.02447   2.62034
    R5        2.00008   0.00300  -0.00526   0.02517   0.01991   2.01999
    R6        2.62854  -0.00787  -0.00473  -0.00799  -0.01278   2.61576
    R7        2.02647   0.00690   0.00107   0.01913   0.02020   2.04668
    R8        2.63171  -0.00261  -0.00397   0.00416   0.00012   2.63183
    R9        3.32362  -0.00568  -0.00055  -0.02123  -0.02179   3.30184
   R10        2.64402  -0.00889  -0.00102  -0.02043  -0.02146   2.62256
   R11        3.32345  -0.00454  -0.00059  -0.01652  -0.01711   3.30633
   R12        2.00123   0.00172  -0.00499   0.02021   0.01522   2.01645
   R13        2.71409   0.00483   0.01581  -0.03195  -0.01595   2.69814
   R14        2.71410   0.01062   0.01581  -0.01424   0.00166   2.71576
   R15        2.64194  -0.00987  -0.00152  -0.02410  -0.02553   2.61641
   R16        3.32084  -0.00040  -0.00122   0.00211   0.00089   3.32173
   R17        2.61663  -0.01362  -0.00759  -0.01708  -0.02478   2.59186
   R18        2.02619   0.00625   0.00100   0.01723   0.01823   2.04442
   R19        2.62152  -0.00344  -0.00642   0.00886   0.00224   2.62376
   R20        3.32074  -0.00756  -0.00124  -0.02669  -0.02793   3.29281
   R21        2.64775   0.00988  -0.00012   0.02882   0.02860   2.67635
   R22        3.32062  -0.00552  -0.00127  -0.01839  -0.01966   3.30097
   R23        3.31971  -0.00229  -0.00149  -0.00466  -0.00616   3.31355
    A1        2.02881  -0.01438  -0.01575  -0.01826  -0.03387   1.99493
    A2        2.12917   0.00362   0.00835  -0.00932  -0.00104   2.12813
    A3        2.12521   0.01077   0.00740   0.02758   0.03491   2.16012
    A4        2.12847   0.00739   0.00818   0.01075   0.01901   2.14748
    A5        2.09755   0.00281   0.00076   0.02423   0.02495   2.12251
    A6        2.05716  -0.01021  -0.00894  -0.03498  -0.04396   2.01320
    A7        2.10203   0.00326   0.00183   0.00819   0.00997   2.11200
    A8        2.09157  -0.00158  -0.00068  -0.00458  -0.00523   2.08634
    A9        2.08958  -0.00168  -0.00116  -0.00361  -0.00474   2.08484
   A10        2.07667  -0.00567  -0.00425  -0.01590  -0.02028   2.05639
   A11        2.09903  -0.00298   0.00111  -0.01638  -0.01520   2.08383
   A12        2.10748   0.00865   0.00314   0.03228   0.03548   2.14296
   A13        2.10139   0.00215   0.00168   0.00370   0.00530   2.10669
   A14        2.09552   0.00594   0.00027   0.02786   0.02817   2.12368
   A15        2.08628  -0.00809  -0.00195  -0.03156  -0.03347   2.05281
   A16        2.12899   0.00724   0.00831   0.01152   0.01988   2.14887
   A17        2.09691   0.00376   0.00060   0.03046   0.03104   2.12794
   A18        2.05729  -0.01100  -0.00891  -0.04198  -0.05092   2.00637
   A19        2.13616   0.00514   0.01003  -0.00971   0.00015   2.13632
   A20        2.13173   0.01628   0.00896   0.04644   0.05524   2.18697
   A21        2.01529  -0.02142  -0.01899  -0.03672  -0.05539   1.95990
   A22        2.12110   0.01378   0.00641   0.04112   0.04783   2.16893
   A23        2.18999   0.01865   0.02295   0.01711   0.03992   2.22991
   A24        1.97209  -0.03243  -0.02937  -0.05823  -0.08775   1.88435
   A25        2.11524   0.00425   0.00501  -0.00299   0.00201   2.11725
   A26        2.08447  -0.00250  -0.00238  -0.00166  -0.00404   2.08043
   A27        2.08348  -0.00175  -0.00262   0.00465   0.00203   2.08551
   A28        2.08205  -0.00233  -0.00297  -0.00636  -0.00963   2.07242
   A29        2.09621  -0.00600   0.00044  -0.02741  -0.02682   2.06939
   A30        2.10493   0.00833   0.00253   0.03376   0.03645   2.14138
   A31        2.11231  -0.00198   0.00430  -0.01970  -0.01571   2.09660
   A32        2.08539  -0.00771  -0.00216  -0.03132  -0.03333   2.05207
   A33        2.08549   0.00969  -0.00214   0.05102   0.04903   2.13452
   A34        2.12038   0.00770   0.00624   0.02465   0.03090   2.15128
   A35        2.18430   0.00962   0.02159  -0.02718  -0.00560   2.17870
   A36        1.97850  -0.01732  -0.02783   0.00253  -0.02530   1.95320
    D1        0.00000  -0.00000   0.00000  -0.00000  -0.00000   0.00000
    D2        3.14159   0.00000   0.00000   0.00000   0.00000  -3.14159
    D3       -3.14159  -0.00000  -0.00000  -0.00000  -0.00000   3.14159
    D4       -0.00000  -0.00000  -0.00000   0.00000   0.00000  -0.00000
    D5       -0.00000   0.00000  -0.00000   0.00000   0.00000  -0.00000
    D6        3.14159  -0.00000  -0.00000  -0.00000  -0.00000   3.14159
    D7        3.14159   0.00000   0.00000   0.00000   0.00000  -3.14159
    D8       -0.00000  -0.00000  -0.00000  -0.00000  -0.00000  -0.00000
    D9       -0.00000  -0.00000  -0.00000  -0.00001  -0.00001  -0.00002
   D10        3.14159  -0.00000  -0.00000  -0.00001  -0.00001   3.14158
   D11        3.14159  -0.00000  -0.00000  -0.00001  -0.00001   3.14158
   D12       -0.00000  -0.00000  -0.00000  -0.00001  -0.00001  -0.00001
   D13        0.00000  -0.00000  -0.00000  -0.00000  -0.00000  -0.00000
   D14        3.14159   0.00000  -0.00000   0.00000   0.00000   3.14159
   D15       -3.14159  -0.00000  -0.00000  -0.00000  -0.00000  -3.14159
   D16        0.00000  -0.00000  -0.00000  -0.00000  -0.00000   0.00000
   D17       -0.00000   0.00000   0.00000   0.00000   0.00000  -0.00000
   D18        3.14159  -0.00000   0.00000  -0.00000  -0.00000   3.14159
   D19        3.14159   0.00000  -0.00000   0.00000   0.00000   3.14159
   D20        0.00000  -0.00000  -0.00000  -0.00000  -0.00000  -0.00000
   D21        0.00000  -0.00000   0.00000  -0.00000  -0.00000   0.00000
   D22       -3.14159  -0.00000   0.00000  -0.00000  -0.00000  -3.14159
   D23       -3.14159  -0.00000  -0.00000   0.00000   0.00000  -3.14159
   D24        0.00000   0.00000   0.00000   0.00000   0.00000   0.00000
   D25       -0.00000   0.00000   0.00000   0.00000   0.00000  -0.00000
   D26        3.14159   0.00000   0.00000   0.00000   0.00000  -3.14159
   D27        3.14159   0.00000  -0.00000   0.00000   0.00000   3.14159
   D28       -0.00000   0.00000   0.00000   0.00000   0.00000   0.00000
   D29        3.14159   0.00000   0.00000   0.00000   0.00000  -3.14159
   D30        0.00000  -0.00000   0.00000  -0.00000  -0.00000   0.00000
   D31        0.00000   0.00000   0.00000   0.00000   0.00000   0.00000
   D32       -3.14159  -0.00000  -0.00000  -0.00000  -0.00000   3.14159
   D33       -3.14159  -0.00000  -0.00000  -0.00000  -0.00000   3.14159
   D34       -0.00000  -0.00000  -0.00000  -0.00000  -0.00000  -0.00000
   D35       -0.00000   0.00000   0.00000   0.00000   0.00000  -0.00000
   D36        3.14159  -0.00000  -0.00000   0.00000   0.00000   3.14159
   D37       -0.00000  -0.00000  -0.00000  -0.00000  -0.00000  -0.00000
   D38        3.14159  -0.00000  -0.00000  -0.00000  -0.00000   3.14159
   D39        3.14159   0.00000   0.00000   0.00000   0.00000  -3.14159
   D40       -0.00000   0.00000   0.00000   0.00000   0.00000   0.00000
   D41       -0.00000   0.00000   0.00000   0.00000   0.00000   0.00000
   D42       -3.14159  -0.00000  -0.00000  -0.00000  -0.00000   3.14159
   D43        3.14159   0.00000   0.00000   0.00000   0.00000  -3.14159
   D44        0.00000  -0.00000   0.00000  -0.00000  -0.00000   0.00000
   D45        0.00000   0.00000   0.00000   0.00000   0.00000   0.00000
   D46       -3.14159  -0.00000  -0.00000  -0.00000  -0.00000  -3.14159
   D47        3.14159   0.00000   0.00000   0.00000   0.00000  -3.14159
   D48        0.00000  -0.00000   0.00000  -0.00000  -0.00000   0.00000
   D49        0.00000  -0.00000  -0.00000  -0.00000  -0.00000  -0.00000
   D50       -3.14159  -0.00000   0.00000  -0.00000  -0.00000  -3.14159
   D51        3.14159   0.00000   0.00000   0.00000   0.00000  -3.14159
   D52       -0.00000   0.00000   0.00000   0.00000   0.00000   0.00000
         Item               Value     Threshold  Converged?
 Maximum Force            0.032430     0.000450     NO 
 RMS     Force            0.006760     0.000300     NO 
 Maximum Displacement     0.263652     0.001800     NO 
 RMS     Displacement     0.063597     0.001200     NO 
 Predicted change in Energy=-4.513944D-03
 GradGradGradGradGradGradGradGradGradGradGradGradGradGradGradGradGradGrad

                          Input orientation:                          
 ---------------------------------------------------------------------
 Center     Atomic      Atomic             Coordinates (Angstroms)
 Number     Number       Type             X           Y           Z
 ---------------------------------------------------------------------
[...]
                 (A) (A) (A) (A) (A) (A) (A) (A) (A) (A) (A) (A)
                 (A) (A) (A) (A) (A) (A) (A) (A) (A) (A) (A) (A)
                 (A) (A) (A) (A) (A) (A) (A) (A) (A) (A) (A) (A)
                 (A) (A) (A) (A) (A) (A) (A) (A) (A) (A) (A) (A)
                 (A) (A) (A) (A) (A) (A) (A) (A) (A) (A) (A) (A)
                 (A) (A) (A) (A) (A) (A) (A) (A) (A) (A) (A) (A)
                 (A) (A) (A) (A) (A) (A) (A) (A) (A) (A) (A) (A)
                 (A) (A) (A) (A) (A) (A) (A) (A) (A) (A) (A) (A)
                 (A) (A) (A) (A) (A) (A) (A) (A) (A) (A) (A) (A)
                 (A) (A) (A) (A) (A) (A) (A) (A) (A) (A) (A) (A)
                 (A) (A) (A) (A) (A) (A) (A) (A) (A) (A) (A) (A)
                 (A) (A) (A) (A) (A) (A) (A) (A) (A) (A) (A) (A)
                 (A) (A) (A) (A) (A) (A) (A) (A) (A) (A) (A) (A)
                 (A) (A) (A) (A) (A) (A) (A) (A) (A) (A) (A) (A)
                 (A) (A) (A) (A) (A) (A) (A) (A) (A) (A) (A) (A)
                 (A) (A) (A) (A) (A) (A) (A) (A) (A) (A) (A) (A)
                 (A) (A) (A) (A) (A) (A) (A) (A) (A) (A) (A) (A)
                 (A) (A) (A) (A) (A) (A) (A) (A) (A) (A) (A) (A)
                 (A) (A) (A) (A) (A) (A) (A) (A) (A) (A) (A) (A)
                 (A) (A) (A) (A) (A) (A) (A) (A) (A) (A) (A) (A)
                 (A) (A) (A) (A) (A) (A) (A) (A) (A) (A) (A) (A)
                 (A) (A) (A) (A) (A) (A) (A) (A) (A) (A) (A) (A)
                 (A) (A) (A) (A) (A) (A) (A) (A) (A) (A) (A) (A)
                 (A) (A) (A) (A) (A) (A) (A) (A) (A) (A) (A) (A)
                 (A) (A) (A) (A) (A) (A) (A) (A) (A) (A) (A) (A)
                 (A) (A) (A) (A)
 The electronic state is 1-A.
 Alpha  occ. eigenvalues -- -101.58238-101.58173-101.58070-101.57931-101.57056
 Alpha  occ. eigenvalues -- -101.57043 -10.28406 -10.28178 -10.28125 -10.27726
 Alpha  occ. eigenvalues --  -10.26558 -10.26497 -10.24087 -10.22579 -10.22403
 Alpha  occ. eigenvalues --  -10.21342 -10.21184 -10.20904  -9.49694  -9.49636
 Alpha  occ. eigenvalues --   -9.49544  -9.49397  -9.48514  -9.48501  -7.26188
 Alpha  occ. eigenvalues --   -7.26141  -7.26037  -7.25876  -7.25172  -7.25116
 Alpha  occ. eigenvalues --   -7.25108  -7.25033  -7.25030  -7.24995  -7.24984
 Alpha  occ. eigenvalues --   -7.24944  -7.24878  -7.24821  -7.23996  -7.23982
 Alpha  occ. eigenvalues --   -7.23938  -7.23925  -0.96317  -0.93473  -0.91475
 Alpha  occ. eigenvalues --   -0.90883  -0.87682  -0.87456  -0.86410  -0.84011
 Alpha  occ. eigenvalues --   -0.79629  -0.76967  -0.75777  -0.73954  -0.65901
 Alpha  occ. eigenvalues --   -0.64640  -0.63924  -0.61088  -0.55485  -0.55084
 Alpha  occ. eigenvalues --   -0.52519  -0.51789  -0.49685  -0.48589  -0.47287
 Alpha  occ. eigenvalues --   -0.46538  -0.46281  -0.45784  -0.43899  -0.43769
 Alpha  occ. eigenvalues --   -0.42534  -0.40416  -0.40116  -0.39826  -0.38985
 Alpha  occ. eigenvalues --   -0.36273  -0.36084  -0.35887  -0.35836  -0.34616
 Alpha  occ. eigenvalues --   -0.34227  -0.34001  -0.33128  -0.32303  -0.32220
 Alpha  occ. eigenvalues --   -0.28209  -0.28008  -0.27151  -0.26634
 Alpha virt. eigenvalues --   -0.06469  -0.06145  -0.05147  -0.04808  -0.04499
 Alpha virt. eigenvalues --   -0.02115  -0.00729  -0.00330   0.00624   0.01104
 Alpha virt. eigenvalues --    0.01679   0.01917   0.02448   0.02490   0.03343
 Alpha virt. eigenvalues --    0.04010   0.04567   0.05227   0.05638   0.05902
 Alpha virt. eigenvalues --    0.06234   0.06461   0.06851   0.07184   0.07898
 Alpha virt. eigenvalues --    0.08172   0.08525   0.08685   0.09154   0.09492
 Alpha virt. eigenvalues --    0.09735   0.10477   0.10826   0.11107   0.11398
 Alpha virt. eigenvalues --    0.11712   0.11853   0.12209   0.12505   0.12813
 Alpha virt. eigenvalues --    0.13345   0.13847   0.14231   0.14406   0.14417
 Alpha virt. eigenvalues --    0.14810   0.15336   0.15708   0.16349   0.16962
 Alpha virt. eigenvalues --    0.17328   0.17510   0.17959   0.18021   0.18463
 Alpha virt. eigenvalues --    0.18747   0.18896   0.19178   0.19847   0.20057
 Alpha virt. eigenvalues --    0.20406   0.20700   0.21445   0.21940   0.22192
 Alpha virt. eigenvalues --    0.22538   0.22656   0.23266   0.23689   0.23860
 Alpha virt. eigenvalues --    0.24118   0.24476   0.24980   0.25111   0.25263
 Alpha virt. eigenvalues --    0.25941   0.26284   0.26596   0.27159   0.27634
 Alpha virt. eigenvalues --    0.27872   0.28342   0.28812   0.29306   0.29492
 Alpha virt. eigenvalues --    0.29808   0.30513   0.31066   0.31367   0.31885
 Alpha virt. eigenvalues --    0.32261   0.32847   0.35530   0.36700   0.39073
 Alpha virt. eigenvalues --    0.41061   0.42962   0.43544   0.43855   0.44137
 Alpha virt. eigenvalues --    0.44435   0.45043   0.45335   0.45546   0.45795
 Alpha virt. eigenvalues --    0.46493   0.46812   0.47265   0.47651   0.48074
 Alpha virt. eigenvalues --    0.48289   0.48741   0.50486   0.51116   0.51684
 Alpha virt. eigenvalues --    0.51878   0.53971   0.55087   0.56201   0.56781
 Alpha virt. eigenvalues --    0.57377   0.57669   0.58252   0.59391   0.59504
 Alpha virt. eigenvalues --    0.60046   0.61052   0.61746   0.62127   0.62857
 Alpha virt. eigenvalues --    0.63565   0.64003   0.64095   0.65575   0.65743
 Alpha virt. eigenvalues --    0.66221   0.67326   0.68382   0.68934   0.69455
 Alpha virt. eigenvalues --    0.69861   0.70062   0.71076   0.73412   0.75018
 Alpha virt. eigenvalues --    0.78701   0.79687   0.80085   0.80732   0.81072
 Alpha virt. eigenvalues --    0.81936   0.82927   0.83368   0.83631   0.83825
 Alpha virt. eigenvalues --    0.84081   0.84645   0.84837   0.85051   0.85093
 Alpha virt. eigenvalues --    0.85207   0.85646   0.85922   0.86458   0.86620
 Alpha virt. eigenvalues --    0.87765   0.88237   0.88681   0.89858   0.90372
 Alpha virt. eigenvalues --    0.91241   0.91530   0.91819   0.93252   0.93618
 Alpha virt. eigenvalues --    0.94238   0.94385   0.94880   0.95211   0.95652
 Alpha virt. eigenvalues --    0.96186   0.96658   0.96920   0.98478   0.98644
 Alpha virt. eigenvalues --    0.99854   1.02030   1.02262   1.02857   1.04678
 Alpha virt. eigenvalues --    1.06204   1.07548   1.09379   1.10773   1.14671
 Alpha virt. eigenvalues --    1.15386   1.17398   1.18286   1.20575   1.22750
 Alpha virt. eigenvalues --    1.23834   1.24276   1.25011   1.26384   1.27122
 Alpha virt. eigenvalues --    1.28051   1.28500   1.29034   1.29377   1.29540
 Alpha virt. eigenvalues --    1.32420   1.32702   1.35789   1.37430   1.39727
 Alpha virt. eigenvalues --    1.43425   1.43865   1.47234   1.49237   1.52312
 Alpha virt. eigenvalues --    1.54595   1.55163   1.56259   1.57236   1.58594
 Alpha virt. eigenvalues --    1.61250   1.61895   1.66547   1.67124   1.67470
 Alpha virt. eigenvalues --    1.69155   1.73943   1.74136   1.77578   1.77931
 Alpha virt. eigenvalues --    1.79344   1.80494   1.81383   1.82611   1.84869
 Alpha virt. eigenvalues --    1.85715   1.87423   1.88117   1.92104   1.93429
 Alpha virt. eigenvalues --    1.95136   1.95494   1.96228   1.99145   2.00798
 Alpha virt. eigenvalues --    2.02162   2.03231   2.09142   2.11038   2.11450
 Alpha virt. eigenvalues --    2.13263   2.14605   2.19702   2.22455   2.24011
 Alpha virt. eigenvalues --    2.24515   2.25517   2.26080   2.26296   2.26651
 Alpha virt. eigenvalues --    2.27855   2.29531   2.29908   2.31316   2.34931
 Alpha virt. eigenvalues --    2.36080   2.39542   2.40392   2.41498   2.42132
 Alpha virt. eigenvalues --    2.44051   2.44925   2.46518   2.49830   2.51610
 Alpha virt. eigenvalues --    2.52404   2.54415   2.54888   2.56618   2.58297
 Alpha virt. eigenvalues --    2.60696   2.61798   2.65031   2.66006   2.68696
 Alpha virt. eigenvalues --    2.69627   2.69819   2.70999   2.73606   2.74107
 Alpha virt. eigenvalues --    2.74604   2.75376   2.77803   2.82397   2.82913
 Alpha virt. eigenvalues --    2.83341   2.84284   2.87672   2.89711   2.96348
 Alpha virt. eigenvalues --    2.99086   3.05386   3.08580   3.09377   3.11425
 Alpha virt. eigenvalues --    3.12828   3.13449   3.14764   3.18571   3.20311
 Alpha virt. eigenvalues --    3.23252   3.27091   3.32886   3.38841   3.42537
 Alpha virt. eigenvalues --    3.50374   3.52818   3.62727   3.68087   3.72662
 Alpha virt. eigenvalues --    3.78015   3.85776   3.91344   4.00921   4.06799
 Alpha virt. eigenvalues --    4.12089   4.31639   4.79656   4.81774   9.74587
 Alpha virt. eigenvalues --    9.76494   9.78760   9.79929   9.80565   9.83556
 Alpha virt. eigenvalues --   23.32948  23.52623  23.80728  23.82956  23.88327
 Alpha virt. eigenvalues --   23.89332  23.93287  23.95290  24.02360  24.06437
 Alpha virt. eigenvalues --   24.08464  24.15570  25.77104  25.78534  25.82813
 Alpha virt. eigenvalues --   25.86054  25.87082  25.93094  26.07926  26.09275
 Alpha virt. eigenvalues --   26.14770  26.19376  26.25587  26.35646  26.47791
 Alpha virt. eigenvalues --   26.52407  26.62312  26.72267  26.78687  26.95746
 Alpha virt. eigenvalues --  215.73685 215.75573 215.78250 215.79476 215.80475
 Alpha virt. eigenvalues --  215.84163
          Condensed to atoms (all electrons):
               1          2          3          4          5          6
     1  C   38.522597   3.326804  -3.174041  -4.502634 -11.879350   9.447920
     2  C    3.326804  28.991043  -4.351438   1.294749  -6.615283  -3.151804
     3  C   -3.174041  -4.351438  35.527913  -8.492204  -2.307924 -20.206495
     4  C   -4.502634   1.294749  -8.492204  34.888231  -5.946443  -3.545881
     5  C  -11.879350  -6.615283  -2.307924  -5.946443  44.950853 -28.043817
     6  C    9.447920  -3.151804 -20.206495  -3.545881 -28.043817  79.286381
     7  C   -1.367968  -5.885729   6.880254  -4.866850  11.808225 -18.914780
     8  C   -9.120067  -3.187574   1.187375  -0.799883   1.654736  -2.898204
     9  C   -3.620369  -0.699844   0.094607  -0.021473  -0.477176   0.119260
    10  C   -1.774784  -0.420509   0.027126  -0.084304   0.185952  -0.228399
    11  C   -4.146092  -0.847464   0.502113  -0.180545   0.711478  -1.364167
    12  C   -4.160523  -2.803430   0.930152  -0.897944   1.670540  -3.199021
    13  H    0.023717   0.179269   0.007830  -0.073960   0.008640  -0.040571
    14  H    0.029941  -0.031831   0.247022   0.075789   0.052306  -0.018760
    15  H    0.024162  -0.016631   0.033232  -0.011486   0.188847  -0.172087
    16  H    0.036397   0.001842  -0.000380   0.000115  -0.001010  -0.000415
    17  Cl  -1.023104   0.345370   0.119820   0.013753   0.288525  -0.054606
    18  Cl  -0.229283  -0.054316   0.017073  -0.010153   0.041084  -0.067338
    19  Cl  -0.350591   0.238198   0.791547  -0.014733  -1.377533  -0.000119
    20  Cl  -0.139382  -0.029508   0.005150  -0.003261   0.013952  -0.025164
    21  Cl  -0.308826   0.373779  -0.797432  -1.218639   0.218244   1.232260
    22  Cl  -0.031579   0.264437   0.186572  -0.036922   0.486528  -0.406269
               7          8          9         10         11         12
     1  C   -1.367968  -9.120067  -3.620369  -1.774784  -4.146092  -4.160523
     2  C   -5.885729  -3.187574  -0.699844  -0.420509  -0.847464  -2.803430
     3  C    6.880254   1.187375   0.094607   0.027126   0.502113   0.930152
     4  C   -4.866850  -0.799883  -0.021473  -0.084304  -0.180545  -0.897944
     5  C   11.808225   1.654736  -0.477176   0.185952   0.711478   1.670540
     6  C  -18.914780  -2.898204   0.119260  -0.228399  -1.364167  -3.199021
     7  C   38.474056 -11.840938  -8.991917   1.091287  -2.755172   2.893880
     8  C  -11.840938  38.309174  -4.026709  -4.998288   7.313770  -5.910226
     9  C   -8.991917  -4.026709  30.249655   3.769027 -14.206062   5.050790
    10  C    1.091287  -4.998288   3.769027  22.869965  -9.269938  -4.252451
    11  C   -2.755172   7.313770 -14.206062  -9.269938  32.120584  -3.008725
    12  C    2.893880  -5.910226   5.050790  -4.252451  -3.008725  23.053391
    13  H    0.109196   0.052799   0.015366   0.007164   0.003495   0.068031
    14  H   -0.004667   0.000715   0.000305   0.000161  -0.000678   0.002280
    15  H    0.194268   0.039839   0.006989   0.010623  -0.000120   0.073510
    16  H    0.165581   0.029430   0.097270  -0.002300   0.050452  -0.024241
    17  Cl  -0.686075   0.307054   1.177635   0.878167  -0.782883  -2.346117
    18  Cl  -0.834510   0.643847  -0.052713  -0.705202  -0.035821   0.706172
    19  Cl  -0.024454  -0.032249   0.000897   0.005032  -0.008638  -0.040330
    20  Cl   0.033526  -0.429331  -0.021007  -0.393393   0.327494  -0.035717
    21  Cl  -0.198877  -0.027373  -0.002595  -0.003155   0.004570  -0.039742
    22  Cl   0.302602  -0.200507  -1.597738  -0.743214   0.939827  -0.485933
              13         14         15         16         17         18
     1  C    0.023717   0.029941   0.024162   0.036397  -1.023104  -0.229283
     2  C    0.179269  -0.031831  -0.016631   0.001842   0.345370  -0.054316
     3  C    0.007830   0.247022   0.033232  -0.000380   0.119820   0.017073
     4  C   -0.073960   0.075789  -0.011486   0.000115   0.013753  -0.010153
     5  C    0.008640   0.052306   0.188847  -0.001010   0.288525   0.041084
     6  C   -0.040571  -0.018760  -0.172087  -0.000415  -0.054606  -0.067338
     7  C    0.109196  -0.004667   0.194268   0.165581  -0.686075  -0.834510
     8  C    0.052799   0.000715   0.039839   0.029430   0.307054   0.643847
     9  C    0.015366   0.000305   0.006989   0.097270   1.177635  -0.052713
    10  C    0.007164   0.000161   0.010623  -0.002300   0.878167  -0.705202
    11  C    0.003495  -0.000678  -0.000120   0.050452  -0.782883  -0.035821
    12  C    0.068031   0.002280   0.073510  -0.024241  -2.346117   0.706172
    13  H    0.533186  -0.007030   0.000017  -0.000002  -0.008941   0.000396
    14  H   -0.007030   0.508448   0.000051   0.000000  -0.001232  -0.000002
    15  H    0.000017   0.000051   0.517321   0.000001  -0.010428   0.000437
    16  H   -0.000002   0.000000   0.000001   0.488796   0.000592  -0.000897
    17  Cl  -0.008941  -0.001232  -0.010428   0.000592  18.595310  -0.359156
    18  Cl   0.000396  -0.000002   0.000437  -0.000897  -0.359156  17.534896
    19  Cl  -0.000067  -0.000155  -0.014242  -0.000013   0.002644  -0.000111
    20  Cl   0.000162  -0.000001   0.000134  -0.008329  -0.010512  -0.185387
    21  Cl  -0.001843  -0.009203  -0.002324  -0.000001   0.007303   0.000012
    22  Cl  -0.007812  -0.001226  -0.008338  -0.007578  -0.082145   0.007175
              19         20         21         22
     1  C   -0.350591  -0.139382  -0.308826  -0.031579
     2  C    0.238198  -0.029508   0.373779   0.264437
     3  C    0.791547   0.005150  -0.797432   0.186572
     4  C   -0.014733  -0.003261  -1.218639  -0.036922
     5  C   -1.377533   0.013952   0.218244   0.486528
     6  C   -0.000119  -0.025164   1.232260  -0.406269
     7  C   -0.024454   0.033526  -0.198877   0.302602
     8  C   -0.032249  -0.429331  -0.027373  -0.200507
     9  C    0.000897  -0.021007  -0.002595  -1.597738
    10  C    0.005032  -0.393393  -0.003155  -0.743214
    11  C   -0.008638   0.327494   0.004570   0.939827
    12  C   -0.040330  -0.035717  -0.039742  -0.485933
    13  H   -0.000067   0.000162  -0.001843  -0.007812
    14  H   -0.000155  -0.000001  -0.009203  -0.001226
    15  H   -0.014242   0.000134  -0.002324  -0.008338
    16  H   -0.000013  -0.008329  -0.000001  -0.007578
    17  Cl   0.002644  -0.010512   0.007303  -0.082145
    18  Cl  -0.000111  -0.185387   0.000012   0.007175
    19  Cl  17.516159   0.000085  -0.203656   0.000349
    20  Cl   0.000085  17.409437   0.000002  -0.040584
    21  Cl  -0.203656   0.000002  17.492933   0.006972
    22  Cl   0.000349  -0.040584   0.006972  18.030565
 Mulliken charges:
               1
     1  C    0.417054
     2  C   -0.920130
     3  C   -1.227872
     4  C    0.434678
     5  C    0.368626
     6  C   -1.747922
     7  C    0.419063
     8  C   -0.067391
     9  C   -0.864197
    10  C    0.031433
    11  C    0.632521
    12  C   -1.244348
    13  H    0.130960
    14  H    0.157765
    15  H    0.146225
    16  H    0.174691
    17  Cl   0.629024
    18  Cl   0.583799
    19  Cl   0.511979
    20  Cl   0.531635
    21  Cl   0.477589
    22  Cl   0.424818
 Sum of Mulliken charges =  -0.00000
 Mulliken charges with hydrogens summed into heavy atoms:
               1
     1  C    0.417054
     2  C   -0.789170
     3  C   -1.070107
     4  C    0.434678
     5  C    0.368626
     6  C   -1.601697
     7  C    0.419063
     8  C   -0.067391
     9  C   -0.689506
    10  C    0.031433
    11  C    0.632521
    12  C   -1.244348
    17  Cl   0.629024
    18  Cl   0.583799
    19  Cl   0.511979
    20  Cl   0.531635
    21  Cl   0.477589
    22  Cl   0.424818
 Electronic spatial extent (au):  <R**2>=           9032.5271
 Charge=              0.0000 electrons
 Dipole moment (field-independent basis, Debye):
    X=             -1.1618    Y=              0.8941    Z=             -1.1253  Tot=              1.8481
 Quadrupole moment (field-independent basis, Debye-Ang):
   XX=           -154.3635   YY=           -145.5804   ZZ=           -140.0767
   XY=             -2.9066   XZ=             -3.5076   YZ=              0.1751
 Traceless Quadrupole moment (field-independent basis, Debye-Ang):
   XX=             -7.6899   YY=              1.0931   ZZ=              6.5968
   XY=             -2.9066   XZ=             -3.5076   YZ=              0.1751
 Octapole moment (field-independent basis, Debye-Ang**2):
  XXX=            -34.5925  YYY=             -6.8684  ZZZ=             -4.2756  XYY=            -12.1544
  XXY=              7.4138  XXZ=             -6.9736  XZZ=             10.6254  YZZ=             -2.8317
  YYZ=              4.2093  XYZ=             -0.1473
 Hexadecapole moment (field-independent basis, Debye-Ang**3):
 XXXX=          -9140.7188 YYYY=          -1877.3194 ZZZZ=           -812.0732 XXXY=             -2.7147
 XXXZ=            -21.8402 YYYX=             15.7051 YYYZ=              3.1265 ZZZX=             -2.2125
 ZZZY=             -1.7015 XXYY=          -1801.2481 XXZZ=          -1635.3448 YYZZ=           -483.7343
 XXYZ=              1.6300 YYXZ=              2.9534 ZZXY=              4.9710
 N-N= 1.992444828703D+03 E-N=-1.161381575811D+04  KE= 3.212687828041D+03
 1\1\GINC-LOCALHOST\FOpt\RB3LYP\6-311+G(d,p)\C12H4Cl6\GOUR\17-Mar-2022\
 0\\# opt b3lyp/6-311+g(d,p) scf=xqc\\Title Card Required\\0,1\C,0.6094
 295614,-0.3429384084,0.0246357471\C,1.8748737482,-0.2709308888,0.61133
 01481\C,2.5813623658,0.9248515059,0.609751287\C,2.0358302353,2.0650281
 936,0.0226739812\C,0.7701567288,1.9988369187,-0.5666328303\C,0.0646909
 67,0.7975794425,-0.5629145812\C,-0.153584828,-1.6265983276,0.014598636
 3\C,-0.0259924039,-2.5446264855,-1.034822027\C,-0.7268433675,-3.742707
 3405,-1.0570990364\C,-1.5852951526,-4.0524708632,-0.0105346512\C,-1.74
 99516919,-3.1699326353,1.0636189182\C,-1.0287148363,-1.9657143506,1.05
 9497928\H,2.3110722517,-1.1494351833,1.0712669143\H,3.5622402605,0.984
 817847,1.0634836036\H,-0.9142664975,0.7635321989,-1.0236694918\H,-0.60
 83571844,-4.4321360842,-1.8808729001\Cl,-1.2183164035,-0.8494988824,2.
 3867252984\Cl,-2.8241819867,-3.5617239229,2.3693901444\Cl,0.0388909555
 ,3.3957932561,-1.3173375137\Cl,-2.4470612483,-5.5666020793,-0.07537021
 44\Cl,2.9579079849,3.5473340092,0.0425080848\Cl,1.0442587117,-2.201246
 2099,-2.3787480652\\Version=EM64L-G16RevB.01\State=1-A\HF=-3221.130952
 7\RMSD=2.894e-09\RMSF=1.050e-05\Dipole=0.2674219,-0.6757718,-0.0221999
 \Quadrupole=2.9966423,-3.9708335,0.9741913,-2.8280171,3.4143607,2.7721
 24\PG=C01 [X(C12H4Cl6)]\\@


 You don't have to suffer to be a poet.
 Adolescence is enough suffering for anyone.
                             -- John Ciardi
 Job cpu time:       0 days 16 hours 45 minutes 56.6 seconds.
 Elapsed time:       0 days  4 hours 12 minutes 12.6 seconds.
 File lengths (MBytes):  RWF=    148 Int=      0 D2E=      0 Chk=     23 Scr=      1
 Normal termination of Gaussian 16 at Thu Mar 17 15:34:30 2022.
