 Entering Gaussian System, Link 0=g16
 Input=2,3,3prime,4prime,5,6-Hexachlorobiphenyl.gjf
 Output=2,3,3prime,4prime,5,6-Hexachlorobiphenyl.log
 Initial command:
 /opt/g16/l1.exe "/scratch/gour/Gau-105259.inp" -scrdir="/scratch/gour/"
 Entering Link 1 = /opt/g16/l1.exe PID=    105260.
  
 Copyright (c) 1988-2017, Gaussian, Inc.  All Rights Reserved.
  
 This is part of the Gaussian(R) 16 program.  It is based on
 the Gaussian(R) 09 system (copyright 2009, Gaussian, Inc.),
 the Gaussian(R) 03 system (copyright 2003, Gaussian, Inc.),
 the Gaussian(R) 98 system (copyright 1998, Gaussian, Inc.),
 the Gaussian(R) 94 system (copyright 1995, Gaussian, Inc.),
 the Gaussian 92(TM) system (copyright 1992, Gaussian, Inc.),
 the Gaussian 90(TM) system (copyright 1990, Gaussian, Inc.),
 the Gaussian 88(TM) system (copyright 1988, Gaussian, Inc.),
 the Gaussian 86(TM) system (copyright 1986, Carnegie Mellon
 University), and the Gaussian 82(TM) system (copyright 1983,
 Carnegie Mellon University). Gaussian is a federally registered
 trademark of Gaussian, Inc.
  
 This software contains proprietary and confidential information,
 including trade secrets, belonging to Gaussian, Inc.
  
 This software is provided under written license and may be
 used, copied, transmitted, or stored only in accord with that
 written license.
  
 The following legend is applicable only to US Government
 contracts under FAR:
  
                    RESTRICTED RIGHTS LEGEND
  
 Use, reproduction and disclosure by the US Government is
 subject to restrictions as set forth in subparagraphs (a)
 and (c) of the Commercial Computer Software - Restricted
 Rights clause in FAR 52.227-19.
  
 Gaussian, Inc.
 340 Quinnipiac St., Bldg. 40, Wallingford CT 06492
  
  
 ---------------------------------------------------------------
 Warning -- This program may not be used in any manner that
 competes with the business of Gaussian, Inc. or will provide
 assistance to any competitor of Gaussian, Inc.  The licensee
 of this program is prohibited from giving any competitor of
 Gaussian, Inc. access to this program.  By using this program,
 the user acknowledges that Gaussian, Inc. is engaged in the
 business of creating and licensing software in the field of
 computational chemistry and represents and warrants to the
 licensee that it is not a competitor of Gaussian, Inc. and that
 it will not use this program in any manner prohibited above.
 ---------------------------------------------------------------
  

 Cite this work as:
 Gaussian 16, Revision B.01,
 M. J. Frisch, G. W. Trucks, H. B. Schlegel, G. E. Scuseria, 
 M. A. Robb, J. R. Cheeseman, G. Scalmani, V. Barone, 
 G. A. Petersson, H. Nakatsuji, X. Li, M. Caricato, A. V. Marenich, 
 J. Bloino, B. G. Janesko, R. Gomperts, B. Mennucci, H. P. Hratchian, 
 J. V. Ortiz, A. F. Izmaylov, J. L. Sonnenberg, D. Williams-Young, 
 F. Ding, F. Lipparini, F. Egidi, J. Goings, B. Peng, A. Petrone, 
 T. Henderson, D. Ranasinghe, V. G. Zakrzewski, J. Gao, N. Rega, 
 G. Zheng, W. Liang, M. Hada, M. Ehara, K. Toyota, R. Fukuda, 
 J. Hasegawa, M. Ishida, T. Nakajima, Y. Honda, O. Kitao, H. Nakai, 
 T. Vreven, K. Throssell, J. A. Montgomery, Jr., J. E. Peralta, 
 F. Ogliaro, M. J. Bearpark, J. J. Heyd, E. N. Brothers, K. N. Kudin, 
 V. N. Staroverov, T. A. Keith, R. Kobayashi, J. Normand, 
 K. Raghavachari, A. P. Rendell, J. C. Burant, S. S. Iyengar, 
 J. Tomasi, M. Cossi, J. M. Millam, M. Klene, C. Adamo, R. Cammi, 
 J. W. Ochterski, R. L. Martin, K. Morokuma, O. Farkas, 
 J. B. Foresman, and D. J. Fox, Gaussian, Inc., Wallingford CT, 2016.
 
 ******************************************
 Gaussian 16:  EM64L-G16RevB.01 20-Dec-2017
                17-Mar-2022 
 ******************************************
 %mem=10GB
 %nprocshared=4
 Will use up to    4 processors via shared memory.
 --------------------------------
 # opt b3lyp/6-311+g(d,p) scf=xqc
 --------------------------------
 1/18=20,19=15,26=3,38=1/1,3;
 2/9=110,12=2,17=6,18=5,40=1/2;
 3/5=4,6=6,7=111,11=2,25=1,30=1,71=1,74=-5/1,2,3;
 4//1;
 5/5=2,8=3,13=1,38=5/2,8;
 6/7=2,8=2,9=2,10=2,28=1/1;
 7//1,2,3,16;
 1/18=20,19=15,26=3/3(2);
 2/9=110/2;
 99//99;
 2/9=110/2;
 3/5=4,6=6,7=111,11=2,25=1,30=1,71=1,74=-5/1,2,3;
 4/5=5,16=3,69=1/1;
 5/5=2,8=3,13=1,38=5/2,8;
 7//1,2,3,16;
 1/18=20,19=15,26=3/3(-5);
 2/9=110/2;
 6/7=2,8=2,9=2,10=2,19=2,28=1/1;
 99/9=1/99;
 -------------------
 Title Card Required
 -------------------
 Symbolic Z-matrix:
 Charge =  0 Multiplicity = 1
 C                     0.50979   0.2802   -0.00285 
 C                     1.84217   0.31008  -0.4362 
 C                     2.55007   1.51953  -0.44227 
 C                     1.92558   2.6991   -0.015 
 C                     0.5932    2.66921   0.41835 
 C                    -0.11469   1.45976   0.42442 
 C                    -0.26811  -1.04887   0.00382 
 C                     0.35638  -2.22844  -0.42345 
 C                    -0.35152  -3.43789  -0.41738 
 C                    -1.6839   -3.46777   0.01597 
 C                    -2.30838  -2.28821   0.44325 
 C                    -1.60049  -1.07876   0.43717 
 H                     2.31898  -0.59054  -0.76243 
 H                     3.56737   1.54235  -0.77314 
 H                    -1.132     1.43694   0.75529 
 H                    -2.22439  -4.39122   0.02061 
 Cl                   -2.38478   0.40264   0.97378 
 Cl                   -3.9817   -2.32574   0.98749 
 Cl                   -0.19109   4.15061   0.95495 
 Cl                    2.81462   4.21803  -0.02262 
 Cl                    0.43277  -4.91929  -0.95399 
 Cl                    2.0297   -2.1909   -0.96769 
 

 GradGradGradGradGradGradGradGradGradGradGradGradGradGradGradGradGradGrad
 Berny optimization.
 Initialization pass.
                           ----------------------------
                           !    Initial Parameters    !
                           ! (Angstroms and Degrees)  !
 --------------------------                            --------------------------
 ! Name  Definition              Value          Derivative Info.                !
 --------------------------------------------------------------------------------
 ! R1    R(1,2)                  1.4014         estimate D2E/DX2                !
 ! R2    R(1,6)                  1.4014         estimate D2E/DX2                !
 ! R3    R(1,7)                  1.54           estimate D2E/DX2                !
 ! R4    R(2,3)                  1.4014         estimate D2E/DX2                !
 ! R5    R(2,13)                 1.07           estimate D2E/DX2                !
 ! R6    R(3,4)                  1.4014         estimate D2E/DX2                !
 ! R7    R(3,14)                 1.07           estimate D2E/DX2                !
 ! R8    R(4,5)                  1.4014         estimate D2E/DX2                !
 ! R9    R(4,20)                 1.76           estimate D2E/DX2                !
 ! R10   R(5,6)                  1.4014         estimate D2E/DX2                !
 ! R11   R(5,19)                 1.76           estimate D2E/DX2                !
 ! R12   R(6,15)                 1.07           estimate D2E/DX2                !
 ! R13   R(7,8)                  1.4014         estimate D2E/DX2                !
 ! R14   R(7,12)                 1.4014         estimate D2E/DX2                !
 ! R15   R(8,9)                  1.4014         estimate D2E/DX2                !
 ! R16   R(8,22)                 1.76           estimate D2E/DX2                !
 ! R17   R(9,10)                 1.4014         estimate D2E/DX2                !
 ! R18   R(9,21)                 1.76           estimate D2E/DX2                !
 ! R19   R(10,11)                1.4014         estimate D2E/DX2                !
 ! R20   R(10,16)                1.07           estimate D2E/DX2                !
 ! R21   R(11,12)                1.4014         estimate D2E/DX2                !
 ! R22   R(11,18)                1.76           estimate D2E/DX2                !
 ! R23   R(12,17)                1.76           estimate D2E/DX2                !
 ! A1    A(2,1,6)              120.0            estimate D2E/DX2                !
 ! A2    A(2,1,7)              120.0            estimate D2E/DX2                !
 ! A3    A(6,1,7)              120.0            estimate D2E/DX2                !
 ! A4    A(1,2,3)              120.0            estimate D2E/DX2                !
 ! A5    A(1,2,13)             120.0            estimate D2E/DX2                !
 ! A6    A(3,2,13)             120.0            estimate D2E/DX2                !
 ! A7    A(2,3,4)              120.0            estimate D2E/DX2                !
 ! A8    A(2,3,14)             120.0            estimate D2E/DX2                !
 ! A9    A(4,3,14)             120.0            estimate D2E/DX2                !
 ! A10   A(3,4,5)              120.0            estimate D2E/DX2                !
 ! A11   A(3,4,20)             120.0            estimate D2E/DX2                !
 ! A12   A(5,4,20)             120.0            estimate D2E/DX2                !
 ! A13   A(4,5,6)              120.0            estimate D2E/DX2                !
 ! A14   A(4,5,19)             120.0            estimate D2E/DX2                !
 ! A15   A(6,5,19)             120.0            estimate D2E/DX2                !
 ! A16   A(1,6,5)              120.0            estimate D2E/DX2                !
 ! A17   A(1,6,15)             120.0            estimate D2E/DX2                !
 ! A18   A(5,6,15)             120.0            estimate D2E/DX2                !
 ! A19   A(1,7,8)              120.0            estimate D2E/DX2                !
 ! A20   A(1,7,12)             120.0            estimate D2E/DX2                !
 ! A21   A(8,7,12)             120.0            estimate D2E/DX2                !
 ! A22   A(7,8,9)              120.0            estimate D2E/DX2                !
 ! A23   A(7,8,22)             120.0            estimate D2E/DX2                !
 ! A24   A(9,8,22)             120.0            estimate D2E/DX2                !
 ! A25   A(8,9,10)             120.0            estimate D2E/DX2                !
 ! A26   A(8,9,21)             120.0            estimate D2E/DX2                !
 ! A27   A(10,9,21)            120.0            estimate D2E/DX2                !
 ! A28   A(9,10,11)            120.0            estimate D2E/DX2                !
 ! A29   A(9,10,16)            120.0            estimate D2E/DX2                !
 ! A30   A(11,10,16)           120.0            estimate D2E/DX2                !
 ! A31   A(10,11,12)           120.0            estimate D2E/DX2                !
 ! A32   A(10,11,18)           120.0            estimate D2E/DX2                !
 ! A33   A(12,11,18)           120.0            estimate D2E/DX2                !
 ! A34   A(7,12,11)            120.0            estimate D2E/DX2                !
 ! A35   A(7,12,17)            120.0            estimate D2E/DX2                !
 ! A36   A(11,12,17)           120.0            estimate D2E/DX2                !
 ! D1    D(6,1,2,3)              0.0001         estimate D2E/DX2                !
 ! D2    D(6,1,2,13)           180.0            estimate D2E/DX2                !
 ! D3    D(7,1,2,3)           -180.0            estimate D2E/DX2                !
 ! D4    D(7,1,2,13)            -0.0001         estimate D2E/DX2                !
 ! D5    D(2,1,6,5)             -0.0001         estimate D2E/DX2                !
 ! D6    D(2,1,6,15)           180.0            estimate D2E/DX2                !
 ! D7    D(7,1,6,5)            180.0            estimate D2E/DX2                !
 ! D8    D(7,1,6,15)             0.0            estimate D2E/DX2                !
 ! D9    D(2,1,7,8)             -0.0001         estimate D2E/DX2                !
 ! D10   D(2,1,7,12)           179.9998         estimate D2E/DX2                !
 ! D11   D(6,1,7,8)            179.9999         estimate D2E/DX2                !
 ! D12   D(6,1,7,12)            -0.0002         estimate D2E/DX2                !
 ! D13   D(1,2,3,4)              0.0            estimate D2E/DX2                !
 ! D14   D(1,2,3,14)           180.0            estimate D2E/DX2                !
 ! D15   D(13,2,3,4)          -179.9999         estimate D2E/DX2                !
 ! D16   D(13,2,3,14)            0.0001         estimate D2E/DX2                !
 ! D17   D(2,3,4,5)             -0.0001         estimate D2E/DX2                !
 ! D18   D(2,3,4,20)           180.0            estimate D2E/DX2                !
 ! D19   D(14,3,4,5)           179.9999         estimate D2E/DX2                !
 ! D20   D(14,3,4,20)            0.0            estimate D2E/DX2                !
 ! D21   D(3,4,5,6)              0.0001         estimate D2E/DX2                !
 ! D22   D(3,4,5,19)          -179.9999         estimate D2E/DX2                !
 ! D23   D(20,4,5,6)          -180.0            estimate D2E/DX2                !
 ! D24   D(20,4,5,19)            0.0            estimate D2E/DX2                !
 ! D25   D(4,5,6,1)              0.0            estimate D2E/DX2                !
 ! D26   D(4,5,6,15)           179.9999         estimate D2E/DX2                !
 ! D27   D(19,5,6,1)           180.0            estimate D2E/DX2                !
 ! D28   D(19,5,6,15)           -0.0001         estimate D2E/DX2                !
 ! D29   D(1,7,8,9)            179.9999         estimate D2E/DX2                !
 ! D30   D(1,7,8,22)             0.0001         estimate D2E/DX2                !
 ! D31   D(12,7,8,9)             0.0001         estimate D2E/DX2                !
 ! D32   D(12,7,8,22)         -179.9998         estimate D2E/DX2                !
 ! D33   D(1,7,12,11)         -179.9999         estimate D2E/DX2                !
 ! D34   D(1,7,12,17)            0.0            estimate D2E/DX2                !
 ! D35   D(8,7,12,11)           -0.0001         estimate D2E/DX2                !
 ! D36   D(8,7,12,17)          179.9999         estimate D2E/DX2                !
 ! D37   D(7,8,9,10)             0.0            estimate D2E/DX2                !
 ! D38   D(7,8,9,21)           180.0            estimate D2E/DX2                !
 ! D39   D(22,8,9,10)          179.9998         estimate D2E/DX2                !
 ! D40   D(22,8,9,21)           -0.0002         estimate D2E/DX2                !
 ! D41   D(8,9,10,11)            0.0            estimate D2E/DX2                !
 ! D42   D(8,9,10,16)         -179.9999         estimate D2E/DX2                !
 ! D43   D(21,9,10,11)         180.0            estimate D2E/DX2                !
 ! D44   D(21,9,10,16)           0.0001         estimate D2E/DX2                !
 ! D45   D(9,10,11,12)           0.0            estimate D2E/DX2                !
 ! D46   D(9,10,11,18)        -179.9998         estimate D2E/DX2                !
 ! D47   D(16,10,11,12)        179.9999         estimate D2E/DX2                !
 ! D48   D(16,10,11,18)          0.0001         estimate D2E/DX2                !
 ! D49   D(10,11,12,7)           0.0            estimate D2E/DX2                !
 ! D50   D(10,11,12,17)       -179.9999         estimate D2E/DX2                !
 ! D51   D(18,11,12,7)         179.9999         estimate D2E/DX2                !
 ! D52   D(18,11,12,17)         -0.0001         estimate D2E/DX2                !
 --------------------------------------------------------------------------------
 Trust Radius=3.00D-01 FncErr=1.00D-07 GrdErr=1.00D-06 EigMax=2.50D+02 EigMin=1.00D-04
 Number of steps in this run=    121 maximum allowed number of steps=    132.
 GradGradGradGradGradGradGradGradGradGradGradGradGradGradGradGradGradGrad

                          Input orientation:                          
 ---------------------------------------------------------------------
 Center     Atomic      Atomic             Coordinates (Angstroms)
 Number     Number       Type             X           Y           Z
 ---------------------------------------------------------------------
      1          6           0        0.509793    0.280197   -0.002851
      2          6           0        1.842174    0.310082   -0.436198
      3          6           0        2.550068    1.519533   -0.442270
      4          6           0        1.925580    2.699098   -0.014995
      5          6           0        0.593199    2.669213    0.418349
      6          6           0       -0.114695    1.459762    0.424422
      7          6           0       -0.268112   -1.048871    0.003823
      8          6           0        0.356376   -2.228436   -0.423452
      9          6           0       -0.351517   -3.437887   -0.417378
     10          6           0       -1.683897   -3.467774    0.015972
     11          6           0       -2.308385   -2.288209    0.443247
     12          6           0       -1.600492   -1.078757    0.437173
     13          1           0        2.318985   -0.590542   -0.762430
     14          1           0        3.567371    1.542352   -0.773139
     15          1           0       -1.131998    1.436944    0.755291
     16          1           0       -2.224389   -4.391217    0.020612
     17         17           0       -2.384776    0.402643    0.973785
     18         17           0       -3.981702   -2.325743    0.987490
     19         17           0       -0.191088    4.150614    0.954955
     20         17           0        2.814615    4.218032   -0.022621
     21         17           0        0.432768   -4.919287   -0.953987
     22         17           0        2.029696   -2.190903   -0.967686
 ---------------------------------------------------------------------
                    Distance matrix (angstroms):
                    1          2          3          4          5
     1  C    0.000000
     2  C    1.401400   0.000000
     3  C    2.427296   1.401400   0.000000
     4  C    2.802800   2.427296   1.401400   0.000000
     5  C    2.427296   2.802800   2.427296   1.401400   0.000000
     6  C    1.401400   2.427296   2.802800   2.427296   1.401400
     7  C    1.540000   2.548270   3.838989   4.342800   3.838989
     8  C    2.548270   2.941400   4.342800   5.187469   4.975106
     9  C    3.838989   4.342800   5.744200   6.558176   6.235992
    10  C    4.342800   5.187469   6.558176   7.145600   6.558176
    11  C    3.838989   4.975106   6.235992   6.558176   5.744200
    12  C    2.548270   3.813607   4.975106   5.187469   4.342800
    13  H    2.146700   1.070000   2.146700   3.396345   3.872800
    14  H    3.396345   2.146700   1.070000   2.146700   3.396345
    15  H    2.146700   3.396345   3.872800   3.396345   2.146700
    16  H    5.412800   6.232802   7.612271   8.215600   7.612271
    17  Cl   3.057342   4.456874   5.254079   4.983028   3.783409
    18  Cl   5.286324   6.549198   7.713260   7.819846   6.797295
    19  Cl   4.048303   4.562800   4.048303   2.743718   1.760000
    20  Cl   4.562800   4.048303   2.743718   1.760000   2.743718
    21  Cl   5.286324   5.440665   6.797295   7.819846   7.713260
    22  Cl   3.057342   2.563702   3.783409   4.983028   5.254079
                    6          7          8          9         10
     6  C    0.000000
     7  C    2.548270   0.000000
     8  C    3.813607   1.401400   0.000000
     9  C    4.975106   2.427296   1.401400   0.000000
    10  C    5.187469   2.802800   2.427296   1.401400   0.000000
    11  C    4.342800   2.427296   2.802800   2.427296   1.401400
    12  C    2.941400   1.401400   2.427296   2.802800   2.427296
    13  H    3.396345   2.736837   2.578650   3.918930   4.990735
    14  H    3.872800   4.693509   4.965039   6.347206   7.300676
    15  H    1.070000   2.736837   4.127917   5.074276   4.990735
    16  H    6.232802   3.872800   3.396345   2.146700   1.070000
    17  Cl   2.563702   2.743718   4.048303   4.562800   4.048303
    18  Cl   5.440665   4.048303   4.562800   4.048303   2.743718
    19  Cl   2.743718   5.286324   6.549198   7.713260   7.819846
    20  Cl   4.048303   6.102800   6.910901   8.294174   8.905600
    21  Cl   6.549198   4.048303   2.743718   1.760000   2.743718
    22  Cl   4.456874   2.743718   1.760000   2.743718   4.048303
                   11         12         13         14         15
    11  C    0.000000
    12  C    1.401400   0.000000
    13  H    5.074276   4.127917   0.000000
    14  H    7.118798   5.919617   2.471400   0.000000
    15  H    3.918930   2.578650   4.280590   4.942800   0.000000
    16  H    2.146700   3.396345   5.974992   8.329571   5.974992
    17  Cl   2.743718   1.760000   5.111382   6.307038   1.639199
    18  Cl   1.760000   2.743718   6.765486   8.663168   4.725732
    19  Cl   6.797295   5.440665   5.632800   4.890332   2.879094
    20  Cl   8.294174   6.910901   4.890332   2.879094   4.890332
    21  Cl   4.048303   4.562800   4.725732   7.184095   6.765486
    22  Cl   4.562800   4.048303   1.639199   4.042212   5.111382
                   16         17         18         19         20
    16  H    0.000000
    17  Cl   4.890332   0.000000
    18  Cl   2.879094   3.161400   0.000000
    19  Cl   8.830073   4.342800   7.504200   0.000000
    20  Cl   9.975600   6.525618   9.488480   3.161400   0.000000
    21  Cl   2.879094   6.322800   5.475705   9.289584   9.488480
    22  Cl   4.890332   5.475705   6.322800   6.988795   6.525618
                   21         22
    21  Cl   0.000000
    22  Cl   3.161400   0.000000
 Stoichiometry    C12H4Cl6
 Framework group  C1[X(C12H4Cl6)]
 Deg. of freedom    60
 Full point group                 C1      NOp   1
 Largest Abelian subgroup         C1      NOp   1
 Largest concise Abelian subgroup C1      NOp   1
                         Standard orientation:                         
 ---------------------------------------------------------------------
 Center     Atomic      Atomic             Coordinates (Angstroms)
 Number     Number       Type             X           Y           Z
 ---------------------------------------------------------------------
      1          6           0       -0.676320   -0.367737    0.000002
      2          6           0       -1.164191   -1.681474   -0.000001
      3          6           0       -2.545856   -1.915833   -0.000003
      4          6           0       -3.439650   -0.836456   -0.000002
      5          6           0       -2.951778    0.477280    0.000002
      6          6           0       -1.570114    0.711640    0.000004
      7          6           0        0.841993   -0.110200    0.000003
      8          6           0        1.735787   -1.189577    0.000002
      9          6           0        3.117451   -0.955217    0.000002
     10          6           0        3.605323    0.358519    0.000001
     11          6           0        2.711529    1.437896    0.000001
     12          6           0        1.329864    1.203537    0.000001
     13          1           0       -0.481760   -2.505602   -0.000003
     14          1           0       -2.918356   -2.918900   -0.000005
     15          1           0       -1.197613    1.714707    0.000006
     16          1           0        4.660254    0.537458   -0.000001
     17         17           0        0.207361    2.559113   -0.000002
     18         17           0        3.324240    3.087801   -0.000005
     19         17           0       -4.074282    1.832856    0.000006
     20         17           0       -5.174864   -1.130785   -0.000005
     21         17           0        4.239955   -2.310793    0.000002
     22         17           0        1.123076   -2.839481   -0.000001
 ---------------------------------------------------------------------
 Rotational constants (GHZ):           0.3662393           0.1481097           0.1054607
 Standard basis: 6-311+G(d,p) (5D, 7F)
 There are   486 symmetry adapted cartesian basis functions of A   symmetry.
 There are   468 symmetry adapted basis functions of A   symmetry.
   468 basis functions,   782 primitive gaussians,   486 cartesian basis functions
    89 alpha electrons       89 beta electrons
       nuclear repulsion energy      2010.3227463497 Hartrees.
 NAtoms=   22 NActive=   22 NUniq=   22 SFac= 1.00D+00 NAtFMM=   60 NAOKFM=F Big=F
 Integral buffers will be    131072 words long.
 Raffenetti 2 integral format.
 Two-electron integral symmetry is turned on.
 One-electron integrals computed using PRISM.
 NBasis=   468 RedAO= T EigKep=  1.17D-06  NBF=   468
 NBsUse=   462 1.00D-06 EigRej=  5.55D-07 NBFU=   462
 ExpMin= 4.38D-02 ExpMax= 1.06D+05 ExpMxC= 3.62D+03 IAcc=3 IRadAn=         5 AccDes= 0.00D+00
 Harris functional with IExCor=  402 and IRadAn=       5 diagonalized for initial guess.
 HarFok:  IExCor=  402 AccDes= 0.00D+00 IRadAn=         5 IDoV= 1 UseB2=F ITyADJ=14
 ICtDFT=  3500011 ScaDFX=  1.000000  1.000000  1.000000  1.000000
 FoFCou: FMM=F IPFlag=           0 FMFlag=      100000 FMFlg1=           0
         NFxFlg=           0 DoJE=T BraDBF=F KetDBF=T FulRan=T
         wScrn=  0.000000 ICntrl=       500 IOpCl=  0 I1Cent=   200000004 NGrid=           0
         NMat0=    1 NMatS0=      1 NMatT0=    0 NMatD0=    1 NMtDS0=    0 NMtDT0=    0
 Petite list used in FoFCou.
 Requested convergence on RMS density matrix=1.00D-08 within  32 cycles.
 Requested convergence on MAX density matrix=1.00D-06.
 Requested convergence on             energy=1.00D-06.
 No special actions if energy rises.
 SCF Done:  E(RB3LYP) =  -3221.01523630     A.U. after   17 cycles
            NFock= 17  Conv=0.32D-08     -V/T= 2.0025
 QCSCF skips out because SCF is already converged.

 **********************************************************************

            Population analysis using the SCF Density.

 **********************************************************************

 Orbital symmetries:
       Occupied  (A) (A) (A) (A) (A) (A) (A) (A) (A) (A) (A) (A)
                 (A) (A) (A) (A) (A) (A) (A) (A) (A) (A) (A) (A)
                 (A) (A) (A) (A) (A) (A) (A) (A) (A) (A) (A) (A)
                 (A) (A) (A) (A) (A) (A) (A) (A) (A) (A) (A) (A)
                 (A) (A) (A) (A) (A) (A) (A) (A) (A) (A) (A) (A)
                 (A) (A) (A) (A) (A) (A) (A) (A) (A) (A) (A) (A)
                 (A) (A) (A) (A) (A) (A) (A) (A) (A) (A) (A) (A)
                 (A) (A) (A) (A) (A)
       Virtual   (A) (A) (A) (A) (A) (A) (A) (A) (A) (A) (A) (A)
                 (A) (A) (A) (A) (A) (A) (A) (A) (A) (A) (A) (A)
                 (A) (A) (A) (A) (A) (A) (A) (A) (A) (A) (A) (A)
                 (A) (A) (A) (A) (A) (A) (A) (A) (A) (A) (A) (A)
                 (A) (A) (A) (A) (A) (A) (A) (A) (A) (A) (A) (A)
                 (A) (A) (A) (A) (A) (A) (A) (A) (A) (A) (A) (A)
                 (A) (A) (A) (A) (A) (A) (A) (A) (A) (A) (A) (A)
                 (A) (A) (A) (A) (A) (A) (A) (A) (A) (A) (A) (A)
                 (A) (A) (A) (A) (A) (A) (A) (A) (A) (A) (A) (A)
                 (A) (A) (A) (A) (A) (A) (A) (A) (A) (A) (A) (A)
                 (A) (A) (A) (A) (A) (A) (A) (A) (A) (A) (A) (A)
                 (A) (A) (A) (A) (A) (A) (A) (A) (A) (A) (A) (A)
                 (A) (A) (A) (A) (A) (A) (A) (A) (A) (A) (A) (A)
                 (A) (A) (A) (A) (A) (A) (A) (A) (A) (A) (A) (A)
                 (A) (A) (A) (A) (A) (A) (A) (A) (A) (A) (A) (A)
                 (A) (A) (A) (A) (A) (A) (A) (A) (A) (A) (A) (A)
                 (A) (A) (A) (A) (A) (A) (A) (A) (A) (A) (A) (A)
                 (A) (A) (A) (A) (A) (A) (A) (A) (A) (A) (A) (A)
                 (A) (A) (A) (A) (A) (A) (A) (A) (A) (A) (A) (A)
                 (A) (A) (A) (A) (A) (A) (A) (A) (A) (A) (A) (A)
                 (A) (A) (A) (A) (A) (A) (A) (A) (A) (A) (A) (A)
                 (A) (A) (A) (A) (A) (A) (A) (A) (A) (A) (A) (A)
                 (A) (A) (A) (A) (A) (A) (A) (A) (A) (A) (A) (A)
                 (A) (A) (A) (A) (A) (A) (A) (A) (A) (A) (A) (A)
                 (A) (A) (A) (A) (A) (A) (A) (A) (A) (A) (A) (A)
                 (A) (A) (A) (A) (A) (A) (A) (A) (A) (A) (A) (A)
                 (A) (A) (A) (A) (A) (A) (A) (A) (A) (A) (A) (A)
                 (A) (A) (A) (A) (A) (A) (A) (A) (A) (A) (A) (A)
                 (A) (A) (A) (A) (A) (A) (A) (A) (A) (A) (A) (A)
                 (A) (A) (A) (A) (A) (A) (A) (A) (A) (A) (A) (A)
                 (A) (A) (A) (A) (A) (A) (A) (A) (A) (A) (A) (A)
                 (A)
 The electronic state is 1-A.
 Alpha  occ. eigenvalues -- -101.58891-101.58882-101.58674-101.58643-101.56316
 Alpha  occ. eigenvalues -- -101.56299 -10.28968 -10.28949 -10.28868 -10.28834
 Alpha  occ. eigenvalues --  -10.25926 -10.25659 -10.25527 -10.23610 -10.22449
 Alpha  occ. eigenvalues --  -10.20284 -10.18801 -10.18274  -9.50672  -9.50656
 Alpha  occ. eigenvalues --   -9.50088  -9.50056  -9.47759  -9.47741  -7.27100
 Alpha  occ. eigenvalues --   -7.27084  -7.26592  -7.26561  -7.26121  -7.26102
 Alpha  occ. eigenvalues --   -7.26081  -7.26068  -7.25565  -7.25533  -7.25503
 Alpha  occ. eigenvalues --   -7.25471  -7.24236  -7.24214  -7.23243  -7.23235
 Alpha  occ. eigenvalues --   -7.23191  -7.23167  -0.96905  -0.93550  -0.92307
 Alpha  occ. eigenvalues --   -0.90501  -0.89123  -0.86199  -0.85827  -0.84877
 Alpha  occ. eigenvalues --   -0.79546  -0.76697  -0.75551  -0.74619  -0.66735
 Alpha  occ. eigenvalues --   -0.64828  -0.63491  -0.61585  -0.55630  -0.55187
 Alpha  occ. eigenvalues --   -0.54333  -0.50132  -0.49618  -0.49323  -0.49088
 Alpha  occ. eigenvalues --   -0.47173  -0.46717  -0.46529  -0.43538  -0.43061
 Alpha  occ. eigenvalues --   -0.42623  -0.41929  -0.41329  -0.40716  -0.39281
 Alpha  occ. eigenvalues --   -0.37396  -0.35454  -0.35292  -0.35218  -0.34653
 Alpha  occ. eigenvalues --   -0.34001  -0.33951  -0.31536  -0.30465  -0.30180
 Alpha  occ. eigenvalues --   -0.28823  -0.27957  -0.26724  -0.25520
 Alpha virt. eigenvalues --   -0.08299  -0.06862  -0.05884  -0.04003  -0.02690
 Alpha virt. eigenvalues --   -0.01987  -0.01334  -0.00875  -0.00558   0.01140
 Alpha virt. eigenvalues --    0.01424   0.02184   0.02407   0.02945   0.03965
 Alpha virt. eigenvalues --    0.04629   0.05001   0.05097   0.05501   0.06168
 Alpha virt. eigenvalues --    0.06212   0.06620   0.07396   0.07523   0.07539
 Alpha virt. eigenvalues --    0.08235   0.08545   0.08672   0.09230   0.09587
 Alpha virt. eigenvalues --    0.10482   0.10694   0.11041   0.11255   0.11484
 Alpha virt. eigenvalues --    0.12525   0.12842   0.13007   0.13221   0.13364
 Alpha virt. eigenvalues --    0.13809   0.14052   0.14630   0.14688   0.15083
 Alpha virt. eigenvalues --    0.15477   0.15487   0.15788   0.16259   0.17399
 Alpha virt. eigenvalues --    0.17928   0.18211   0.18746   0.18766   0.19067
 Alpha virt. eigenvalues --    0.19702   0.19834   0.19956   0.20110   0.20247
 Alpha virt. eigenvalues --    0.20577   0.21696   0.21895   0.21948   0.22898
 Alpha virt. eigenvalues --    0.22994   0.23844   0.24096   0.24446   0.24616
 Alpha virt. eigenvalues --    0.24859   0.25215   0.25765   0.26292   0.26772
 Alpha virt. eigenvalues --    0.27433   0.28152   0.28208   0.28977   0.29908
 Alpha virt. eigenvalues --    0.30283   0.31011   0.31784   0.32203   0.32751
 Alpha virt. eigenvalues --    0.33263   0.33892   0.34909   0.35776   0.36105
 Alpha virt. eigenvalues --    0.37364   0.38728   0.40943   0.41638   0.41756
 Alpha virt. eigenvalues --    0.42690   0.42957   0.43232   0.43990   0.44509
 Alpha virt. eigenvalues --    0.44581   0.45139   0.45323   0.45670   0.46843
 Alpha virt. eigenvalues --    0.47305   0.47990   0.48356   0.48755   0.48930
 Alpha virt. eigenvalues --    0.50610   0.50804   0.50945   0.51745   0.53068
 Alpha virt. eigenvalues --    0.53603   0.55653   0.55836   0.57362   0.57744
 Alpha virt. eigenvalues --    0.57886   0.58385   0.58569   0.59008   0.60507
 Alpha virt. eigenvalues --    0.61065   0.61250   0.62479   0.62652   0.63242
 Alpha virt. eigenvalues --    0.63405   0.64642   0.66454   0.66652   0.67188
 Alpha virt. eigenvalues --    0.68066   0.68070   0.69675   0.72159   0.74139
 Alpha virt. eigenvalues --    0.76929   0.78633   0.79120   0.79504   0.80233
 Alpha virt. eigenvalues --    0.81575   0.82098   0.83112   0.83153   0.83315
 Alpha virt. eigenvalues --    0.83777   0.84572   0.84714   0.85025   0.85495
 Alpha virt. eigenvalues --    0.85985   0.86082   0.86278   0.86668   0.87039
 Alpha virt. eigenvalues --    0.87446   0.87941   0.88211   0.88567   0.89453
 Alpha virt. eigenvalues --    0.91044   0.91702   0.92251   0.92615   0.92742
 Alpha virt. eigenvalues --    0.93734   0.93867   0.93964   0.94747   0.95185
 Alpha virt. eigenvalues --    0.95444   0.96062   0.96737   0.96994   0.98423
 Alpha virt. eigenvalues --    0.98698   0.99166   1.00388   1.00860   1.03431
 Alpha virt. eigenvalues --    1.06493   1.06644   1.08123   1.09950   1.10757
 Alpha virt. eigenvalues --    1.11476   1.12093   1.14021   1.16744   1.17971
 Alpha virt. eigenvalues --    1.18880   1.23027   1.23353   1.23738   1.25427
 Alpha virt. eigenvalues --    1.25803   1.26238   1.26942   1.27721   1.27917
 Alpha virt. eigenvalues --    1.28260   1.30669   1.31817   1.34524   1.36885
 Alpha virt. eigenvalues --    1.38272   1.39880   1.42777   1.43232   1.46479
 Alpha virt. eigenvalues --    1.48890   1.49608   1.54092   1.55068   1.55652
 Alpha virt. eigenvalues --    1.56308   1.57811   1.62421   1.63846   1.65832
 Alpha virt. eigenvalues --    1.67767   1.69456   1.69699   1.73664   1.73965
 Alpha virt. eigenvalues --    1.74131   1.76926   1.81218   1.81340   1.81739
 Alpha virt. eigenvalues --    1.82548   1.84449   1.85857   1.87266   1.89174
 Alpha virt. eigenvalues --    1.92040   1.92465   1.94842   1.95816   1.96352
 Alpha virt. eigenvalues --    2.01098   2.01337   2.02277   2.04538   2.05780
 Alpha virt. eigenvalues --    2.10580   2.11673   2.16662   2.17010   2.20758
 Alpha virt. eigenvalues --    2.21117   2.22633   2.22762   2.23461   2.24235
 Alpha virt. eigenvalues --    2.24638   2.26301   2.27357   2.29472   2.30270
 Alpha virt. eigenvalues --    2.33696   2.33923   2.34341   2.35836   2.39224
 Alpha virt. eigenvalues --    2.41704   2.42980   2.43645   2.44516   2.48064
 Alpha virt. eigenvalues --    2.50095   2.50836   2.53557   2.54982   2.56401
 Alpha virt. eigenvalues --    2.57075   2.58423   2.61262   2.62513   2.62827
 Alpha virt. eigenvalues --    2.64090   2.66967   2.69860   2.72309   2.72667
 Alpha virt. eigenvalues --    2.72743   2.73589   2.78253   2.78308   2.80195
 Alpha virt. eigenvalues --    2.80814   2.83038   2.84306   2.85058   2.90344
 Alpha virt. eigenvalues --    2.92167   2.97714   3.00929   3.03961   3.06909
 Alpha virt. eigenvalues --    3.09464   3.10242   3.11423   3.12551   3.16549
 Alpha virt. eigenvalues --    3.19716   3.21286   3.24394   3.25855   3.32926
 Alpha virt. eigenvalues --    3.37696   3.42936   3.50854   3.53967   3.56742
 Alpha virt. eigenvalues --    3.67119   3.72364   3.76614   3.87705   3.89990
 Alpha virt. eigenvalues --    3.98689   4.12117   4.20219   4.43389   4.78293
 Alpha virt. eigenvalues --    4.83314   9.74261   9.76129   9.77538   9.80578
 Alpha virt. eigenvalues --    9.86019   9.87128  23.30411  23.52462  23.77158
 Alpha virt. eigenvalues --   23.82466  23.86512  23.90531  23.92141  23.96095
 Alpha virt. eigenvalues --   24.00186  24.03534  24.06010  24.13376  25.76050
 Alpha virt. eigenvalues --   25.77757  25.78825  25.85407  25.87029  25.88362
 Alpha virt. eigenvalues --   26.08894  26.11661  26.15780  26.20904  26.45375
 Alpha virt. eigenvalues --   26.50274  26.51724  26.73089  26.74384  26.78495
 Alpha virt. eigenvalues --   26.82692  26.94428 215.73409 215.75131 215.77068
 Alpha virt. eigenvalues --  215.80226 215.88423 215.89612
          Condensed to atoms (all electrons):
               1          2          3          4          5          6
     1  C   25.364186  -3.510181  -1.867411  -1.425422  -4.824712   6.495882
     2  C   -3.510181  24.944578  -3.131809  -0.862335   0.533750  -5.166843
     3  C   -1.867411  -3.131809  19.561869   2.303170  -7.575336  -0.839728
     4  C   -1.425422  -0.862335   2.303170  24.570953  -6.672986 -10.491913
     5  C   -4.824712   0.533750  -7.575336  -6.672986  31.628504   2.025498
     6  C    6.495882  -5.166843  -0.839728 -10.491913   2.025498  22.291413
     7  C    8.783652  -0.946288  -1.456865  -0.711558  -3.465760   0.556649
     8  C   -2.355616  -1.273519  -0.347726   0.244647  -3.196997  -2.576966
     9  C   -7.448657  -1.363150   1.087811  -0.021347  -1.379470  -1.833111
    10  C   -1.870114   0.579826   0.296798   0.058132  -0.334759   0.058357
    11  C   -5.831795  -0.768724  -0.746859   0.071613   0.650938  -1.210560
    12  C   -3.031920  -2.392280  -0.976890  -0.936199  -1.569467  -0.837807
    13  H   -0.299988   0.502884   0.339394   0.032889  -0.079827  -0.014020
    14  H    0.114502   0.028581   0.194117   0.019093  -0.018412  -0.016902
    15  H   -0.232430  -0.007743  -0.075033   0.122832   0.098713   0.345592
    16  H    0.010077   0.000872   0.000128   0.000036   0.000042   0.000858
    17  Cl  -0.022261   0.043918   0.125862   0.190680  -0.815812  -1.408160
    18  Cl  -0.040831  -0.022752  -0.006318   0.004607   0.048816  -0.030139
    19  Cl  -1.050762   0.570196   0.219462  -0.229176  -0.051325   0.346312
    20  Cl  -0.049168  -0.233431   0.138251  -0.739995   0.266253  -0.004522
    21  Cl   0.024221  -0.063929  -0.010380  -0.010312   0.009572  -0.010276
    22  Cl   0.198282  -0.986653  -0.968342  -0.215630   0.271529   0.063017
               7          8          9         10         11         12
     1  C    8.783652  -2.355616  -7.448657  -1.870114  -5.831795  -3.031920
     2  C   -0.946288  -1.273519  -1.363150   0.579826  -0.768724  -2.392280
     3  C   -1.456865  -0.347726   1.087811   0.296798  -0.746859  -0.976890
     4  C   -0.711558   0.244647  -0.021347   0.058132   0.071613  -0.936199
     5  C   -3.465760  -3.196997  -1.379470  -0.334759   0.650938  -1.569467
     6  C    0.556649  -2.576966  -1.833111   0.058357  -1.210560  -0.837807
     7  C   24.806892  -0.620037  -9.238073   1.812938  -9.122017  -1.625589
     8  C   -0.620037  19.799056  -0.410544  -8.722555   3.488944   2.743106
     9  C   -9.238073  -0.410544  28.706965  -2.574823  -4.589894   3.896990
    10  C    1.812938  -8.722555  -2.574823  27.060294  -3.799590  -5.754880
    11  C   -9.122017   3.488944  -4.589894  -3.799590  26.327215   0.379454
    12  C   -1.625589   2.743106   3.896990  -5.754880   0.379454  16.904569
    13  H   -0.126818   0.121888   0.040546  -0.002380  -0.015468  -0.031396
    14  H    0.025318   0.003879   0.000077   0.000230   0.000606   0.006984
    15  H   -0.017412   0.036098  -0.004054  -0.008905   0.051346   0.130478
    16  H    0.051737   0.055466  -0.008136   0.174085  -0.000506   0.066475
    17  Cl  -0.212134   0.162740   0.745632   0.696831   0.397733  -1.442582
    18  Cl  -0.443038   0.255929  -0.162032  -0.661769  -0.460774   0.861103
    19  Cl  -0.370081  -0.182340  -0.031963  -0.004357  -0.024219  -0.060104
    20  Cl  -0.047856  -0.018554  -0.003602  -0.002127  -0.004492  -0.037230
    21  Cl  -0.447816   1.146394  -0.624844  -0.752112  -0.150213   0.223586
    22  Cl  -0.279444  -1.652505   0.411640   0.689514   0.715285   0.145481
              13         14         15         16         17         18
     1  C   -0.299988   0.114502  -0.232430   0.010077  -0.022261  -0.040831
     2  C    0.502884   0.028581  -0.007743   0.000872   0.043918  -0.022752
     3  C    0.339394   0.194117  -0.075033   0.000128   0.125862  -0.006318
     4  C    0.032889   0.019093   0.122832   0.000036   0.190680   0.004607
     5  C   -0.079827  -0.018412   0.098713   0.000042  -0.815812   0.048816
     6  C   -0.014020  -0.016902   0.345592   0.000858  -1.408160  -0.030139
     7  C   -0.126818   0.025318  -0.017412   0.051737  -0.212134  -0.443038
     8  C    0.121888   0.003879   0.036098   0.055466   0.162740   0.255929
     9  C    0.040546   0.000077  -0.004054  -0.008136   0.745632  -0.162032
    10  C   -0.002380   0.000230  -0.008905   0.174085   0.696831  -0.661769
    11  C   -0.015468   0.000606   0.051346  -0.000506   0.397733  -0.460774
    12  C   -0.031396   0.006984   0.130478   0.066475  -1.442582   0.861103
    13  H    0.716771  -0.014609  -0.000412   0.000003   0.003545   0.000076
    14  H   -0.014609   0.523235   0.000122  -0.000000  -0.000240  -0.000000
    15  H   -0.000412   0.000122   0.685656   0.000002  -0.243233   0.005930
    16  H    0.000003  -0.000000   0.000002   0.484156  -0.000202  -0.004427
    17  Cl   0.003545  -0.000240  -0.243233  -0.000202  18.450226  -0.303325
    18  Cl   0.000076  -0.000000   0.005930  -0.004427  -0.303325  17.426232
    19  Cl   0.000403  -0.000599  -0.034954  -0.000000  -0.086434   0.000894
    20  Cl   0.001059  -0.010604   0.001968   0.000000   0.002637   0.000006
    21  Cl   0.005528  -0.000020   0.000089  -0.003793   0.003551  -0.027900
    22  Cl  -0.304643   0.002063   0.002385  -0.000165  -0.051291   0.002487
              19         20         21         22
     1  C   -1.050762  -0.049168   0.024221   0.198282
     2  C    0.570196  -0.233431  -0.063929  -0.986653
     3  C    0.219462   0.138251  -0.010380  -0.968342
     4  C   -0.229176  -0.739995  -0.010312  -0.215630
     5  C   -0.051325   0.266253   0.009572   0.271529
     6  C    0.346312  -0.004522  -0.010276   0.063017
     7  C   -0.370081  -0.047856  -0.447816  -0.279444
     8  C   -0.182340  -0.018554   1.146394  -1.652505
     9  C   -0.031963  -0.003602  -0.624844   0.411640
    10  C   -0.004357  -0.002127  -0.752112   0.689514
    11  C   -0.024219  -0.004492  -0.150213   0.715285
    12  C   -0.060104  -0.037230   0.223586   0.145481
    13  H    0.000403   0.001059   0.005528  -0.304643
    14  H   -0.000599  -0.010604  -0.000020   0.002063
    15  H   -0.034954   0.001968   0.000089   0.002385
    16  H   -0.000000   0.000000  -0.003793  -0.000165
    17  Cl  -0.086434   0.002637   0.003551  -0.051291
    18  Cl   0.000894   0.000006  -0.027900   0.002487
    19  Cl  17.675212  -0.203621   0.000105   0.006741
    20  Cl  -0.203621  17.422955  -0.000007  -0.004263
    21  Cl   0.000105  -0.000007  17.438277  -0.294506
    22  Cl   0.006741  -0.004263  -0.294506  18.510187
 Mulliken charges:
               1
     1  C   -1.129532
     2  C   -0.474969
     3  C   -0.264165
     4  C    0.698220
     5  C    0.451247
     6  C   -1.742631
     7  C   -0.906400
     8  C   -0.700788
     9  C    0.804041
    10  C   -0.938634
    11  C    0.641977
    12  C   -0.661882
    13  H    0.124572
    14  H    0.142580
    15  H    0.142965
    16  H    0.173291
    17  Cl   0.762317
    18  Cl   0.557225
    19  Cl   0.510610
    20  Cl   0.526342
    21  Cl   0.544782
    22  Cl   0.738831
 Sum of Mulliken charges =  -0.00000
 Mulliken charges with hydrogens summed into heavy atoms:
               1
     1  C   -1.129532
     2  C   -0.350397
     3  C   -0.121585
     4  C    0.698220
     5  C    0.451247
     6  C   -1.599666
     7  C   -0.906400
     8  C   -0.700788
     9  C    0.804041
    10  C   -0.765343
    11  C    0.641977
    12  C   -0.661882
    17  Cl   0.762317
    18  Cl   0.557225
    19  Cl   0.510610
    20  Cl   0.526342
    21  Cl   0.544782
    22  Cl   0.738831
 Electronic spatial extent (au):  <R**2>=           8785.7946
 Charge=             -0.0000 electrons
 Dipole moment (field-independent basis, Debye):
    X=              2.8948    Y=             -0.8391    Z=             -0.0000  Tot=              3.0140
 Quadrupole moment (field-independent basis, Debye-Ang):
   XX=           -151.7965   YY=           -141.1975   ZZ=           -147.2747
   XY=              3.0931   XZ=             -0.0000   YZ=              0.0000
 Traceless Quadrupole moment (field-independent basis, Debye-Ang):
   XX=             -5.0403   YY=              5.5587   ZZ=             -0.5184
   XY=              3.0931   XZ=             -0.0000   YZ=              0.0000
 Octapole moment (field-independent basis, Debye-Ang**2):
  XXX=             78.9010  YYY=             -8.8052  ZZZ=             -0.0000  XYY=            -14.6294
  XXY=              5.9208  XXZ=             -0.0000  XZZ=              1.1656  YZZ=              3.5470
  YYZ=             -0.0001  XYZ=             -0.0000
 Hexadecapole moment (field-independent basis, Debye-Ang**3):
 XXXX=          -8112.0329 YYYY=          -3124.1474 ZZZZ=           -170.8274 XXXY=             -6.4108
 XXXZ=             -0.0002 YYYX=             -8.0937 YYYZ=              0.0000 ZZZX=             -0.0001
 ZZZY=             -0.0000 XXYY=          -1875.3152 XXZZ=          -1411.9345 YYZZ=           -589.0435
 XXYZ=             -0.0000 YYXZ=             -0.0001 ZZXY=            -11.0308
 N-N= 2.010322746350D+03 E-N=-1.164948611916D+04  KE= 3.213046489736D+03
 Calling FoFJK, ICntrl=      2127 FMM=F ISym2X=0 I1Cent= 0 IOpClX= 0 NMat=1 NMatS=1 NMatT=0.
 ***** Axes restored to original set *****
 -------------------------------------------------------------------
 Center     Atomic                   Forces (Hartrees/Bohr)
 Number     Number              X              Y              Z
 -------------------------------------------------------------------
      1        6          -0.013305072   -0.022556558    0.000146996
      2        6           0.006847559    0.055041990    0.008081600
      3        6          -0.021218672    0.000602143    0.007103785
      4        6           0.002428059    0.002209733   -0.000385137
      5        6           0.004625720   -0.008590719   -0.003137341
      6        6           0.044154521    0.032644234   -0.008416223
      7        6           0.022302566    0.039876208    0.000141529
      8        6          -0.004300098   -0.003885422    0.000687084
      9        6           0.001012991   -0.000592414   -0.000445061
     10        6           0.006869539    0.011741047   -0.000058107
     11        6          -0.001099111    0.000521491    0.000460248
     12        6          -0.001695270   -0.005854979   -0.000541188
     13        1           0.004571898    0.050857284    0.008045209
     14        1           0.008448879    0.001551447   -0.002492136
     15        1           0.039609627    0.028448758   -0.007707015
     16        1          -0.003911336   -0.006689380    0.000032242
     17       17          -0.081827842   -0.060544942    0.015588206
     18       17           0.008060118   -0.004607157   -0.003520834
     19       17          -0.001931553   -0.006113376   -0.000511761
     20       17           0.001266544   -0.005618620   -0.001472478
     21       17          -0.007945204    0.004723624    0.003504762
     22       17          -0.012963862   -0.103164394   -0.015104380
 -------------------------------------------------------------------
 Cartesian Forces:  Max     0.103164394 RMS     0.023691366

 GradGradGradGradGradGradGradGradGradGradGradGradGradGradGradGradGradGrad
 Berny optimization.
 FormGI is forming the generalized inverse of G from B-inverse, IUseBI=4.
 Internal  Forces:  Max     0.190289165 RMS     0.049040059
 Search for a local minimum.
 Step number   1 out of a maximum of  121
 All quantities printed in internal units (Hartrees-Bohrs-Radians)
 Mixed Optimization -- RFO/linear search
 Second derivative matrix not updated -- first step.
 ITU=  0
     Eigenvalues ---    0.00237   0.01506   0.01506   0.02070   0.02070
     Eigenvalues ---    0.02070   0.02070   0.02070   0.02070   0.02070
     Eigenvalues ---    0.02070   0.02070   0.02070   0.02070   0.02070
     Eigenvalues ---    0.02070   0.02070   0.02070   0.02070   0.16000
     Eigenvalues ---    0.16000   0.16000   0.16000   0.22375   0.23485
     Eigenvalues ---    0.23491   0.24610   0.25000   0.25000   0.25000
     Eigenvalues ---    0.25000   0.25000   0.25000   0.25000   0.25000
     Eigenvalues ---    0.25000   0.25000   0.28519   0.29539   0.29539
     Eigenvalues ---    0.29539   0.29539   0.29539   0.29539   0.37230
     Eigenvalues ---    0.37230   0.37230   0.37230   0.41393   0.41635
     Eigenvalues ---    0.41697   0.41797   0.45389   0.45389   0.45389
     Eigenvalues ---    0.45389   0.45389   0.45389   0.45389   0.45389
 RFO step:  Lambda=-3.93393805D-01 EMin= 2.36824243D-03
 Linear search not attempted -- first point.
 Maximum step size (   0.300) exceeded in Quadratic search.
    -- Step size scaled by   0.392
 Iteration  1 RMS(Cart)=  0.09854553 RMS(Int)=  0.00387131
 Iteration  2 RMS(Cart)=  0.00440801 RMS(Int)=  0.00015841
 Iteration  3 RMS(Cart)=  0.00000771 RMS(Int)=  0.00015837
 Iteration  4 RMS(Cart)=  0.00000000 RMS(Int)=  0.00015837
 Variable       Old X    -DE/DX   Delta X   Delta X   Delta X     New X
                                 (Linear)    (Quad)   (Total)
    R1        2.64826   0.03327   0.00000   0.01595   0.01610   2.66436
    R2        2.64826   0.03092   0.00000   0.01490   0.01505   2.66331
    R3        2.91018   0.14902   0.00000   0.08611   0.08611   2.99629
    R4        2.64826  -0.00746   0.00000  -0.00349  -0.00349   2.64477
    R5        2.02201  -0.04322   0.00000  -0.02213  -0.02213   1.99987
    R6        2.64826  -0.04151   0.00000  -0.01980  -0.01995   2.62831
    R7        2.02201   0.00884   0.00000   0.00453   0.00453   2.02653
    R8        2.64826  -0.03465   0.00000  -0.01658  -0.01674   2.63153
    R9        3.32592  -0.00420   0.00000  -0.00239  -0.00239   3.32353
   R10        2.64826  -0.00953   0.00000  -0.00437  -0.00437   2.64389
   R11        3.32592  -0.00444   0.00000  -0.00253  -0.00253   3.32339
   R12        2.02201  -0.04065   0.00000  -0.02082  -0.02082   2.00119
   R13        2.64826   0.14048   0.00000   0.06704   0.06734   2.71560
   R14        2.64826   0.13889   0.00000   0.06629   0.06659   2.71486
   R15        2.64826  -0.00269   0.00000  -0.00124  -0.00124   2.64702
   R16        3.32592  -0.00985   0.00000  -0.00561  -0.00561   3.32031
   R17        2.64826  -0.06382   0.00000  -0.03155  -0.03186   2.61640
   R18        3.32592  -0.00858   0.00000  -0.00489  -0.00489   3.32103
   R19        2.64826  -0.06410   0.00000  -0.03169  -0.03200   2.61626
   R20        2.02201   0.00775   0.00000   0.00397   0.00397   2.02598
   R21        2.64826  -0.00322   0.00000  -0.00150  -0.00150   2.64676
   R22        3.32592  -0.00865   0.00000  -0.00493  -0.00493   3.32099
   R23        3.32592  -0.00974   0.00000  -0.00555  -0.00555   3.32037
    A1        2.09440  -0.11097   0.00000  -0.06671  -0.06639   2.02801
    A2        2.09440   0.06059   0.00000   0.03647   0.03631   2.13070
    A3        2.09440   0.05038   0.00000   0.03024   0.03008   2.12448
    A4        2.09440   0.05355   0.00000   0.03432   0.03447   2.12887
    A5        2.09440   0.00189   0.00000   0.00315   0.00307   2.09747
    A6        2.09440  -0.05544   0.00000  -0.03747  -0.03755   2.05685
    A7        2.09440   0.01473   0.00000   0.00791   0.00775   2.10215
    A8        2.09440  -0.00596   0.00000  -0.00296  -0.00288   2.09151
    A9        2.09440  -0.00877   0.00000  -0.00495  -0.00487   2.08953
   A10        2.09440  -0.02551   0.00000  -0.01766  -0.01798   2.07642
   A11        2.09440   0.00576   0.00000   0.00457   0.00473   2.09912
   A12        2.09440   0.01974   0.00000   0.01309   0.01325   2.10765
   A13        2.09440   0.01394   0.00000   0.00721   0.00706   2.10145
   A14        2.09440   0.00077   0.00000   0.00111   0.00119   2.09558
   A15        2.09440  -0.01471   0.00000  -0.00832  -0.00824   2.08615
   A16        2.09440   0.05426   0.00000   0.03493   0.03509   2.12948
   A17        2.09440   0.00120   0.00000   0.00261   0.00253   2.09693
   A18        2.09440  -0.05546   0.00000  -0.03754  -0.03762   2.05678
   A19        2.09440   0.07344   0.00000   0.04199   0.04166   2.13606
   A20        2.09440   0.06403   0.00000   0.03626   0.03593   2.13032
   A21        2.09440  -0.13746   0.00000  -0.07825  -0.07759   2.01680
   A22        2.09440   0.03267   0.00000   0.02275   0.02306   2.11746
   A23        2.09440   0.15761   0.00000   0.09464   0.09448   2.18888
   A24        2.09440  -0.19029   0.00000  -0.11739  -0.11754   1.97685
   A25        2.09440   0.04190   0.00000   0.02295   0.02263   2.11703
   A26        2.09440  -0.01280   0.00000  -0.00651  -0.00635   2.08805
   A27        2.09440  -0.02910   0.00000  -0.01644  -0.01628   2.07811
   A28        2.09440  -0.01233   0.00000  -0.01346  -0.01410   2.08030
   A29        2.09440   0.00616   0.00000   0.00673   0.00705   2.10144
   A30        2.09440   0.00617   0.00000   0.00673   0.00705   2.10145
   A31        2.09440   0.04105   0.00000   0.02239   0.02207   2.11647
   A32        2.09440  -0.02862   0.00000  -0.01613  -0.01597   2.07842
   A33        2.09440  -0.01243   0.00000  -0.00626  -0.00610   2.08829
   A34        2.09440   0.03417   0.00000   0.02362   0.02393   2.11832
   A35        2.09440   0.15340   0.00000   0.09209   0.09193   2.18633
   A36        2.09440  -0.18756   0.00000  -0.11570  -0.11586   1.97853
    D1        0.00000   0.00000   0.00000   0.00000   0.00000   0.00000
    D2        3.14159  -0.00000   0.00000   0.00000   0.00000   3.14159
    D3       -3.14159  -0.00000   0.00000  -0.00000  -0.00000  -3.14159
    D4       -0.00000  -0.00000   0.00000  -0.00000  -0.00000  -0.00000
    D5       -0.00000  -0.00000   0.00000  -0.00000  -0.00000  -0.00000
    D6        3.14159  -0.00000   0.00000  -0.00000  -0.00000   3.14159
    D7        3.14159   0.00000   0.00000   0.00000   0.00000   3.14159
    D8        0.00000  -0.00000   0.00000  -0.00000  -0.00000  -0.00000
    D9       -0.00000  -0.00000   0.00000  -0.00000  -0.00000  -0.00000
   D10        3.14159  -0.00000   0.00000  -0.00000  -0.00000   3.14159
   D11        3.14159  -0.00000   0.00000  -0.00000  -0.00000   3.14159
   D12       -0.00000  -0.00000   0.00000  -0.00000  -0.00000  -0.00000
   D13        0.00000  -0.00000   0.00000  -0.00000  -0.00000   0.00000
   D14        3.14159  -0.00000   0.00000  -0.00000  -0.00000   3.14159
   D15       -3.14159  -0.00000   0.00000  -0.00000  -0.00000  -3.14159
   D16        0.00000  -0.00000   0.00000  -0.00000  -0.00000   0.00000
   D17       -0.00000  -0.00000   0.00000   0.00000   0.00000  -0.00000
   D18        3.14159   0.00000   0.00000   0.00000   0.00000   3.14159
   D19        3.14159  -0.00000   0.00000  -0.00000  -0.00000   3.14159
   D20        0.00000  -0.00000   0.00000  -0.00000  -0.00000   0.00000
   D21        0.00000   0.00000   0.00000   0.00000   0.00000   0.00000
   D22       -3.14159   0.00000   0.00000   0.00000   0.00000  -3.14159
   D23       -3.14159  -0.00000   0.00000  -0.00000  -0.00000  -3.14159
   D24        0.00000   0.00000   0.00000   0.00000   0.00000   0.00000
   D25       -0.00000   0.00000   0.00000   0.00000   0.00000  -0.00000
   D26        3.14159   0.00000   0.00000   0.00000   0.00000   3.14159
   D27        3.14159   0.00000   0.00000  -0.00000  -0.00000   3.14159
   D28       -0.00000   0.00000   0.00000   0.00000   0.00000  -0.00000
   D29        3.14159   0.00000   0.00000   0.00000   0.00000   3.14159
   D30        0.00000   0.00000   0.00000   0.00000   0.00000   0.00000
   D31        0.00000   0.00000   0.00000   0.00000   0.00000   0.00000
   D32       -3.14159  -0.00000   0.00000  -0.00000  -0.00000  -3.14159
   D33       -3.14159  -0.00000   0.00000  -0.00000  -0.00000  -3.14159
   D34        0.00000  -0.00000   0.00000  -0.00000  -0.00000  -0.00000
   D35       -0.00000   0.00000   0.00000   0.00000   0.00000  -0.00000
   D36        3.14159  -0.00000   0.00000  -0.00000  -0.00000   3.14159
   D37       -0.00000  -0.00000   0.00000  -0.00000  -0.00000  -0.00000
   D38        3.14159  -0.00000   0.00000  -0.00000  -0.00000   3.14159
   D39        3.14159   0.00000   0.00000   0.00000   0.00000   3.14159
   D40       -0.00000   0.00000   0.00000   0.00000   0.00000  -0.00000
   D41       -0.00000   0.00000   0.00000   0.00000   0.00000  -0.00000
   D42       -3.14159  -0.00000   0.00000  -0.00000  -0.00000  -3.14159
   D43        3.14159   0.00000   0.00000   0.00000   0.00000   3.14159
   D44        0.00000   0.00000   0.00000   0.00000   0.00000   0.00000
   D45        0.00000   0.00000   0.00000   0.00000   0.00000   0.00000
   D46       -3.14159  -0.00000   0.00000  -0.00000  -0.00000  -3.14159
   D47        3.14159   0.00000   0.00000   0.00000   0.00000   3.14159
   D48        0.00000  -0.00000   0.00000  -0.00000  -0.00000   0.00000
   D49        0.00000  -0.00000   0.00000  -0.00000  -0.00000   0.00000
   D50       -3.14159   0.00000   0.00000   0.00000   0.00000  -3.14159
   D51        3.14159   0.00000   0.00000   0.00000   0.00000   3.14159
   D52       -0.00000   0.00000   0.00000   0.00000   0.00000  -0.00000
         Item               Value     Threshold  Converged?
 Maximum Force            0.190289     0.000450     NO 
 RMS     Force            0.049040     0.000300     NO 
 Maximum Displacement     0.553056     0.001800     NO 
 RMS     Displacement     0.099864     0.001200     NO 
 Predicted change in Energy=-1.416909D-01
 GradGradGradGradGradGradGradGradGradGradGradGradGradGradGradGradGradGrad

                          Input orientation:                          
 ---------------------------------------------------------------------
 Center     Atomic      Atomic             Coordinates (Angstroms)
 Number     Number       Type             X           Y           Z
 ---------------------------------------------------------------------
      1          6           0        0.538897    0.321002   -0.004776
      2          6           0        1.880252    0.401829   -0.431511
      3          6           0        2.584810    1.611093   -0.436520
      4          6           0        1.971612    2.785749   -0.013887
      5          6           0        0.647160    2.739122    0.413700
      6          6           0       -0.053578    1.528174    0.417135
      7          6           0       -0.261648   -1.047612    0.001930
      8          6           0        0.328214   -2.286482   -0.425076
      9          6           0       -0.399903   -3.483017   -0.409913
     10          6           0       -1.716449   -3.518431    0.017182
     11          6           0       -2.321981   -2.346262    0.436824
     12          6           0       -1.628423   -1.129435    0.436858
     13          1           0        2.386755   -0.466804   -0.761517
     14          1           0        3.604361    1.633164   -0.768270
     15          1           0       -1.058707    1.539283    0.750364
     16          1           0       -2.260355   -4.442299    0.022867
     17         17           0       -2.593733    0.222710    1.008835
     18         17           0       -3.993162   -2.394450    0.978362
     19         17           0       -0.156476    4.207102    0.954159
     20         17           0        2.861277    4.302843   -0.022066
     21         17           0        0.365505   -4.972867   -0.941890
     22         17           0        1.975144   -2.483567   -1.004679
 ---------------------------------------------------------------------
                    Distance matrix (angstroms):
                    1          2          3          4          5
     1  C    0.000000
     2  C    1.409917   0.000000
     3  C    2.456929   1.399553   0.000000
     4  C    2.850918   2.421948   1.390843   0.000000
     5  C    2.456450   2.774498   2.397876   1.392544   0.000000
     6  C    1.409362   2.393439   2.774292   2.422534   1.399086
     7  C    1.585566   2.622304   3.919601   4.436480   3.915972
     8  C    2.649530   3.104170   4.503715   5.347649   5.105092
     9  C    3.939041   4.504620   5.904167   6.714041   6.363151
    10  C    4.452900   5.339103   6.709597   7.303797   6.700810
    11  C    3.936233   5.095563   6.363960   6.706387   5.888758
    12  C    2.645012   3.925510   5.101433   5.337798   4.488268
    13  H    2.146596   1.058287   2.112464   3.363092   3.832138
    14  H    3.420784   2.145262   1.072395   2.136215   3.371236
    15  H    2.146342   3.365725   3.832632   3.364609   2.112567
    16  H    5.524999   6.388792   7.767253   8.375892   7.757526
    17  Cl   3.294000   4.703532   5.552834   5.334557   4.146071
    18  Cl   5.373993   6.656117   7.830452   7.962257   6.942981
    19  Cl   4.062619   4.533040   4.023419   2.736077   1.758662
    20  Cl   4.609642   4.043262   2.737466   1.758734   2.745438
    21  Cl   5.378968   5.607343   6.966294   7.977273   7.835288
    22  Cl   3.305786   2.943304   4.178605   5.361658   5.572416
                    6          7          8          9         10
     6  C    0.000000
     7  C    2.617319   0.000000
     8  C    3.925135   1.437036   0.000000
     9  C    5.090775   2.473849   1.400743   0.000000
    10  C    5.328539   2.867338   2.427744   1.384542   0.000000
    11  C    4.489688   2.473984   2.787468   2.388212   1.384467
    12  C    3.089241   1.436640   2.431074   2.786689   2.427176
    13  H    3.365172   2.816776   2.768034   4.121485   5.172532
    14  H    3.846652   4.767158   5.120014   6.506756   7.447610
    15  H    1.058985   2.808465   4.235762   5.196514   5.152732
    16  H    6.377450   3.939438   3.398366   2.137476   1.072100
    17  Cl   2.916630   2.840105   4.109735   4.534109   3.968519
    18  Cl   5.587689   4.085534   4.544842   4.002973   2.714889
    19  Cl   2.734161   5.341331   6.656114   7.813954   7.936959
    20  Cl   4.048217   6.195208   7.070928   8.450168   9.062530
    21  Cl   6.654782   4.085554   2.735901   1.757414   2.714726
    22  Cl   4.715012   2.842265   1.757031   2.644522   3.967745
                   11         12         13         14         15
    11  C    0.000000
    12  C    1.400604   0.000000
    13  H    5.209662   4.242269   0.000000
    14  H    7.239449   6.038735   2.427442   0.000000
    15  H    4.097759   2.746801   4.263962   4.905025   0.000000
    16  H    2.137411   3.397911   6.165668   8.481277   6.144309
    17  Cl   2.645877   1.757064   5.330557   6.600292   2.038743
    18  Cl   1.757393   2.735960   6.888130   8.774665   4.912968
    19  Cl   6.921245   5.559933   5.590793   4.871942   2.823617
    20  Cl   8.443183   7.062412   4.849895   2.869874   4.858002
    21  Cl   4.002810   4.544081   4.941923   7.359347   6.877514
    22  Cl   4.534541   4.110645   2.072652   4.433703   5.335518
                   16         17         18         19         20
    16  H    0.000000
    17  Cl   4.779706   0.000000
    18  Cl   2.847679   2.967972   0.000000
    19  Cl   8.950182   4.671037   7.635524   0.000000
    20  Cl  10.134626   6.889657   9.635243   3.173171   0.000000
    21  Cl   2.847350   6.289391   5.416048   9.388254   9.649547
    22  Cl   4.778277   5.679156   6.289759   7.290124   6.914197
                   21         22
    21  Cl   0.000000
    22  Cl   2.965045   0.000000
 Stoichiometry    C12H4Cl6
 Framework group  C1[X(C12H4Cl6)]
 Deg. of freedom    60
 Full point group                 C1      NOp   1
 Largest Abelian subgroup         C1      NOp   1
 Largest concise Abelian subgroup C1      NOp   1
                         Standard orientation:                         
 ---------------------------------------------------------------------
 Center     Atomic      Atomic             Coordinates (Angstroms)
 Number     Number       Type             X           Y           Z
 ---------------------------------------------------------------------
      1          6           0       -0.767175   -0.382853    0.000001
      2          6           0       -1.313196   -1.682749   -0.000002
      3          6           0       -2.694783   -1.906279   -0.000003
      4          6           0       -3.581986   -0.835151   -0.000003
      5          6           0       -3.073979    0.461424    0.000003
      6          6           0       -1.692152    0.680500    0.000004
      7          6           0        0.797570   -0.126745    0.000002
      8          6           0        1.753204   -1.199981    0.000002
      9          6           0        3.131106   -0.948050    0.000002
     10          6           0        3.625821    0.345091    0.000001
     11          6           0        2.738263    1.407630    0.000001
     12          6           0        1.353436    1.197998    0.000001
     13          1           0       -0.675727   -2.527500   -0.000004
     14          1           0       -3.072874   -2.909812   -0.000006
     15          1           0       -1.350248    1.682772    0.000007
     16          1           0        4.683314    0.521457   -0.000000
     17         17           0        0.423125    2.688567   -0.000003
     18         17           0        3.369272    3.047831   -0.000005
     19         17           0       -4.169646    1.837072    0.000007
     20         17           0       -5.317286   -1.121295   -0.000005
     21         17           0        4.260693   -2.294355    0.000003
     22         17           0        1.360828   -2.912640   -0.000001
 ---------------------------------------------------------------------
 Rotational constants (GHZ):           0.3597567           0.1410897           0.1013444
 Standard basis: 6-311+G(d,p) (5D, 7F)
 There are   486 symmetry adapted cartesian basis functions of A   symmetry.
 There are   468 symmetry adapted basis functions of A   symmetry.
   468 basis functions,   782 primitive gaussians,   486 cartesian basis functions
    89 alpha electrons       89 beta electrons
       nuclear repulsion energy      1984.2756101887 Hartrees.
 NAtoms=   22 NActive=   22 NUniq=   22 SFac= 1.00D+00 NAtFMM=   60 NAOKFM=F Big=F
 Integral buffers will be    131072 words long.
 Raffenetti 2 integral format.
 Two-electron integral symmetry is turned on.
 One-electron integrals computed using PRISM.
 NBasis=   468 RedAO= T EigKep=  1.21D-06  NBF=   468
 NBsUse=   462 1.00D-06 EigRej=  7.17D-07 NBFU=   462
 Initial guess from the checkpoint file:  "/scratch/gour/Gau-105260.chk"
 B after Tr=    -0.000000   -0.000000   -0.000000
         Rot=    0.999999   -0.000000    0.000000    0.001460 Ang=   0.17 deg.
 ExpMin= 4.38D-02 ExpMax= 1.06D+05 ExpMxC= 3.62D+03 IAcc=3 IRadAn=         5 AccDes= 0.00D+00
 Harris functional with IExCor=  402 and IRadAn=       5 diagonalized for initial guess.
 HarFok:  IExCor=  402 AccDes= 0.00D+00 IRadAn=         5 IDoV= 1 UseB2=F ITyADJ=14
 ICtDFT=  3500011 ScaDFX=  1.000000  1.000000  1.000000  1.000000
 FoFCou: FMM=F IPFlag=           0 FMFlag=      100000 FMFlg1=           0
         NFxFlg=           0 DoJE=T BraDBF=F KetDBF=T FulRan=T
         wScrn=  0.000000 ICntrl=       500 IOpCl=  0 I1Cent=   200000004 NGrid=           0
         NMat0=    1 NMatS0=      1 NMatT0=    0 NMatD0=    1 NMtDS0=    0 NMtDT0=    0
 Petite list used in FoFCou.
 Requested convergence on RMS density matrix=1.00D-08 within  32 cycles.
 Requested convergence on MAX density matrix=1.00D-06.
 Requested convergence on             energy=1.00D-06.
 No special actions if energy rises.
 SCF Done:  E(RB3LYP) =  -3221.08738508     A.U. after   17 cycles
            NFock= 17  Conv=0.15D-08     -V/T= 2.0027
 QCSCF skips out because SCF is already converged.
 Calling FoFJK, ICntrl=      2127 FMM=F ISym2X=0 I1Cent= 0 IOpClX= 0 NMat=1 NMatS=1 NMatT=0.
 ***** Axes restored to original set *****
 -------------------------------------------------------------------
 Center     Atomic                   Forces (Hartrees/Bohr)
 Number     Number              X              Y              Z
 -------------------------------------------------------------------
      1        6          -0.011768151   -0.020590053    0.000009979
      2        6          -0.003438639    0.017980035    0.004509845
      3        6          -0.013494811   -0.005597221    0.003394820
      4        6           0.003659751    0.005301367   -0.000210282
      5        6          -0.003141698   -0.004107842    0.000263587
      6        6           0.016269640    0.004921636   -0.004435806
      7        6           0.012935776    0.023456225    0.000143688
      8        6          -0.005624341    0.007136980    0.003193463
      9        6           0.003156346   -0.000737622   -0.001178499
     10        6           0.001217364    0.002033452   -0.000019131
     11        6          -0.002358800    0.002407601    0.001229470
     12        6           0.008551697   -0.001601823   -0.003118315
     13        1           0.006620985    0.000708791   -0.002048243
     14        1           0.006531680    0.000148146   -0.002124058
     15        1          -0.001320044    0.007211592    0.001789186
     16        1          -0.003122968   -0.005310414    0.000031489
     17       17          -0.005384209   -0.005646476    0.000713453
     18       17           0.004117956   -0.009160628   -0.003077238
     19       17          -0.001454196   -0.006001546   -0.000648020
     20       17          -0.000134883   -0.006636950   -0.001202024
     21       17          -0.010053253   -0.000973106    0.003129367
     22       17          -0.001765202   -0.004942145   -0.000346731
 -------------------------------------------------------------------
 Cartesian Forces:  Max     0.023456225 RMS     0.006777664

 GradGradGradGradGradGradGradGradGradGradGradGradGradGradGradGradGradGrad
 Berny optimization.
 Using GEDIIS/GDIIS optimizer.
 FormGI is forming the generalized inverse of G from B-inverse, IUseBI=4.
 Internal  Forces:  Max     0.017876467 RMS     0.005922997
 Search for a local minimum.
 Step number   2 out of a maximum of  121
 All quantities printed in internal units (Hartrees-Bohrs-Radians)
 Mixed Optimization -- RFO/linear search
 Update second derivatives using D2CorX and points    1    2
 DE= -7.21D-02 DEPred=-1.42D-01 R= 5.09D-01
 TightC=F SS=  1.41D+00  RLast= 3.00D-01 DXNew= 5.0454D-01 8.9996D-01
 Trust test= 5.09D-01 RLast= 3.00D-01 DXMaxT set to 5.05D-01
 ITU=  1  0
 Use linear search instead of GDIIS.
     Eigenvalues ---    0.00237   0.01461   0.01467   0.02070   0.02070
     Eigenvalues ---    0.02070   0.02070   0.02070   0.02070   0.02070
     Eigenvalues ---    0.02070   0.02070   0.02070   0.02070   0.02070
     Eigenvalues ---    0.02070   0.02070   0.02070   0.02070   0.16000
     Eigenvalues ---    0.16000   0.16000   0.16083   0.22374   0.23471
     Eigenvalues ---    0.23681   0.24614   0.24838   0.25000   0.25000
     Eigenvalues ---    0.25000   0.25000   0.25000   0.25000   0.25000
     Eigenvalues ---    0.25000   0.27930   0.29524   0.29536   0.29539
     Eigenvalues ---    0.29539   0.29539   0.29539   0.36293   0.37213
     Eigenvalues ---    0.37230   0.37230   0.38234   0.41235   0.41674
     Eigenvalues ---    0.41830   0.45068   0.45333   0.45389   0.45389
     Eigenvalues ---    0.45389   0.45389   0.45389   0.45389   1.62690
 RFO step:  Lambda=-1.12578083D-02 EMin= 2.36824243D-03
 Quartic linear search produced a step of  0.15627.
 Iteration  1 RMS(Cart)=  0.06000894 RMS(Int)=  0.00156567
 Iteration  2 RMS(Cart)=  0.00183663 RMS(Int)=  0.00005291
 Iteration  3 RMS(Cart)=  0.00000049 RMS(Int)=  0.00005291
 Variable       Old X    -DE/DX   Delta X   Delta X   Delta X     New X
                                 (Linear)    (Quad)   (Total)
    R1        2.66436   0.00206   0.00252  -0.00149   0.00109   2.66545
    R2        2.66331   0.00100   0.00235  -0.00335  -0.00094   2.66237
    R3        2.99629  -0.00659   0.01346  -0.06564  -0.05219   2.94410
    R4        2.64477  -0.00968  -0.00055  -0.02287  -0.02341   2.62137
    R5        1.99987   0.00323  -0.00346   0.01939   0.01593   2.01581
    R6        2.62831  -0.00765  -0.00312  -0.01108  -0.01426   2.61405
    R7        2.02653   0.00687   0.00071   0.01872   0.01943   2.04596
    R8        2.63153  -0.00242  -0.00262   0.00086  -0.00182   2.62970
    R9        3.32353  -0.00579  -0.00037  -0.02071  -0.02109   3.30244
   R10        2.64389  -0.00896  -0.00068  -0.02011  -0.02080   2.62309
   R11        3.32339  -0.00454  -0.00040  -0.01596  -0.01636   3.30703
   R12        2.00119   0.00189  -0.00325   0.01480   0.01155   2.01274
   R13        2.71560   0.00642   0.01052  -0.01090  -0.00028   2.71533
   R14        2.71486   0.00918   0.01041  -0.00358   0.00692   2.72177
   R15        2.64702   0.00648  -0.00019   0.01648   0.01630   2.66332
   R16        3.32031  -0.00099  -0.00088  -0.00113  -0.00201   3.31830
   R17        2.61640  -0.01266  -0.00498  -0.01969  -0.02476   2.59164
   R18        3.32103  -0.00450  -0.00076  -0.01471  -0.01548   3.30555
   R19        2.61626  -0.01240  -0.00500  -0.01885  -0.02395   2.59232
   R20        2.02598   0.00616   0.00062   0.01683   0.01745   2.04342
   R21        2.64676   0.00689  -0.00024   0.01790   0.01765   2.66441
   R22        3.32099  -0.00461  -0.00077  -0.01512  -0.01589   3.30510
   R23        3.32037  -0.00116  -0.00087  -0.00180  -0.00267   3.31770
    A1        2.02801  -0.01372  -0.01037  -0.02905  -0.03928   1.98872
    A2        2.13070   0.00381   0.00567  -0.00044   0.00516   2.13586
    A3        2.12448   0.00990   0.00470   0.02949   0.03412   2.15860
    A4        2.12887   0.00704   0.00539   0.01625   0.02172   2.15058
    A5        2.09747   0.00266   0.00048   0.02236   0.02281   2.12027
    A6        2.05685  -0.00969  -0.00587  -0.03861  -0.04452   2.01233
    A7        2.10215   0.00321   0.00121   0.00915   0.01031   2.11246
    A8        2.09151  -0.00160  -0.00045  -0.00507  -0.00550   2.08602
    A9        2.08953  -0.00161  -0.00076  -0.00408  -0.00482   2.08471
   A10        2.07642  -0.00553  -0.00281  -0.01830  -0.02124   2.05517
   A11        2.09912  -0.00299   0.00074  -0.01428  -0.01347   2.08565
   A12        2.10765   0.00853   0.00207   0.03258   0.03471   2.14236
   A13        2.10145   0.00206   0.00110   0.00467   0.00569   2.10714
   A14        2.09558   0.00600   0.00019   0.02651   0.02674   2.12232
   A15        2.08615  -0.00806  -0.00129  -0.03118  -0.03243   2.05372
   A16        2.12948   0.00694   0.00548   0.01727   0.02280   2.15228
   A17        2.09693   0.00384   0.00040   0.02964   0.03001   2.12694
   A18        2.05678  -0.01078  -0.00588  -0.04691  -0.05282   2.00396
   A19        2.13606   0.00147   0.00651  -0.01637  -0.00997   2.12609
   A20        2.13032   0.01371   0.00561   0.04050   0.04601   2.17633
   A21        2.01680  -0.01518  -0.01212  -0.02412  -0.03604   1.98076
   A22        2.11746   0.00551   0.00360   0.01593   0.01965   2.13710
   A23        2.18888   0.00582   0.01476  -0.02090  -0.00619   2.18268
   A24        1.97685  -0.01133  -0.01837   0.00497  -0.01345   1.96340
   A25        2.11703   0.00358   0.00354   0.00213   0.00558   2.12260
   A26        2.08805   0.01409  -0.00099   0.06683   0.06588   2.15393
   A27        2.07811  -0.01768  -0.00254  -0.06896  -0.07146   2.00665
   A28        2.08030  -0.00214  -0.00220  -0.00960  -0.01199   2.06830
   A29        2.10144   0.00107   0.00110   0.00477   0.00597   2.10741
   A30        2.10145   0.00108   0.00110   0.00482   0.00602   2.10747
   A31        2.11647   0.00441   0.00345   0.00681   0.01014   2.12661
   A32        2.07842  -0.01788  -0.00250  -0.07036  -0.07280   2.00562
   A33        2.08829   0.01347  -0.00095   0.06356   0.06266   2.15095
   A34        2.11832   0.00382   0.00374   0.00885   0.01267   2.13099
   A35        2.18633   0.01095   0.01437   0.00263   0.01696   2.20328
   A36        1.97853  -0.01478  -0.01811  -0.01148  -0.02962   1.94891
    D1        0.00000  -0.00000   0.00000  -0.00000  -0.00000   0.00000
    D2        3.14159   0.00000   0.00000   0.00000   0.00000  -3.14159
    D3       -3.14159  -0.00000  -0.00000  -0.00000  -0.00000   3.14159
    D4       -0.00000  -0.00000  -0.00000  -0.00000  -0.00000  -0.00000
    D5       -0.00000   0.00000  -0.00000   0.00000   0.00000  -0.00000
    D6        3.14159  -0.00000  -0.00000  -0.00000  -0.00000   3.14159
    D7        3.14159   0.00000   0.00000   0.00000   0.00000  -3.14159
    D8       -0.00000  -0.00000  -0.00000  -0.00000  -0.00000  -0.00000
    D9       -0.00000  -0.00000  -0.00000  -0.00001  -0.00001  -0.00002
   D10        3.14159  -0.00000  -0.00000  -0.00001  -0.00001   3.14158
   D11        3.14159  -0.00000  -0.00000  -0.00001  -0.00001   3.14158
   D12       -0.00000  -0.00000  -0.00000  -0.00001  -0.00001  -0.00002
   D13        0.00000  -0.00000  -0.00000  -0.00000  -0.00000  -0.00000
   D14        3.14159   0.00000  -0.00000   0.00000   0.00000   3.14159
   D15       -3.14159  -0.00000  -0.00000  -0.00000  -0.00000  -3.14159
   D16        0.00000  -0.00000  -0.00000  -0.00000  -0.00000   0.00000
   D17       -0.00000   0.00000   0.00000   0.00000   0.00000  -0.00000
   D18        3.14159  -0.00000   0.00000  -0.00000  -0.00000   3.14159
   D19        3.14159   0.00000  -0.00000   0.00000   0.00000   3.14159
   D20        0.00000  -0.00000  -0.00000  -0.00000  -0.00000  -0.00000
   D21        0.00000  -0.00000   0.00000  -0.00000  -0.00000   0.00000
   D22       -3.14159  -0.00000   0.00000  -0.00000  -0.00000  -3.14159
   D23       -3.14159  -0.00000  -0.00000   0.00000   0.00000  -3.14159
   D24        0.00000   0.00000   0.00000   0.00000   0.00000   0.00000
   D25       -0.00000   0.00000   0.00000   0.00000   0.00000  -0.00000
   D26        3.14159   0.00000   0.00000   0.00000   0.00000  -3.14159
   D27        3.14159   0.00000  -0.00000   0.00000   0.00000   3.14159
   D28       -0.00000   0.00000   0.00000   0.00000   0.00000   0.00000
   D29        3.14159   0.00000   0.00000   0.00000   0.00000  -3.14159
   D30        0.00000  -0.00000   0.00000  -0.00000  -0.00000   0.00000
   D31        0.00000   0.00000   0.00000   0.00000   0.00000   0.00000
   D32       -3.14159  -0.00000  -0.00000  -0.00000  -0.00000   3.14159
   D33       -3.14159  -0.00000  -0.00000  -0.00000  -0.00000   3.14159
   D34       -0.00000  -0.00000  -0.00000  -0.00000  -0.00000  -0.00000
   D35       -0.00000  -0.00000   0.00000   0.00000   0.00000  -0.00000
   D36        3.14159  -0.00000  -0.00000   0.00000   0.00000   3.14159
   D37       -0.00000  -0.00000  -0.00000  -0.00000  -0.00000  -0.00000
   D38        3.14159  -0.00000  -0.00000  -0.00000  -0.00000   3.14159
   D39        3.14159   0.00000   0.00000   0.00000   0.00000  -3.14159
   D40       -0.00000   0.00000   0.00000   0.00000   0.00000  -0.00000
   D41       -0.00000  -0.00000   0.00000   0.00000   0.00000   0.00000
   D42       -3.14159  -0.00000  -0.00000  -0.00000  -0.00000  -3.14159
   D43        3.14159   0.00000   0.00000   0.00000   0.00000  -3.14159
   D44        0.00000  -0.00000   0.00000  -0.00000  -0.00000   0.00000
   D45        0.00000   0.00000   0.00000   0.00000   0.00000   0.00000
   D46       -3.14159  -0.00000  -0.00000  -0.00000  -0.00000  -3.14159
   D47        3.14159   0.00000   0.00000   0.00000   0.00000  -3.14159
   D48        0.00000  -0.00000  -0.00000  -0.00000  -0.00000   0.00000
   D49        0.00000  -0.00000  -0.00000  -0.00000  -0.00000  -0.00000
   D50       -3.14159  -0.00000   0.00000  -0.00000  -0.00000  -3.14159
   D51        3.14159   0.00000   0.00000   0.00000   0.00000   3.14159
   D52       -0.00000   0.00000   0.00000   0.00000   0.00000   0.00000
         Item               Value     Threshold  Converged?
 Maximum Force            0.017876     0.000450     NO 
 RMS     Force            0.005923     0.000300     NO 
 Maximum Displacement     0.352915     0.001800     NO 
 RMS     Displacement     0.059782     0.001200     NO 
 Predicted change in Energy=-5.130384D-03
 GradGradGradGradGradGradGradGradGradGradGradGradGradGradGradGradGradGrad

                          Input orientation:                          
 ---------------------------------------------------------------------
 Center     Atomic      Atomic             Coordinates (Angstroms)
 Number     Number       Type             X           Y           Z
 ---------------------------------------------------------------------
[...]
                 (A) (A) (A) (A) (A) (A) (A) (A) (A) (A) (A) (A)
                 (A) (A) (A) (A) (A) (A) (A) (A) (A) (A) (A) (A)
                 (A) (A) (A) (A) (A) (A) (A) (A) (A) (A) (A) (A)
                 (A) (A) (A) (A) (A) (A) (A) (A) (A) (A) (A) (A)
                 (A) (A) (A) (A) (A) (A) (A) (A) (A) (A) (A) (A)
                 (A) (A) (A) (A) (A) (A) (A) (A) (A) (A) (A) (A)
                 (A) (A) (A) (A) (A) (A) (A) (A) (A) (A) (A) (A)
                 (A) (A) (A) (A) (A) (A) (A) (A) (A) (A) (A) (A)
                 (A) (A) (A) (A) (A) (A) (A) (A) (A) (A) (A) (A)
                 (A) (A) (A) (A) (A) (A) (A) (A) (A) (A) (A) (A)
                 (A) (A) (A) (A) (A) (A) (A) (A) (A) (A) (A) (A)
                 (A) (A) (A) (A) (A) (A) (A) (A) (A) (A) (A) (A)
                 (A) (A) (A) (A) (A) (A) (A) (A) (A) (A) (A) (A)
                 (A) (A) (A) (A) (A) (A) (A) (A) (A) (A) (A) (A)
                 (A) (A) (A) (A) (A) (A) (A) (A) (A) (A) (A) (A)
                 (A) (A) (A) (A) (A) (A) (A) (A) (A) (A) (A) (A)
                 (A) (A) (A) (A) (A) (A) (A) (A) (A) (A) (A) (A)
                 (A) (A) (A) (A) (A) (A) (A) (A) (A) (A) (A) (A)
                 (A) (A) (A) (A) (A) (A) (A) (A) (A) (A) (A) (A)
                 (A) (A) (A) (A) (A) (A) (A) (A) (A) (A) (A) (A)
                 (A) (A) (A) (A) (A) (A) (A) (A) (A) (A) (A) (A)
                 (A) (A) (A) (A) (A) (A) (A) (A) (A) (A) (A) (A)
                 (A) (A) (A) (A) (A) (A) (A) (A) (A) (A) (A) (A)
                 (A) (A) (A) (A) (A) (A) (A) (A) (A) (A) (A) (A)
                 (A) (A) (A) (A) (A) (A) (A) (A) (A) (A) (A) (A)
                 (A) (A) (A) (A) (A) (A) (A) (A) (A) (A) (A) (A)
                 (A) (A) (A) (A)
 The electronic state is 1-A.
 Alpha  occ. eigenvalues -- -101.58137-101.58137-101.58000-101.58000-101.57057
 Alpha  occ. eigenvalues -- -101.57046 -10.28023 -10.28022 -10.27866 -10.27865
 Alpha  occ. eigenvalues --  -10.26570 -10.26504 -10.24457 -10.22875 -10.22451
 Alpha  occ. eigenvalues --  -10.21364 -10.21198 -10.20927  -9.49594  -9.49594
 Alpha  occ. eigenvalues --   -9.49471  -9.49471  -9.48515  -9.48505  -7.26086
 Alpha  occ. eigenvalues --   -7.26086  -7.25962  -7.25962  -7.25071  -7.25071
 Alpha  occ. eigenvalues --   -7.25011  -7.25011  -7.24996  -7.24987  -7.24955
 Alpha  occ. eigenvalues --   -7.24955  -7.24875  -7.24875  -7.23997  -7.23985
 Alpha  occ. eigenvalues --   -7.23939  -7.23928  -0.96194  -0.93426  -0.92301
 Alpha  occ. eigenvalues --   -0.89761  -0.87973  -0.87467  -0.86385  -0.84272
 Alpha  occ. eigenvalues --   -0.79634  -0.77031  -0.74809  -0.74479  -0.67213
 Alpha  occ. eigenvalues --   -0.64688  -0.62612  -0.61290  -0.55124  -0.55048
 Alpha  occ. eigenvalues --   -0.53142  -0.51842  -0.49758  -0.48359  -0.47210
 Alpha  occ. eigenvalues --   -0.46553  -0.46229  -0.45696  -0.43865  -0.43718
 Alpha  occ. eigenvalues --   -0.42628  -0.41088  -0.40238  -0.39990  -0.37767
 Alpha  occ. eigenvalues --   -0.36496  -0.36206  -0.35852  -0.35798  -0.34724
 Alpha  occ. eigenvalues --   -0.34232  -0.33461  -0.33204  -0.32688  -0.32239
 Alpha  occ. eigenvalues --   -0.28550  -0.28048  -0.26782  -0.26616
 Alpha virt. eigenvalues --   -0.06476  -0.06171  -0.05048  -0.04499  -0.04427
 Alpha virt. eigenvalues --   -0.02050  -0.01052  -0.00643   0.00309   0.01233
 Alpha virt. eigenvalues --    0.01783   0.02191   0.02553   0.02792   0.02955
 Alpha virt. eigenvalues --    0.04124   0.04540   0.05131   0.05652   0.05764
 Alpha virt. eigenvalues --    0.06295   0.06311   0.06909   0.07525   0.07835
 Alpha virt. eigenvalues --    0.07995   0.08179   0.08754   0.09167   0.09330
 Alpha virt. eigenvalues --    0.10294   0.10497   0.10717   0.10973   0.11686
 Alpha virt. eigenvalues --    0.11750   0.12008   0.12301   0.12492   0.12813
 Alpha virt. eigenvalues --    0.13830   0.14015   0.14088   0.14220   0.14417
 Alpha virt. eigenvalues --    0.14601   0.15226   0.15785   0.16386   0.16684
 Alpha virt. eigenvalues --    0.17183   0.17603   0.18339   0.18384   0.18777
 Alpha virt. eigenvalues --    0.18872   0.19275   0.19963   0.20015   0.20203
 Alpha virt. eigenvalues --    0.20227   0.20755   0.20954   0.21128   0.21867
 Alpha virt. eigenvalues --    0.22086   0.22525   0.23076   0.23782   0.23850
 Alpha virt. eigenvalues --    0.24014   0.24587   0.24945   0.25130   0.25689
 Alpha virt. eigenvalues --    0.25737   0.25848   0.26747   0.27512   0.28115
 Alpha virt. eigenvalues --    0.28281   0.28952   0.29089   0.29341   0.29500
 Alpha virt. eigenvalues --    0.29633   0.30048   0.30852   0.31736   0.31882
 Alpha virt. eigenvalues --    0.32443   0.33257   0.35722   0.36263   0.39498
 Alpha virt. eigenvalues --    0.42523   0.42758   0.43130   0.43326   0.43670
 Alpha virt. eigenvalues --    0.44347   0.45342   0.45535   0.45779   0.46048
 Alpha virt. eigenvalues --    0.46437   0.46750   0.47158   0.47685   0.48247
 Alpha virt. eigenvalues --    0.48249   0.48767   0.50397   0.51252   0.51481
 Alpha virt. eigenvalues --    0.52036   0.53948   0.54812   0.56244   0.56884
 Alpha virt. eigenvalues --    0.57422   0.57870   0.58192   0.59144   0.59551
 Alpha virt. eigenvalues --    0.59873   0.59927   0.61418   0.61453   0.62270
 Alpha virt. eigenvalues --    0.63540   0.64027   0.65375   0.65521   0.65646
 Alpha virt. eigenvalues --    0.66339   0.67336   0.68864   0.69335   0.69385
 Alpha virt. eigenvalues --    0.69844   0.69981   0.71095   0.73458   0.75106
 Alpha virt. eigenvalues --    0.78283   0.79372   0.80504   0.80908   0.82393
 Alpha virt. eigenvalues --    0.82900   0.83096   0.83511   0.83512   0.83645
 Alpha virt. eigenvalues --    0.84198   0.84451   0.85014   0.85044   0.85227
 Alpha virt. eigenvalues --    0.85557   0.85846   0.85991   0.86386   0.86879
 Alpha virt. eigenvalues --    0.87289   0.87779   0.88545   0.89614   0.90191
 Alpha virt. eigenvalues --    0.91492   0.92437   0.92635   0.93127   0.94303
 Alpha virt. eigenvalues --    0.94428   0.94580   0.94700   0.95315   0.96000
 Alpha virt. eigenvalues --    0.96084   0.97317   0.97653   0.98357   0.98753
 Alpha virt. eigenvalues --    0.99573   1.01212   1.02338   1.02910   1.05657
 Alpha virt. eigenvalues --    1.07026   1.07600   1.09450   1.10665   1.14182
 Alpha virt. eigenvalues --    1.16245   1.16647   1.17768   1.21061   1.22670
 Alpha virt. eigenvalues --    1.23260   1.24779   1.25631   1.25893   1.27707
 Alpha virt. eigenvalues --    1.27712   1.28353   1.28844   1.29090   1.29607
 Alpha virt. eigenvalues --    1.32414   1.33849   1.36318   1.38098   1.39280
 Alpha virt. eigenvalues --    1.43073   1.43076   1.47483   1.49617   1.52316
 Alpha virt. eigenvalues --    1.55020   1.55238   1.56920   1.57480   1.59195
 Alpha virt. eigenvalues --    1.61342   1.61878   1.66987   1.67303   1.69210
 Alpha virt. eigenvalues --    1.69304   1.72746   1.74070   1.74526   1.74971
 Alpha virt. eigenvalues --    1.79142   1.80458   1.81673   1.81705   1.84602
 Alpha virt. eigenvalues --    1.87496   1.88450   1.89116   1.92496   1.93897
 Alpha virt. eigenvalues --    1.94817   1.95837   1.96724   1.98030   2.01382
 Alpha virt. eigenvalues --    2.01733   2.02863   2.08925   2.10631   2.11776
 Alpha virt. eigenvalues --    2.13671   2.13868   2.18826   2.22904   2.23126
 Alpha virt. eigenvalues --    2.24070   2.24662   2.24679   2.26831   2.27588
 Alpha virt. eigenvalues --    2.28092   2.29367   2.31121   2.33929   2.34769
 Alpha virt. eigenvalues --    2.36242   2.38696   2.39793   2.41021   2.42318
 Alpha virt. eigenvalues --    2.44863   2.45879   2.46709   2.50397   2.51600
 Alpha virt. eigenvalues --    2.53036   2.54072   2.54582   2.56464   2.58655
 Alpha virt. eigenvalues --    2.60959   2.61630   2.64485   2.66372   2.67377
 Alpha virt. eigenvalues --    2.69712   2.69776   2.71645   2.73612   2.73631
 Alpha virt. eigenvalues --    2.74676   2.75551   2.77768   2.82561   2.83003
 Alpha virt. eigenvalues --    2.83349   2.84248   2.87667   2.89921   2.96479
 Alpha virt. eigenvalues --    2.98817   3.05447   3.08237   3.09128   3.11703
 Alpha virt. eigenvalues --    3.12396   3.13568   3.14194   3.18728   3.22663
 Alpha virt. eigenvalues --    3.24817   3.27330   3.32932   3.36793   3.43921
 Alpha virt. eigenvalues --    3.51520   3.52032   3.57701   3.68929   3.77312
 Alpha virt. eigenvalues --    3.78309   3.86069   3.89077   3.99985   4.06764
 Alpha virt. eigenvalues --    4.12059   4.31526   4.79941   4.81829   9.75595
 Alpha virt. eigenvalues --    9.76574   9.77943   9.79919   9.80830   9.83842
 Alpha virt. eigenvalues --   23.33270  23.52952  23.78387  23.85638  23.88978
 Alpha virt. eigenvalues --   23.89522  23.93233  23.95106  24.02350  24.06432
 Alpha virt. eigenvalues --   24.08056  24.15471  25.78520  25.78772  25.80075
 Alpha virt. eigenvalues --   25.86522  25.87715  25.93003  26.07887  26.11510
 Alpha virt. eigenvalues --   26.15687  26.18479  26.24833  26.35164  26.51510
 Alpha virt. eigenvalues --   26.52101  26.58875  26.75171  26.78748  26.96391
 Alpha virt. eigenvalues --  215.74849 215.75626 215.77341 215.79453 215.80764
 Alpha virt. eigenvalues --  215.84545
          Condensed to atoms (all electrons):
               1          2          3          4          5          6
     1  C   41.615495   3.325050  -4.765634  -3.157891 -14.115033  13.385569
     2  C    3.325050  28.965082  -4.507767   1.048556  -4.681629  -6.858285
     3  C   -4.765634  -4.507767  34.621809  -7.920781  -3.241296 -17.045158
     4  C   -3.157891   1.048556  -7.920781  34.234862  -4.990556  -5.739730
     5  C  -14.115033  -4.681629  -3.241296  -4.990556  43.893588 -26.610214
     6  C   13.385569  -6.858285 -17.045158  -5.739730 -26.610214  76.107187
     7  C   -4.102873  -3.745504   6.750432  -4.375388  10.811432 -17.985580
     8  C   -8.208118  -3.188227   0.937340  -0.925878   2.562751  -3.768535
     9  C   -3.131250  -0.609316   0.225607  -0.063526  -0.421034  -0.016748
    10  C   -1.473858  -0.006850  -0.147409  -0.003744  -0.170326   0.576661
    11  C   -3.145815  -0.611977   0.226271  -0.063841  -0.420243  -0.015162
    12  C   -8.183111  -3.186450   0.935966  -0.925126   2.560467  -3.766704
    13  H    0.016543   0.178953  -0.002397  -0.050089  -0.010136   0.000099
    14  H    0.027388  -0.026584   0.233239   0.087132   0.049603  -0.018924
    15  H   -0.021298   0.013465   0.009519  -0.004267   0.122384  -0.072907
    16  H    0.029597   0.000713  -0.000087   0.000085  -0.000433  -0.000491
    17  Cl  -0.865037   0.050353   0.348648  -0.142315   0.801855  -0.930578
    18  Cl  -0.168266  -0.038174   0.010778  -0.007259   0.028883  -0.041896
    19  Cl  -0.371774   0.290849   0.676741   0.016020  -1.440357   0.230489
    20  Cl  -0.191858   0.310943  -0.531217  -1.311806   0.251250   0.998906
    21  Cl  -0.168055  -0.038067   0.010807  -0.007258   0.028840  -0.042007
    22  Cl  -0.868488   0.049977   0.348040  -0.142396   0.801622  -0.929151
               7          8          9         10         11         12
     1  C   -4.102873  -8.208118  -3.131250  -1.473858  -3.145815  -8.183111
     2  C   -3.745504  -3.188227  -0.609316  -0.006850  -0.611977  -3.186450
     3  C    6.750432   0.937340   0.225607  -0.147409   0.226271   0.935966
     4  C   -4.375388  -0.925878  -0.063526  -0.003744  -0.063841  -0.925126
     5  C   10.811432   2.562751  -0.421034  -0.170326  -0.420243   2.560467
     6  C  -17.985580  -3.768535  -0.016748   0.576661  -0.015162  -3.766704
     7  C   27.506982  -2.485674  -2.708036   2.040585  -2.711879  -2.478703
     8  C   -2.485674  49.462586 -14.897172  -9.838408   8.930853 -11.930135
     9  C   -2.708036 -14.897172  28.384277   0.966337  -9.960674   8.921692
    10  C    2.040585  -9.838408   0.966337  23.477699   0.969618  -9.834049
    11  C   -2.711879   8.930853  -9.960674   0.969618  28.392751 -14.903983
    12  C   -2.478703 -11.930135   8.921692  -9.834049 -14.903983  49.450713
    13  H    0.064580   0.069791   0.010616   0.003137   0.010615   0.069778
    14  H   -0.005124   0.003716   0.000250   0.000259   0.000249   0.003716
    15  H    0.138865   0.081781   0.006731   0.009411   0.006721   0.081751
    16  H    0.087618   0.092775   0.024653   0.001261   0.024460   0.092737
    17  Cl   0.245460  -0.979982   0.963603   0.247218  -1.386082   0.037664
    18  Cl  -0.481618   0.557607  -0.322443  -0.271746  -0.330802   0.473909
    19  Cl  -0.087805  -0.053726  -0.006169  -0.005494  -0.006197  -0.053660
    20  Cl  -0.185867  -0.055344  -0.004707  -0.005543  -0.004667  -0.055349
    21  Cl  -0.481363   0.474617  -0.331519  -0.272043  -0.322359   0.557267
    22  Cl   0.244199   0.042952  -1.386725   0.247767   0.965031  -0.981298
              13         14         15         16         17         18
     1  C    0.016543   0.027388  -0.021298   0.029597  -0.865037  -0.168266
     2  C    0.178953  -0.026584   0.013465   0.000713   0.050353  -0.038174
     3  C   -0.002397   0.233239   0.009519  -0.000087   0.348648   0.010778
     4  C   -0.050089   0.087132  -0.004267   0.000085  -0.142315  -0.007259
     5  C   -0.010136   0.049603   0.122384  -0.000433   0.801855   0.028883
     6  C    0.000099  -0.018924  -0.072907  -0.000491  -0.930578  -0.041896
     7  C    0.064580  -0.005124   0.138865   0.087618   0.245460  -0.481618
     8  C    0.069791   0.003716   0.081781   0.092775  -0.979982   0.557607
     9  C    0.010616   0.000250   0.006731   0.024653   0.963603  -0.322443
    10  C    0.003137   0.000259   0.009411   0.001261   0.247218  -0.271746
    11  C    0.010615   0.000249   0.006721   0.024460  -1.386082  -0.330802
    12  C    0.069778   0.003716   0.081751   0.092737   0.037664   0.473909
    13  H    0.532177  -0.006933  -0.000003  -0.000002  -0.007373   0.000263
    14  H   -0.006933   0.508653   0.000055  -0.000000  -0.001489  -0.000002
    15  H   -0.000003   0.000055   0.514695  -0.000003  -0.007134   0.000261
    16  H   -0.000002  -0.000000  -0.000003   0.489500  -0.001317  -0.006312
    17  Cl  -0.007373  -0.001489  -0.007134  -0.001317  18.368753  -0.250766
    18  Cl   0.000263  -0.000002   0.000261  -0.006312  -0.250766  17.377838
    19  Cl  -0.000240  -0.000103  -0.014331  -0.000000   0.001047   0.000129
    20  Cl  -0.001755  -0.010498  -0.002113   0.000000   0.007053   0.000013
    21  Cl   0.000263  -0.000002   0.000261  -0.006308   0.011499  -0.030864
    22  Cl  -0.007352  -0.001485  -0.007106  -0.001321  -0.129674   0.011504
              19         20         21         22
     1  C   -0.371774  -0.191858  -0.168055  -0.868488
     2  C    0.290849   0.310943  -0.038067   0.049977
     3  C    0.676741  -0.531217   0.010807   0.348040
     4  C    0.016020  -1.311806  -0.007258  -0.142396
     5  C   -1.440357   0.251250   0.028840   0.801622
     6  C    0.230489   0.998906  -0.042007  -0.929151
     7  C   -0.087805  -0.185867  -0.481363   0.244199
     8  C   -0.053726  -0.055344   0.474617   0.042952
     9  C   -0.006169  -0.004707  -0.331519  -1.386725
    10  C   -0.005494  -0.005543  -0.272043   0.247767
    11  C   -0.006197  -0.004667  -0.322359   0.965031
    12  C   -0.053660  -0.055349   0.557267  -0.981298
    13  H   -0.000240  -0.001755   0.000263  -0.007352
    14  H   -0.000103  -0.010498  -0.000002  -0.001485
    15  H   -0.014331  -0.002113   0.000261  -0.007106
    16  H   -0.000000   0.000000  -0.006308  -0.001321
    17  Cl   0.001047   0.007053   0.011499  -0.129674
    18  Cl   0.000129   0.000013  -0.030864   0.011504
    19  Cl  17.496641  -0.186908   0.000127   0.001066
    20  Cl  -0.186908  17.485517   0.000014   0.007045
    21  Cl   0.000127   0.000014  17.377799  -0.250681
    22  Cl   0.001066   0.007045  -0.250681  18.367972
 Mulliken charges:
               1
     1  C    0.538718
     2  C   -0.735112
     3  C   -1.173450
     4  C    0.445195
     5  C    0.188580
     6  C   -1.456841
     7  C   -0.054737
     8  C   -0.885568
     9  C    0.355553
    10  C   -0.510483
    11  C    0.357110
    12  C   -0.887092
    13  H    0.129467
    14  H    0.156885
    15  H    0.143263
    16  H    0.172876
    17  Cl   0.618596
    18  Cl   0.488963
    19  Cl   0.513655
    20  Cl   0.486890
    21  Cl   0.489030
    22  Cl   0.618504
 Sum of Mulliken charges =  -0.00000
 Mulliken charges with hydrogens summed into heavy atoms:
               1
     1  C    0.538718
     2  C   -0.605645
     3  C   -1.016565
     4  C    0.445195
     5  C    0.188580
     6  C   -1.313578
     7  C   -0.054737
     8  C   -0.885568
     9  C    0.355553
    10  C   -0.337607
    11  C    0.357110
    12  C   -0.887092
    17  Cl   0.618596
    18  Cl   0.488963
    19  Cl   0.513655
    20  Cl   0.486890
    21  Cl   0.489030
    22  Cl   0.618504
 Electronic spatial extent (au):  <R**2>=           8679.2398
 Charge=             -0.0000 electrons
 Dipole moment (field-independent basis, Debye):
    X=              1.6801    Y=              0.0002    Z=             -1.0769  Tot=              1.9956
 Quadrupole moment (field-independent basis, Debye-Ang):
   XX=           -148.2995   YY=           -149.8706   ZZ=           -139.9729
   XY=              0.0012   XZ=              3.6060   YZ=              0.0003
 Traceless Quadrupole moment (field-independent basis, Debye-Ang):
   XX=             -2.2518   YY=             -3.8229   ZZ=              6.0748
   XY=              0.0012   XZ=              3.6060   YZ=              0.0003
 Octapole moment (field-independent basis, Debye-Ang**2):
  XXX=             58.7467  YYY=             -0.0006  ZZZ=             -4.8120  XYY=             -5.8963
  XXY=              0.0138  XXZ=             -3.6720  XZZ=            -11.8632  YZZ=             -0.0008
  YYZ=              3.5321  XYZ=              0.0017
 Hexadecapole moment (field-independent basis, Debye-Ang**3):
 XXXX=          -7910.8954 YYYY=          -2496.5978 ZZZZ=           -807.4025 XXXY=             -0.0030
 XXXZ=             22.2784 YYYX=             -0.0297 YYYZ=             -0.0069 ZZZX=             -0.3567
 ZZZY=             -0.0000 XXYY=          -1769.0169 XXZZ=          -1458.6820 YYZZ=           -588.3025
 XXYZ=              0.0068 YYXZ=             -2.8265 ZZXY=             -0.0023
 N-N= 1.999752854534D+03 E-N=-1.162844237429D+04  KE= 3.212685951480D+03
 1\1\GINC-LOCALHOST\FOpt\RB3LYP\6-311+G(d,p)\C12H4Cl6\GOUR\17-Mar-2022\
 0\\# opt b3lyp/6-311+g(d,p) scf=xqc\\Title Card Required\\0,1\C,0.5070
 047458,0.2709955165,0.0337820266\C,1.759414175,0.3479916377,0.64653410
 85\C,2.459141518,1.5476835314,0.6613530085\C,1.9193394245,2.6859947561
 ,0.0655199896\C,0.6659701622,2.6142314846,-0.5491627557\C,-0.032881838
 3,1.4092881324,-0.5620655906\C,-0.2530576654,-1.0159430494,0.013290891
 3\C,-0.0868841118,-1.9289372065,-1.0405593222\C,-0.7980370869,-3.13379
 89795,-1.0540107819\C,-1.6762844965,-3.4355384812,-0.0216210438\C,-1.8
 527207219,-2.5434787152,1.0278427197\C,-1.1453434925,-1.3365511612,1.0
 491508283\H,2.1909765098,-0.5290636506,1.1135424847\H,3.4302004977,1.6
 120548853,1.1351507283\H,-1.0022962914,1.3706437047,-1.042259047\H,-2.
 2244527091,-4.3672460801,-0.0351259754\Cl,-1.3665226197,-0.2165615523,
 2.3668147332\Cl,-2.968207191,-2.9733289015,2.2971172879\Cl,-0.05791253
 23,4.0089013133,-1.3109303025\Cl,2.8323726239,4.173382943,0.1070421921
 \Cl,-0.6155739129,-4.2900972331,-2.3462163261\Cl,1.0153296127,-1.54977
 81043,-2.3370776332\\Version=EM64L-G16RevB.01\State=1-A\HF=-3221.13103
 53\RMSD=3.478e-09\RMSF=1.223e-05\Dipole=0.0548937,-0.7457926,0.239125\
 Quadrupole=3.7914261,-2.6832344,-1.1081916,-0.0646446,3.3786967,-0.078
 6712\PG=C01 [X(C12H4Cl6)]\\@


 WHEN YOU'VE SEEN ONE NUCLEAR WAR YOU'VE SEEN THEM ALL.
 Job cpu time:       0 days 13 hours 28 minutes 33.6 seconds.
 Elapsed time:       0 days  3 hours 22 minutes 43.2 seconds.
 File lengths (MBytes):  RWF=    134 Int=      0 D2E=      0 Chk=     21 Scr=      1
 Normal termination of Gaussian 16 at Thu Mar 17 14:46:10 2022.
